<event>
 9    1  0.2802611E-005  0.1022320E+03  0.7546771E-02  0.1279746E+00
         -2   -1    0    0    0  501 -0.00000000000E+00  0.00000000000E+00  0.20702316216E+03  0.20702316216E+03  0.00000000000E+00 0.  1.
          1   -1    0    0  502    0  0.00000000000E+00 -0.00000000000E+00 -0.79819872970E+02  0.79819872970E+02  0.00000000000E+00 0. -1.
        -24    2    1    2    0    0  0.59910775447E+02 -0.91396158982E+01  0.72520531506E+02  0.12427665436E+03  0.80700840984E+02 0.  0.
         23    2    1    2    0    0 -0.40873127332E+02 -0.24684192948E+02  0.79175978617E+01  0.10179251909E+03  0.89549464918E+02 0.  0.
         11    1    3    3    0    0  0.40489472207E+01 -0.27464270698E+02 -0.37113271888E+01  0.28008107542E+02  0.00000000000E+00 0. -1.
        -12    1    3    3    0    0  0.55861828226E+02  0.18324654800E+02  0.76231858695E+02  0.96268546818E+02  0.00000000000E+00 0.  1.
        -13    1    4    4    0    0 -0.19008934070E+02 -0.54806524230E+02 -0.12497654049E+02  0.59340424918E+02  0.00000000000E+00 0. -1.
         13    1    4    4    0    0 -0.21864193263E+02  0.30122331283E+02  0.20415251911E+02  0.42452094171E+02  0.00000000000E+00 0.  1.
         21    1    1    2  502  501 -0.19037648114E+02  0.33823808846E+02  0.46765159827E+02  0.60773861686E+02  0.00000000000E+00 0. -1.
<scales pt_clust_5="13000.00000" pt_clust_6="13000.00000" pt_clust_7="13000.00000" pt_clust_8="13000.00000" pt_clust_9="38.81343"></scales>
<clustering>
<clus scale="   38.813">  1  9  2 -1</clus>
<clus scale="   80.701">  5  6 -1 -1</clus>
<clus scale="   89.549">  7  8 -1 -1</clus>
<clus scale="   94.578">  1  5  2 -1</clus>
<clus scale="  102.232">  2  5  1 -1</clus>
</clustering>
</event>
<event>
 9    1  0.2802611E-005  0.1012923E+03  0.7546771E-02  0.1287247E+00
         -2   -1    0    0    0  501 -0.00000000000E+00  0.00000000000E+00  0.20757404512E+03  0.20757404512E+03  0.00000000000E+00 0.  1.
          1   -1    0    0  502    0  0.00000000000E+00 -0.00000000000E+00 -0.19756032493E+03  0.19756032493E+03  0.00000000000E+00 0. -1.
         23    2    1    2    0    0  0.67476090453E+02  0.23850001751E+02  0.11300994801E+03  0.16152092518E+03  0.90531295997E+02 0.  0.
        -24    2    1    2    0    0 -0.42917371579E+02 -0.74065039498E+01 -0.15942883246E+03  0.17990977026E+03  0.71085974229E+02 0.  0.
         11    1    4    4    0    0 -0.22113422794E+02  0.21523971801E+02 -0.13024350113E+03  0.13384937212E+03  0.00000000000E+00 0. -1.
        -12    1    4    4    0    0 -0.20803948785E+02 -0.28930475751E+02 -0.29185331326E+02  0.46060398140E+02  0.00000000000E+00 0.  1.
        -13    1    3    3    0    0  0.49090483592E+02 -0.30657984174E+02  0.56616254064E+02  0.80964114255E+02  0.00000000000E+00 0. -1.
         13    1    3    3    0    0  0.18385606861E+02  0.54507985925E+02  0.56393693942E+02  0.80556810921E+02  0.00000000000E+00 0.  1.
         21    1    1    2  502  501 -0.24558718874E+02 -0.16443497801E+02  0.56432604641E+02  0.63703674613E+02  0.00000000000E+00 0. -1.
<scales pt_clust_5="13000.00000" pt_clust_6="13000.00000" pt_clust_7="13000.00000" pt_clust_8="13000.00000" pt_clust_9="29.55536"></scales>
<clustering>
<clus scale="   29.555">  1  9  2 -1</clus>
<clus scale="   71.086">  5  6 -1 -1</clus>
<clus scale="   84.365">  2  5  1 -1</clus>
<clus scale="   90.531">  7  8 -1 -1</clus>
<clus scale="   84.365">  2  5  1 -1</clus>
</clustering>
</event>
<event>
 9    1  0.2802611E-005  0.1331334E+03  0.7546771E-02  0.1225829E+00
         -2   -1    0    0    0  501 -0.00000000000E+00  0.00000000000E+00  0.10589843444E+03  0.10589843444E+03  0.00000000000E+00 0.  1.
          1   -1    0    0  502    0  0.00000000000E+00 -0.00000000000E+00 -0.20793249982E+03  0.20793249982E+03  0.00000000000E+00 0. -1.
        -24    2    1    2    0    0  0.75033023935E+02  0.44263744050E+02 -0.15863714989E+02  0.11984482789E+03  0.80758229304E+02 0.  0.
         23    2    1    2    0    0 -0.98348996883E+02 -0.30076319846E+02 -0.91871593009E+02  0.16610382226E+03  0.92590388084E+02 0.  0.
         13    1    3    3    0    0  0.37308278298E+02 -0.32441547612E+01 -0.39782091140E+02  0.54635583141E+02  0.00000000000E+00 0. -1.
        -14    1    3    3    0    0  0.37724745636E+02  0.47507898812E+02  0.23918376151E+02  0.65209244747E+02  0.00000000000E+00 0.  1.
        -13    1    4    4    0    0 -0.41392498842E+02 -0.32146766727E+02  0.60969225591E+01  0.52762922930E+02  0.00000000000E+00 0.  1.
         13    1    4    4    0    0 -0.56956498041E+02  0.20704468810E+01 -0.97968515568E+02  0.11334089933E+03  0.00000000000E+00 0. -1.
         21    1    1    2  502  501  0.23315972948E+02 -0.14187424204E+02  0.57012426184E+01  0.27882284115E+02  0.00000000000E+00 0.  1.
<scales pt_clust_5="13000.00000" pt_clust_6="13000.00000" pt_clust_7="13000.00000" pt_clust_8="13000.00000" pt_clust_9="27.29318"></scales>
<clustering>
<clus scale="   27.293">  1  9  2 -1</clus>
<clus scale="   80.758">  5  6 -1 -1</clus>
<clus scale="   92.590">  7  8 -1 -1</clus>
<clus scale="  125.193">  1  5  2 -1</clus>
<clus scale="  133.133">  2  5  1 -1</clus>
</clustering>
</event>
<event>
 9    1  0.2802611E-005  0.1150623E+03  0.7546771E-02  0.1254210E+00
         -2   -1    0    0    0  501 -0.00000000000E+00  0.00000000000E+00  0.94660501357E+02  0.94660501357E+02  0.00000000000E+00 0.  1.
          1   -1    0    0  502    0  0.00000000000E+00 -0.00000000000E+00 -0.32077988606E+03  0.32077988606E+03  0.00000000000E+00 0. -1.
        -24    2    1    2    0    0 -0.49165511288E+01  0.56502600390E+02 -0.45365721528E+02  0.10845469629E+03  0.80545987681E+02 0.  0.
         23    2    1    2    0    0  0.15168801378E+02 -0.80026830143E+02 -0.22537995536E+03  0.25550750181E+03  0.88620387760E+02 0.  0.
         11    1    3    3    0    0  0.26356069006E+02  0.58931202583E+01  0.83835126826E+01  0.28278163391E+02  0.00000000000E+00 0. -1.
        -12    1    3    3    0    0 -0.31272620135E+02  0.50609480131E+02 -0.53749234211E+02  0.80176532898E+02  0.00000000000E+00 0.  1.
        -13    1    4    4    0    0  0.16358980068E+02  0.15706773036E+02 -0.63576860742E+02  0.67500638293E+02  0.00000000000E+00 0.  1.
         13    1    4    4    0    0 -0.11901786897E+01 -0.95733603179E+02 -0.16180309462E+03  0.18800686352E+03  0.00000000000E+00 0. -1.
         21    1    1    2  502  501 -0.10252250249E+02  0.23524229753E+02  0.44626292187E+02  0.51478189314E+02  0.00000000000E+00 0.  1.
<scales pt_clust_5="13000.00000" pt_clust_6="13000.00000" pt_clust_7="13000.00000" pt_clust_8="13000.00000" pt_clust_9="25.66122"></scales>
<clustering>
<clus scale="   25.661">  1  9  2 -1</clus>
<clus scale="   80.546">  5  6 -1 -1</clus>
<clus scale="   88.620">  7  8 -1 -1</clus>
<clus scale="  108.965">  1  5  2 -1</clus>
<clus scale="  115.062">  2  5  1 -1</clus>
</clustering>
</event>
<event>
 9    1  0.2802611E-005  0.1225349E+03  0.7546771E-02  0.1241142E+00
         -2   -1    0    0    0  501 -0.00000000000E+00  0.00000000000E+00  0.74367132776E+02  0.74367132776E+02  0.00000000000E+00 0.  1.
          1   -1    0    0  502    0  0.00000000000E+00 -0.00000000000E+00 -0.36903939049E+03  0.36903939049E+03  0.00000000000E+00 0. -1.
        -24    2    1    2    0    0 -0.23669240255E+01 -0.70081996650E+02 -0.14945422562E+02  0.11024790175E+03  0.83750496118E+02 0.  0.
         23    2    1    2    0    0  0.20468202060E+02  0.83216707917E+02 -0.28408958108E+03  0.31037243143E+03  0.90995540224E+02 0.  0.
         13    1    3    3    0    0  0.91776150668E+01 -0.43267143553E+02 -0.48587908935E+02  0.65704331853E+02  0.00000000000E+00 0. -1.
        -14    1    3    3    0    0 -0.11544539092E+02 -0.26814853097E+02  0.33642486373E+02  0.44543569893E+02  0.00000000000E+00 0.  1.
        -13    1    4    4    0    0 -0.27445962356E+02  0.54417956768E+00 -0.89023849124E+02  0.93160199087E+02  0.00000000000E+00 0.  1.
         13    1    4    4    0    0  0.47914164417E+02  0.82672528349E+02 -0.19506573196E+03  0.21721223235E+03  0.00000000000E+00 0. -1.
         21    1    1    2  502  501 -0.18101278035E+02 -0.13134711267E+02  0.43627459344E+01  0.22786190086E+02  0.00000000000E+00 0. -1.
<scales pt_clust_5="13000.00000" pt_clust_6="13000.00000" pt_clust_7="13000.00000" pt_clust_8="13000.00000" pt_clust_9="22.36464"></scales>
<clustering>
<clus scale="   22.365">  1  9  2 -1</clus>
<clus scale="   83.750">  5  6 -1 -1</clus>
<clus scale="   90.996">  7  8 -1 -1</clus>
<clus scale="  117.255">  1  5  2 -1</clus>
<clus scale="  122.535">  2  5  1 -1</clus>
</clustering>
</event>
<event>
 9    1  0.2802611E-005  0.1067328E+03  0.7546771E-02  0.1271606E+00
         -2   -1    0    0    0  501 -0.00000000000E+00  0.00000000000E+00  0.14307337130E+03  0.14307337130E+03  0.00000000000E+00 0.  1.
          1   -1    0    0  502    0  0.00000000000E+00 -0.00000000000E+00 -0.19600299213E+03  0.19600299213E+03  0.00000000000E+00 0. -1.
        -24    2    1    2    0    0 -0.12939149980E+01  0.57893186079E+01  0.56678402313E+02  0.97449046302E+02  0.79048623710E+02 0.  0.
         23    2    1    2    0    0 -0.71656533925E+02 -0.17915869392E+02 -0.11933916436E+03  0.16703833442E+03  0.90577766517E+02 0.  0.
         11    1    3    3    0    0  0.26501705979E+02 -0.25898303792E+02  0.28489000711E+02  0.46740621740E+02  0.00000000000E+00 0. -1.
        -12    1    3    3    0    0 -0.27795620977E+02  0.31687622400E+02  0.28189401602E+02  0.50708424562E+02  0.00000000000E+00 0.  1.
        -13    1    4    4    0    0 -0.62486042542E+00 -0.28662357193E+02 -0.80325552886E+02  0.85288426042E+02  0.00000000000E+00 0. -1.
         13    1    4    4    0    0 -0.71031673499E+02  0.10746487801E+02 -0.39013611471E+02  0.81749908380E+02  0.00000000000E+00 0.  1.
         21    1    1    2  502  501  0.72950448923E+02  0.12126550784E+02  0.97311412105E+01  0.74588982707E+02  0.00000000000E+00 0. -1.
<scales pt_clust_5="13000.00000" pt_clust_6="13000.00000" pt_clust_7="13000.00000" pt_clust_8="13000.00000" pt_clust_9="73.95148"></scales>
<clustering>
<clus scale="   73.951">  1  9  2 -1</clus>
<clus scale="   79.049">  5  6 -1 -1</clus>
<clus scale="   90.578">  7  8 -1 -1</clus>
<clus scale="   97.140">  1  5  2 -1</clus>
<clus scale="  106.733">  2  5  1 -1</clus>
</clustering>
</event>
<event>
 9    1  0.2802611E-005  0.9326959E+02  0.7546771E-02  0.1299268E+00
          1   -1    0    0  502    0  0.00000000000E+00  0.00000000000E+00  0.15562054018E+03  0.15562054018E+03  0.00000000000E+00 0. -1.
         -2   -1    0    0    0  501 -0.00000000000E+00 -0.00000000000E+00 -0.12412399164E+03  0.12412399164E+03  0.00000000000E+00 0.  1.
         23    2    1    2    0    0 -0.14859683278E+02  0.99126446335E+01 -0.25547452717E+02  0.96561617249E+02  0.91391481412E+02 0.  0.
        -24    2    1    2    0    0  0.18054275201E+02  0.11026015433E+02  0.10167042414E+03  0.13378503483E+03  0.84344712516E+02 0.  0.
         13    1    4    4    0    0  0.34675202011E+01 -0.28354402159E+02  0.58395347965E+01  0.29156405553E+02  0.00000000000E+00 0. -1.
        -14    1    4    4    0    0  0.14586755000E+02  0.39380417592E+02  0.95830889348E+02  0.10462862928E+03  0.00000000000E+00 0.  1.
        -13    1    3    3    0    0  0.22852861200E+02 -0.30108462318E+02 -0.14423697487E+02  0.40457580469E+02  0.00000000000E+00 0.  1.
         13    1    3    3    0    0 -0.37712544478E+02  0.40021106952E+02 -0.11123755230E+02  0.56104036780E+02  0.00000000000E+00 0. -1.
         21    1    1    2  502  501 -0.31945919225E+01 -0.20938660066E+02 -0.44626422892E+02  0.49397879743E+02  0.00000000000E+00 0.  1.
<scales pt_clust_5="13000.00000" pt_clust_6="13000.00000" pt_clust_7="13000.00000" pt_clust_8="13000.00000" pt_clust_9="21.18096"></scales>
<clustering>
<clus scale="   21.181">  2  9  1 -1</clus>
<clus scale="   84.345">  5  6 -1 -1</clus>
<clus scale="   86.376">  1  5  2 -1</clus>
<clus scale="   91.391">  7  8 -1 -1</clus>
<clus scale="   86.376">  1  5  2 -1</clus>
</clustering>
</event>
<event>
 9    1  0.2802611E-005  0.1125539E+03  0.7546771E-02  0.1258427E+00
          1   -1    0    0  502    0  0.00000000000E+00  0.00000000000E+00  0.96833457916E+02  0.96833457916E+02  0.00000000000E+00 0. -1.
         -2   -1    0    0    0  501 -0.00000000000E+00 -0.00000000000E+00 -0.23942435738E+03  0.23942435738E+03  0.00000000000E+00 0.  1.
        -24    2    1    2    0    0 -0.52216660446E+02 -0.84085173412E+01 -0.11121757862E+03  0.14723684967E+03  0.80697319136E+02 0.  0.
         23    2    1    2    0    0  0.73164258911E+02  0.22654755391E+02  0.31951670145E+02  0.12081677467E+03  0.87803969683E+02 0.  0.
         13    1    3    3    0    0 -0.51742469992E+02 -0.21415099240E+01 -0.19549981848E+02  0.55354051847E+02  0.00000000000E+00 0. -1.
        -14    1    3    3    0    0 -0.47419045455E+00 -0.62670074172E+01 -0.91667596772E+02  0.91882797827E+02  0.00000000000E+00 0.  1.
        -11    1    4    4    0    0  0.61148877817E+02  0.45971023454E+02 -0.36581924368E+01  0.76589180879E+02  0.00000000000E+00 0. -1.
         11    1    4    4    0    0  0.12015381093E+02 -0.23316268063E+02  0.35609862582E+02  0.44227593789E+02  0.00000000000E+00 0.  1.
         21    1    1    2  502  501 -0.20947598464E+02 -0.14246238050E+02 -0.63324990986E+02  0.68204190952E+02  0.00000000000E+00 0. -1.
<scales pt_clust_5="13000.00000" pt_clust_6="13000.00000" pt_clust_7="13000.00000" pt_clust_8="13000.00000" pt_clust_9="25.33293"></scales>
<clustering>
<clus scale="   25.333">  2  9  1 -1</clus>
<clus scale="   80.697">  5  6 -1 -1</clus>
<clus scale="   87.804">  7  8 -1 -1</clus>
<clus scale="  107.102">  2  5  1 -1</clus>
<clus scale="  112.554">  1  5  2 -1</clus>
</clustering>
</event>
<event>
 9    1  0.2802611E-005  0.1809293E+03  0.7546771E-02  0.1167970E+00
          1   -1    0    0  502    0  0.00000000000E+00  0.00000000000E+00  0.65168489002E+02  0.65168489002E+02  0.00000000000E+00 0. -1.
         -2   -1    0    0    0  501 -0.00000000000E+00 -0.00000000000E+00 -0.66386524808E+03  0.66386524808E+03  0.00000000000E+00 0.  1.
        -24    2    1    2    0    0  0.70475153785E+02  0.15044010600E+03 -0.23278349241E+03  0.29716810706E+03  0.80757394234E+02 0.  0.
         23    2    1    2    0    0 -0.53649206162E+02 -0.13914581284E+03 -0.20196341281E+03  0.26666808721E+03  0.89904694354E+02 0.  0.
         11    1    3    3    0    0  0.38000241756E+02  0.57125742245E+02 -0.37203737526E+02  0.78047978106E+02  0.00000000000E+00 0. -1.
        -12    1    3    3    0    0  0.32474912029E+02  0.93314363753E+02 -0.19557975488E+03  0.21912012896E+03  0.00000000000E+00 0.  1.
        -11    1    4    4    0    0 -0.78552975361E+02 -0.94846505058E+02 -0.14812559241E+03  0.19263338388E+03  0.00000000000E+00 0.  1.
         11    1    4    4    0    0  0.24903769200E+02 -0.44299307785E+02 -0.53837820398E+02  0.74034703321E+02  0.00000000000E+00 0. -1.
         21    1    1    2  502  501 -0.16825947623E+02 -0.11294293155E+02 -0.16394985386E+03  0.16519754281E+03  0.00000000000E+00 0. -1.
<scales pt_clust_5="13000.00000" pt_clust_6="13000.00000" pt_clust_7="13000.00000" pt_clust_8="13000.00000" pt_clust_9="20.26508"></scales>
<clustering>
<clus scale="   20.265">  2  9  1 -1</clus>
<clus scale="   80.757">  5  6 -1 -1</clus>
<clus scale="   89.905">  7  8 -1 -1</clus>
<clus scale="  176.562">  2  5  1 -1</clus>
<clus scale="  180.929">  1  5  2 -1</clus>
</clustering>
</event>
<event>
 9    1  0.2802611E-005  0.9176952E+02  0.7546771E-02  0.1305062E+00
          1   -1    0    0  502    0  0.00000000000E+00  0.00000000000E+00  0.17965712069E+03  0.17965712069E+03  0.00000000000E+00 0. -1.
         -2   -1    0    0    0  501 -0.00000000000E+00 -0.00000000000E+00 -0.12222953510E+03  0.12222953510E+03  0.00000000000E+00 0.  1.
        -24    2    1    2    0    0  0.43400934541E+02 -0.15450672764E+01 -0.57270746192E+02  0.10767276848E+03  0.80171431018E+02 0.  0.
         23    2    1    2    0    0 -0.82793148183E+00  0.14782921022E+02  0.11802583961E+03  0.14950624065E+03  0.90569293665E+02 0.  0.
         11    1    3    3    0    0 -0.59335624507E+01  0.23652549598E+02  0.43950589437E+01  0.24778353637E+02  0.00000000000E+00 0. -1.
        -12    1    3    3    0    0  0.49334496992E+02 -0.25197616875E+02 -0.61665805136E+02  0.82894414846E+02  0.00000000000E+00 0.  1.
        -13    1    4    4    0    0  0.44014280190E+02  0.15762165115E+02  0.55722902620E+02  0.72737504674E+02  0.00000000000E+00 0. -1.
         13    1    4    4    0    0 -0.44842211672E+02 -0.97924409306E+00  0.62302936988E+02  0.76768735980E+02  0.00000000000E+00 0.  1.
         21    1    1    2  502  501 -0.42573003060E+02 -0.13237853746E+02 -0.33275078228E+01  0.44707646657E+02  0.00000000000E+00 0.  1.
<scales pt_clust_5="13000.00000" pt_clust_6="13000.00000" pt_clust_7="13000.00000" pt_clust_8="13000.00000" pt_clust_9="44.58364"></scales>
<clustering>
<clus scale="   44.584">  2  9  1 -1</clus>
<clus scale="   80.171">  5  6 -1 -1</clus>
<clus scale="   81.525">  2  5  1 -1</clus>
<clus scale="   90.569">  7  8 -1 -1</clus>
<clus scale="   91.770">  1  5  2 -1</clus>
</clustering>
</event>
<event>
 9    1  0.2802611E-005  0.2337592E+03  0.7546771E-02  0.1124644E+00
          1   -1    0    0  502    0  0.00000000000E+00  0.00000000000E+00  0.32512475618E+03  0.32512475618E+03  0.00000000000E+00 0. -1.
         -2   -1    0    0    0  501 -0.00000000000E+00 -0.00000000000E+00 -0.55442353418E+03  0.55442353418E+03  0.00000000000E+00 0.  1.
         23    2    1    2    0    0  0.16614383507E+03 -0.15481400587E+03 -0.32092954257E+03  0.40324283617E+03  0.89654131422E+02 0.  0.
        -24    2    1    2    0    0 -0.16989197296E+03  0.13104523411E+03  0.23667369742E+03  0.32928009781E+03  0.79842394180E+02 0.  0.
         11    1    4    4    0    0 -0.10177319100E+03  0.12044606532E+03  0.14224595056E+03  0.21236512781E+03  0.00000000000E+00 0. -1.
        -12    1    4    4    0    0 -0.68118781962E+02  0.10599168782E+02  0.94427746856E+02  0.11691497000E+03  0.00000000000E+00 0.  1.
        -13    1    3    3    0    0  0.11836407862E+02 -0.63879540234E+02 -0.81076122442E+02  0.10389433980E+03  0.00000000000E+00 0. -1.
         13    1    3    3    0    0  0.15430742721E+03 -0.90934465636E+02 -0.23985342013E+03  0.29934849637E+03  0.00000000000E+00 0.  1.
         21    1    1    2  502  501  0.37481378884E+01  0.23768771763E+02 -0.14504293285E+03  0.14702535638E+03  0.00000000000E+00 0.  1.
<scales pt_clust_5="13000.00000" pt_clust_6="13000.00000" pt_clust_7="13000.00000" pt_clust_8="13000.00000" pt_clust_9="24.06248"></scales>
<clustering>
<clus scale="   24.062">  2  9  1 -1</clus>
<clus scale="   79.842">  5  6 -1 -1</clus>
<clus scale="   89.654">  7  8 -1 -1</clus>
<clus scale="  230.174">  1  5  2 -1</clus>
<clus scale="  230.174">  1  5  2 -1</clus>
</clustering>
</event>
<event>
 9    1  0.2802611E-005  0.3753828E+03  0.7546771E-02  0.1105134E+00
          1   -1    0    0  502    0  0.00000000000E+00  0.00000000000E+00  0.16059196460E+04  0.16059196460E+04  0.00000000000E+00 0. -1.
         -2   -1    0    0    0  501 -0.00000000000E+00 -0.00000000000E+00 -0.17514025129E+03  0.17514025129E+03  0.00000000000E+00 0.  1.
        -24    2    1    2    0    0 -0.11132129589E+02 -0.44299270385E+02  0.85889486776E+02  0.12510408176E+03  0.78661792939E+02 0.  0.
         23    2    1    2    0    0  0.10071415069E+03 -0.34260005391E+03  0.11615191555E+04  0.12185305551E+04  0.90398163718E+02 0.  0.
         13    1    3    3    0    0 -0.44437737093E+02 -0.17056480527E+02  0.50448933270E+02  0.69359432480E+02  0.00000000000E+00 0. -1.
        -14    1    3    3    0    0  0.33305607504E+02 -0.27242789858E+02  0.35440553506E+02  0.55744649279E+02  0.00000000000E+00 0.  1.
        -13    1    4    4    0    0  0.36220347330E+02 -0.24572898600E+02  0.12948559953E+03  0.13668306915E+03  0.00000000000E+00 0.  1.
         13    1    4    4    0    0  0.64493803356E+02 -0.31802715531E+03  0.10320335560E+04  0.10818474859E+04  0.00000000000E+00 0. -1.
         21    1    1    2  502  501 -0.89582021097E+02  0.38689932430E+03  0.18337075248E+03  0.43742526048E+03  0.00000000000E+00 0.  1.
<scales pt_clust_5="13000.00000" pt_clust_6="13000.00000" pt_clust_7="13000.00000" pt_clust_8="13000.00000" pt_clust_9="364.33561"></scales>
<clustering>
<clus scale="   78.662">  5  6 -1 -1</clus>
<clus scale="   90.398">  7  8 -1 -1</clus>
<clus scale="   90.962">  2  5  1 -1</clus>
<clus scale="  364.336">  2  9  1 -1</clus>
<clus scale="  375.383">  1  5  2 -1</clus>
</clustering>
</event>
<event>
 9    1  0.2802611E-005  0.9616228E+02  0.7546771E-02  0.1293387E+00
          1   -1    0    0  502    0  0.00000000000E+00  0.00000000000E+00  0.29857593237E+03  0.29857593237E+03  0.00000000000E+00 0. -1.
         -2   -1    0    0    0  501 -0.00000000000E+00 -0.00000000000E+00 -0.69742678714E+02  0.69742678714E+02  0.00000000000E+00 0.  1.
         23    2    1    2    0    0  0.10592154392E+02 -0.25291186512E+02  0.67643897406E+01  0.94583906505E+02  0.90269156147E+02 0.  0.
        -24    2    1    2    0    0  0.22456614598E+02  0.62368166573E+02  0.18119733615E+03  0.20941203856E+03  0.81405402298E+02 0.  0.
         11    1    4    4    0    0  0.24430325068E+02  0.81577938023E+02  0.13910152161E+03  0.16309823441E+03  0.00000000000E+00 0. -1.
        -12    1    4    4    0    0 -0.19737104700E+01 -0.19209771450E+02  0.42095814544E+02  0.46313804144E+02  0.00000000000E+00 0.  1.
        -13    1    3    3    0    0 -0.12842119502E+02  0.29310265331E+02 -0.87481975048E+01  0.33174427601E+02  0.00000000000E+00 0. -1.
         13    1    3    3    0    0  0.23434273894E+02 -0.54601451843E+02  0.15512587245E+02  0.61409478904E+02  0.00000000000E+00 0.  1.
         21    1    1    2  502  501 -0.33048768990E+02 -0.37076980061E+02  0.40871527761E+02  0.64322666018E+02  0.00000000000E+00 0.  1.
<scales pt_clust_5="13000.00000" pt_clust_6="13000.00000" pt_clust_7="13000.00000" pt_clust_8="13000.00000" pt_clust_9="49.66813"></scales>
<clustering>
<clus scale="   49.668">  1  9  2 -1</clus>
<clus scale="   81.405">  5  6 -1 -1</clus>
<clus scale="   87.895">  1  5  2 -1</clus>
<clus scale="   90.269">  7  8 -1 -1</clus>
<clus scale="   49.668">  1  5  2 -1</clus>
</clustering>
</event>
<event>
 9    1  0.2802611E-005  0.9275261E+02  0.7546771E-02  0.1303117E+00
         -2   -1    0    0    0  501 -0.00000000000E+00  0.00000000000E+00  0.25452402311E+02  0.25452402311E+02  0.00000000000E+00 0.  1.
          1   -1    0    0  502    0  0.00000000000E+00 -0.00000000000E+00 -0.80416639932E+03  0.80416639932E+03  0.00000000000E+00 0. -1.
         23    2    1    2    0    0 -0.46548098522E+02  0.31283271826E+02 -0.21065047888E+03  0.23657480684E+03  0.91916518663E+02 0.  0.
        -24    2    1    2    0    0 -0.15114082935E+02 -0.68886884258E+01 -0.45107440550E+03  0.45856807578E+03  0.80874416844E+02 0.  0.
         11    1    4    4    0    0 -0.39733280573E+02 -0.25426208402E+02 -0.19398681014E+03  0.19963994633E+03  0.00000000000E+00 0. -1.
        -12    1    4    4    0    0  0.24619197638E+02  0.18537519977E+02 -0.25708759535E+03  0.25892812945E+03  0.00000000000E+00 0.  1.
        -11    1    3    3    0    0  0.27214953137E+02  0.18248311664E+02 -0.64907425610E+02  0.72709204728E+02  0.00000000000E+00 0.  1.
         11    1    3    3    0    0 -0.73763051659E+02  0.13034960162E+02 -0.14574305327E+03  0.16386560211E+03  0.00000000000E+00 0. -1.
         21    1    1    2  502  501  0.61662181457E+02 -0.24394583400E+02 -0.11698911263E+03  0.13447591902E+03  0.00000000000E+00 0.  1.
<scales pt_clust_5="13000.00000" pt_clust_6="13000.00000" pt_clust_7="13000.00000" pt_clust_8="13000.00000" pt_clust_9="66.31229"></scales>
<clustering>
<clus scale="   66.312">  1  9  2 -1</clus>
<clus scale="   80.874">  5  6 -1 -1</clus>
<clus scale="   81.823">  2  5  1 -1</clus>
<clus scale="   91.917">  7  8 -1 -1</clus>
<clus scale="   81.823">  2  5  1 -1</clus>
</clustering>
</event>
<event>
 9    1  0.2802611E-005  0.8604565E+02  0.7546771E-02  0.1316035E+00
          1   -1    0    0  502    0  0.00000000000E+00  0.00000000000E+00  0.34054178698E+03  0.34054178698E+03  0.00000000000E+00 0. -1.
         -2   -1    0    0    0  501 -0.00000000000E+00 -0.00000000000E+00 -0.10601129384E+03  0.10601129384E+03  0.00000000000E+00 0.  1.
         23    2    1    2    0    0  0.24852918815E+02  0.61247918584E+01 -0.67364258178E+02  0.11205503001E+03  0.85809124346E+02 0.  0.
        -24    2    1    2    0    0  0.71019323552E+01 -0.35011069470E+01  0.28857448200E+03  0.29977880816E+03  0.80804745937E+02 0.  0.
         13    1    4    4    0    0  0.18707502615E+02 -0.39192149617E+02  0.16605992598E+03  0.17164467444E+03  0.00000000000E+00 0. -1.
        -14    1    4    4    0    0 -0.11605570260E+02  0.35691042670E+02  0.12251455602E+03  0.12813413372E+03  0.00000000000E+00 0.  1.
        -13    1    3    3    0    0  0.51492683423E+02  0.23935368131E+02 -0.36114936610E+02  0.67295519464E+02  0.00000000000E+00 0. -1.
         13    1    3    3    0    0 -0.26639764608E+02 -0.17810576273E+02 -0.31249321569E+02  0.44759510543E+02  0.00000000000E+00 0.  1.
         21    1    1    2  502  501 -0.31954851170E+02 -0.26236849114E+01  0.13320269318E+02  0.34719242655E+02  0.00000000000E+00 0. -1.
<scales pt_clust_5="13000.00000" pt_clust_6="13000.00000" pt_clust_7="13000.00000" pt_clust_8="13000.00000" pt_clust_9="32.06238"></scales>
<clustering>
<clus scale="   32.062">  2  9  1 -1</clus>
<clus scale="   80.805">  5  6 -1 -1</clus>
<clus scale="   81.056">  1  5  2 -1</clus>
<clus scale="   85.809">  7  8 -1 -1</clus>
<clus scale="   81.056">  1  5  2 -1</clus>
</clustering>
</event>
<event>
 9    1  0.2802611E-005  0.1389840E+03  0.7546771E-02  0.1216923E+00
         -4   -1    0    0    0  501 -0.00000000000E+00  0.00000000000E+00  0.29900492818E+03  0.29900492818E+03  0.00000000000E+00 0.  1.
          3   -1    0    0  502    0  0.00000000000E+00 -0.00000000000E+00 -0.14333158887E+03  0.14333158887E+03  0.00000000000E+00 0. -1.
         23    2    1    2    0    0  0.12662827584E+03  0.44389778773E+02  0.19415050736E+03  0.25254059983E+03  0.89873034635E+02 0.  0.
        -24    2    1    2    0    0 -0.38930356416E+02 -0.41120071100E+02 -0.14381948521E+02  0.98789347880E+02  0.79662173667E+02 0.  0.
         13    1    4    4    0    0 -0.55301832675E+02 -0.48047452848E+02  0.38049482637E+01  0.73357535766E+02  0.00000000000E+00 0. -1.
        -14    1    4    4    0    0  0.16371476259E+02  0.69273817479E+01 -0.18186896784E+02  0.25431812114E+02  0.00000000000E+00 0.  1.
        -11    1    3    3    0    0  0.10339088137E+03  0.15761702802E+02  0.77413789029E+02  0.13011917751E+03  0.00000000000E+00 0.  1.
         11    1    3    3    0    0  0.23237394467E+02  0.28628075971E+02  0.11673671833E+03  0.12242142232E+03  0.00000000000E+00 0. -1.
         21    1    1    2  502  501 -0.87697919420E+02 -0.32697076726E+01 -0.24095219523E+02  0.91006569338E+02  0.00000000000E+00 0. -1.
<scales pt_clust_5="13000.00000" pt_clust_6="13000.00000" pt_clust_7="13000.00000" pt_clust_8="13000.00000" pt_clust_9="87.75885"></scales>
<clustering>
<clus scale="   79.662">  5  6 -1 -1</clus>
<clus scale="   87.759">  2  9  1 -1</clus>
<clus scale="   89.873">  7  8 -1 -1</clus>
<clus scale="  132.610">  2  5  1 -1</clus>
<clus scale="   87.759">  2  5  1 -1</clus>
</clustering>
</event>
<event>
 9    1  0.2802611E-005  0.9914991E+02  0.7546771E-02  0.1288548E+00
          1   -1    0    0  502    0  0.00000000000E+00  0.00000000000E+00  0.91203385264E+02  0.91203385264E+02  0.00000000000E+00 0. -1.
         -2   -1    0    0    0  501 -0.00000000000E+00 -0.00000000000E+00 -0.19283771986E+03  0.19283771986E+03  0.00000000000E+00 0.  1.
        -24    2    1    2    0    0  0.10871907902E+02 -0.46656045833E+02 -0.82578778170E+02  0.12468626689E+03  0.80202403666E+02 0.  0.
         23    2    1    2    0    0 -0.26878569351E+02  0.20740735332E+02  0.28768585718E+02  0.10265417597E+03  0.92507365799E+02 0.  0.
         13    1    3    3    0    0  0.27685427969E+02 -0.11686860097E+02  0.35119755060E+01  0.30255571267E+02  0.00000000000E+00 0. -1.
        -14    1    3    3    0    0 -0.16813520067E+02 -0.34969185736E+02 -0.86090753676E+02  0.94430695627E+02  0.00000000000E+00 0.  1.
        -13    1    4    4    0    0  0.66041074626E+01  0.24588165389E+02 -0.27241000572E+02  0.37286247126E+02  0.00000000000E+00 0.  1.
         13    1    4    4    0    0 -0.33482676814E+02 -0.38474300571E+01  0.56009586290E+02  0.65367928842E+02  0.00000000000E+00 0. -1.
         21    1    1    2  502  501  0.16006661449E+02  0.25915310501E+02 -0.47824142143E+02  0.56700662261E+02  0.00000000000E+00 0.  1.
<scales pt_clust_5="13000.00000" pt_clust_6="13000.00000" pt_clust_7="13000.00000" pt_clust_8="13000.00000" pt_clust_9="30.46008"></scales>
<clustering>
<clus scale="   30.460">  2  9  1 -1</clus>
<clus scale="   80.202">  5  6 -1 -1</clus>
<clus scale="   87.781">  2  5  1 -1</clus>
<clus scale="   92.507">  7  8 -1 -1</clus>
<clus scale="   99.150">  1  5  2 -1</clus>
</clustering>
</event>
<event>
 9    1  0.2802611E-005  0.1269480E+03  0.7546771E-02  0.1234640E+00
         -2   -1    0    0    0  501 -0.00000000000E+00  0.00000000000E+00  0.88778298468E+02  0.88778298468E+02  0.00000000000E+00 0.  1.
          1   -1    0    0  502    0  0.00000000000E+00 -0.00000000000E+00 -0.29426861242E+03  0.29426861242E+03  0.00000000000E+00 0. -1.
         23    2    1    2    0    0  0.67249361522E+02  0.17924300704E+02 -0.32989576054E+02  0.11897463915E+03  0.90680182247E+02 0.  0.
        -24    2    1    2    0    0 -0.98954778929E+02  0.53586454768E+01 -0.18295648724E+03  0.22337028443E+03  0.81243119035E+02 0.  0.
         13    1    4    4    0    0 -0.86916584465E+02  0.42715948204E+01 -0.19028191271E+03  0.20923657779E+03  0.00000000000E+00 0. -1.
        -14    1    4    4    0    0 -0.12038194464E+02  0.10870506564E+01  0.73254254782E+01  0.14133706644E+02  0.00000000000E+00 0.  1.
        -11    1    3    3    0    0  0.27770185108E+01  0.29875370440E+02 -0.43216761743E+02  0.52611197347E+02  0.00000000000E+00 0. -1.
         11    1    3    3    0    0  0.64472343011E+02 -0.11951069736E+02  0.10227185689E+02  0.66363441805E+02  0.00000000000E+00 0.  1.
         21    1    1    2  502  501  0.31705417407E+02 -0.23282946181E+02  0.10455749344E+02  0.40701987300E+02  0.00000000000E+00 0.  1.
<scales pt_clust_5="13000.00000" pt_clust_6="13000.00000" pt_clust_7="13000.00000" pt_clust_8="13000.00000" pt_clust_9="39.33610"></scales>
<clustering>
<clus scale="   39.336">  1  9  2 -1</clus>
<clus scale="   81.243">  5  6 -1 -1</clus>
<clus scale="   90.680">  7  8 -1 -1</clus>
<clus scale="  120.388">  2  5  1 -1</clus>
<clus scale="  120.388">  2  5  1 -1</clus>
</clustering>
</event>
<event>
 9    1  0.2802611E-005  0.2626979E+03  0.7546771E-02  0.1146061E+00
          1   -1    0    0  502    0  0.00000000000E+00  0.00000000000E+00  0.13008846749E+04  0.13008846749E+04  0.00000000000E+00 0. -1.
         -2   -1    0    0    0  501 -0.00000000000E+00 -0.00000000000E+00 -0.11706143383E+03  0.11706143383E+03  0.00000000000E+00 0.  1.
         23    2    1    2    0    0  0.21105195503E+02  0.72657162703E+00  0.47637308408E+02  0.10746010764E+03  0.93980872516E+02 0.  0.
        -24    2    1    2    0    0  0.11457911930E+02 -0.24271470451E+03  0.16609143914E+03  0.31013509327E+03  0.97753252557E+02 0.  0.
         11    1    4    4    0    0 -0.53947258242E+00 -0.24499705450E+03  0.16893588417E+03  0.29759566648E+03  0.00000000000E+00 0. -1.
        -12    1    4    4    0    0  0.11997384512E+02  0.22823499920E+01 -0.28444450271E+01  0.12539426786E+02  0.00000000000E+00 0.  1.
        -11    1    3    3    0    0  0.52729318981E+02  0.23014659528E+02  0.30898817760E+02  0.65305379353E+02  0.00000000000E+00 0.  1.
         11    1    3    3    0    0 -0.31624123479E+02 -0.22288087901E+02  0.16738490648E+02  0.42154728291E+02  0.00000000000E+00 0. -1.
         21    1    1    2  502  501 -0.32563107432E+02  0.24198813289E+03  0.97009449354E+03  0.10003509078E+04  0.00000000000E+00 0.  1.
<scales pt_clust_5="13000.00000" pt_clust_6="13000.00000" pt_clust_7="13000.00000" pt_clust_8="13000.00000" pt_clust_9="243.83292"></scales>
<clustering>
<clus scale="   93.981">  7  8 -1 -1</clus>
<clus scale="   96.324">  2  7  1 -1</clus>
<clus scale="   97.753">  5  6 -1 -1</clus>
<clus scale="  243.833">  1  9  2 -1</clus>
<clus scale="  243.833">  1  5  2 -1</clus>
</clustering>
</event>
<event>
 9    1  0.2802611E-005  0.8792582E+02  0.7546771E-02  0.1309410E+00
          1   -1    0    0  502    0  0.00000000000E+00  0.00000000000E+00  0.84315499385E+03  0.84315499385E+03  0.00000000000E+00 0. -1.
         -2   -1    0    0    0  501 -0.00000000000E+00 -0.00000000000E+00 -0.20834966868E+02  0.20834966868E+02  0.00000000000E+00 0.  1.
        -24    2    1    2    0    0  0.58375290985E+01 -0.41429508936E+02  0.33223692598E+03  0.34530121487E+03  0.84267864872E+02 0.  0.
         23    2    1    2    0    0 -0.74049471175E+00 -0.16205069735E+01  0.45428088242E+03  0.46246524111E+03  0.86601412987E+02 0.  0.
         13    1    3    3    0    0  0.22270018605E+02 -0.59304568711E+02  0.28753657010E+03  0.29443210549E+03  0.00000000000E+00 0. -1.
        -14    1    3    3    0    0 -0.16432489506E+02  0.17875059775E+02  0.44700355877E+02  0.50869109377E+02  0.00000000000E+00 0.  1.
        -13    1    4    4    0    0 -0.16480727243E+02 -0.40995852587E+02  0.23792225627E+03  0.24199023602E+03  0.00000000000E+00 0.  1.
         13    1    4    4    0    0  0.15740232531E+02  0.39375345614E+02  0.21635862615E+03  0.22047500509E+03  0.00000000000E+00 0. -1.
         21    1    1    2  502  501 -0.50970343868E+01  0.43050015910E+02  0.35802218592E+02  0.56223504742E+02  0.00000000000E+00 0.  1.
<scales pt_clust_5="13000.00000" pt_clust_6="13000.00000" pt_clust_7="13000.00000" pt_clust_8="13000.00000" pt_clust_9="43.35071"></scales>
<clustering>
<clus scale="   43.351">  2  9  1 -1</clus>
<clus scale="   84.268">  5  6 -1 -1</clus>
<clus scale="   85.628">  2  5  1 -1</clus>
<clus scale="   86.601">  7  8 -1 -1</clus>
<clus scale="   87.926">  1  5  2 -1</clus>
</clustering>
</event>
<event>
 9    1  0.2802611E-005  0.1297882E+03  0.7546771E-02  0.1231062E+00
          3   -1    0    0  502    0  0.00000000000E+00  0.00000000000E+00  0.47746198220E+02  0.47746198220E+02  0.00000000000E+00 0. -1.
         -4   -1    0    0    0  501 -0.00000000000E+00 -0.00000000000E+00 -0.86861778925E+03  0.86861778925E+03  0.00000000000E+00 0.  1.
        -24    2    1    2    0    0  0.59800215294E+02 -0.34092007953E+02 -0.31203234339E+03  0.32914074305E+03  0.78937409753E+02 0.  0.
         23    2    1    2    0    0 -0.74599482077E+02  0.13011744825E+03 -0.42120562530E+03  0.45638152613E+03  0.91511122511E+02 0.  0.
         11    1    3    3    0    0  0.62385666029E+02  0.72312243421E+01 -0.20388421709E+03  0.21333784453E+03  0.00000000000E+00 0. -1.
        -12    1    3    3    0    0 -0.25854507353E+01 -0.41323232295E+02 -0.10814812629E+03  0.11580289851E+03  0.00000000000E+00 0.  1.
        -13    1    4    4    0    0 -0.72864307211E+02  0.10523607403E+03 -0.40910072786E+03  0.42865749040E+03  0.00000000000E+00 0.  1.
         13    1    4    4    0    0 -0.17351748663E+01  0.24881374222E+02 -0.12104897439E+02  0.27724035728E+02  0.00000000000E+00 0. -1.
         21    1    1    2  502  501  0.14799266783E+02 -0.96025440295E+02 -0.87633622347E+02  0.13084171830E+03  0.00000000000E+00 0. -1.
<scales pt_clust_5="13000.00000" pt_clust_6="13000.00000" pt_clust_7="13000.00000" pt_clust_8="13000.00000" pt_clust_9="97.15917"></scales>
<clustering>
<clus scale="   78.937">  5  6 -1 -1</clus>
<clus scale="   91.511">  7  8 -1 -1</clus>
<clus scale="   97.159">  1  9  2 -1</clus>
<clus scale="  121.251">  2  5  1 -1</clus>
<clus scale="   97.159">  1  5  2 -1</clus>
</clustering>
</event>
<event>
 9    1  0.2802611E-005  0.1424278E+03  0.7546771E-02  0.1210542E+00
         -2   -1    0    0    0  501 -0.00000000000E+00  0.00000000000E+00  0.15692912055E+03  0.15692912055E+03  0.00000000000E+00 0.  1.
          1   -1    0    0  502    0  0.00000000000E+00 -0.00000000000E+00 -0.29969985161E+03  0.29969985161E+03  0.00000000000E+00 0. -1.
         23    2    1    2    0    0 -0.15199642838E+02 -0.13159385057E+03  0.46543965626E+02  0.16767665052E+03  0.91657775128E+02 0.  0.
        -24    2    1    2    0    0  0.31756469204E+02  0.99912020648E+02 -0.20727377219E+03  0.24894738145E+03  0.89562809732E+02 0.  0.
         13    1    4    4    0    0  0.21505366931E+02  0.31871332876E+02 -0.16218925099E+03  0.16668417982E+03  0.00000000000E+00 0. -1.
        -14    1    4    4    0    0  0.10251102273E+02  0.68040687772E+02 -0.45084521197E+02  0.82263201627E+02  0.00000000000E+00 0.  1.
        -13    1    3    3    0    0  0.36308615725E+02 -0.77463356499E+02  0.16420143426E+02  0.87112044438E+02  0.00000000000E+00 0.  1.
         13    1    3    3    0    0 -0.51508258563E+02 -0.54130494076E+02  0.30123822200E+02  0.80564606081E+02  0.00000000000E+00 0. -1.
         21    1    1    2  502  501 -0.16556826366E+02  0.31681829927E+02  0.17959075500E+02  0.40004940191E+02  0.00000000000E+00 0. -1.
<scales pt_clust_5="13000.00000" pt_clust_6="13000.00000" pt_clust_7="13000.00000" pt_clust_8="13000.00000" pt_clust_9="35.74726"></scales>
<clustering>
<clus scale="   35.747">  1  9  2 -1</clus>
<clus scale="   89.563">  5  6 -1 -1</clus>
<clus scale="   91.658">  7  8 -1 -1</clus>
<clus scale="  141.089">  2  5  1 -1</clus>
<clus scale="  141.089">  2  5  1 -1</clus>
</clustering>
</event>
<event>
 9    1  0.2802611E-005  0.1511204E+03  0.7546771E-02  0.1201441E+00
         -4   -1    0    0    0  501 -0.00000000000E+00  0.00000000000E+00  0.17863825678E+03  0.17863825678E+03  0.00000000000E+00 0.  1.
          3   -1    0    0  502    0  0.00000000000E+00 -0.00000000000E+00 -0.33059634113E+03  0.33059634113E+03  0.00000000000E+00 0. -1.
         23    2    1    2    0    0 -0.19978122432E+02 -0.66676668259E+02  0.88191888708E+02  0.14541379528E+03  0.92317166104E+02 0.  0.
        -24    2    1    2    0    0 -0.10731726213E+02  0.12908573240E+03 -0.25100011222E+03  0.29342398730E+03  0.79487632571E+02 0.  0.
         11    1    4    4    0    0  0.24221550622E+02  0.58808604245E+02 -0.62208533599E+02  0.88966494257E+02  0.00000000000E+00 0. -1.
        -12    1    4    4    0    0 -0.34953276834E+02  0.70277128151E+02 -0.18879157862E+03  0.20445749304E+03  0.00000000000E+00 0.  1.
        -11    1    3    3    0    0 -0.38692048198E+02 -0.42489662891E+02  0.60748086150E+01  0.57787103631E+02  0.00000000000E+00 0.  1.
         11    1    3    3    0    0  0.18713925766E+02 -0.24187005368E+02  0.82117080093E+02  0.87626691648E+02  0.00000000000E+00 0. -1.
         21    1    1    2  502  501  0.30709848645E+02 -0.62409064137E+02  0.10850139161E+02  0.70396815341E+02  0.00000000000E+00 0.  1.
<scales pt_clust_5="13000.00000" pt_clust_6="13000.00000" pt_clust_7="13000.00000" pt_clust_8="13000.00000" pt_clust_9="69.55563"></scales>
<clustering>
<clus scale="   69.556">  1  9  2 -1</clus>
<clus scale="   79.488">  5  6 -1 -1</clus>
<clus scale="   92.317">  7  8 -1 -1</clus>
<clus scale="  143.643">  2  5  1 -1</clus>
<clus scale="  143.643">  2  5  1 -1</clus>
</clustering>
</event>
<event>
 9    1  0.2802611E-005  0.1549531E+03  0.7546771E-02  0.1196141E+00
         -2   -1    0    0    0  501 -0.00000000000E+00  0.00000000000E+00  0.14344891921E+03  0.14344891921E+03  0.00000000000E+00 0.  1.
          1   -1    0    0  502    0  0.00000000000E+00 -0.00000000000E+00 -0.19788676710E+03  0.19788676710E+03  0.00000000000E+00 0. -1.
         23    2    1    2    0    0 -0.93667087235E+02 -0.60158275937E+02  0.91451610463E+01  0.14371384867E+03  0.90429502559E+02 0.  0.
        -24    2    1    2    0    0  0.11248700156E+03  0.75748380036E+02 -0.69497526756E+02  0.17247781167E+03  0.80793234211E+02 0.  0.
         13    1    4    4    0    0  0.39775654354E+02  0.43240805365E+02 -0.71828378674E+02  0.92796475746E+02  0.00000000000E+00 0. -1.
        -14    1    4    4    0    0  0.72711347208E+02  0.32507574671E+02  0.23308519180E+01  0.79681335923E+02  0.00000000000E+00 0.  1.
        -11    1    3    3    0    0 -0.41821581038E+02 -0.72027384790E+02 -0.16115215554E+02  0.84833301082E+02  0.00000000000E+00 0. -1.
         11    1    3    3    0    0 -0.51845506197E+02  0.11869108853E+02  0.25260376601E+02  0.58880547584E+02  0.00000000000E+00 0.  1.
         21    1    1    2  502  501 -0.18819914327E+02 -0.15590104100E+02  0.59145178135E+01  0.25144025972E+02  0.00000000000E+00 0.  1.
<scales pt_clust_5="13000.00000" pt_clust_6="13000.00000" pt_clust_7="13000.00000" pt_clust_8="13000.00000" pt_clust_9="24.43850"></scales>
<clustering>
<clus scale="   24.439">  1  9  2 -1</clus>
<clus scale="   80.793">  5  6 -1 -1</clus>
<clus scale="   90.430">  7  8 -1 -1</clus>
<clus scale="  149.534">  2  5  1 -1</clus>
<clus scale="  149.534">  2  5  1 -1</clus>
</clustering>
</event>
<event>
 9    1  0.2802611E-005  0.9426442E+02  0.7546771E-02  0.1299830E+00
         -2   -1    0    0    0  501 -0.00000000000E+00  0.00000000000E+00  0.12253478928E+03  0.12253478928E+03  0.00000000000E+00 0.  1.
          1   -1    0    0  502    0  0.00000000000E+00 -0.00000000000E+00 -0.22239304311E+03  0.22239304311E+03  0.00000000000E+00 0. -1.
         23    2    1    2    0    0  0.70952494641E+01 -0.20103854696E+02  0.70373172448E+02  0.11711252097E+03  0.91150708328E+02 0.  0.
        -24    2    1    2    0    0  0.15832055276E+02  0.19607388337E+02 -0.18339935549E+03  0.20137098989E+03  0.79245494019E+02 0.  0.
         13    1    4    4    0    0 -0.25421277722E+02  0.28413425018E+02 -0.61286061785E+02  0.72177180960E+02  0.00000000000E+00 0. -1.
        -14    1    4    4    0    0  0.41253332999E+02 -0.88060366811E+01 -0.12211329371E+03  0.12919380893E+03  0.00000000000E+00 0.  1.
        -11    1    3    3    0    0  0.22961486548E+02 -0.44257218027E+02  0.72662379174E+02  0.88123507415E+02  0.00000000000E+00 0.  1.
         11    1    3    3    0    0 -0.15866237084E+02  0.24153363331E+02 -0.22892067252E+01  0.28989013554E+02  0.00000000000E+00 0. -1.
         21    1    1    2  502  501 -0.22927304741E+02  0.49646635949E+00  0.13167929210E+02  0.26444321530E+02  0.00000000000E+00 0.  1.
<scales pt_clust_5="13000.00000" pt_clust_6="13000.00000" pt_clust_7="13000.00000" pt_clust_8="13000.00000" pt_clust_9="22.93268"></scales>
<clustering>
<clus scale="   22.933">  1  9  2 -1</clus>
<clus scale="   79.245">  5  6 -1 -1</clus>
<clus scale="   82.808">  2  5  1 -1</clus>
<clus scale="   91.151">  7  8 -1 -1</clus>
<clus scale="   82.808">  2  5  1 -1</clus>
</clustering>
</event>
<event>
 9    1  0.2802611E-005  0.2739885E+03  0.7546771E-02  0.1138901E+00
         -2   -1    0    0    0  501 -0.00000000000E+00  0.00000000000E+00  0.17537799328E+03  0.17537799328E+03  0.00000000000E+00 0.  1.
          1   -1    0    0  502    0  0.00000000000E+00 -0.00000000000E+00 -0.97162047321E+03  0.97162047321E+03  0.00000000000E+00 0. -1.
        -24    2    1    2    0    0  0.34635382846E+02 -0.48649301174E+02  0.13056855454E+02  0.10166979563E+03  0.81239778548E+02 0.  0.
         23    2    1    2    0    0  0.90345197604E+02  0.24939094560E+03 -0.75106641678E+03  0.80179545731E+03  0.91744724565E+02 0.  0.
         11    1    3    3    0    0  0.32862991665E+02 -0.50612757834E+01 -0.26702727099E+02  0.42645379213E+02  0.00000000000E+00 0. -1.
        -12    1    3    3    0    0  0.17723911816E+01 -0.43588025391E+02  0.39759582554E+02  0.59024416412E+02  0.00000000000E+00 0.  1.
        -11    1    4    4    0    0 -0.13201738488E+01  0.10012693789E+03 -0.20186152991E+03  0.22533358340E+03  0.00000000000E+00 0.  1.
         11    1    4    4    0    0  0.91665371453E+02  0.14926400771E+03 -0.54920488687E+03  0.57646187392E+03  0.00000000000E+00 0. -1.
         21    1    1    2  502  501 -0.12498058045E+03 -0.20074164442E+03 -0.58232918611E+02  0.24353321356E+03  0.00000000000E+00 0. -1.
<scales pt_clust_5="13000.00000" pt_clust_6="13000.00000" pt_clust_7="13000.00000" pt_clust_8="13000.00000" pt_clust_9="258.17171"></scales>
<clustering>
<clus scale="   81.240">  5  6 -1 -1</clus>
<clus scale="   91.745">  7  8 -1 -1</clus>
<clus scale="  100.828">  1  5  2 -1</clus>
<clus scale="  258.172">  1  9  2 -1</clus>
<clus scale="  273.989">  2  5  1 -1</clus>
</clustering>
</event>
<event>
 9    1  0.2802611E-005  0.1188020E+03  0.7546771E-02  0.1250073E+00
          1   -1    0    0  502    0  0.00000000000E+00  0.00000000000E+00  0.56719340839E+03  0.56719340839E+03  0.00000000000E+00 0. -1.
         -2   -1    0    0    0  501 -0.00000000000E+00 -0.00000000000E+00 -0.34969206733E+02  0.34969206733E+02  0.00000000000E+00 0.  1.
         23    2    1    2    0    0 -0.63060549273E+02  0.17907617714E+02  0.16780935625E+03  0.20321661841E+03  0.94019669785E+02 0.  0.
        -24    2    1    2    0    0  0.55956599165E+02 -0.56667321404E+02  0.32205877140E+03  0.34109430925E+03  0.79253701870E+02 0.  0.
         13    1    4    4    0    0  0.56130456638E+02 -0.47554233767E+02  0.32359412226E+03  0.33185115530E+03  0.00000000000E+00 0. -1.
        -14    1    4    4    0    0 -0.17385747302E+00 -0.91130876370E+01 -0.15353508584E+01  0.92431539508E+01  0.00000000000E+00 0.  1.
        -11    1    3    3    0    0 -0.65844432251E+02 -0.24924895806E+02  0.89038688286E+02  0.11351047397E+03  0.00000000000E+00 0.  1.
         11    1    3    3    0    0  0.27838829780E+01  0.42832513519E+02  0.78770667959E+02  0.89706144436E+02  0.00000000000E+00 0. -1.
         21    1    1    2  502  501  0.71039501085E+01  0.38759703690E+02  0.42356074011E+02  0.57851687468E+02  0.00000000000E+00 0. -1.
<scales pt_clust_5="13000.00000" pt_clust_6="13000.00000" pt_clust_7="13000.00000" pt_clust_8="13000.00000" pt_clust_9="39.40534"></scales>
<clustering>
<clus scale="   39.405">  2  9  1 -1</clus>
<clus scale="   79.254">  5  6 -1 -1</clus>
<clus scale="   94.020">  7  8 -1 -1</clus>
<clus scale="  107.496">  1  5  2 -1</clus>
<clus scale="  107.496">  1  5  2 -1</clus>
</clustering>
</event>
<event>
 9    1  0.2802611E-005  0.1006380E+03  0.7546771E-02  0.1284693E+00
         -2   -1    0    0    0  501 -0.00000000000E+00  0.00000000000E+00  0.48671602998E+03  0.48671602998E+03  0.00000000000E+00 0.  1.
          1   -1    0    0  502    0  0.00000000000E+00 -0.00000000000E+00 -0.68437913270E+02  0.68437913270E+02  0.00000000000E+00 0. -1.
        -24    2    1    2    0    0 -0.17880318913E+02  0.58262828603E+02  0.30261542591E+03  0.31882262245E+03  0.79733967549E+02 0.  0.
         23    2    1    2    0    0  0.27040051707E+02 -0.30033873604E+02 -0.16208885067E+02  0.10116147533E+03  0.91311106528E+02 0.  0.
         11    1    3    3    0    0 -0.29776396010E+02 -0.96269033965E+01  0.10246014648E+03  0.10713259375E+03  0.00000000000E+00 0. -1.
        -12    1    3    3    0    0  0.11896077096E+02  0.67889732000E+02  0.20015527944E+03  0.21169002869E+03  0.00000000000E+00 0.  1.
        -11    1    4    4    0    0  0.47984974706E+02  0.11364170369E+02  0.60882778450E+01  0.49686711431E+02  0.00000000000E+00 0.  1.
         11    1    4    4    0    0 -0.20944923000E+02 -0.41398043973E+02 -0.22297162912E+02  0.51474763897E+02  0.00000000000E+00 0. -1.
         21    1    1    2  502  501 -0.91597327935E+01 -0.28228954999E+02  0.13187157586E+03  0.13516984547E+03  0.00000000000E+00 0.  1.
<scales pt_clust_5="13000.00000" pt_clust_6="13000.00000" pt_clust_7="13000.00000" pt_clust_8="13000.00000" pt_clust_9="29.67785"></scales>
<clustering>
<clus scale="   29.678">  1  9  2 -1</clus>
<clus scale="   79.734">  5  6 -1 -1</clus>
<clus scale="   90.265">  1  5  2 -1</clus>
<clus scale="   91.311">  7  8 -1 -1</clus>
<clus scale="  100.638">  2  5  1 -1</clus>
</clustering>
</event>
<event>
 9    1  0.2802611E-005  0.9737777E+02  0.7546771E-02  0.1290708E+00
          1   -1    0    0  502    0  0.00000000000E+00  0.00000000000E+00  0.46727380621E+02  0.46727380621E+02  0.00000000000E+00 0. -1.
         -2   -1    0    0    0  501 -0.00000000000E+00 -0.00000000000E+00 -0.29872775963E+03  0.29872775963E+03  0.00000000000E+00 0.  1.
        -24    2    1    2    0    0 -0.43212615845E+02  0.10409568412E+02 -0.15885878219E+03  0.18388594598E+03  0.81254164007E+02 0.  0.
         23    2    1    2    0    0  0.22247391486E+02  0.19783757580E+02 -0.64108976845E+02  0.11472828704E+03  0.90367446816E+02 0.  0.
         13    1    3    3    0    0 -0.42154269429E+02 -0.24491856230E+02 -0.51165729768E+02  0.70673653898E+02  0.00000000000E+00 0. -1.
        -14    1    3    3    0    0 -0.10583464164E+01  0.34901424642E+02 -0.10769305242E+03  0.11321229208E+03  0.00000000000E+00 0.  1.
        -11    1    4    4    0    0 -0.13122042928E+02 -0.27411152272E+02 -0.41783749217E+02  0.51666633122E+02  0.00000000000E+00 0.  1.
         11    1    4    4    0    0  0.35369434415E+02  0.47194909853E+02 -0.22325227628E+02  0.63061653923E+02  0.00000000000E+00 0. -1.
         21    1    1    2  502  501  0.20965224359E+02 -0.30193325992E+02 -0.29032619972E+02  0.46840907221E+02  0.00000000000E+00 0. -1.
<scales pt_clust_5="13000.00000" pt_clust_6="13000.00000" pt_clust_7="13000.00000" pt_clust_8="13000.00000" pt_clust_9="36.75837"></scales>
<clustering>
<clus scale="   36.758">  1  9  2 -1</clus>
<clus scale="   81.254">  5  6 -1 -1</clus>
<clus scale="   88.985">  2  5  1 -1</clus>
<clus scale="   90.367">  7  8 -1 -1</clus>
<clus scale="   36.758">  1  5  2 -1</clus>
</clustering>
</event>
<event>
 9    1  0.2802611E-005  0.1700325E+03  0.7546771E-02  0.1205978E+00
          3   -1    0    0  502    0  0.00000000000E+00  0.00000000000E+00  0.61921932842E+02  0.61921932842E+02  0.00000000000E+00 0. -1.
         -4   -1    0    0    0  501 -0.00000000000E+00 -0.00000000000E+00 -0.83560104166E+03  0.83560104166E+03  0.00000000000E+00 0.  1.
        -24    2    1    2    0    0  0.31072218611E+02 -0.13798760782E+03 -0.42435995308E+03  0.45512237256E+03  0.83957974875E+02 0.  0.
         23    2    1    2    0    0 -0.78589080062E+01 -0.16281733827E+02 -0.48428358043E+02  0.10347117021E+03  0.89633252255E+02 0.  0.
         13    1    3    3    0    0  0.49542471166E+02 -0.59144449012E+02 -0.27005624227E+03  0.28086099104E+03  0.00000000000E+00 0. -1.
        -14    1    3    3    0    0 -0.18470252555E+02 -0.78843158805E+02 -0.15430371081E+03  0.17426138152E+03  0.00000000000E+00 0.  1.
        -11    1    4    4    0    0  0.15786724514E+02 -0.48687616398E+02 -0.29979060407E+02  0.59316513083E+02  0.00000000000E+00 0. -1.
         11    1    4    4    0    0 -0.23645632520E+02  0.32405882571E+02 -0.18449297636E+02  0.44154657124E+02  0.00000000000E+00 0.  1.
         21    1    1    2  502  501 -0.23213310605E+02  0.15426934164E+03 -0.30089079769E+03  0.33892943174E+03  0.00000000000E+00 0.  1.
<scales pt_clust_5="13000.00000" pt_clust_6="13000.00000" pt_clust_7="13000.00000" pt_clust_8="13000.00000" pt_clust_9="147.85842"></scales>
<clustering>
<clus scale="   83.958">  5  6 -1 -1</clus>
<clus scale="   89.633">  7  8 -1 -1</clus>
<clus scale="   91.438">  1  7  2 -1</clus>
<clus scale="  147.858">  1  9  2 -1</clus>
<clus scale="   91.438">  1  5  2 -1</clus>
</clustering>
</event>
<event>
 9    1  0.2802611E-005  0.1047775E+03  0.7546771E-02  0.1276171E+00
         -2   -1    0    0    0  501 -0.00000000000E+00  0.00000000000E+00  0.17640599370E+03  0.17640599370E+03  0.00000000000E+00 0.  1.
          1   -1    0    0  502    0  0.00000000000E+00 -0.00000000000E+00 -0.20899792852E+03  0.20899792852E+03  0.00000000000E+00 0. -1.
        -24    2    1    2    0    0 -0.75012952893E+01 -0.13985136267E+02  0.43618732030E+02  0.91763224935E+02  0.79158336258E+02 0.  0.
         23    2    1    2    0    0 -0.43692896993E+02  0.44875843230E+02 -0.15752829537E+03  0.19270686842E+03  0.91639853443E+02 0.  0.
         11    1    3    3    0    0 -0.26304431236E+01  0.32528993469E+02  0.26219589721E+02  0.41863128553E+02  0.00000000000E+00 0. -1.
        -12    1    3    3    0    0 -0.48708521657E+01 -0.46514129735E+02  0.17399142309E+02  0.49900096382E+02  0.00000000000E+00 0.  1.
        -13    1    4    4    0    0 -0.54139924859E+01  0.60382579391E+02 -0.53783246195E+02  0.81043227847E+02  0.00000000000E+00 0.  1.
         13    1    4    4    0    0 -0.38278904507E+02 -0.15506736161E+02 -0.10374504918E+03  0.11166364057E+03  0.00000000000E+00 0. -1.
         21    1    1    2  502  501  0.51194192282E+02 -0.30890706964E+02  0.81317628523E+02  0.10093382886E+03  0.00000000000E+00 0.  1.
<scales pt_clust_5="13000.00000" pt_clust_6="13000.00000" pt_clust_7="13000.00000" pt_clust_8="13000.00000" pt_clust_9="59.79198"></scales>
<clustering>
<clus scale="   59.792">  1  9  2 -1</clus>
<clus scale="   79.158">  5  6 -1 -1</clus>
<clus scale="   91.640">  7  8 -1 -1</clus>
<clus scale="   94.056">  1  5  2 -1</clus>
<clus scale="  104.777">  2  5  1 -1</clus>
</clustering>
</event>
<event>
 9    1  0.2802611E-005  0.9062155E+02  0.7546771E-02  0.1304544E+00
         -2   -1    0    0    0  501 -0.00000000000E+00  0.00000000000E+00  0.17977617397E+03  0.17977617397E+03  0.00000000000E+00 0.  1.
          1   -1    0    0  502    0  0.00000000000E+00 -0.00000000000E+00 -0.31958026194E+03  0.31958026194E+03  0.00000000000E+00 0. -1.
         23    2    1    2    0    0  0.27025893690E+01  0.54996782457E+02  0.68252762394E+02  0.12259363748E+03  0.85666856515E+02 0.  0.
        -24    2    1    2    0    0  0.37066795594E+01 -0.27697309034E+02 -0.28367401292E+03  0.29611358735E+03  0.80196200707E+02 0.  0.
         13    1    4    4    0    0 -0.26867819916E+02 -0.37985831857E+02 -0.10946256180E+03  0.11894055492E+03  0.00000000000E+00 0. -1.
        -14    1    4    4    0    0  0.30574499475E+02  0.10288522823E+02 -0.17421145112E+03  0.17717303243E+03  0.00000000000E+00 0.  1.
        -13    1    3    3    0    0 -0.29547108847E+02  0.45593658263E+02  0.98460548100E+01  0.55215560400E+02  0.00000000000E+00 0. -1.
         13    1    3    3    0    0  0.32249698216E+02  0.94031241947E+01  0.58406707584E+02  0.67378077075E+02  0.00000000000E+00 0.  1.
         21    1    1    2  502  501 -0.64092689284E+01 -0.27299473423E+02  0.75617162553E+02  0.80649211093E+02  0.00000000000E+00 0.  1.
<scales pt_clust_5="13000.00000" pt_clust_6="13000.00000" pt_clust_7="13000.00000" pt_clust_8="13000.00000" pt_clust_9="28.04175"></scales>
<clustering>
<clus scale="   28.042">  1  9  2 -1</clus>
<clus scale="   80.196">  5  6 -1 -1</clus>
<clus scale="   85.469">  2  5  1 -1</clus>
<clus scale="   85.667">  7  8 -1 -1</clus>
<clus scale="   85.469">  2  5  1 -1</clus>
</clustering>
</event>
<event>
 9    1  0.2802611E-005  0.1607516E+03  0.7546771E-02  0.1189410E+00
          1   -1    0    0  502    0  0.00000000000E+00  0.00000000000E+00  0.12797620273E+03  0.12797620273E+03  0.00000000000E+00 0. -1.
         -2   -1    0    0    0  501 -0.00000000000E+00 -0.00000000000E+00 -0.27250917943E+03  0.27250917943E+03  0.00000000000E+00 0.  1.
        -24    2    1    2    0    0  0.39709323436E+02  0.11380375166E+03 -0.10976878770E+03  0.18159534216E+03  0.79997232956E+02 0.  0.
         23    2    1    2    0    0 -0.39366757099E+02 -0.13413948256E+03  0.13136064411E+02  0.16685069355E+03  0.90130213596E+02 0.  0.
         13    1    3    3    0    0 -0.23933699326E+02  0.39837369040E+02 -0.27772825433E+02  0.54140260139E+02  0.00000000000E+00 0. -1.
        -14    1    3    3    0    0  0.63643022761E+02  0.73966382618E+02 -0.81995962268E+02  0.12745508202E+03  0.00000000000E+00 0.  1.
        -11    1    4    4    0    0  0.19625300495E+02 -0.25049715359E+02 -0.21113919480E+02  0.38189504513E+02  0.00000000000E+00 0.  1.
         11    1    4    4    0    0 -0.58992057594E+02 -0.10908976720E+03  0.34249983892E+02  0.12866118904E+03  0.00000000000E+00 0. -1.
         21    1    1    2  502  501 -0.34256633610E+00  0.20335730903E+02 -0.47900253408E+02  0.52039346457E+02  0.00000000000E+00 0.  1.
<scales pt_clust_5="13000.00000" pt_clust_6="13000.00000" pt_clust_7="13000.00000" pt_clust_8="13000.00000" pt_clust_9="20.33862"></scales>
<clustering>
<clus scale="   20.339">  2  9  1 -1</clus>
<clus scale="   79.997">  5  6 -1 -1</clus>
<clus scale="   90.130">  7  8 -1 -1</clus>
<clus scale="  155.297">  2  5  1 -1</clus>
<clus scale="  160.752">  1  5  2 -1</clus>
</clustering>
</event>
<event>
 9    1  0.2802611E-005  0.9572421E+02  0.7546771E-02  0.1296203E+00
          3   -1    0    0  502    0  0.00000000000E+00  0.00000000000E+00  0.70903046298E+02  0.70903046298E+02  0.00000000000E+00 0. -1.
         -4   -1    0    0    0  501 -0.00000000000E+00 -0.00000000000E+00 -0.30530056237E+03  0.30530056237E+03  0.00000000000E+00 0.  1.
         23    2    1    2    0    0 -0.54544747739E+01  0.28651121885E+02 -0.24760652543E+03  0.26580530100E+03  0.92156543583E+02 0.  0.
        -24    2    1    2    0    0  0.12564123917E+01 -0.60386206906E+01  0.25043549089E+02  0.84533171503E+02  0.80502386433E+02 0.  0.
         13    1    4    4    0    0  0.57009980301E+01 -0.43026727847E+02  0.15366008177E+02  0.46042533543E+02  0.00000000000E+00 0. -1.
        -14    1    4    4    0    0 -0.44445856384E+01  0.36988107156E+02  0.96775409125E+01  0.38490637960E+02  0.00000000000E+00 0.  1.
        -11    1    3    3    0    0  0.33493858798E+01 -0.32743858343E+02 -0.11101470013E+03  0.11579137399E+03  0.00000000000E+00 0.  1.
         11    1    3    3    0    0 -0.88038606537E+01  0.61394980228E+02 -0.13659182530E+03  0.15001392701E+03  0.00000000000E+00 0. -1.
         21    1    1    2  502  501  0.41980623822E+01 -0.22612501194E+02 -0.11834539732E+02  0.25865136162E+02  0.00000000000E+00 0. -1.
<scales pt_clust_5="13000.00000" pt_clust_6="13000.00000" pt_clust_7="13000.00000" pt_clust_8="13000.00000" pt_clust_9="22.99889"></scales>
<clustering>
<clus scale="   22.999">  1  9  2 -1</clus>
<clus scale="   80.502">  5  6 -1 -1</clus>
<clus scale="   84.563">  1  5  2 -1</clus>
<clus scale="   92.157">  7  8 -1 -1</clus>
<clus scale="   22.999">  1  5  2 -1</clus>
</clustering>
</event>
<event>
 9    1  0.2802611E-005  0.1101905E+03  0.7546771E-02  0.1264279E+00
         -2   -1    0    0    0  501 -0.00000000000E+00  0.00000000000E+00  0.33960847222E+03  0.33960847222E+03  0.00000000000E+00 0.  1.
          1   -1    0    0  502    0  0.00000000000E+00 -0.00000000000E+00 -0.14838914897E+03  0.14838914897E+03  0.00000000000E+00 0. -1.
        -24    2    1    2    0    0  0.75677994905E+01 -0.48491021220E+02  0.25449454634E+03  0.27110456520E+03  0.79508241271E+02 0.  0.
         23    2    1    2    0    0  0.39730826644E+02  0.52867795045E+02 -0.10526218000E+03  0.15349573165E+03  0.90040384032E+02 0.  0.
         13    1    3    3    0    0  0.31146423193E+02 -0.57949451961E+02  0.20753893961E+03  0.21771690361E+03  0.00000000000E+00 0. -1.
        -14    1    3    3    0    0 -0.23578623703E+02  0.94584307411E+01  0.46955606724E+02  0.53387661595E+02  0.00000000000E+00 0.  1.
        -13    1    4    4    0    0  0.67925622586E+02  0.47575759417E+02 -0.81009886910E+02  0.11593077618E+03  0.00000000000E+00 0. -1.
         13    1    4    4    0    0 -0.28194795942E+02  0.52920356282E+01 -0.24252293089E+02  0.37564955469E+02  0.00000000000E+00 0.  1.
         21    1    1    2  502  501 -0.47298626134E+02 -0.43767738256E+01  0.41986956906E+02  0.63397324340E+02  0.00000000000E+00 0.  1.
<scales pt_clust_5="13000.00000" pt_clust_6="13000.00000" pt_clust_7="13000.00000" pt_clust_8="13000.00000" pt_clust_9="47.50070"></scales>
<clustering>
<clus scale="   47.501">  1  9  2 -1</clus>
<clus scale="   79.508">  5  6 -1 -1</clus>
<clus scale="   90.040">  7  8 -1 -1</clus>
<clus scale="  101.766">  1  5  2 -1</clus>
<clus scale="  110.190">  2  5  1 -1</clus>
</clustering>
</event>
<event>
 9    1  0.2802611E-005  0.1274712E+03  0.7546771E-02  0.1233969E+00
         -2   -1    0    0    0  501 -0.00000000000E+00  0.00000000000E+00  0.48992161703E+02  0.48992161703E+02  0.00000000000E+00 0.  1.
          1   -1    0    0  502    0  0.00000000000E+00 -0.00000000000E+00 -0.40616483623E+03  0.40616483623E+03  0.00000000000E+00 0. -1.
        -24    2    1    2    0    0 -0.36433257571E+02  0.89788412521E+02 -0.16465473666E+03  0.20710860027E+03  0.79959044011E+02 0.  0.
         23    2    1    2    0    0  0.14966269651E+02 -0.83987726424E+02 -0.18819408521E+03  0.22539502636E+03  0.90044304546E+02 0.  0.
         13    1    3    3    0    0 -0.46035192380E+02  0.27673625974E+02 -0.38251450175E+02  0.65941200721E+02  0.00000000000E+00 0. -1.
        -14    1    3    3    0    0  0.96019348096E+01  0.62114786547E+02 -0.12640328649E+03  0.14116739955E+03  0.00000000000E+00 0.  1.
        -11    1    4    4    0    0 -0.64298073258E+01 -0.66725115587E+02 -0.47791501301E+02  0.82326247752E+02  0.00000000000E+00 0.  1.
         11    1    4    4    0    0  0.21396076976E+02 -0.17262610837E+02 -0.14040258391E+03  0.14306877861E+03  0.00000000000E+00 0. -1.
         21    1    1    2  502  501  0.21466987920E+02 -0.58006860962E+01 -0.43238526459E+01  0.22653371300E+02  0.00000000000E+00 0.  1.
<scales pt_clust_5="13000.00000" pt_clust_6="13000.00000" pt_clust_7="13000.00000" pt_clust_8="13000.00000" pt_clust_9="22.23690"></scales>
<clustering>
<clus scale="   22.237">  1  9  2 -1</clus>
<clus scale="   79.959">  5  6 -1 -1</clus>
<clus scale="   90.044">  7  8 -1 -1</clus>
<clus scale="  120.559">  1  5  2 -1</clus>
<clus scale="  127.471">  2  5  1 -1</clus>
</clustering>
</event>
<event>
 9    1  0.2802611E-005  0.2676061E+03  0.7546771E-02  0.1125218E+00
          1   -1    0    0  502    0  0.00000000000E+00  0.00000000000E+00  0.35270241591E+03  0.35270241591E+03  0.00000000000E+00 0. -1.
         -2   -1    0    0    0  501 -0.00000000000E+00 -0.00000000000E+00 -0.53576821698E+03  0.53576821698E+03  0.00000000000E+00 0.  1.
         23    2    1    2    0    0 -0.82838767480E+02 -0.14520987109E+03  0.40541738723E+02  0.20432064703E+03  0.11025028872E+03 0.  0.
        -24    2    1    2    0    0 -0.12378904869E+03 -0.35457899474E+02  0.15496614124E+03  0.21654552725E+03  0.79350294457E+02 0.  0.
         11    1    4    4    0    0 -0.41830248550E+02 -0.25641657667E+02  0.11459652733E+03  0.12465804578E+03  0.00000000000E+00 0. -1.
        -12    1    4    4    0    0 -0.81958800141E+02 -0.98162418070E+01  0.40369613911E+02  0.91887481471E+02  0.00000000000E+00 0.  1.
        -13    1    3    3    0    0 -0.84017527576E+02 -0.10502378868E+03 -0.15461575637E+02  0.13538094936E+03  0.00000000000E+00 0. -1.
         13    1    3    3    0    0  0.11787600959E+01 -0.40186082413E+02  0.56003314360E+02  0.68939697667E+02  0.00000000000E+00 0.  1.
         21    1    1    2  502  501  0.20662781617E+03  0.18066777057E+03 -0.37857368103E+03  0.46760445861E+03  0.00000000000E+00 0.  1.
<scales pt_clust_5="13000.00000" pt_clust_6="13000.00000" pt_clust_7="13000.00000" pt_clust_8="13000.00000" pt_clust_9="243.83988"></scales>
<clustering>
<clus scale="   79.350">  5  6 -1 -1</clus>
<clus scale="  110.250">  7  8 -1 -1</clus>
<clus scale="  151.253">  1  5  2 -1</clus>
<clus scale="  243.840">  2  9  1 -1</clus>
<clus scale="  151.253">  1  5  2 -1</clus>
</clustering>
</event>
<event>
 9    1  0.2802611E-005  0.1041258E+03  0.7546771E-02  0.1275216E+00
         -2   -1    0    0    0  501 -0.00000000000E+00  0.00000000000E+00  0.33540414961E+03  0.33540414961E+03  0.00000000000E+00 0.  1.
          1   -1    0    0  502    0  0.00000000000E+00 -0.00000000000E+00 -0.79397122966E+02  0.79397122966E+02  0.00000000000E+00 0. -1.
         23    2    1    2    0    0  0.13607372576E+02 -0.19361473576E+02  0.16420029742E+03  0.18791726810E+03  0.88267404682E+02 0.  0.
        -24    2    1    2    0    0 -0.48009063884E+02  0.40295306132E+02 -0.23564966486E+02  0.10468609172E+03  0.80469175735E+02 0.  0.
         13    1    4    4    0    0  0.11960611023E+02  0.22731725596E+02 -0.32647337094E+02  0.41540777364E+02  0.00000000000E+00 0. -1.
        -14    1    4    4    0    0 -0.59969674907E+02  0.17563580535E+02  0.90823706080E+01  0.63145314359E+02  0.00000000000E+00 0.  1.
        -11    1    3    3    0    0 -0.28930531138E+02 -0.12147012414E+02  0.19549511639E+02  0.36969026872E+02  0.00000000000E+00 0. -1.
         11    1    3    3    0    0  0.42537903714E+02 -0.72144611615E+01  0.14465078578E+03  0.15094824123E+03  0.00000000000E+00 0.  1.
         21    1    1    2  502  501  0.34401691308E+02 -0.20933832556E+02  0.11537169571E+03  0.12219791275E+03  0.00000000000E+00 0.  1.
<scales pt_clust_5="13000.00000" pt_clust_6="13000.00000" pt_clust_7="13000.00000" pt_clust_8="13000.00000" pt_clust_9="40.27036"></scales>
<clustering>
<clus scale="   40.270">  1  9  2 -1</clus>
<clus scale="   80.469">  5  6 -1 -1</clus>
<clus scale="   88.267">  7  8 -1 -1</clus>
<clus scale="   97.603">  2  5  1 -1</clus>
<clus scale="   97.603">  2  5  1 -1</clus>
</clustering>
</event>
<event>
 9    1  0.2802611E-005  0.9542615E+02  0.7546771E-02  0.1300187E+00
          1   -1    0    0  502    0  0.00000000000E+00  0.00000000000E+00  0.47707175728E+03  0.47707175728E+03  0.00000000000E+00 0. -1.
         -2   -1    0    0    0  501 -0.00000000000E+00 -0.00000000000E+00 -0.41196008438E+02  0.41196008438E+02  0.00000000000E+00 0.  1.
        -24    2    1    2    0    0  0.96845532119E+01  0.18068155606E+02  0.11681847070E+03  0.13962025619E+03  0.73668256558E+02 0.  0.
         23    2    1    2    0    0  0.15574102856E+02 -0.35521320694E+02  0.33121983192E+03  0.34562417850E+03  0.90802966911E+02 0.  0.
         13    1    3    3    0    0 -0.66268683403E+01 -0.24474791116E+02  0.18915242873E+02  0.31634114451E+02  0.00000000000E+00 0. -1.
        -14    1    3    3    0    0  0.16311421552E+02  0.42542946723E+02  0.97903227823E+02  0.10798614174E+03  0.00000000000E+00 0.  1.
        -13    1    4    4    0    0  0.42152919241E+02 -0.42085748674E+02  0.29058397912E+03  0.29662624254E+03  0.00000000000E+00 0.  1.
         13    1    4    4    0    0 -0.26578816385E+02  0.65644279801E+01  0.40635852801E+02  0.48997935957E+02  0.00000000000E+00 0. -1.
         21    1    1    2  502  501 -0.25258656068E+02  0.17453165088E+02 -0.12162553778E+02  0.33023331031E+02  0.00000000000E+00 0. -1.
<scales pt_clust_5="13000.00000" pt_clust_6="13000.00000" pt_clust_7="13000.00000" pt_clust_8="13000.00000" pt_clust_9="30.70200"></scales>
<clustering>
<clus scale="   30.702">  2  9  1 -1</clus>
<clus scale="   73.668">  5  6 -1 -1</clus>
<clus scale="   79.297">  2  5  1 -1</clus>
<clus scale="   90.803">  7  8 -1 -1</clus>
<clus scale="   95.426">  1  5  2 -1</clus>
</clustering>
</event>
<event>
 9    1  0.2802611E-005  0.1000903E+03  0.7546771E-02  0.1284879E+00
          1   -1    0    0  502    0  0.00000000000E+00  0.00000000000E+00  0.78089886001E+02  0.78089886001E+02  0.00000000000E+00 0. -1.
         -2   -1    0    0    0  501 -0.00000000000E+00 -0.00000000000E+00 -0.45027320138E+03  0.45027320138E+03  0.00000000000E+00 0.  1.
         23    2    1    2    0    0  0.16474305810E+02 -0.19842045673E+01 -0.33951261813E+03  0.35166697306E+03  0.90141567864E+02 0.  0.
        -24    2    1    2    0    0  0.11335805274E+02  0.46780637729E+02  0.26541975602E+02  0.97410155101E+02  0.80419732034E+02 0.  0.
         11    1    4    4    0    0  0.27026755850E+02 -0.13353439422E+02  0.16778453185E+02  0.34500382135E+02  0.00000000000E+00 0. -1.
        -12    1    4    4    0    0 -0.15690950575E+02  0.60134077150E+02  0.97635224165E+01  0.62909772966E+02  0.00000000000E+00 0.  1.
        -13    1    3    3    0    0 -0.29901360434E+02 -0.24658479136E+02 -0.17521924614E+03  0.17945449609E+03  0.00000000000E+00 0.  1.
         13    1    3    3    0    0  0.46375666244E+02  0.22674274568E+02 -0.16429337199E+03  0.17221247698E+03  0.00000000000E+00 0. -1.
         21    1    1    2  502  501 -0.27810111084E+02 -0.44796433162E+02 -0.59212672860E+02  0.79285959222E+02  0.00000000000E+00 0. -1.
<scales pt_clust_5="13000.00000" pt_clust_6="13000.00000" pt_clust_7="13000.00000" pt_clust_8="13000.00000" pt_clust_9="52.72687"></scales>
<clustering>
<clus scale="   52.727">  2  9  1 -1</clus>
<clus scale="   80.420">  5  6 -1 -1</clus>
<clus scale="   90.142">  7  8 -1 -1</clus>
<clus scale="   91.432">  1  5  2 -1</clus>
<clus scale="   91.432">  1  5  2 -1</clus>
</clustering>
</event>
<event>
 9    1  0.2802611E-005  0.1321978E+03  0.7546771E-02  0.1227005E+00
         -2   -1    0    0    0  501 -0.00000000000E+00  0.00000000000E+00  0.68213493593E+02  0.68213493593E+02  0.00000000000E+00 0.  1.
          1   -1    0    0  502    0  0.00000000000E+00 -0.00000000000E+00 -0.48424468021E+03  0.48424468021E+03  0.00000000000E+00 0. -1.
        -24    2    1    2    0    0  0.12592947223E+03  0.38010588013E+02 -0.10864698578E+03  0.18900220930E+03  0.81330380714E+02 0.  0.
         23    2    1    2    0    0 -0.67760098236E+02 -0.48288734153E+02 -0.25835710363E+03  0.28669026500E+03  0.92302125049E+02 0.  0.
         13    1    3    3    0    0  0.13110716791E+03  0.32955217619E+02 -0.11640268476E+03  0.17839484540E+03  0.00000000000E+00 0. -1.
        -14    1    3    3    0    0 -0.51776956822E+01  0.50553703949E+01  0.77556989798E+01  0.10607363908E+02  0.00000000000E+00 0.  1.
        -13    1    4    4    0    0 -0.53238794306E+02  0.18083084331E+02 -0.12278229775E+03  0.13504391804E+03  0.00000000000E+00 0.  1.
         13    1    4    4    0    0 -0.14521303930E+02 -0.66371818484E+02 -0.13557480588E+03  0.15164634696E+03  0.00000000000E+00 0. -1.
         21    1    1    2  502  501 -0.58169373993E+02  0.10278146139E+02 -0.49027097206E+02  0.76765699497E+02  0.00000000000E+00 0.  1.
<scales pt_clust_5="13000.00000" pt_clust_6="13000.00000" pt_clust_7="13000.00000" pt_clust_8="13000.00000" pt_clust_9="59.07044"></scales>
<clustering>
<clus scale="   59.070">  1  9  2 -1</clus>
<clus scale="   81.330">  5  6 -1 -1</clus>
<clus scale="   92.302">  7  8 -1 -1</clus>
<clus scale="  124.785">  1  5  2 -1</clus>
<clus scale="  132.198">  2  5  1 -1</clus>
</clustering>
</event>
<event>
 9    1  0.2802611E-005  0.1489860E+03  0.7546771E-02  0.1204214E+00
          3   -1    0    0  502    0  0.00000000000E+00  0.00000000000E+00  0.29494096023E+03  0.29494096023E+03  0.00000000000E+00 0. -1.
         -4   -1    0    0    0  501 -0.00000000000E+00 -0.00000000000E+00 -0.26630054207E+03  0.26630054207E+03  0.00000000000E+00 0.  1.
        -24    2    1    2    0    0  0.84317173258E+02 -0.48079308297E+02 -0.84645995189E+02  0.15074783796E+03  0.78351519164E+02 0.  0.
         23    2    1    2    0    0 -0.12400031441E+03 -0.17901880871E+02  0.22588493885E+03  0.27408729733E+03  0.91669436810E+02 0.  0.
         11    1    3    3    0    0  0.53915655065E+02 -0.17946278489E+02 -0.10541328616E+01  0.56833774895E+02  0.00000000000E+00 0. -1.
        -12    1    3    3    0    0  0.30401518193E+02 -0.30133029808E+02 -0.83591862328E+02  0.93914063065E+02  0.00000000000E+00 0.  1.
        -11    1    4    4    0    0 -0.38580806385E+02 -0.15951927076E+02  0.11500107224E+02  0.43303522547E+02  0.00000000000E+00 0.  1.
         11    1    4    4    0    0 -0.85419508020E+02 -0.19499537948E+01  0.21438483163E+03  0.23078377478E+03  0.00000000000E+00 0. -1.
         21    1    1    2  502  501  0.39683141147E+02  0.65981189169E+02 -0.11259852550E+03  0.13640636701E+03  0.00000000000E+00 0.  1.
<scales pt_clust_5="13000.00000" pt_clust_6="13000.00000" pt_clust_7="13000.00000" pt_clust_8="13000.00000" pt_clust_9="76.99525"></scales>
<clustering>
<clus scale="   76.995">  2  9  1 -1</clus>
<clus scale="   78.352">  5  6 -1 -1</clus>
<clus scale="   91.669">  7  8 -1 -1</clus>
<clus scale="  141.183">  2  5  1 -1</clus>
<clus scale="  148.986">  1  5  2 -1</clus>
</clustering>
</event>
<event>
 9    1  0.2802611E-005  0.1716624E+03  0.7546771E-02  0.1176149E+00
          1   -1    0    0  502    0  0.00000000000E+00  0.00000000000E+00  0.86374109873E+02  0.86374109873E+02  0.00000000000E+00 0. -1.
         -2   -1    0    0    0  501 -0.00000000000E+00 -0.00000000000E+00 -0.92151803149E+03  0.92151803149E+03  0.00000000000E+00 0.  1.
        -24    2    1    2    0    0  0.75559722331E+02  0.14340186906E+03 -0.73009487117E+03  0.75212262662E+03  0.79853346006E+02 0.  0.
         23    2    1    2    0    0 -0.18469916848E+02 -0.95446083632E+02  0.15406130213E+01  0.12569123215E+03  0.79654376163E+02 0.  0.
         13    1    3    3    0    0  0.31656766410E+02  0.14321347670E+02 -0.70662647204E+02  0.78743009648E+02  0.00000000000E+00 0. -1.
        -14    1    3    3    0    0  0.43902955921E+02  0.12908052139E+03 -0.65943222397E+03  0.67337961697E+03  0.00000000000E+00 0.  1.
        -13    1    4    4    0    0 -0.45246458602E+02 -0.70286687024E+02 -0.15786248684E+02  0.85068596065E+02  0.00000000000E+00 0. -1.
         13    1    4    4    0    0  0.26776541754E+02 -0.25159396608E+02  0.17326861705E+02  0.40622636086E+02  0.00000000000E+00 0.  1.
         21    1    1    2  502  501 -0.57089805483E+02 -0.47955785423E+02 -0.10658966346E+03  0.13007828260E+03  0.00000000000E+00 0.  1.
<scales pt_clust_5="13000.00000" pt_clust_6="13000.00000" pt_clust_7="13000.00000" pt_clust_8="13000.00000" pt_clust_9="74.55872"></scales>
<clustering>
<clus scale="   74.559">  1  9  2 -1</clus>
<clus scale="   79.654">  7  8 -1 -1</clus>
<clus scale="   79.853">  5  6 -1 -1</clus>
<clus scale="  171.570">  1  7  2 -1</clus>
<clus scale="   74.559">  1  5  2 -1</clus>
</clustering>
</event>
<event>
 9    1  0.2802611E-005  0.9331309E+02  0.7546771E-02  0.1298478E+00
          1   -1    0    0  502    0  0.00000000000E+00  0.00000000000E+00  0.37370153262E+03  0.37370153262E+03  0.00000000000E+00 0. -1.
         -2   -1    0    0    0  501 -0.00000000000E+00 -0.00000000000E+00 -0.12506406457E+03  0.12506406457E+03  0.00000000000E+00 0.  1.
        -24    2    1    2    0    0  0.23635681409E+02 -0.11253501049E+02 -0.60754843542E+02  0.10722686031E+03  0.84386976703E+02 0.  0.
         23    2    1    2    0    0 -0.11148275211E+02 -0.22241353988E+02  0.33480448016E+03  0.34767965641E+03  0.90377772042E+02 0.  0.
         11    1    3    3    0    0  0.65004319983E+01 -0.24095722423E+02  0.14582642213E+02  0.28905240168E+02  0.00000000000E+00 0. -1.
        -12    1    3    3    0    0  0.17135249411E+02  0.12842221373E+02 -0.75337485755E+02  0.78321620145E+02  0.00000000000E+00 0.  1.
        -11    1    4    4    0    0  0.30193332413E+02  0.17356550013E+02  0.96386632527E+02  0.10248546278E+03  0.00000000000E+00 0.  1.
         11    1    4    4    0    0 -0.41341607624E+02 -0.39597904001E+02  0.23841784764E+03  0.24519419364E+03  0.00000000000E+00 0. -1.
         21    1    1    2  502  501 -0.12487406198E+02  0.33494855037E+02 -0.25412168571E+02  0.43859080463E+02  0.00000000000E+00 0.  1.
<scales pt_clust_5="13000.00000" pt_clust_6="13000.00000" pt_clust_7="13000.00000" pt_clust_8="13000.00000" pt_clust_9="35.74690"></scales>
<clustering>
<clus scale="   35.747">  2  9  1 -1</clus>
<clus scale="   84.387">  5  6 -1 -1</clus>
<clus scale="   87.523">  2  5  1 -1</clus>
<clus scale="   90.378">  7  8 -1 -1</clus>
<clus scale="   93.313">  1  5  2 -1</clus>
</clustering>
</event>
<event>
 9    1  0.2802611E-005  0.1500336E+03  0.7546771E-02  0.1220084E+00
          1   -1    0    0  502    0  0.00000000000E+00  0.00000000000E+00  0.61797449987E+03  0.61797449987E+03  0.00000000000E+00 0. -1.
         -2   -1    0    0    0  501 -0.00000000000E+00 -0.00000000000E+00 -0.88741597434E+02  0.88741597434E+02  0.00000000000E+00 0.  1.
         23    2    1    2    0    0  0.36572940244E+02  0.86082859504E+01  0.62359463299E+01  0.98826750323E+02  0.91192965779E+02 0.  0.
        -24    2    1    2    0    0  0.92061923676E+01 -0.12870669585E+03  0.40915109466E+03  0.43619124795E+03  0.78790982905E+02 0.  0.
         11    1    4    4    0    0 -0.18258184572E+00 -0.30403844809E+02  0.24443243192E+02  0.39011527182E+02  0.00000000000E+00 0. -1.
        -12    1    4    4    0    0  0.93887742133E+01 -0.98302851044E+02  0.38470785147E+03  0.39717972077E+03  0.00000000000E+00 0.  1.
        -13    1    3    3    0    0  0.59326719389E+02 -0.11033978506E+02  0.22797798834E+02  0.64506960452E+02  0.00000000000E+00 0.  1.
         13    1    3    3    0    0 -0.22753779145E+02  0.19642264457E+02 -0.16561852504E+02  0.34319789870E+02  0.00000000000E+00 0. -1.
         21    1    1    2  502  501 -0.45779132611E+02  0.12009840990E+03  0.11384586144E+03  0.17169809903E+03  0.00000000000E+00 0. -1.
<scales pt_clust_5="13000.00000" pt_clust_6="13000.00000" pt_clust_7="13000.00000" pt_clust_8="13000.00000" pt_clust_9="127.67957"></scales>
<clustering>
<clus scale="   78.791">  5  6 -1 -1</clus>
<clus scale="   91.193">  7  8 -1 -1</clus>
<clus scale="   98.630">  2  7  1 -1</clus>
<clus scale="  127.680">  2  9  1 -1</clus>
<clus scale="  150.034">  1  5  2 -1</clus>
</clustering>
</event>
<event>
 9    1  0.2802611E-005  0.2249054E+03  0.7546771E-02  0.1131161E+00
         -2   -1    0    0    0  501 -0.00000000000E+00  0.00000000000E+00  0.21219742862E+03  0.21219742862E+03  0.00000000000E+00 0.  1.
          1   -1    0    0  502    0  0.00000000000E+00 -0.00000000000E+00 -0.12920725168E+04  0.12920725168E+04  0.00000000000E+00 0. -1.
        -24    2    1    2    0    0 -0.19397620074E+03  0.15387850688E+03 -0.17205039150E+03  0.31106756177E+03  0.76526658351E+02 0.  0.
         23    2    1    2    0    0  0.17583976695E+03 -0.95375298659E+02 -0.10318589773E+04  0.10548692410E+04  0.89443252552E+02 0.  0.
         13    1    3    3    0    0 -0.69786447909E+02  0.17056046414E+02 -0.29367880051E+02  0.77611399998E+02  0.00000000000E+00 0. -1.
        -14    1    3    3    0    0 -0.12418975283E+03  0.13682246047E+03 -0.14268251145E+03  0.23345616177E+03  0.00000000000E+00 0.  1.
        -13    1    4    4    0    0  0.59801549551E+02 -0.83183989476E+02 -0.48227461935E+03  0.49303611420E+03  0.00000000000E+00 0.  1.
         13    1    4    4    0    0  0.11603821740E+03 -0.12191309183E+02 -0.54958435790E+03  0.56183312680E+03  0.00000000000E+00 0. -1.
         21    1    1    2  502  501  0.18136433786E+02 -0.58503208224E+02  0.12403428056E+03  0.13833314266E+03  0.00000000000E+00 0.  1.
<scales pt_clust_5="13000.00000" pt_clust_6="13000.00000" pt_clust_7="13000.00000" pt_clust_8="13000.00000" pt_clust_9="61.24994"></scales>
<clustering>
<clus scale="   61.250">  1  9  2 -1</clus>
<clus scale="   76.527">  5  6 -1 -1</clus>
<clus scale="   89.443">  7  8 -1 -1</clus>
<clus scale="  220.088">  1  5  2 -1</clus>
<clus scale="  224.905">  2  5  1 -1</clus>
</clustering>
</event>
<event>
 9    1  0.2802611E-005  0.1406688E+03  0.7546771E-02  0.1214494E+00
          1   -1    0    0  502    0  0.00000000000E+00  0.00000000000E+00  0.41526065910E+03  0.41526065910E+03  0.00000000000E+00 0. -1.
         -2   -1    0    0    0  501 -0.00000000000E+00 -0.00000000000E+00 -0.59035812407E+02  0.59035812407E+02  0.00000000000E+00 0.  1.
        -24    2    1    2    0    0 -0.79911184078E+02  0.56191811866E+02  0.11431369276E+03  0.17075047213E+03  0.80899853636E+02 0.  0.
         23    2    1    2    0    0  0.80354426389E+02 -0.83696978890E+02  0.23108916819E+03  0.27398511217E+03  0.90573836852E+02 0.  0.
         11    1    3    3    0    0 -0.31949651603E+02  0.45039595260E+01  0.90893944086E+02  0.96450894037E+02  0.00000000000E+00 0. -1.
        -12    1    3    3    0    0 -0.47961532474E+02  0.51687852340E+02  0.23419748676E+02  0.74299578093E+02  0.00000000000E+00 0.  1.
        -11    1    4    4    0    0  0.93931988202E+02 -0.41740751505E+02  0.15343161829E+03  0.18468018366E+03  0.00000000000E+00 0. -1.
         11    1    4    4    0    0 -0.13577561813E+02 -0.41956227386E+02  0.77657549892E+02  0.89304928512E+02  0.00000000000E+00 0.  1.
         21    1    1    2  502  501 -0.44324231118E+00  0.27505167025E+02  0.10821985741E+02  0.29560887202E+02  0.00000000000E+00 0.  1.
<scales pt_clust_5="13000.00000" pt_clust_6="13000.00000" pt_clust_7="13000.00000" pt_clust_8="13000.00000" pt_clust_9="27.50874"></scales>
<clustering>
<clus scale="   27.509">  2  9  1 -1</clus>
<clus scale="   80.900">  5  6 -1 -1</clus>
<clus scale="   90.574">  7  8 -1 -1</clus>
<clus scale="  134.644">  2  5  1 -1</clus>
<clus scale="  140.669">  1  5  2 -1</clus>
</clustering>
</event>
<event>
 9    1  0.2802611E-005  0.1351464E+03  0.7546771E-02  0.1222419E+00
         -2   -1    0    0    0  501 -0.00000000000E+00  0.00000000000E+00  0.66066826475E+02  0.66066826475E+02  0.00000000000E+00 0.  1.
          1   -1    0    0  502    0  0.00000000000E+00 -0.00000000000E+00 -0.81501705529E+03  0.81501705529E+03  0.00000000000E+00 0. -1.
         23    2    1    2    0    0 -0.54009812655E+02  0.46662300599E+02 -0.12956730708E+03  0.17330419346E+03  0.90289679633E+02 0.  0.
        -24    2    1    2    0    0  0.11804906588E+03  0.95360072667E+01 -0.60465222715E+03  0.62131426675E+03  0.80003655401E+02 0.  0.
         13    1    4    4    0    0  0.12835101386E+03  0.17971268194E+02 -0.54989633995E+03  0.56496277216E+03  0.00000000000E+00 0. -1.
        -14    1    4    4    0    0 -0.10301947976E+02 -0.84352609268E+01 -0.54755887199E+02  0.56351494585E+02  0.00000000000E+00 0.  1.
        -11    1    3    3    0    0 -0.17406119018E+02  0.21129657046E+02  0.81280523050E+01  0.28556971486E+02  0.00000000000E+00 0.  1.
         11    1    3    3    0    0 -0.36603693636E+02  0.25532643553E+02 -0.13769535938E+03  0.14474722198E+03  0.00000000000E+00 0. -1.
         21    1    1    2  502  501 -0.64039253230E+02 -0.56198307866E+02 -0.14730694588E+02  0.86465421553E+02  0.00000000000E+00 0.  1.
<scales pt_clust_5="13000.00000" pt_clust_6="13000.00000" pt_clust_7="13000.00000" pt_clust_8="13000.00000" pt_clust_9="85.20138"></scales>
<clustering>
<clus scale="   80.004">  5  6 -1 -1</clus>
<clus scale="   85.201">  1  9  2 -1</clus>
<clus scale="   90.290">  7  8 -1 -1</clus>
<clus scale="  128.503">  2  5  1 -1</clus>
<clus scale="  128.503">  2  5  1 -1</clus>
</clustering>
</event>
<event>
 9    1  0.2802611E-005  0.9142418E+02  0.7546771E-02  0.1305291E+00
          1   -1    0    0  502    0  0.00000000000E+00  0.00000000000E+00  0.38804516421E+03  0.38804516421E+03  0.00000000000E+00 0. -1.
         -2   -1    0    0    0  501 -0.00000000000E+00 -0.00000000000E+00 -0.61804774530E+02  0.61804774530E+02  0.00000000000E+00 0.  1.
        -24    2    1    2    0    0 -0.68047496690E+02  0.89660040147E+01  0.84965725707E+02  0.13564272374E+03  0.80429614725E+02 0.  0.
         23    2    1    2    0    0 -0.13951275841E+02 -0.13190690553E+02  0.20433861845E+03  0.22417434250E+03  0.90173346554E+02 0.  0.
         11    1    3    3    0    0 -0.54328622099E+02  0.40693554808E+02  0.71380262575E+02  0.98502317066E+02  0.00000000000E+00 0. -1.
        -12    1    3    3    0    0 -0.13718874591E+02 -0.31727550793E+02  0.13585463132E+02  0.37140406674E+02  0.00000000000E+00 0.  1.
        -11    1    4    4    0    0  0.25456625270E+02 -0.76925054919E+01  0.14658686511E+02  0.30365959578E+02  0.00000000000E+00 0.  1.
         11    1    4    4    0    0 -0.39407901111E+02 -0.54981850608E+01  0.18967993194E+03  0.19380838292E+03  0.00000000000E+00 0. -1.
         21    1    1    2  502  501  0.81998772532E+02  0.42246865380E+01  0.36936045526E+02  0.90032872509E+02  0.00000000000E+00 0.  1.
<scales pt_clust_5="13000.00000" pt_clust_6="13000.00000" pt_clust_7="13000.00000" pt_clust_8="13000.00000" pt_clust_9="82.10753"></scales>
<clustering>
<clus scale="   80.430">  5  6 -1 -1</clus>
<clus scale="   82.108">  2  9  1 -1</clus>
<clus scale="   82.108">  2  5  1 -1</clus>
<clus scale="   90.173">  7  8 -1 -1</clus>
<clus scale="   91.424">  1  5  2 -1</clus>
</clustering>
</event>
<event>
 9    1  0.2802611E-005  0.1474597E+03  0.7546771E-02  0.1205817E+00
          1   -1    0    0  502    0  0.00000000000E+00  0.00000000000E+00  0.34287559605E+03  0.34287559605E+03  0.00000000000E+00 0. -1.
         -2   -1    0    0    0  501 -0.00000000000E+00 -0.00000000000E+00 -0.14657416204E+03  0.14657416204E+03  0.00000000000E+00 0.  1.
        -24    2    1    2    0    0  0.74329516966E+02 -0.31192227809E+02 -0.68806813653E+02  0.13307112243E+03  0.80471820227E+02 0.  0.
         23    2    1    2    0    0 -0.97818278407E+02  0.74426881469E+02  0.26610316866E+03  0.30716535434E+03  0.91825281179E+02 0.  0.
         11    1    3    3    0    0  0.25008859802E+02  0.75052676463E+01  0.13670695503E+02  0.29473038977E+02  0.00000000000E+00 0. -1.
        -12    1    3    3    0    0  0.49320657164E+02 -0.38697495455E+02 -0.82477509157E+02  0.10359808345E+03  0.00000000000E+00 0.  1.
        -13    1    4    4    0    0 -0.10900064954E+02 -0.20154135882E+02  0.24550460675E+02  0.33581627841E+02  0.00000000000E+00 0.  1.
         13    1    4    4    0    0 -0.86918213453E+02  0.94581017351E+02  0.24155270798E+03  0.27358372650E+03  0.00000000000E+00 0. -1.
         21    1    1    2  502  501  0.23488761441E+02 -0.43234653660E+02 -0.99492099519E+00  0.49213281327E+02  0.00000000000E+00 0.  1.
<scales pt_clust_5="13000.00000" pt_clust_6="13000.00000" pt_clust_7="13000.00000" pt_clust_8="13000.00000" pt_clust_9="49.20322"></scales>
<clustering>
<clus scale="   49.203">  2  9  1 -1</clus>
<clus scale="   80.472">  5  6 -1 -1</clus>
<clus scale="   91.825">  7  8 -1 -1</clus>
<clus scale="  140.671">  2  5  1 -1</clus>
<clus scale="  147.460">  1  5  2 -1</clus>
</clustering>
</event>
<event>
 9    1  0.2802611E-005  0.1289225E+03  0.7546771E-02  0.1232661E+00
         -2   -1    0    0    0  501 -0.00000000000E+00  0.00000000000E+00  0.10586201688E+03  0.10586201688E+03  0.00000000000E+00 0.  1.
          1   -1    0    0  502    0  0.00000000000E+00 -0.00000000000E+00 -0.44074846664E+03  0.44074846664E+03  0.00000000000E+00 0. -1.
        -24    2    1    2    0    0 -0.88125590709E+02 -0.58415245987E+02  0.21481358615E+02  0.13413522993E+03  0.79701633846E+02 0.  0.
         23    2    1    2    0    0  0.86321295356E+02  0.16698948834E+02 -0.34677682054E+03  0.36963261154E+03  0.92972486960E+02 0.  0.
         11    1    3    3    0    0  0.14461560766E+01 -0.39320046313E+02  0.15716678058E+02  0.42369462808E+02  0.00000000000E+00 0. -1.
        -12    1    3    3    0    0 -0.89571746786E+02 -0.19095199675E+02  0.57646805564E+01  0.91765767118E+02  0.00000000000E+00 0.  1.
        -11    1    4    4    0    0  0.17814565512E+02 -0.26296152825E+02 -0.33833991780E+02  0.46406738708E+02  0.00000000000E+00 0.  1.
         11    1    4    4    0    0  0.68506729844E+02  0.42995101658E+02 -0.31294282876E+03  0.32322587283E+03  0.00000000000E+00 0. -1.
         21    1    1    2  502  501  0.18042953530E+01  0.41716297154E+02 -0.95909878420E+01  0.42842642049E+02  0.00000000000E+00 0.  1.
<scales pt_clust_5="13000.00000" pt_clust_6="13000.00000" pt_clust_7="13000.00000" pt_clust_8="13000.00000" pt_clust_9="41.75530"></scales>
<clustering>
<clus scale="   41.755">  1  9  2 -1</clus>
<clus scale="   79.702">  5  6 -1 -1</clus>
<clus scale="   92.972">  7  8 -1 -1</clus>
<clus scale="  119.706">  1  5  2 -1</clus>
<clus scale="  128.923">  2  5  1 -1</clus>
</clustering>
</event>
<event>
 9    1  0.2802611E-005  0.2087297E+03  0.7546771E-02  0.1143469E+00
          1   -1    0    0  502    0  0.00000000000E+00  0.00000000000E+00  0.53787278424E+03  0.53787278424E+03  0.00000000000E+00 0. -1.
         -2   -1    0    0    0  501 -0.00000000000E+00 -0.00000000000E+00 -0.21082951681E+03  0.21082951681E+03  0.00000000000E+00 0.  1.
         23    2    1    2    0    0  0.23151237482E+03  0.38759246445E+02  0.36488037862E+02  0.25424181215E+03  0.90593947142E+02 0.  0.
        -24    2    1    2    0    0 -0.16914826298E+03 -0.54619626184E+02  0.35400157605E+03  0.40409305576E+03  0.79872670109E+02 0.  0.
         11    1    4    4    0    0 -0.58433094857E+02 -0.14111340819E+02  0.20758048762E+03  0.21610926717E+03  0.00000000000E+00 0. -1.
        -12    1    4    4    0    0 -0.11071516812E+03 -0.40508285365E+02  0.14642108843E+03  0.18798378859E+03  0.00000000000E+00 0.  1.
        -11    1    3    3    0    0  0.74816630151E+02 -0.29363234368E+02  0.52253236851E+01  0.80542111267E+02  0.00000000000E+00 0.  1.
         11    1    3    3    0    0  0.15669574467E+03  0.68122480813E+02  0.31262714177E+02  0.17369970088E+03  0.00000000000E+00 0. -1.
         21    1    1    2  502  501 -0.62364111837E+02  0.15860379739E+02 -0.63446346484E+02  0.90367433143E+02  0.00000000000E+00 0.  1.
<scales pt_clust_5="13000.00000" pt_clust_6="13000.00000" pt_clust_7="13000.00000" pt_clust_8="13000.00000" pt_clust_9="64.34931"></scales>
<clustering>
<clus scale="   64.349">  2  9  1 -1</clus>
<clus scale="   79.873">  5  6 -1 -1</clus>
<clus scale="   90.594">  7  8 -1 -1</clus>
<clus scale="  204.305">  1  5  2 -1</clus>
<clus scale="  204.305">  1  5  2 -1</clus>
</clustering>
</event>
<event>
 9    1  0.2802611E-005  0.1023851E+03  0.7546771E-02  0.1280878E+00
         -2   -1    0    0    0  501 -0.00000000000E+00  0.00000000000E+00  0.52592719755E+02  0.52592719755E+02  0.00000000000E+00 0.  1.
          1   -1    0    0  502    0  0.00000000000E+00 -0.00000000000E+00 -0.49987211014E+03  0.49987211014E+03  0.00000000000E+00 0. -1.
        -24    2    1    2    0    0  0.31509596760E+02  0.25701922445E+02 -0.10940808182E+03  0.14154255039E+03  0.80066982582E+02 0.  0.
         23    2    1    2    0    0 -0.50362245532E+02  0.35611701956E+02 -0.32789005152E+03  0.34600380451E+03  0.91663502875E+02 0.  0.
         11    1    3    3    0    0 -0.19805375377E+02 -0.50035177265E+01 -0.47000405300E+01  0.20961356455E+02  0.00000000000E+00 0. -1.
        -12    1    3    3    0    0  0.51314972137E+02  0.30705440172E+02 -0.10470804129E+03  0.12058119394E+03  0.00000000000E+00 0.  1.
        -11    1    4    4    0    0 -0.46511607518E+02 -0.22885832591E+02 -0.15738824259E+03  0.16570500859E+03  0.00000000000E+00 0.  1.
         11    1    4    4    0    0 -0.38506380139E+01  0.58497534546E+02 -0.17050180893E+03  0.18029879592E+03  0.00000000000E+00 0. -1.
         21    1    1    2  502  501  0.18852648772E+02 -0.61313624401E+02 -0.99812570497E+01  0.64918474991E+02  0.00000000000E+00 0.  1.
<scales pt_clust_5="13000.00000" pt_clust_6="13000.00000" pt_clust_7="13000.00000" pt_clust_8="13000.00000" pt_clust_9="64.14657"></scales>
<clustering>
<clus scale="   64.147">  1  9  2 -1</clus>
<clus scale="   80.067">  5  6 -1 -1</clus>
<clus scale="   91.664">  7  8 -1 -1</clus>
<clus scale="   92.148">  1  5  2 -1</clus>
<clus scale="  102.385">  2  5  1 -1</clus>
</clustering>
</event>
<event>
 9    1  0.2802611E-005  0.9636101E+02  0.7546771E-02  0.1294599E+00
          1   -1    0    0  502    0  0.00000000000E+00  0.00000000000E+00  0.33534789617E+03  0.33534789617E+03  0.00000000000E+00 0. -1.
         -2   -1    0    0    0  501 -0.00000000000E+00 -0.00000000000E+00 -0.87195644217E+02  0.87195644217E+02  0.00000000000E+00 0.  1.
         23    2    1    2    0    0  0.44083955748E+02  0.21286972674E+02  0.19067805023E+00  0.10284157656E+03  0.90442374752E+02 0.  0.
        -24    2    1    2    0    0  0.11061543280E+02 -0.34665448257E+02  0.24826154157E+03  0.26295604193E+03  0.78664070070E+02 0.  0.
         11    1    4    4    0    0  0.34212437801E+02 -0.48288861633E+02  0.15539621717E+03  0.16628376159E+03  0.00000000000E+00 0. -1.
        -12    1    4    4    0    0 -0.23150894521E+02  0.13623413376E+02  0.92865324403E+02  0.96672280338E+02  0.00000000000E+00 0.  1.
        -11    1    3    3    0    0  0.66071457522E+02 -0.57061975809E+00  0.16081896109E+02  0.68002871177E+02  0.00000000000E+00 0. -1.
         11    1    3    3    0    0 -0.21987501774E+02  0.21857592432E+02 -0.15891218058E+02  0.34838705380E+02  0.00000000000E+00 0.  1.
         21    1    1    2  502  501 -0.55145499028E+02  0.13378475583E+02 -0.29996766770E+00  0.56745921902E+02  0.00000000000E+00 0.  1.
<scales pt_clust_5="13000.00000" pt_clust_6="13000.00000" pt_clust_7="13000.00000" pt_clust_8="13000.00000" pt_clust_9="56.74513"></scales>
<clustering>
<clus scale="   56.745">  2  9  1 -1</clus>
<clus scale="   78.664">  5  6 -1 -1</clus>
<clus scale="   85.403">  1  5  2 -1</clus>
<clus scale="   90.442">  7  8 -1 -1</clus>
<clus scale="   85.403">  1  5  2 -1</clus>
</clustering>
</event>
<event>
 9    1  0.2802611E-005  0.2013995E+03  0.7546771E-02  0.1149273E+00
          1   -1    0    0  502    0  0.00000000000E+00  0.00000000000E+00  0.11365410044E+04  0.11365410044E+04  0.00000000000E+00 0. -1.
         -2   -1    0    0    0  501 -0.00000000000E+00 -0.00000000000E+00 -0.47149752123E+02  0.47149752123E+02  0.00000000000E+00 0.  1.
        -24    2    1    2    0    0  0.30790534967E+02  0.16206477893E+03  0.25984395868E+03  0.31889042648E+03  0.83421649612E+02 0.  0.
         23    2    1    2    0    0 -0.57624795130E+02 -0.17776734078E+03  0.77063872406E+03  0.79819051446E+03  0.91116463293E+02 0.  0.
         11    1    3    3    0    0  0.24758649961E+02  0.10021908282E+02  0.74162568661E+02  0.78825858599E+02  0.00000000000E+00 0. -1.
        -12    1    3    3    0    0  0.60318850055E+01  0.15204287065E+03  0.18568139002E+03  0.24006456788E+03  0.00000000000E+00 0.  1.
        -11    1    4    4    0    0 -0.75756524764E+02 -0.12728130164E+03  0.46948268786E+03  0.49229419557E+03  0.00000000000E+00 0.  1.
         11    1    4    4    0    0  0.18131729634E+02 -0.50486039137E+02  0.30115603620E+03  0.30589631888E+03  0.00000000000E+00 0. -1.
         21    1    1    2  502  501  0.26834260164E+02  0.15702561851E+02  0.58908569497E+02  0.66609815549E+02  0.00000000000E+00 0.  1.
<scales pt_clust_5="13000.00000" pt_clust_6="13000.00000" pt_clust_7="13000.00000" pt_clust_8="13000.00000" pt_clust_9="31.09096"></scales>
<clustering>
<clus scale="   31.091">  2  9  1 -1</clus>
<clus scale="   83.422">  5  6 -1 -1</clus>
<clus scale="   91.116">  7  8 -1 -1</clus>
<clus scale="  198.037">  2  5  1 -1</clus>
<clus scale="  201.399">  1  5  2 -1</clus>
</clustering>
</event>
<event>
 9    1  0.2802611E-005  0.1085388E+03  0.7546771E-02  0.1266762E+00
         -2   -1    0    0    0  501 -0.00000000000E+00  0.00000000000E+00  0.25563107214E+03  0.25563107214E+03  0.00000000000E+00 0.  1.
          1   -1    0    0  502    0  0.00000000000E+00 -0.00000000000E+00 -0.26764904812E+03  0.26764904812E+03  0.00000000000E+00 0. -1.
         23    2    1    2    0    0 -0.35012206522E+02  0.56018123223E+02  0.19375072425E+03  0.22340815772E+03  0.89487301082E+02 0.  0.
        -24    2    1    2    0    0 -0.50576894108E+02 -0.30011326296E+02 -0.18151703103E+03  0.20718975771E+03  0.80749372879E+02 0.  0.
         13    1    4    4    0    0 -0.32960291298E+02 -0.22572523031E+02 -0.18365336676E+03  0.18794802132E+03  0.00000000000E+00 0. -1.
        -14    1    4    4    0    0 -0.17616602810E+02 -0.74388032657E+01  0.21363357278E+01  0.19241736380E+02  0.00000000000E+00 0.  1.
        -11    1    3    3    0    0 -0.18314762390E+01  0.38974060270E+02  0.17915103263E+03  0.18335054996E+03  0.00000000000E+00 0.  1.
         11    1    3    3    0    0 -0.33180730283E+02  0.17044062953E+02  0.14599691619E+02  0.40057607760E+02  0.00000000000E+00 0. -1.
         21    1    1    2  502  501  0.85589100630E+02 -0.26006796927E+02 -0.24251669201E+02  0.92682204830E+02  0.00000000000E+00 0. -1.
<scales pt_clust_5="13000.00000" pt_clust_6="13000.00000" pt_clust_7="13000.00000" pt_clust_8="13000.00000" pt_clust_9="89.45305"></scales>
<clustering>
<clus scale="   80.749">  5  6 -1 -1</clus>
<clus scale="   89.453">  2  9  1 -1</clus>
<clus scale="   89.487">  7  8 -1 -1</clus>
<clus scale="  101.455">  2  5  1 -1</clus>
<clus scale="   89.453">  2  5  1 -1</clus>
</clustering>
</event>
<event>
 9    1  0.2802611E-005  0.9259557E+02  0.7546771E-02  0.1304026E+00
         -2   -1    0    0    0  501 -0.00000000000E+00  0.00000000000E+00  0.80246999397E+02  0.80246999397E+02  0.00000000000E+00 0.  1.
          1   -1    0    0  502    0  0.00000000000E+00 -0.00000000000E+00 -0.25958228430E+03  0.25958228430E+03  0.00000000000E+00 0. -1.
        -24    2    1    2    0    0  0.12672713501E+01 -0.28671093992E+01  0.33815477644E+02  0.87717491566E+02  0.80876730309E+02 0.  0.
         23    2    1    2    0    0  0.11382404744E+02 -0.27396746883E+02 -0.18453707934E+03  0.20858412083E+03  0.92591905328E+02 0.  0.
         13    1    3    3    0    0 -0.49993474013E+01 -0.34302127078E+02 -0.74594452037E+01  0.35458041673E+02  0.00000000000E+00 0. -1.
        -14    1    3    3    0    0  0.62666187514E+01  0.31435017679E+02  0.41274922847E+02  0.52259449893E+02  0.00000000000E+00 0.  1.
        -13    1    4    4    0    0  0.39164300703E+02 -0.30277371172E+02 -0.17007167248E+03  0.17712971359E+03  0.00000000000E+00 0. -1.
         13    1    4    4    0    0 -0.27781895959E+02  0.28806242895E+01 -0.14465406862E+02  0.31454407244E+02  0.00000000000E+00 0.  1.
         21    1    1    2  502  501 -0.12649676094E+02  0.30263856282E+02 -0.28613683203E+02  0.43527671299E+02  0.00000000000E+00 0.  1.
<scales pt_clust_5="13000.00000" pt_clust_6="13000.00000" pt_clust_7="13000.00000" pt_clust_8="13000.00000" pt_clust_9="32.80115"></scales>
<clustering>
<clus scale="   32.801">  2  9  1 -1</clus>
<clus scale="   80.877">  5  6 -1 -1</clus>
<clus scale="   80.881">  1  5  2 -1</clus>
<clus scale="   92.592">  7  8 -1 -1</clus>
<clus scale="   32.801">  2  5  1 -1</clus>
</clustering>
</event>
<event>
 9    1  0.2802611E-005  0.1323077E+03  0.7546771E-02  0.1226305E+00
         -2   -1    0    0    0  501 -0.00000000000E+00  0.00000000000E+00  0.11318180598E+03  0.11318180598E+03  0.00000000000E+00 0.  1.
          1   -1    0    0  502    0  0.00000000000E+00 -0.00000000000E+00 -0.22329696564E+03  0.22329696564E+03  0.00000000000E+00 0. -1.
         23    2    1    2    0    0 -0.45815264877E+02 -0.63920819326E+02 -0.22754040066E+01  0.11982992353E+03  0.90383203478E+02 0.  0.
        -24    2    1    2    0    0  0.63673691538E+02  0.83940219466E+02 -0.12677528047E+03  0.18381207168E+03  0.81330231266E+02 0.  0.
         13    1    4    4    0    0  0.43263465075E+02 -0.32272971232E+01 -0.46030648293E+02  0.63253169401E+02  0.00000000000E+00 0. -1.
        -14    1    4    4    0    0  0.20410226463E+02  0.87167516589E+02 -0.80744632181E+02  0.12055890228E+03  0.00000000000E+00 0.  1.
        -11    1    3    3    0    0 -0.12941328447E+02 -0.40688888791E+02 -0.44375935323E+02  0.61581549906E+02  0.00000000000E+00 0. -1.
         11    1    3    3    0    0 -0.32873936430E+02 -0.23231930535E+02  0.42100531316E+02  0.58248373624E+02  0.00000000000E+00 0.  1.
         21    1    1    2  502  501 -0.17858426661E+02 -0.20019400141E+02  0.18935524819E+02  0.32836776410E+02  0.00000000000E+00 0. -1.
<scales pt_clust_5="13000.00000" pt_clust_6="13000.00000" pt_clust_7="13000.00000" pt_clust_8="13000.00000" pt_clust_9="26.82722"></scales>
<clustering>
<clus scale="   26.827">  1  9  2 -1</clus>
<clus scale="   81.330">  5  6 -1 -1</clus>
<clus scale="   90.383">  7  8 -1 -1</clus>
<clus scale="  126.296">  2  5  1 -1</clus>
<clus scale="  126.296">  2  5  1 -1</clus>
</clustering>
</event>
<event>
 9    1  0.2802611E-005  0.1017802E+03  0.7546771E-02  0.1281355E+00
          1   -1    0    0  502    0  0.00000000000E+00  0.00000000000E+00  0.59950784895E+03  0.59950784895E+03  0.00000000000E+00 0. -1.
         -2   -1    0    0    0  501 -0.00000000000E+00 -0.00000000000E+00 -0.94894361438E+02  0.94894361438E+02  0.00000000000E+00 0.  1.
         23    2    1    2    0    0  0.30490032750E+02  0.11216910666E+00  0.76551575586E+02  0.12266711005E+03  0.90870355369E+02 0.  0.
        -24    2    1    2    0    0 -0.34303746675E+02  0.37352219687E+02  0.49002052072E+03  0.49922996917E+03  0.80861090996E+02 0.  0.
         13    1    4    4    0    0 -0.75149965139E+01  0.59880448992E+02  0.32081571779E+03  0.32644274862E+03  0.00000000000E+00 0. -1.
        -14    1    4    4    0    0 -0.26788750161E+02 -0.22528229304E+02  0.16920480293E+03  0.17278722055E+03  0.00000000000E+00 0.  1.
        -11    1    3    3    0    0 -0.12760293120E+02 -0.16769909969E+02 -0.10848089583E+02  0.23700970623E+02  0.00000000000E+00 0.  1.
         11    1    3    3    0    0  0.43250325870E+02  0.16882079076E+02  0.87399665170E+02  0.98966139429E+02  0.00000000000E+00 0. -1.
         21    1    1    2  502  501  0.38137139247E+01 -0.37464388794E+02 -0.61958608795E+02  0.72505131166E+02  0.00000000000E+00 0.  1.
<scales pt_clust_5="13000.00000" pt_clust_6="13000.00000" pt_clust_7="13000.00000" pt_clust_8="13000.00000" pt_clust_9="37.65800"></scales>
<clustering>
<clus scale="   37.658">  2  9  1 -1</clus>
<clus scale="   80.861">  5  6 -1 -1</clus>
<clus scale="   90.870">  7  8 -1 -1</clus>
<clus scale="   92.953">  1  5  2 -1</clus>
<clus scale="   92.953">  1  5  2 -1</clus>
</clustering>
</event>
<event>
 9    1  0.2802611E-005  0.1026941E+03  0.7546771E-02  0.1277962E+00
          1   -1    0    0  502    0  0.00000000000E+00  0.00000000000E+00  0.39226038673E+03  0.39226038673E+03  0.00000000000E+00 0. -1.
         -2   -1    0    0    0  501 -0.00000000000E+00 -0.00000000000E+00 -0.72334069113E+02  0.72334069113E+02  0.00000000000E+00 0.  1.
        -24    2    1    2    0    0 -0.40958260514E+02  0.22836117531E+02 -0.50535402788E+01  0.92634220945E+02  0.79727619133E+02 0.  0.
         23    2    1    2    0    0  0.75909149821E+02 -0.59380815827E+02  0.22124133168E+03  0.25655329638E+03  0.87083791399E+02 0.  0.
         11    1    3    3    0    0  0.24261770087E+02  0.57833091977E+01 -0.36490015860E+01  0.25207049919E+02  0.00000000000E+00 0. -1.
        -12    1    3    3    0    0 -0.65220030601E+02  0.17052808333E+02 -0.14045386929E+01  0.67427171026E+02  0.00000000000E+00 0.  1.
        -13    1    4    4    0    0  0.39439493947E+02 -0.34259041790E+02  0.20133135086E+03  0.20799872227E+03  0.00000000000E+00 0. -1.
         13    1    4    4    0    0  0.36469655874E+02 -0.25121774037E+02  0.19909980816E+02  0.48554574104E+02  0.00000000000E+00 0.  1.
         21    1    1    2  502  501 -0.34950889307E+02  0.36544698296E+02  0.10373852622E+03  0.11540693852E+03  0.00000000000E+00 0.  1.
<scales pt_clust_5="13000.00000" pt_clust_6="13000.00000" pt_clust_7="13000.00000" pt_clust_8="13000.00000" pt_clust_9="50.56757"></scales>
<clustering>
<clus scale="   50.568">  1  9  2 -1</clus>
<clus scale="   79.728">  5  6 -1 -1</clus>
<clus scale="   87.084">  7  8 -1 -1</clus>
<clus scale="   96.535">  2  5  1 -1</clus>
<clus scale="   50.568">  1  5  2 -1</clus>
</clustering>
</event>
<event>
 9    1  0.2802611E-005  0.1166771E+03  0.7546771E-02  0.1253029E+00
          1   -1    0    0  502    0  0.00000000000E+00  0.00000000000E+00  0.60291629358E+03  0.60291629358E+03  0.00000000000E+00 0. -1.
         -2   -1    0    0    0  501 -0.00000000000E+00 -0.00000000000E+00 -0.26786792694E+02  0.26786792694E+02  0.00000000000E+00 0.  1.
        -24    2    1    2    0    0  0.30260197329E+02 -0.51282025001E+02  0.18821923926E+03  0.21306428734E+03  0.80152248123E+02 0.  0.
         23    2    1    2    0    0 -0.53668266336E+02  0.60635682332E+02  0.35089261928E+03  0.37185337224E+03  0.92694829391E+02 0.  0.
         11    1    3    3    0    0  0.57870411527E+02 -0.35954918739E+02  0.12326457574E+03  0.14083996714E+03  0.00000000000E+00 0. -1.
        -12    1    3    3    0    0 -0.27610214198E+02 -0.15327106262E+02  0.64954663522E+02  0.72224320195E+02  0.00000000000E+00 0.  1.
        -11    1    4    4    0    0 -0.53753432569E+01  0.70617006379E+02  0.16554626145E+03  0.18005893642E+03  0.00000000000E+00 0. -1.
         11    1    4    4    0    0 -0.48292923079E+02 -0.99813240465E+01  0.18534635783E+03  0.19179443582E+03  0.00000000000E+00 0.  1.
         21    1    1    2  502  501  0.23408069007E+02 -0.93536573316E+01  0.37017642349E+02  0.44785426706E+02  0.00000000000E+00 0.  1.
<scales pt_clust_5="13000.00000" pt_clust_6="13000.00000" pt_clust_7="13000.00000" pt_clust_8="13000.00000" pt_clust_9="25.20771"></scales>
<clustering>
<clus scale="   25.208">  2  9  1 -1</clus>
<clus scale="   80.152">  5  6 -1 -1</clus>
<clus scale="   92.695">  7  8 -1 -1</clus>
<clus scale="  106.984">  2  5  1 -1</clus>
<clus scale="  116.677">  1  5  2 -1</clus>
</clustering>
</event>
<event>
 9    1  0.2802611E-005  0.1839861E+03  0.7546771E-02  0.1165775E+00
         -2   -1    0    0    0  501 -0.00000000000E+00  0.00000000000E+00  0.26971372406E+03  0.26971372406E+03  0.00000000000E+00 0.  1.
          1   -1    0    0  502    0  0.00000000000E+00 -0.00000000000E+00 -0.45469979921E+03  0.45469979921E+03  0.00000000000E+00 0. -1.
         23    2    1    2    0    0 -0.90302994094E+02  0.41022691560E+02  0.52824409647E+02  0.13698220551E+03  0.78333992655E+02 0.  0.
        -24    2    1    2    0    0  0.12319075395E+03 -0.12451483836E+03 -0.37448467242E+03  0.42393092973E+03  0.93801686963E+02 0.  0.
         13    1    4    4    0    0  0.60028470111E+02 -0.39815480004E+02 -0.25238613394E+03  0.26246418856E+03  0.00000000000E+00 0. -1.
        -14    1    4    4    0    0  0.63162283844E+02 -0.84699358358E+02 -0.12209853848E+03  0.16146674117E+03  0.00000000000E+00 0.  1.
        -11    1    3    3    0    0 -0.56269121750E+02 -0.95074502468E+01  0.11220984223E+01  0.57077708237E+02  0.00000000000E+00 0. -1.
         11    1    3    3    0    0 -0.34033872344E+02  0.50530141806E+02  0.51702311225E+02  0.79904497268E+02  0.00000000000E+00 0.  1.
         21    1    1    2  502  501 -0.32887759861E+02  0.83492146802E+02  0.13667418762E+03  0.16350038803E+03  0.00000000000E+00 0.  1.
<scales pt_clust_5="13000.00000" pt_clust_6="13000.00000" pt_clust_7="13000.00000" pt_clust_8="13000.00000" pt_clust_9="89.73596"></scales>
<clustering>
<clus scale="   78.334">  7  8 -1 -1</clus>
<clus scale="   89.736">  1  9  2 -1</clus>
<clus scale="   93.802">  5  6 -1 -1</clus>
<clus scale="  176.602">  1  7  2 -1</clus>
<clus scale="  183.986">  2  5  1 -1</clus>
</clustering>
</event>
<event>
 9    1  0.2802611E-005  0.2695338E+03  0.7546771E-02  0.1101547E+00
          1   -1    0    0  502    0  0.00000000000E+00  0.00000000000E+00  0.15805003700E+04  0.15805003700E+04  0.00000000000E+00 0. -1.
         -2   -1    0    0    0  501 -0.00000000000E+00 -0.00000000000E+00 -0.84204999930E+02  0.84204999930E+02  0.00000000000E+00 0.  1.
        -24    2    1    2    0    0  0.52838127375E+02 -0.49331463589E+02  0.53164464280E+02  0.11741434400E+03  0.75724546295E+02 0.  0.
         23    2    1    2    0    0  0.11100994583E+03 -0.80187102722E+02  0.10949005086E+03  0.19739503733E+03  0.90683791308E+02 0.  0.
         13    1    3    3    0    0  0.25674912506E+02 -0.11013306247E+02  0.63453365836E+02  0.69331260500E+02  0.00000000000E+00 0. -1.
        -14    1    3    3    0    0  0.27163214870E+02 -0.38318157342E+02 -0.10288901555E+02  0.48083083505E+02  0.00000000000E+00 0.  1.
        -13    1    4    4    0    0  0.13327525921E+02 -0.63695224987E+02  0.46900145464E+02  0.80214264803E+02  0.00000000000E+00 0. -1.
         13    1    4    4    0    0  0.97682419912E+02 -0.16491877734E+02  0.62589905400E+02  0.11718077252E+03  0.00000000000E+00 0.  1.
         21    1    1    2  502  501 -0.16384807321E+03  0.12951856631E+03  0.13336408550E+04  0.13498959886E+04  0.00000000000E+00 0. -1.
<scales pt_clust_5="13000.00000" pt_clust_6="13000.00000" pt_clust_7="13000.00000" pt_clust_8="13000.00000" pt_clust_9="208.85701"></scales>
<clustering>
<clus scale="   75.725">  5  6 -1 -1</clus>
<clus scale="   90.684">  7  8 -1 -1</clus>
<clus scale="   93.787">  5  7 -1 -1</clus>
<clus scale="  208.857">  1  9  2 -1</clus>
<clus scale="  208.857">  1  5  2 -1</clus>
</clustering>
</event>
<event>
 9    1  0.2802611E-005  0.1898056E+03  0.7546771E-02  0.1159762E+00
         -2   -1    0    0    0  501 -0.00000000000E+00  0.00000000000E+00  0.39664203299E+02  0.39664203299E+02  0.00000000000E+00 0.  1.
          1   -1    0    0  502    0  0.00000000000E+00 -0.00000000000E+00 -0.11417225249E+04  0.11417225249E+04  0.00000000000E+00 0. -1.
        -24    2    1    2    0    0 -0.97659455381E+02  0.12284420944E+03 -0.30748524246E+03  0.35428622522E+03  0.79646004502E+02 0.  0.
         23    2    1    2    0    0  0.91744754618E+02 -0.14593020865E+03 -0.76357440961E+03  0.78799980531E+03  0.90471478182E+02 0.  0.
         11    1    3    3    0    0 -0.13086309206E+02  0.75862799440E+02 -0.10859410455E+03  0.13311309241E+03  0.00000000000E+00 0. -1.
        -12    1    3    3    0    0 -0.84573146176E+02  0.46981409999E+02 -0.19889113791E+03  0.22117313281E+03  0.00000000000E+00 0.  1.
        -11    1    4    4    0    0  0.70986612403E+02 -0.14671256165E+03 -0.73388283048E+03  0.75176305027E+03  0.00000000000E+00 0. -1.
         11    1    4    4    0    0  0.20758142215E+02  0.78235299785E+00 -0.29691579134E+02  0.36236755041E+02  0.00000000000E+00 0.  1.
         21    1    1    2  502  501  0.59147007633E+01  0.23085999212E+02 -0.30998669501E+02  0.39100697636E+02  0.00000000000E+00 0.  1.
<scales pt_clust_5="13000.00000" pt_clust_6="13000.00000" pt_clust_7="13000.00000" pt_clust_8="13000.00000" pt_clust_9="23.83164"></scales>
<clustering>
<clus scale="   23.832">  1  9  2 -1</clus>
<clus scale="   79.646">  5  6 -1 -1</clus>
<clus scale="   90.471">  7  8 -1 -1</clus>
<clus scale="  184.891">  1  5  2 -1</clus>
<clus scale="  189.806">  2  5  1 -1</clus>
</clustering>
</event>
<event>
 9    1  0.2802611E-005  0.9248281E+02  0.7546771E-02  0.1302369E+00
          3   -1    0    0  502    0  0.00000000000E+00  0.00000000000E+00  0.56466040996E+03  0.56466040996E+03  0.00000000000E+00 0. -1.
         -4   -1    0    0    0  501 -0.00000000000E+00 -0.00000000000E+00 -0.20274935732E+02  0.20274935732E+02  0.00000000000E+00 0.  1.
        -24    2    1    2    0    0 -0.12253478251E+02 -0.22834974044E+02  0.16415119575E+03  0.18495170937E+03  0.81178420541E+02 0.  0.
         23    2    1    2    0    0  0.20755378264E+02  0.27358056011E+01  0.35371124600E+03  0.36563643662E+03  0.90222435559E+02 0.  0.
         13    1    3    3    0    0  0.35588014311E+01 -0.50706857187E+02  0.12065858543E+03  0.13092877709E+03  0.00000000000E+00 0. -1.
        -14    1    3    3    0    0 -0.15812279682E+02  0.27871883142E+02  0.43492610326E+02  0.54022932275E+02  0.00000000000E+00 0.  1.
        -11    1    4    4    0    0 -0.33912567655E+02  0.45865419180E+01  0.89431751806E+02  0.95755609981E+02  0.00000000000E+00 0.  1.
         11    1    4    4    0    0  0.54667945920E+02 -0.18507363169E+01  0.26427949419E+03  0.26988082664E+03  0.00000000000E+00 0. -1.
         21    1    1    2  502  501 -0.85019000137E+01  0.20099168443E+02  0.26523032475E+02  0.34347199705E+02  0.00000000000E+00 0.  1.
<scales pt_clust_5="13000.00000" pt_clust_6="13000.00000" pt_clust_7="13000.00000" pt_clust_8="13000.00000" pt_clust_9="21.82336"></scales>
<clustering>
<clus scale="   21.823">  2  9  1 -1</clus>
<clus scale="   81.178">  5  6 -1 -1</clus>
<clus scale="   83.683">  2  5  1 -1</clus>
<clus scale="   90.222">  7  8 -1 -1</clus>
<clus scale="   92.483">  1  5  2 -1</clus>
</clustering>
</event>
<event>
 9    1  0.2802611E-005  0.1268402E+03  0.7546771E-02  0.1234633E+00
          1   -1    0    0  502    0  0.00000000000E+00  0.00000000000E+00  0.30444754529E+03  0.30444754529E+03  0.00000000000E+00 0. -1.
         -2   -1    0    0    0  501 -0.00000000000E+00 -0.00000000000E+00 -0.96888590022E+02  0.96888590022E+02  0.00000000000E+00 0.  1.
         23    2    1    2    0    0  0.75279701984E+02  0.84033431234E+02  0.23217190991E+02  0.14655266481E+03  0.90609020021E+02 0.  0.
        -24    2    1    2    0    0 -0.32169299143E+02 -0.76671816212E+02  0.17459488993E+03  0.20997608531E+03  0.81811671548E+02 0.  0.
         11    1    4    4    0    0  0.11279392553E+01 -0.52871357937E+02  0.15655926117E+03  0.16524967472E+03  0.00000000000E+00 0. -1.
        -12    1    4    4    0    0 -0.33297238398E+02 -0.23800458275E+02  0.18035628763E+02  0.44726410586E+02  0.00000000000E+00 0.  1.
        -13    1    3    3    0    0  0.12268496198E+02  0.79009829808E+02  0.23674477891E+01  0.79991712160E+02  0.00000000000E+00 0.  1.
         13    1    3    3    0    0  0.63011205786E+02  0.50236014259E+01  0.20849743202E+02  0.66560952648E+02  0.00000000000E+00 0. -1.
         21    1    1    2  502  501 -0.43110402841E+02 -0.73616150212E+01  0.97468743453E+01  0.44807385199E+02  0.00000000000E+00 0. -1.
<scales pt_clust_5="13000.00000" pt_clust_6="13000.00000" pt_clust_7="13000.00000" pt_clust_8="13000.00000" pt_clust_9="43.73443"></scales>
<clustering>
<clus scale="   43.734">  2  9  1 -1</clus>
<clus scale="   81.812">  5  6 -1 -1</clus>
<clus scale="   90.609">  7  8 -1 -1</clus>
<clus scale="  120.713">  1  5  2 -1</clus>
<clus scale="  120.713">  1  5  2 -1</clus>
</clustering>
</event>
<event>
 9    1  0.2802611E-005  0.1820534E+03  0.7546771E-02  0.1166816E+00
         -2   -1    0    0    0  501 -0.00000000000E+00  0.00000000000E+00  0.21720200113E+03  0.21720200113E+03  0.00000000000E+00 0.  1.
          1   -1    0    0  502    0  0.00000000000E+00 -0.00000000000E+00 -0.23904434954E+03  0.23904434954E+03  0.00000000000E+00 0. -1.
         23    2    1    2    0    0  0.47542351717E+02  0.12547745338E+03  0.96837466469E+02  0.18822191152E+03  0.89694629439E+02 0.  0.
        -24    2    1    2    0    0 -0.63756830353E+02 -0.15365567130E+03 -0.13741257219E+03  0.23050327873E+03  0.81083585091E+02 0.  0.
         13    1    4    4    0    0 -0.20914878276E+02 -0.13748663380E+03 -0.10799654972E+03  0.17607743001E+03  0.00000000000E+00 0. -1.
        -14    1    4    4    0    0 -0.42841952077E+02 -0.16169037500E+02 -0.29416022471E+02  0.54425848725E+02  0.00000000000E+00 0.  1.
        -13    1    3    3    0    0  0.26295769419E+02  0.28588317801E+01 -0.56014405984E+01  0.27037317642E+02  0.00000000000E+00 0. -1.
         13    1    3    3    0    0  0.21246582298E+02  0.12261862160E+03  0.10243890707E+03  0.16118459388E+03  0.00000000000E+00 0.  1.
         21    1    1    2  502  501  0.16214478636E+02  0.28178217921E+02  0.18732757311E+02  0.37521160418E+02  0.00000000000E+00 0. -1.
<scales pt_clust_5="13000.00000" pt_clust_6="13000.00000" pt_clust_7="13000.00000" pt_clust_8="13000.00000" pt_clust_9="32.51033"></scales>
<clustering>
<clus scale="   32.510">  1  9  2 -1</clus>
<clus scale="   81.084">  5  6 -1 -1</clus>
<clus scale="   89.695">  7  8 -1 -1</clus>
<clus scale="  177.969">  2  5  1 -1</clus>
<clus scale="  177.969">  2  5  1 -1</clus>
</clustering>
</event>
<event>
 9    1  0.2802611E-005  0.1751632E+03  0.7546771E-02  0.1173929E+00
          3   -1    0    0  502    0  0.00000000000E+00  0.00000000000E+00  0.27032077110E+03  0.27032077110E+03  0.00000000000E+00 0. -1.
         -4   -1    0    0    0  501 -0.00000000000E+00 -0.00000000000E+00 -0.23170153656E+03  0.23170153656E+03  0.00000000000E+00 0.  1.
         23    2    1    2    0    0 -0.11743680227E+03 -0.10291094304E+03 -0.15058018344E+03  0.23538706488E+03  0.91381693698E+02 0.  0.
        -24    2    1    2    0    0  0.92480345025E+02  0.73328516808E+02  0.17364616036E+03  0.22492375129E+03  0.80672295682E+02 0.  0.
         13    1    4    4    0    0  0.57739946788E+02  0.81058070261E+02  0.15639186129E+03  0.18537186002E+03  0.00000000000E+00 0. -1.
        -14    1    4    4    0    0  0.34740398237E+02 -0.77295534530E+01  0.17254299074E+02  0.39551891267E+02  0.00000000000E+00 0.  1.
        -11    1    3    3    0    0  0.27065344279E+01 -0.29770405847E+02 -0.62897116700E+02  0.69639426205E+02  0.00000000000E+00 0. -1.
         11    1    3    3    0    0 -0.12014333669E+03 -0.73140537196E+02 -0.87683066738E+02  0.16574763867E+03  0.00000000000E+00 0.  1.
         21    1    1    2  502  501  0.24956457241E+02  0.29582426235E+02  0.15553257617E+02  0.41711491491E+02  0.00000000000E+00 0.  1.
<scales pt_clust_5="13000.00000" pt_clust_6="13000.00000" pt_clust_7="13000.00000" pt_clust_8="13000.00000" pt_clust_9="38.70329"></scales>
<clustering>
<clus scale="   38.703">  1  9  2 -1</clus>
<clus scale="   80.672">  5  6 -1 -1</clus>
<clus scale="   91.382">  7  8 -1 -1</clus>
<clus scale="  169.822">  1  5  2 -1</clus>
<clus scale="   38.703">  1  5  2 -1</clus>
</clustering>
</event>
<event>
 9    1  0.2802611E-005  0.1376182E+03  0.7546771E-02  0.1218129E+00
          1   -1    0    0  502    0  0.00000000000E+00  0.00000000000E+00  0.71575217389E+03  0.71575217389E+03  0.00000000000E+00 0. -1.
         -2   -1    0    0    0  501 -0.00000000000E+00 -0.00000000000E+00 -0.55764500484E+02  0.55764500484E+02  0.00000000000E+00 0.  1.
         23    2    1    2    0    0  0.12611596945E+03  0.20049923170E+02  0.13026197805E+03  0.20329188746E+03  0.89733892221E+02 0.  0.
        -24    2    1    2    0    0 -0.41468290606E+02 -0.53108366362E+02  0.36278167567E+03  0.37815007552E+03  0.82745499659E+02 0.  0.
         13    1    4    4    0    0  0.30705765950E+01 -0.58353025913E+02  0.15658425734E+03  0.16713208465E+03  0.00000000000E+00 0. -1.
        -14    1    4    4    0    0 -0.44538867201E+02  0.52446595504E+01  0.20619741833E+03  0.21101799087E+03  0.00000000000E+00 0.  1.
        -13    1    3    3    0    0  0.51083808682E+02  0.30014731053E+01 -0.95278666169E+00  0.51180779133E+02  0.00000000000E+00 0.  1.
         13    1    3    3    0    0  0.75032160768E+02  0.17048450065E+02  0.13121476471E+03  0.15211110833E+03  0.00000000000E+00 0. -1.
         21    1    1    2  502  501 -0.84647678844E+02  0.33058443192E+02  0.16694401969E+03  0.19007471139E+03  0.00000000000E+00 0.  1.
<scales pt_clust_5="13000.00000" pt_clust_6="13000.00000" pt_clust_7="13000.00000" pt_clust_8="13000.00000" pt_clust_9="90.87403"></scales>
<clustering>
<clus scale="   82.745">  5  6 -1 -1</clus>
<clus scale="   89.734">  7  8 -1 -1</clus>
<clus scale="   90.874">  1  9  2 -1</clus>
<clus scale="  133.167">  1  5  2 -1</clus>
<clus scale="   90.874">  1  5  2 -1</clus>
</clustering>
</event>
<event>
 9    1  0.2802611E-005  0.2214170E+03  0.7546771E-02  0.1133093E+00
         -2   -1    0    0    0  501 -0.00000000000E+00  0.00000000000E+00  0.86885427613E+02  0.86885427613E+02  0.00000000000E+00 0.  1.
          1   -1    0    0  502    0  0.00000000000E+00 -0.00000000000E+00 -0.79195997116E+03  0.79195997116E+03  0.00000000000E+00 0. -1.
         23    2    1    2    0    0  0.19426140438E+03  0.90176419219E+02 -0.34261369784E+03  0.41255143139E+03  0.83338213192E+02 0.  0.
        -24    2    1    2    0    0 -0.19438357519E+03 -0.45097214354E+02 -0.36232689328E+03  0.42121439795E+03  0.79511372744E+02 0.  0.
         11    1    4    4    0    0 -0.16047589229E+03 -0.65125107539E+02 -0.26912876172E+03  0.32003762595E+03  0.00000000000E+00 0. -1.
        -12    1    4    4    0    0 -0.33907682903E+02  0.20027893185E+02 -0.93198131568E+02  0.10117677200E+03  0.00000000000E+00 0.  1.
        -13    1    3    3    0    0  0.63305216537E+02  0.51197772288E+02 -0.69014366513E+02  0.10673211847E+03  0.00000000000E+00 0.  1.
         13    1    3    3    0    0  0.13095618785E+03  0.38978646931E+02 -0.27359933132E+03  0.30581931292E+03  0.00000000000E+00 0. -1.
         21    1    1    2  502  501  0.12217080918E+00 -0.45079204865E+02 -0.13395242290E+00  0.45079569433E+02  0.00000000000E+00 0.  1.
<scales pt_clust_5="13000.00000" pt_clust_6="13000.00000" pt_clust_7="13000.00000" pt_clust_8="13000.00000" pt_clust_9="45.07937"></scales>
<clustering>
<clus scale="   45.079">  1  9  2 -1</clus>
<clus scale="   79.511">  5  6 -1 -1</clus>
<clus scale="   83.338">  7  8 -1 -1</clus>
<clus scale="  220.005">  2  5  1 -1</clus>
<clus scale="  220.005">  2  5  1 -1</clus>
</clustering>
</event>
<event>
 9    1  0.2802611E-005  0.1786501E+03  0.7546771E-02  0.1170618E+00
         -2   -1    0    0    0  501 -0.00000000000E+00  0.00000000000E+00  0.68712978960E+02  0.68712978960E+02  0.00000000000E+00 0.  1.
          1   -1    0    0  502    0  0.00000000000E+00 -0.00000000000E+00 -0.55559988219E+03  0.55559988219E+03  0.00000000000E+00 0. -1.
        -24    2    1    2    0    0  0.36810182727E+02  0.14754431158E+03 -0.17674381471E+03  0.24560394531E+03  0.77192023423E+02 0.  0.
         23    2    1    2    0    0 -0.10494943456E+02 -0.15679191439E+03 -0.29711882977E+03  0.34792513291E+03  0.89880202773E+02 0.  0.
         13    1    3    3    0    0  0.28460277467E+02  0.13961579468E+02 -0.60613691163E+02  0.68402724004E+02  0.00000000000E+00 0. -1.
        -14    1    3    3    0    0  0.83499052591E+01  0.13358273211E+03 -0.11613012355E+03  0.17720122131E+03  0.00000000000E+00 0.  1.
        -13    1    4    4    0    0  0.33564098200E+02 -0.10421208016E+03 -0.15110381061E+03  0.18659868145E+03  0.00000000000E+00 0. -1.
         13    1    4    4    0    0 -0.44059041656E+02 -0.52579834227E+02 -0.14601501916E+03  0.16132645146E+03  0.00000000000E+00 0.  1.
         21    1    1    2  502  501 -0.26315239271E+02  0.92476028058E+01 -0.13024258740E+02  0.30783782927E+02  0.00000000000E+00 0.  1.
<scales pt_clust_5="13000.00000" pt_clust_6="13000.00000" pt_clust_7="13000.00000" pt_clust_8="13000.00000" pt_clust_9="27.89283"></scales>
<clustering>
<clus scale="   27.893">  1  9  2 -1</clus>
<clus scale="   77.192">  5  6 -1 -1</clus>
<clus scale="   89.880">  7  8 -1 -1</clus>
<clus scale="  172.615">  1  5  2 -1</clus>
<clus scale="  178.650">  2  5  1 -1</clus>
</clustering>
</event>
<event>
 9    1  0.2802611E-005  0.1270075E+03  0.7546771E-02  0.1234897E+00
          1   -1    0    0  502    0  0.00000000000E+00  0.00000000000E+00  0.25653691939E+03  0.25653691939E+03  0.00000000000E+00 0. -1.
         -2   -1    0    0    0  501 -0.00000000000E+00 -0.00000000000E+00 -0.23428131274E+03  0.23428131274E+03  0.00000000000E+00 0.  1.
         23    2    1    2    0    0 -0.80302701339E+02  0.25857600793E+02 -0.17018760269E+03  0.21096589133E+03  0.91791327667E+02 0.  0.
        -24    2    1    2    0    0  0.11654217361E+03 -0.41752459106E+02  0.18906078868E+03  0.24013601367E+03  0.81215621480E+02 0.  0.
         13    1    4    4    0    0  0.12581122488E+03 -0.24864473293E+02  0.15685763932E+03  0.20261052626E+03  0.00000000000E+00 0. -1.
        -14    1    4    4    0    0 -0.92690512735E+01 -0.16887985814E+02  0.32203149357E+02  0.37525487403E+02  0.00000000000E+00 0.  1.
        -11    1    3    3    0    0 -0.95642109530E+02  0.49699712008E+01 -0.15063498883E+03  0.17850213889E+03  0.00000000000E+00 0.  1.
         11    1    3    3    0    0  0.15339408192E+02  0.20887629592E+02 -0.19552613857E+02  0.32463752437E+02  0.00000000000E+00 0. -1.
         21    1    1    2  502  501 -0.36239472270E+02  0.15894858313E+02  0.33824206682E+01  0.39716327132E+02  0.00000000000E+00 0.  1.
<scales pt_clust_5="13000.00000" pt_clust_6="13000.00000" pt_clust_7="13000.00000" pt_clust_8="13000.00000" pt_clust_9="39.57203"></scales>
<clustering>
<clus scale="   39.572">  1  9  2 -1</clus>
<clus scale="   81.216">  5  6 -1 -1</clus>
<clus scale="   91.791">  7  8 -1 -1</clus>
<clus scale="  119.588">  1  5  2 -1</clus>
<clus scale="   39.572">  1  5  2 -1</clus>
</clustering>
</event>
<event>
 9    1  0.2802611E-005  0.9830765E+02  0.7546771E-02  0.1284980E+00
          1   -1    0    0  502    0  0.00000000000E+00  0.00000000000E+00  0.80996496742E+02  0.80996496742E+02  0.00000000000E+00 0. -1.
         -2   -1    0    0    0  501 -0.00000000000E+00 -0.00000000000E+00 -0.37612015165E+03  0.37612015165E+03  0.00000000000E+00 0.  1.
         23    2    1    2    0    0  0.14691886532E+02  0.66920657102E+02 -0.25596278427E+03  0.27638171650E+03  0.78585497415E+02 0.  0.
        -24    2    1    2    0    0 -0.42734267020E+02 -0.35610702403E+02  0.27390467468E+02  0.10202172481E+03  0.81017621054E+02 0.  0.
         11    1    4    4    0    0  0.22180731105E+02 -0.22631883007E+02  0.46679485555E+01  0.32030871117E+02  0.00000000000E+00 0. -1.
        -12    1    4    4    0    0 -0.64914998126E+02 -0.12978819396E+02  0.22722518913E+02  0.69990853690E+02  0.00000000000E+00 0.  1.
        -11    1    3    3    0    0 -0.15890501482E+02  0.27581624554E+02 -0.26052395689E+02  0.41133701165E+02  0.00000000000E+00 0. -1.
         11    1    3    3    0    0  0.30582388014E+02  0.39339032548E+02 -0.22991038859E+03  0.23524801533E+03  0.00000000000E+00 0.  1.
         21    1    1    2  502  501  0.28042380489E+02 -0.31309954699E+02 -0.66551338097E+02  0.78713207083E+02  0.00000000000E+00 0. -1.
<scales pt_clust_5="13000.00000" pt_clust_6="13000.00000" pt_clust_7="13000.00000" pt_clust_8="13000.00000" pt_clust_9="42.03199"></scales>
<clustering>
<clus scale="   42.032">  2  9  1 -1</clus>
<clus scale="   78.585">  7  8 -1 -1</clus>
<clus scale="   81.018">  5  6 -1 -1</clus>
<clus scale="   96.313">  2  7  1 -1</clus>
<clus scale="   98.308">  1  5  2 -1</clus>
</clustering>
</event>
<event>
 9    1  0.2802611E-005  0.9385933E+02  0.7546771E-02  0.1304324E+00
          1   -1    0    0  502    0  0.00000000000E+00  0.00000000000E+00  0.22407629901E+03  0.22407629901E+03  0.00000000000E+00 0. -1.
         -2   -1    0    0    0  501 -0.00000000000E+00 -0.00000000000E+00 -0.53407199554E+02  0.53407199554E+02  0.00000000000E+00 0.  1.
         23    2    1    2    0    0  0.16720039288E+02 -0.19775154552E+02  0.18145780533E+02  0.96042171009E+02  0.90687445712E+02 0.  0.
        -24    2    1    2    0    0  0.26067682970E+01  0.25911825263E+02  0.11665206308E+03  0.14023536664E+03  0.73348730783E+02 0.  0.
         11    1    4    4    0    0 -0.18013113647E+02 -0.14995572855E+02  0.74073565655E+02  0.77693195309E+02  0.00000000000E+00 0. -1.
        -12    1    4    4    0    0  0.20619881944E+02  0.40907398118E+02  0.42578497421E+02  0.62542171331E+02  0.00000000000E+00 0.  1.
        -11    1    3    3    0    0 -0.37339971675E+01  0.20960038786E+02  0.40135903243E+02  0.45432991205E+02  0.00000000000E+00 0. -1.
         11    1    3    3    0    0  0.20454036456E+02 -0.40735193338E+02 -0.21990122710E+02  0.50609179804E+02  0.00000000000E+00 0.  1.
         21    1    1    2  502  501 -0.19326807585E+02 -0.61366707111E+01  0.35871255847E+02  0.41205960914E+02  0.00000000000E+00 0. -1.
<scales pt_clust_5="13000.00000" pt_clust_6="13000.00000" pt_clust_7="13000.00000" pt_clust_8="13000.00000" pt_clust_9="20.27768"></scales>
<clustering>
<clus scale="   20.278">  1  9  2 -1</clus>
<clus scale="   73.349">  5  6 -1 -1</clus>
<clus scale="   77.236">  1  5  2 -1</clus>
<clus scale="   90.687">  7  8 -1 -1</clus>
<clus scale="   20.278">  1  5  2 -1</clus>
</clustering>
</event>
<event>
 9    1  0.2802611E-005  0.9564243E+02  0.7546771E-02  0.1295143E+00
          1   -1    0    0  502    0  0.00000000000E+00  0.00000000000E+00  0.20981842040E+03  0.20981842040E+03  0.00000000000E+00 0. -1.
         -2   -1    0    0    0  501 -0.00000000000E+00 -0.00000000000E+00 -0.14702835532E+03  0.14702835532E+03  0.00000000000E+00 0.  1.
        -24    2    1    2    0    0 -0.15755261548E+02  0.64545475138E+01 -0.58588736820E+02  0.10195351814E+03  0.81682252222E+02 0.  0.
         23    2    1    2    0    0  0.96134829393E+01 -0.29470384505E+02  0.17298120323E+03  0.19805789869E+03  0.91342826455E+02 0.  0.
         13    1    3    3    0    0 -0.31179012682E+02 -0.24244570498E+02 -0.54570096188E+02  0.67363383440E+02  0.00000000000E+00 0. -1.
        -14    1    3    3    0    0  0.15423751134E+02  0.30699118012E+02 -0.40186406318E+01  0.34590134696E+02  0.00000000000E+00 0.  1.
        -13    1    4    4    0    0 -0.19061502053E+02  0.25955378410E+02  0.78274655828E+02  0.84640086684E+02  0.00000000000E+00 0. -1.
         13    1    4    4    0    0  0.28674984992E+02 -0.55425762915E+02  0.94706547405E+02  0.11341781201E+03  0.00000000000E+00 0.  1.
         21    1    1    2  502  501  0.61417786086E+01  0.23015836991E+02 -0.51602401333E+02  0.56835358891E+02  0.00000000000E+00 0.  1.
<scales pt_clust_5="13000.00000" pt_clust_6="13000.00000" pt_clust_7="13000.00000" pt_clust_8="13000.00000" pt_clust_9="23.82121"></scales>
<clustering>
<clus scale="   23.821">  2  9  1 -1</clus>
<clus scale="   81.682">  5  6 -1 -1</clus>
<clus scale="   86.464">  2  5  1 -1</clus>
<clus scale="   91.343">  7  8 -1 -1</clus>
<clus scale="   95.642">  1  5  2 -1</clus>
</clustering>
</event>
<event>
 9    1  0.2802611E-005  0.1073475E+03  0.7546771E-02  0.1272866E+00
         -2   -1    0    0    0  501 -0.00000000000E+00  0.00000000000E+00  0.56113017859E+03  0.56113017859E+03  0.00000000000E+00 0.  1.
          1   -1    0    0  502    0  0.00000000000E+00 -0.00000000000E+00 -0.39979185180E+02  0.39979185180E+02  0.00000000000E+00 0. -1.
         23    2    1    2    0    0 -0.66347437530E+02 -0.26262450859E+02  0.43190972661E+03  0.44801418865E+03  0.95283799758E+02 0.  0.
        -24    2    1    2    0    0  0.42457289244E+02  0.17184514328E+02  0.44522399689E+02  0.10158862027E+03  0.78994143785E+02 0.  0.
         11    1    4    4    0    0  0.16365527371E+02 -0.17773646478E+02 -0.14513767885E+02  0.28184791173E+02  0.00000000000E+00 0. -1.
        -12    1    4    4    0    0  0.26091761873E+02  0.34958160807E+02  0.59036167574E+02  0.73403829099E+02  0.00000000000E+00 0.  1.
        -11    1    3    3    0    0 -0.49678523926E+02  0.25382174443E+02  0.30387393982E+03  0.30895239410E+03  0.00000000000E+00 0.  1.
         11    1    3    3    0    0 -0.16668913604E+02 -0.51644625302E+02  0.12803578679E+03  0.13906179455E+03  0.00000000000E+00 0. -1.
         21    1    1    2  502  501  0.23890148287E+02  0.90779365308E+01  0.44718867111E+02  0.51506554850E+02  0.00000000000E+00 0. -1.
<scales pt_clust_5="13000.00000" pt_clust_6="13000.00000" pt_clust_7="13000.00000" pt_clust_8="13000.00000" pt_clust_9="25.55676"></scales>
<clustering>
<clus scale="   25.557">  1  9  2 -1</clus>
<clus scale="   78.994">  5  6 -1 -1</clus>
<clus scale="   93.191">  2  5  1 -1</clus>
<clus scale="   95.284">  7  8 -1 -1</clus>
<clus scale="   93.191">  2  5  1 -1</clus>
</clustering>
</event>
<event>
 9    1  0.2802611E-005  0.1755896E+03  0.7546771E-02  0.1174435E+00
         -2   -1    0    0    0  501 -0.00000000000E+00  0.00000000000E+00  0.20673359740E+03  0.20673359740E+03  0.00000000000E+00 0.  1.
          1   -1    0    0  502    0  0.00000000000E+00 -0.00000000000E+00 -0.21331690555E+03  0.21331690555E+03  0.00000000000E+00 0. -1.
        -24    2    1    2    0    0 -0.11706514179E+03 -0.14462976152E+02  0.14929628229E+02  0.14692981079E+03  0.86325259325E+02 0.  0.
         23    2    1    2    0    0  0.16086946811E+03  0.25776375209E+02 -0.71834851585E+02  0.20545159174E+03  0.10250221147E+03 0.  0.
         11    1    3    3    0    0 -0.94259016136E+02  0.26872535841E+02  0.22224156360E+01  0.98039963468E+02  0.00000000000E+00 0. -1.
        -12    1    3    3    0    0 -0.22806125655E+02 -0.41335511993E+02  0.12707212593E+02  0.48889847320E+02  0.00000000000E+00 0.  1.
        -13    1    4    4    0    0  0.14494364241E+03  0.52688287812E+02 -0.79133228003E+02  0.17334007881E+03  0.00000000000E+00 0. -1.
         13    1    4    4    0    0  0.15925825698E+02 -0.26911912603E+02  0.72983764177E+01  0.32111512927E+02  0.00000000000E+00 0.  1.
         21    1    1    2  502  501 -0.43804326322E+02 -0.11313399057E+02  0.50321915202E+02  0.67669100425E+02  0.00000000000E+00 0.  1.
<scales pt_clust_5="13000.00000" pt_clust_6="13000.00000" pt_clust_7="13000.00000" pt_clust_8="13000.00000" pt_clust_9="45.24171"></scales>
<clustering>
<clus scale="   45.242">  1  9  2 -1</clus>
<clus scale="   86.325">  5  6 -1 -1</clus>
<clus scale="  102.502">  7  8 -1 -1</clus>
<clus scale="  166.664">  1  5  2 -1</clus>
<clus scale="  175.590">  2  5  1 -1</clus>
</clustering>
</event>
<event>
 9    1  0.2802611E-005  0.1073617E+03  0.7546771E-02  0.1271738E+00
         -4   -1    0    0    0  501 -0.00000000000E+00  0.00000000000E+00  0.32233442774E+03  0.32233442774E+03  0.00000000000E+00 0.  1.
          3   -1    0    0  502    0  0.00000000000E+00 -0.00000000000E+00 -0.23761503192E+03  0.23761503192E+03  0.00000000000E+00 0. -1.
        -24    2    1    2    0    0  0.34979354884E+02  0.24593223540E+02  0.90854987518E+01  0.89619073614E+02  0.78234584141E+02 0.  0.
         23    2    1    2    0    0  0.15139686913E+02 -0.64218024818E+02 -0.17663931605E+03  0.21009238481E+03  0.92650943589E+02 0.  0.
         13    1    3    3    0    0  0.53214263235E+02  0.37235733350E+02 -0.16511781280E+01  0.64969100647E+02  0.00000000000E+00 0. -1.
        -14    1    3    3    0    0 -0.18234908351E+02 -0.12642509810E+02  0.10736676880E+02  0.24649972967E+02  0.00000000000E+00 0.  1.
        -11    1    4    4    0    0 -0.31138445191E+02 -0.57374594902E+02 -0.84715489142E+02  0.10694933852E+03  0.00000000000E+00 0.  1.
         11    1    4    4    0    0  0.46278132104E+02 -0.68434299158E+01 -0.91923826912E+02  0.10314304629E+03  0.00000000000E+00 0. -1.
         21    1    1    2  502  501 -0.50119041797E+02  0.39624801278E+02  0.25227321312E+03  0.26023800123E+03  0.00000000000E+00 0.  1.
<scales pt_clust_5="13000.00000" pt_clust_6="13000.00000" pt_clust_7="13000.00000" pt_clust_8="13000.00000" pt_clust_9="63.89087"></scales>
<clustering>
<clus scale="   63.891">  1  9  2 -1</clus>
<clus scale="   78.235">  5  6 -1 -1</clus>
<clus scale="   92.651">  7  8 -1 -1</clus>
<clus scale="   95.200">  1  5  2 -1</clus>
<clus scale="  107.362">  2  5  1 -1</clus>
</clustering>
</event>
<event>
 9    1  0.2802611E-005  0.1140031E+03  0.7546771E-02  0.1256618E+00
          1   -1    0    0  502    0  0.00000000000E+00  0.00000000000E+00  0.61159998567E+03  0.61159998567E+03  0.00000000000E+00 0. -1.
         -2   -1    0    0    0  501 -0.00000000000E+00 -0.00000000000E+00 -0.71464083305E+02  0.71464083305E+02  0.00000000000E+00 0.  1.
         23    2    1    2    0    0  0.59954689300E+02 -0.17842270186E+02  0.13227863712E+03  0.17168146019E+03  0.89799635638E+02 0.  0.
        -24    2    1    2    0    0 -0.71561899391E+02 -0.26792695229E+02  0.44089726721E+03  0.45464946862E+03  0.80478476116E+02 0.  0.
         11    1    4    4    0    0 -0.68545538129E+02 -0.31471631527E+02  0.44247955999E+03  0.44886202267E+03  0.00000000000E+00 0. -1.
        -12    1    4    4    0    0 -0.30163612613E+01  0.46789362979E+01 -0.15822927786E+01  0.57874459458E+01  0.00000000000E+00 0.  1.
        -13    1    3    3    0    0  0.50958996484E+02  0.25436911028E+02  0.10579288835E+03  0.12014986887E+03  0.00000000000E+00 0.  1.
         13    1    3    3    0    0  0.89956928153E+01 -0.43279181214E+02  0.26485748775E+02  0.51531591320E+02  0.00000000000E+00 0. -1.
         21    1    1    2  502  501  0.11607210091E+02  0.44634965415E+02 -0.33040001963E+02  0.56733140169E+02  0.00000000000E+00 0.  1.
<scales pt_clust_5="13000.00000" pt_clust_6="13000.00000" pt_clust_7="13000.00000" pt_clust_8="13000.00000" pt_clust_9="46.11949"></scales>
<clustering>
<clus scale="   46.119">  2  9  1 -1</clus>
<clus scale="   80.478">  5  6 -1 -1</clus>
<clus scale="   89.800">  7  8 -1 -1</clus>
<clus scale="  106.815">  1  5  2 -1</clus>
<clus scale="  106.815">  1  5  2 -1</clus>
</clustering>
</event>
<event>
 9    1  0.2802611E-005  0.2386367E+03  0.7546771E-02  0.1121331E+00
         -4   -1    0    0    0  501 -0.00000000000E+00  0.00000000000E+00  0.11739354672E+03  0.11739354672E+03  0.00000000000E+00 0.  1.
          3   -1    0    0  502    0  0.00000000000E+00 -0.00000000000E+00 -0.72177057097E+03  0.72177057097E+03  0.00000000000E+00 0. -1.
         23    2    1    2    0    0  0.16836143214E+03  0.11591593714E+03 -0.60327155621E+02  0.23198860111E+03  0.91636613999E+02 0.  0.
        -24    2    1    2    0    0 -0.18009595217E+03 -0.13519775499E+03 -0.52707593663E+03  0.57893367126E+03  0.81499495722E+02 0.  0.
         11    1    4    4    0    0 -0.17111391686E+03 -0.14611766797E+03 -0.48796903791E+03  0.53734916711E+03  0.00000000000E+00 0. -1.
        -12    1    4    4    0    0 -0.89820353092E+01  0.10919912982E+02 -0.39106898718E+02  0.41584504148E+02  0.00000000000E+00 0.  1.
        -13    1    3    3    0    0  0.15139764487E+03  0.56027000786E+02 -0.37853077083E+02  0.16581051575E+03  0.00000000000E+00 0.  1.
         13    1    3    3    0    0  0.16963787275E+02  0.59888936352E+02 -0.22474078538E+02  0.66178085362E+02  0.00000000000E+00 0. -1.
         21    1    1    2  502  501  0.11734520025E+02  0.19281817847E+02 -0.16973931995E+02  0.28241845320E+02  0.00000000000E+00 0.  1.
<scales pt_clust_5="13000.00000" pt_clust_6="13000.00000" pt_clust_7="13000.00000" pt_clust_8="13000.00000" pt_clust_9="22.57183"></scales>
<clustering>
<clus scale="   22.572">  1  9  2 -1</clus>
<clus scale="   81.499">  5  6 -1 -1</clus>
<clus scale="   91.637">  7  8 -1 -1</clus>
<clus scale="  234.931">  2  5  1 -1</clus>
<clus scale="  234.931">  2  5  1 -1</clus>
</clustering>
</event>
<event>
 9    1  0.2802611E-005  0.1063020E+03  0.7546771E-02  0.1271441E+00
         -4   -1    0    0    0  501 -0.00000000000E+00  0.00000000000E+00  0.24884218053E+02  0.24884218053E+02  0.00000000000E+00 0.  1.
          3   -1    0    0  502    0  0.00000000000E+00 -0.00000000000E+00 -0.74958877724E+03  0.74958877724E+03  0.00000000000E+00 0. -1.
        -24    2    1    2    0    0  0.18431707715E+02  0.56197839315E+02 -0.20181564703E+03  0.22514852216E+03  0.80401347315E+02 0.  0.
         23    2    1    2    0    0 -0.46472062351E+02 -0.37053052007E+02 -0.49134994188E+03  0.50298344363E+03  0.89638150052E+02 0.  0.
         11    1    3    3    0    0  0.24979654422E+02  0.17847787967E+02 -0.17553339581E+03  0.17819792287E+03  0.00000000000E+00 0. -1.
        -12    1    3    3    0    0 -0.65479467065E+01  0.38350051348E+02 -0.26282251227E+02  0.46950599294E+02  0.00000000000E+00 0.  1.
        -13    1    4    4    0    0 -0.54356507077E+01 -0.57981525071E+02 -0.33361533542E+03  0.33865999996E+03  0.00000000000E+00 0. -1.
         13    1    4    4    0    0 -0.41036411643E+02  0.20928473064E+02 -0.15773460646E+03  0.16432344367E+03  0.00000000000E+00 0.  1.
         21    1    1    2  502  501  0.28040354636E+02 -0.19144787308E+02 -0.31538970281E+02  0.46341029505E+02  0.00000000000E+00 0.  1.
<scales pt_clust_5="13000.00000" pt_clust_6="13000.00000" pt_clust_7="13000.00000" pt_clust_8="13000.00000" pt_clust_9="33.95268"></scales>
<clustering>
<clus scale="   33.953">  1  9  2 -1</clus>
<clus scale="   80.401">  5  6 -1 -1</clus>
<clus scale="   89.638">  7  8 -1 -1</clus>
<clus scale="   98.638">  1  5  2 -1</clus>
<clus scale="  106.302">  2  5  1 -1</clus>
</clustering>
</event>
<event>
 9    1  0.2802611E-005  0.1095742E+03  0.7546771E-02  0.1264741E+00
          3   -1    0    0  502    0  0.00000000000E+00  0.00000000000E+00  0.12307658563E+03  0.12307658563E+03  0.00000000000E+00 0. -1.
         -4   -1    0    0    0  501 -0.00000000000E+00 -0.00000000000E+00 -0.67391324841E+03  0.67391324841E+03  0.00000000000E+00 0.  1.
        -24    2    1    2    0    0 -0.53133850455E+02  0.50752950557E+02 -0.56093950336E+03  0.57159280919E+03  0.81646463667E+02 0.  0.
         23    2    1    2    0    0  0.54647064394E+02 -0.28600841051E+02  0.90529093311E+02  0.14196209271E+03  0.90296230679E+02 0.  0.
         11    1    3    3    0    0 -0.22843172268E+02  0.54643289339E+02 -0.18133546099E+03  0.19076228401E+03  0.00000000000E+00 0. -1.
        -12    1    3    3    0    0 -0.30290678188E+02 -0.38903387821E+01 -0.37960404237E+03  0.38083052517E+03  0.00000000000E+00 0.  1.
        -11    1    4    4    0    0  0.35128942268E+02 -0.46690433773E+02  0.98198481945E+02  0.11426714772E+03  0.00000000000E+00 0. -1.
         11    1    4    4    0    0  0.19518122126E+02  0.18089592722E+02 -0.76693886336E+01  0.27694944993E+02  0.00000000000E+00 0.  1.
         21    1    1    2  502  501 -0.15132139389E+01 -0.22152109507E+02 -0.80426252735E+02  0.83434932138E+02  0.00000000000E+00 0.  1.
<scales pt_clust_5="13000.00000" pt_clust_6="13000.00000" pt_clust_7="13000.00000" pt_clust_8="13000.00000" pt_clust_9="22.20373"></scales>
<clustering>
<clus scale="   22.204">  2  9  1 -1</clus>
<clus scale="   81.646">  5  6 -1 -1</clus>
<clus scale="   90.296">  7  8 -1 -1</clus>
<clus scale="  102.563">  2  5  1 -1</clus>
<clus scale="  109.574">  1  5  2 -1</clus>
</clustering>
</event>
<event>
 9    1  0.2802611E-005  0.1377165E+03  0.7546771E-02  0.1224210E+00
          1   -1    0    0  502    0  0.00000000000E+00  0.00000000000E+00  0.65191210006E+03  0.65191210006E+03  0.00000000000E+00 0. -1.
         -2   -1    0    0    0  501 -0.00000000000E+00 -0.00000000000E+00 -0.46183776166E+02  0.46183776166E+02  0.00000000000E+00 0.  1.
         23    2    1    2    0    0 -0.13058008451E+02 -0.91818065180E+02  0.11196823196E+03  0.18181846339E+03  0.10917875244E+03 0.  0.
        -24    2    1    2    0    0  0.31463836548E+02  0.54271366155E+02  0.40947199699E+03  0.42218696663E+03  0.81481067041E+02 0.  0.
         11    1    4    4    0    0  0.58732706775E+02  0.36604644843E+02  0.30624305483E+03  0.31396534761E+03  0.00000000000E+00 0. -1.
        -12    1    4    4    0    0 -0.27268870228E+02  0.17666721312E+02  0.10322894216E+03  0.10822161903E+03  0.00000000000E+00 0.  1.
        -11    1    3    3    0    0  0.26691335823E+02 -0.51845280159E+02  0.11106103390E+03  0.12543888445E+03  0.00000000000E+00 0. -1.
         11    1    3    3    0    0 -0.39749344274E+02 -0.39972785021E+02  0.90719805886E+00  0.56379578935E+02  0.00000000000E+00 0.  1.
         21    1    1    2  502  501 -0.18405828096E+02  0.37546699025E+02  0.84288094951E+02  0.94090446200E+02  0.00000000000E+00 0. -1.
<scales pt_clust_5="13000.00000" pt_clust_6="13000.00000" pt_clust_7="13000.00000" pt_clust_8="13000.00000" pt_clust_9="41.81542"></scales>
<clustering>
<clus scale="   41.815">  1  9  2 -1</clus>
<clus scale="   81.481">  5  6 -1 -1</clus>
<clus scale="  109.179">  7  8 -1 -1</clus>
<clus scale="  116.983">  1  5  2 -1</clus>
<clus scale="   41.815">  1  5  2 -1</clus>
</clustering>
</event>
<event>
 9    1  0.2802611E-005  0.9991311E+02  0.7546771E-02  0.1282501E+00
          1   -1    0    0  502    0  0.00000000000E+00  0.00000000000E+00  0.74339044254E+02  0.74339044254E+02  0.00000000000E+00 0. -1.
         -2   -1    0    0    0  501 -0.00000000000E+00 -0.00000000000E+00 -0.34857268860E+03  0.34857268860E+03  0.00000000000E+00 0.  1.
        -24    2    1    2    0    0  0.39109926584E+02 -0.47956875512E+02 -0.18108677803E+03  0.21050224120E+03  0.87688791217E+02 0.  0.
         23    2    1    2    0    0 -0.13260769075E+02  0.32448355442E+02  0.15659360867E+02  0.99504716681E+02  0.91799941675E+02 0.  0.
         13    1    3    3    0    0 -0.24580829475E+02 -0.34071285911E+02 -0.75993949571E+02  0.86834037524E+02  0.00000000000E+00 0. -1.
        -14    1    3    3    0    0  0.63690756059E+02 -0.13885589600E+02 -0.10509282846E+03  0.12366820367E+03  0.00000000000E+00 0.  1.
        -11    1    4    4    0    0  0.35078665058E+02  0.34988930633E+02  0.39503720178E+01  0.49702549715E+02  0.00000000000E+00 0. -1.
         11    1    4    4    0    0 -0.48339434133E+02 -0.25405751913E+01  0.11708988849E+02  0.49802166966E+02  0.00000000000E+00 0.  1.
         21    1    1    2  502  501 -0.25849157509E+02  0.15508520070E+02 -0.10880622718E+03  0.11290477497E+03  0.00000000000E+00 0.  1.
<scales pt_clust_5="13000.00000" pt_clust_6="13000.00000" pt_clust_7="13000.00000" pt_clust_8="13000.00000" pt_clust_9="30.14454"></scales>
<clustering>
<clus scale="   30.145">  2  9  1 -1</clus>
<clus scale="   87.689">  5  6 -1 -1</clus>
<clus scale="   91.800">  7  8 -1 -1</clus>
<clus scale="   96.149">  2  5  1 -1</clus>
<clus scale="   99.913">  1  5  2 -1</clus>
</clustering>
</event>
<event>
 9    1  0.2802611E-005  0.2571322E+03  0.7546771E-02  0.1109433E+00
         -2   -1    0    0    0  501 -0.00000000000E+00  0.00000000000E+00  0.42203989049E+02  0.42203989049E+02  0.00000000000E+00 0.  1.
          1   -1    0    0  502    0  0.00000000000E+00 -0.00000000000E+00 -0.20431823121E+04  0.20431823121E+04  0.00000000000E+00 0. -1.
        -24    2    1    2    0    0  0.23269875658E+03 -0.80762046010E+00 -0.73072675338E+03  0.77105860860E+03  0.80127562199E+02 0.  0.
         23    2    1    2    0    0 -0.24543660224E+03 -0.16182729565E+02 -0.12657400597E+04  0.12926187445E+04  0.90908268276E+02 0.  0.
         11    1    3    3    0    0  0.16864490751E+03  0.35646952038E+02 -0.51796378535E+03  0.54589219902E+03  0.00000000000E+00 0. -1.
        -12    1    3    3    0    0  0.64053849066E+02 -0.36454572499E+02 -0.21276296804E+03  0.22516640958E+03  0.00000000000E+00 0.  1.
        -13    1    4    4    0    0 -0.10109206801E+03 -0.48587473754E+02 -0.62871239034E+03  0.63863887964E+03  0.00000000000E+00 0. -1.
         13    1    4    4    0    0 -0.14434453423E+03  0.32404744189E+02 -0.63702766940E+03  0.65397986482E+03  0.00000000000E+00 0.  1.
         21    1    1    2  502  501  0.12737845662E+02  0.16990350025E+02 -0.45115099498E+01  0.21708948112E+02  0.00000000000E+00 0. -1.
<scales pt_clust_5="13000.00000" pt_clust_6="13000.00000" pt_clust_7="13000.00000" pt_clust_8="13000.00000" pt_clust_9="21.23499"></scales>
<clustering>
<clus scale="   21.235">  1  9  2 -1</clus>
<clus scale="   80.128">  5  6 -1 -1</clus>
<clus scale="   90.908">  7  8 -1 -1</clus>
<clus scale="  253.521">  1  5  2 -1</clus>
<clus scale="  257.132">  2  5  1 -1</clus>
</clustering>
</event>
<event>
 9    1  0.2802611E-005  0.1062731E+03  0.7546771E-02  0.1273121E+00
          1   -1    0    0  502    0  0.00000000000E+00  0.00000000000E+00  0.58016205290E+02  0.58016205290E+02  0.00000000000E+00 0. -1.
         -2   -1    0    0    0  501 -0.00000000000E+00 -0.00000000000E+00 -0.46219566417E+03  0.46219566417E+03  0.00000000000E+00 0.  1.
         23    2    1    2    0    0 -0.51199555271E+01  0.28122559284E+02 -0.34126474861E+03  0.35455817029E+03  0.91830143123E+02 0.  0.
        -24    2    1    2    0    0  0.68134683786E+01 -0.56623298005E+02 -0.11482287134E+01  0.97607697550E+02  0.79204311522E+02 0.  0.
         13    1    4    4    0    0  0.42140956345E+01 -0.58601873475E+02  0.30220184902E+02  0.66069643198E+02  0.00000000000E+00 0. -1.
        -14    1    4    4    0    0  0.25993727441E+01  0.19785754703E+01 -0.31368413616E+02  0.31538054352E+02  0.00000000000E+00 0.  1.
        -11    1    3    3    0    0  0.31080496353E+02  0.37868215014E+02 -0.26599815058E+03  0.27047183786E+03  0.00000000000E+00 0.  1.
         11    1    3    3    0    0 -0.36200451880E+02 -0.97456557303E+01 -0.75266598031E+02  0.84086332427E+02  0.00000000000E+00 0. -1.
         21    1    1    2  502  501 -0.16935128515E+01  0.28500738721E+02 -0.61766481549E+02  0.68046001619E+02  0.00000000000E+00 0.  1.
<scales pt_clust_5="13000.00000" pt_clust_6="13000.00000" pt_clust_7="13000.00000" pt_clust_8="13000.00000" pt_clust_9="28.55101"></scales>
<clustering>
<clus scale="   28.551">  2  9  1 -1</clus>
<clus scale="   79.204">  5  6 -1 -1</clus>
<clus scale="   91.830">  7  8 -1 -1</clus>
<clus scale="   95.575">  1  5  2 -1</clus>
<clus scale="   95.575">  1  5  2 -1</clus>
</clustering>
</event>
<event>
 9    1  0.2802611E-005  0.9447322E+02  0.7546771E-02  0.1298268E+00
         -2   -1    0    0    0  501 -0.00000000000E+00  0.00000000000E+00  0.33064935011E+03  0.33064935011E+03  0.00000000000E+00 0.  1.
          1   -1    0    0  502    0  0.00000000000E+00 -0.00000000000E+00 -0.11875116144E+03  0.11875116144E+03  0.00000000000E+00 0. -1.
        -24    2    1    2    0    0  0.21964199110E+02 -0.18109254261E+02  0.12146519491E+03  0.14971494185E+03  0.82767137836E+02 0.  0.
         23    2    1    2    0    0  0.79727525136E+00  0.17614170658E+02 -0.82417326869E+02  0.12534233593E+03  0.92774946786E+02 0.  0.
         11    1    3    3    0    0  0.52738022169E+02 -0.95643628363E+01  0.90796483187E+02  0.10543612938E+03  0.00000000000E+00 0. -1.
        -12    1    3    3    0    0 -0.30773823060E+02 -0.85448914249E+01  0.30668711726E+02  0.44278812474E+02  0.00000000000E+00 0.  1.
        -11    1    4    4    0    0 -0.34463114100E+02  0.31151445420E+02 -0.16364877722E+02  0.49253710602E+02  0.00000000000E+00 0.  1.
         11    1    4    4    0    0  0.35260389352E+02 -0.13537274761E+02 -0.66052449148E+02  0.76088625323E+02  0.00000000000E+00 0. -1.
         21    1    1    2  502  501 -0.22761474361E+02  0.49508360286E+00  0.17285032062E+03  0.17434323377E+03  0.00000000000E+00 0.  1.
<scales pt_clust_5="13000.00000" pt_clust_6="13000.00000" pt_clust_7="13000.00000" pt_clust_8="13000.00000" pt_clust_9="22.76686"></scales>
<clustering>
<clus scale="   22.767">  1  9  2 -1</clus>
<clus scale="   82.767">  5  6 -1 -1</clus>
<clus scale="   84.666">  1  5  2 -1</clus>
<clus scale="   92.775">  7  8 -1 -1</clus>
<clus scale="   94.473">  2  5  1 -1</clus>
</clustering>
</event>
<event>
 9    1  0.2802611E-005  0.9811056E+02  0.7546771E-02  0.1286860E+00
         -2   -1    0    0    0  501 -0.00000000000E+00  0.00000000000E+00  0.72154941481E+02  0.72154941481E+02  0.00000000000E+00 0.  1.
          1   -1    0    0  502    0  0.00000000000E+00 -0.00000000000E+00 -0.32788251558E+03  0.32788251558E+03  0.00000000000E+00 0. -1.
         23    2    1    2    0    0  0.24451355308E+02  0.92498641679E+02 -0.14265855987E+03  0.19200946774E+03  0.85803866525E+02 0.  0.
        -24    2    1    2    0    0 -0.29521435081E+01 -0.18458585861E+02 -0.10015032595E+03  0.12985485787E+03  0.80515599607E+02 0.  0.
         11    1    4    4    0    0  0.19349252234E+02  0.10685424126E+02  0.11284573983E+01  0.22132448280E+02  0.00000000000E+00 0. -1.
        -12    1    4    4    0    0 -0.22301395742E+02 -0.29144009986E+02 -0.10127878335E+03  0.10772240959E+03  0.00000000000E+00 0.  1.
        -13    1    3    3    0    0 -0.28203353322E+02  0.26883486308E+02 -0.73149280707E+02  0.82879238913E+02  0.00000000000E+00 0. -1.
         13    1    3    3    0    0  0.52654708630E+02  0.65615155370E+02 -0.69509279162E+02  0.10913022883E+03  0.00000000000E+00 0.  1.
         21    1    1    2  502  501 -0.21499211800E+02 -0.74040055818E+02 -0.12918688274E+02  0.78173131447E+02  0.00000000000E+00 0.  1.
<scales pt_clust_5="13000.00000" pt_clust_6="13000.00000" pt_clust_7="13000.00000" pt_clust_8="13000.00000" pt_clust_9="77.09829"></scales>
<clustering>
<clus scale="   77.098">  1  9  2 -1</clus>
<clus scale="   80.516">  5  6 -1 -1</clus>
<clus scale="   85.804">  7  8 -1 -1</clus>
<clus scale="   93.521">  2  5  1 -1</clus>
<clus scale="   93.521">  2  5  1 -1</clus>
</clustering>
</event>
<event>
 9    1  0.2802611E-005  0.9213444E+02  0.7546771E-02  0.1305006E+00
          1   -1    0    0  502    0  0.00000000000E+00  0.00000000000E+00  0.20888778883E+03  0.20888778883E+03  0.00000000000E+00 0. -1.
         -2   -1    0    0    0  501 -0.00000000000E+00 -0.00000000000E+00 -0.61810860796E+02  0.61810860796E+02  0.00000000000E+00 0.  1.
        -24    2    1    2    0    0  0.11282234199E+02  0.18460594552E+02  0.27963298010E+02  0.86176752075E+02  0.78590102449E+02 0.  0.
         23    2    1    2    0    0 -0.19864140298E+02  0.53951724764E-02  0.13143444387E+03  0.16072180632E+03  0.90343244854E+02 0.  0.
         11    1    3    3    0    0 -0.78433813628E+01  0.31801557416E+02  0.46158478397E+02  0.56599141453E+02  0.00000000000E+00 0. -1.
        -12    1    3    3    0    0  0.19125615562E+02 -0.13340962864E+02 -0.18195180388E+02  0.29577610622E+02  0.00000000000E+00 0.  1.
        -13    1    4    4    0    0 -0.36951826779E+02  0.28876763584E+02  0.34710905572E+02  0.58345110704E+02  0.00000000000E+00 0.  1.
         13    1    4    4    0    0  0.17087686481E+02 -0.28871368412E+02  0.96723538301E+02  0.10237669561E+03  0.00000000000E+00 0. -1.
         21    1    1    2  502  501  0.85819060983E+01 -0.18465989724E+02 -0.12320813850E+02  0.23800091233E+02  0.00000000000E+00 0. -1.
<scales pt_clust_5="13000.00000" pt_clust_6="13000.00000" pt_clust_7="13000.00000" pt_clust_8="13000.00000" pt_clust_9="20.36276"></scales>
<clustering>
<clus scale="   20.363">  2  9  1 -1</clus>
<clus scale="   78.590">  5  6 -1 -1</clus>
<clus scale="   80.643">  2  5  1 -1</clus>
<clus scale="   90.343">  7  8 -1 -1</clus>
<clus scale="   92.134">  1  5  2 -1</clus>
</clustering>
</event>
<event>
 9    1  0.2802611E-005  0.1040095E+03  0.7546771E-02  0.1276863E+00
         -2   -1    0    0    0  501 -0.00000000000E+00  0.00000000000E+00  0.64429565786E+02  0.64429565786E+02  0.00000000000E+00 0.  1.
          1   -1    0    0  502    0  0.00000000000E+00 -0.00000000000E+00 -0.25459833738E+03  0.25459833738E+03  0.00000000000E+00 0. -1.
        -24    2    1    2    0    0  0.71167580426E+01  0.39715849055E+02 -0.10961821337E+02  0.91425669768E+02  0.81304948522E+02 0.  0.
         23    2    1    2    0    0 -0.31718448504E+02 -0.42931651590E+02 -0.17134437020E+03  0.20157523348E+03  0.91785047091E+02 0.  0.
         13    1    3    3    0    0  0.18828322502E+02 -0.10426614699E+02 -0.29658044658E+02  0.36644503480E+02  0.00000000000E+00 0. -1.
        -14    1    3    3    0    0 -0.11711564460E+02  0.50142463754E+02  0.18696223321E+02  0.54781166288E+02  0.00000000000E+00 0.  1.
        -11    1    4    4    0    0 -0.22377841167E+02  0.10055064010E+01  0.20150494227E+01  0.22490870205E+02  0.00000000000E+00 0.  1.
         11    1    4    4    0    0 -0.93406073373E+01 -0.43937157991E+02 -0.17335941962E+03  0.17908436327E+03  0.00000000000E+00 0. -1.
         21    1    1    2  502  501  0.24601690461E+02  0.32158025345E+01 -0.78625800554E+01  0.26026999916E+02  0.00000000000E+00 0. -1.
<scales pt_clust_5="13000.00000" pt_clust_6="13000.00000" pt_clust_7="13000.00000" pt_clust_8="13000.00000" pt_clust_9="24.81098"></scales>
<clustering>
<clus scale="   24.811">  1  9  2 -1</clus>
<clus scale="   81.305">  5  6 -1 -1</clus>
<clus scale="   91.785">  7  8 -1 -1</clus>
<clus scale="   94.889">  1  5  2 -1</clus>
<clus scale="  104.009">  2  5  1 -1</clus>
</clustering>
</event>
<event>
 9    1  0.2802611E-005  0.1865024E+03  0.7546771E-02  0.1162765E+00
          1   -1    0    0  502    0  0.00000000000E+00  0.00000000000E+00  0.31110956720E+03  0.31110956720E+03  0.00000000000E+00 0. -1.
         -2   -1    0    0    0  501 -0.00000000000E+00 -0.00000000000E+00 -0.50270961983E+03  0.50270961983E+03  0.00000000000E+00 0.  1.
         23    2    1    2    0    0  0.16111668758E+03 -0.15605792591E+02 -0.43669436637E+03  0.47475935023E+03  0.92153910543E+02 0.  0.
        -24    2    1    2    0    0 -0.16268314296E+03  0.42642315617E+02  0.24920976503E+03  0.31166705857E+03  0.82138153917E+02 0.  0.
         11    1    4    4    0    0 -0.13615435900E+03  0.50748268348E+02  0.24317314629E+03  0.28327826477E+03  0.00000000000E+00 0. -1.
        -12    1    4    4    0    0 -0.26528783958E+02 -0.81059527304E+01  0.60366187475E+01  0.28388793807E+02  0.00000000000E+00 0.  1.
        -11    1    3    3    0    0  0.11722408838E+03 -0.48286433243E+02 -0.34983672491E+03  0.37210052490E+03  0.00000000000E+00 0.  1.
         11    1    3    3    0    0  0.43892599206E+02  0.32680640653E+02 -0.86857641460E+02  0.10265882533E+03  0.00000000000E+00 0. -1.
         21    1    1    2  502  501  0.15664553738E+01 -0.27036523027E+02 -0.41154512845E+01  0.27392778229E+02  0.00000000000E+00 0. -1.
<scales pt_clust_5="13000.00000" pt_clust_6="13000.00000" pt_clust_7="13000.00000" pt_clust_8="13000.00000" pt_clust_9="27.08186"></scales>
<clustering>
<clus scale="   27.082">  1  9  2 -1</clus>
<clus scale="   82.138">  5  6 -1 -1</clus>
<clus scale="   92.154">  7  8 -1 -1</clus>
<clus scale="  181.762">  1  5  2 -1</clus>
<clus scale="   27.082">  1  5  2 -1</clus>
</clustering>
</event>
<event>
 9    1  0.2802611E-005  0.1442576E+03  0.7546771E-02  0.1213424E+00
          1   -1    0    0  502    0  0.00000000000E+00  0.00000000000E+00  0.52816702084E+03  0.52816702084E+03  0.00000000000E+00 0. -1.
         -2   -1    0    0    0  501 -0.00000000000E+00 -0.00000000000E+00 -0.91967440250E+02  0.91967440250E+02  0.00000000000E+00 0.  1.
        -24    2    1    2    0    0 -0.92242482367E+02 -0.27588986773E+02  0.11499597495E+02  0.12530010689E+03  0.79360243818E+02 0.  0.
         23    2    1    2    0    0  0.10085729371E+03  0.81429980829E+01  0.44339620443E+03  0.46651633620E+03  0.10391725423E+03 0.  0.
         11    1    3    3    0    0 -0.52646978984E+01 -0.25534432243E+02  0.26317694753E+02  0.37045179592E+02  0.00000000000E+00 0. -1.
        -12    1    3    3    0    0 -0.86977784469E+02 -0.20545545304E+01 -0.14818097258E+02  0.88254927295E+02  0.00000000000E+00 0.  1.
        -13    1    4    4    0    0  0.16469614973E+02 -0.24012841375E+02  0.24673509180E+02  0.38166042807E+02  0.00000000000E+00 0.  1.
         13    1    4    4    0    0  0.84387678742E+02  0.32155839458E+02  0.41872269525E+03  0.42835029340E+03  0.00000000000E+00 0. -1.
         21    1    1    2  502  501 -0.86148113476E+01  0.19445988690E+02 -0.18696221341E+02  0.28318017994E+02  0.00000000000E+00 0.  1.
<scales pt_clust_5="13000.00000" pt_clust_6="13000.00000" pt_clust_7="13000.00000" pt_clust_8="13000.00000" pt_clust_9="21.26879"></scales>
<clustering>
<clus scale="   21.269">  2  9  1 -1</clus>
<clus scale="   79.360">  5  6 -1 -1</clus>
<clus scale="  103.917">  7  8 -1 -1</clus>
<clus scale="  127.709">  2  5  1 -1</clus>
<clus scale="  144.258">  1  5  2 -1</clus>
</clustering>
</event>
<event>
 9    1  0.2802611E-005  0.1027996E+03  0.7546771E-02  0.1279506E+00
         -2   -1    0    0    0  501 -0.00000000000E+00  0.00000000000E+00  0.36191618074E+03  0.36191618074E+03  0.00000000000E+00 0.  1.
          1   -1    0    0  502    0  0.00000000000E+00 -0.00000000000E+00 -0.89970890525E+02  0.89970890525E+02  0.00000000000E+00 0. -1.
         23    2    1    2    0    0  0.27803283786E+02  0.10650378871E+02  0.18014850893E+03  0.20421700672E+03  0.91458446315E+02 0.  0.
        -24    2    1    2    0    0  0.63817953687E+02  0.74424564113E+01 -0.16634392561E+02  0.10456478405E+03  0.80802040062E+02 0.  0.
         11    1    4    4    0    0  0.69230890833E+02  0.26832433721E+02  0.57356713168E+01  0.74470085742E+02  0.00000000000E+00 0. -1.
        -12    1    4    4    0    0 -0.54129371466E+01 -0.19389977309E+02 -0.22370063878E+02  0.30094698312E+02  0.00000000000E+00 0.  1.
        -11    1    3    3    0    0  0.61251360367E+02  0.12956332230E+02  0.11420254357E+03  0.13023753933E+03  0.00000000000E+00 0. -1.
         11    1    3    3    0    0 -0.33448076582E+02 -0.23059533589E+01  0.65945965359E+02  0.73979467388E+02  0.00000000000E+00 0.  1.
         21    1    1    2  502  501 -0.91621237472E+02 -0.18092835283E+02  0.10843117385E+03  0.14310528050E+03  0.00000000000E+00 0.  1.
<scales pt_clust_5="13000.00000" pt_clust_6="13000.00000" pt_clust_7="13000.00000" pt_clust_8="13000.00000" pt_clust_9="93.39059"></scales>
<clustering>
<clus scale="   80.802">  5  6 -1 -1</clus>
<clus scale="   91.458">  7  8 -1 -1</clus>
<clus scale="   93.391">  1  9  2 -1</clus>
<clus scale="   93.446">  2  5  1 -1</clus>
<clus scale="   93.446">  2  5  1 -1</clus>
</clustering>
</event>
<event>
 9    1  0.2802611E-005  0.3195270E+03  0.7546771E-02  0.1075867E+00
         -2   -1    0    0    0  501 -0.00000000000E+00  0.00000000000E+00  0.70337689444E+02  0.70337689444E+02  0.00000000000E+00 0.  1.
          1   -1    0    0  502    0  0.00000000000E+00 -0.00000000000E+00 -0.11708411788E+04  0.11708411788E+04  0.00000000000E+00 0. -1.
        -24    2    1    2    0    0 -0.13538493287E+03 -0.10494641525E+03 -0.51246998963E+03  0.54622708651E+03  0.79973180800E+02 0.  0.
         23    2    1    2    0    0 -0.87680448885E+02  0.20044557028E+02 -0.25609142488E+03  0.28610947581E+03  0.90477449483E+02 0.  0.
         11    1    3    3    0    0 -0.12825463524E+03 -0.65272787145E+02 -0.44436943564E+03  0.46709097993E+03  0.00000000000E+00 0. -1.
        -12    1    3    3    0    0 -0.71302976279E+01 -0.39673628102E+02 -0.68100553991E+02  0.79136106582E+02  0.00000000000E+00 0.  1.
        -11    1    4    4    0    0 -0.26508561620E+02  0.32772769254E+02 -0.19211014371E+03  0.19668010972E+03  0.00000000000E+00 0. -1.
         11    1    4    4    0    0 -0.61171887266E+02 -0.12728212226E+02 -0.63981281174E+02  0.89429366087E+02  0.00000000000E+00 0.  1.
         21    1    1    2  502  501  0.22306538176E+03  0.84901858219E+02 -0.33194207488E+03  0.40884230596E+03  0.00000000000E+00 0.  1.
<scales pt_clust_5="13000.00000" pt_clust_6="13000.00000" pt_clust_7="13000.00000" pt_clust_8="13000.00000" pt_clust_9="238.67654"></scales>
<clustering>
<clus scale="   79.973">  5  6 -1 -1</clus>
<clus scale="   90.477">  7  8 -1 -1</clus>
<clus scale="  121.638">  5  7 -1 -1</clus>
<clus scale="  238.677">  1  9  2 -1</clus>
<clus scale="  319.527">  2  5  1 -1</clus>
</clustering>
</event>
<event>
 9    1  0.2802611E-005  0.2393756E+03  0.7546771E-02  0.1160019E+00
         -2   -1    0    0    0  501 -0.00000000000E+00  0.00000000000E+00  0.13339159176E+03  0.13339159176E+03  0.00000000000E+00 0.  1.
          1   -1    0    0  502    0  0.00000000000E+00 -0.00000000000E+00 -0.62443977481E+03  0.62443977481E+03  0.00000000000E+00 0. -1.
        -24    2    1    2    0    0 -0.20931589049E+02 -0.36999666165E+02 -0.13103539882E+02  0.92555869254E+02  0.81165136971E+02 0.  0.
         23    2    1    2    0    0  0.23198211613E+03  0.80209050669E+01 -0.25550672661E+03  0.35728082157E+03  0.92118733129E+02 0.  0.
         13    1    3    3    0    0 -0.93544692828E+01 -0.61929622560E+02 -0.13104351827E+01  0.62645841732E+02  0.00000000000E+00 0. -1.
        -14    1    3    3    0    0 -0.11577119766E+02  0.24929956395E+02 -0.11793104699E+02  0.29910027522E+02  0.00000000000E+00 0.  1.
        -13    1    4    4    0    0  0.17423209160E+03 -0.18139324772E+02 -0.22959742883E+03  0.28879202927E+03  0.00000000000E+00 0. -1.
         13    1    4    4    0    0  0.57750024528E+02  0.26160229839E+02 -0.25909297785E+02  0.68488792295E+02  0.00000000000E+00 0.  1.
         21    1    1    2  502  501 -0.21105052708E+03  0.28978761098E+02 -0.22243791655E+03  0.30799467576E+03  0.00000000000E+00 0.  1.
<scales pt_clust_5="13000.00000" pt_clust_6="13000.00000" pt_clust_7="13000.00000" pt_clust_8="13000.00000" pt_clust_9="220.94080"></scales>
<clustering>
<clus scale="   81.165">  5  6 -1 -1</clus>
<clus scale="   91.624">  1  5  2 -1</clus>
<clus scale="   92.119">  7  8 -1 -1</clus>
<clus scale="  220.941">  2  9  1 -1</clus>
<clus scale="  220.941">  2  5  1 -1</clus>
</clustering>
</event>
<event>
 9    1  0.2802611E-005  0.1416013E+03  0.7546771E-02  0.1220656E+00
          1   -1    0    0  502    0  0.00000000000E+00  0.00000000000E+00  0.19402627398E+03  0.19402627398E+03  0.00000000000E+00 0. -1.
         -2   -1    0    0    0  501 -0.00000000000E+00 -0.00000000000E+00 -0.33180170811E+03  0.33180170811E+03  0.00000000000E+00 0.  1.
         23    2    1    2    0    0  0.48286443712E+01 -0.80339944104E+02 -0.12982429256E+03  0.17733270947E+03  0.90081743351E+02 0.  0.
        -24    2    1    2    0    0  0.17988487403E+02 -0.79591781312E+02  0.10091064672E+03  0.15368852929E+03  0.82333274450E+02 0.  0.
         11    1    4    4    0    0  0.14427140771E+02 -0.78894179565E+02  0.11440352477E+03  0.13971614238E+03  0.00000000000E+00 0. -1.
        -12    1    4    4    0    0  0.35613466322E+01 -0.69760174690E+00 -0.13492878049E+02  0.13972386914E+02  0.00000000000E+00 0.  1.
        -11    1    3    3    0    0 -0.23737525019E+02 -0.77403552552E+01  0.10266101132E+01  0.24988739901E+02  0.00000000000E+00 0.  1.
         11    1    3    3    0    0  0.28566169390E+02 -0.72599588849E+02 -0.13085090267E+03  0.15234396957E+03  0.00000000000E+00 0. -1.
         21    1    1    2  502  501 -0.22817131774E+02  0.15993172542E+03 -0.10886178830E+03  0.19480674333E+03  0.00000000000E+00 0.  1.
<scales pt_clust_5="13000.00000" pt_clust_6="13000.00000" pt_clust_7="13000.00000" pt_clust_8="13000.00000" pt_clust_9="109.25297"></scales>
<clustering>
<clus scale="   82.333">  5  6 -1 -1</clus>
<clus scale="   90.082">  7  8 -1 -1</clus>
<clus scale="  115.919">  1  5  2 -1</clus>
<clus scale="  109.253">  1  9  2 -1</clus>
<clus scale="  115.919">  1  5  2 -1</clus>
</clustering>
</event>
<event>
 9    1  0.2802611E-005  0.2875130E+03  0.7546771E-02  0.1092129E+00
         -2   -1    0    0    0  501 -0.00000000000E+00  0.00000000000E+00  0.29018929983E+03  0.29018929983E+03  0.00000000000E+00 0.  1.
          1   -1    0    0  502    0  0.00000000000E+00 -0.00000000000E+00 -0.88513786775E+03  0.88513786775E+03  0.00000000000E+00 0. -1.
        -24    2    1    2    0    0  0.24821047732E+02 -0.23896031961E+03  0.31052128814E+02  0.25537466829E+03  0.80832343429E+02 0.  0.
         23    2    1    2    0    0 -0.76664275966E+02  0.26837342718E+03 -0.73725365929E+03  0.79373810673E+03  0.92604083706E+02 0.  0.
         13    1    3    3    0    0 -0.21814494423E+02 -0.86354596397E+02 -0.12563008874E+02  0.89948972634E+02  0.00000000000E+00 0. -1.
        -14    1    3    3    0    0  0.46635542155E+02 -0.15260572321E+03  0.43615137688E+02  0.16542569566E+03  0.00000000000E+00 0.  1.
        -13    1    4    4    0    0 -0.78245020203E+01  0.49553685658E+02 -0.57432857191E+02  0.76258269580E+02  0.00000000000E+00 0.  1.
         13    1    4    4    0    0 -0.68839773946E+02  0.21881974153E+03 -0.67982080209E+03  0.71747983715E+03  0.00000000000E+00 0. -1.
         21    1    1    2  502  501  0.51843228235E+02 -0.29413107578E+02  0.11125296255E+03  0.12621439255E+03  0.00000000000E+00 0.  1.
<scales pt_clust_5="13000.00000" pt_clust_6="13000.00000" pt_clust_7="13000.00000" pt_clust_8="13000.00000" pt_clust_9="59.60580"></scales>
<clustering>
<clus scale="   59.606">  1  9  2 -1</clus>
<clus scale="   80.832">  5  6 -1 -1</clus>
<clus scale="   92.604">  7  8 -1 -1</clus>
<clus scale="  283.940">  1  5  2 -1</clus>
<clus scale="  287.513">  2  5  1 -1</clus>
</clustering>
</event>
<event>
 9    1  0.2802611E-005  0.1711500E+03  0.7546771E-02  0.1208060E+00
          1   -1    0    0  502    0  0.00000000000E+00  0.00000000000E+00  0.72950302195E+03  0.72950302195E+03  0.00000000000E+00 0. -1.
         -2   -1    0    0    0  501 -0.00000000000E+00 -0.00000000000E+00 -0.16769366977E+03  0.16769366977E+03  0.00000000000E+00 0.  1.
         23    2    1    2    0    0 -0.18060070993E+02  0.16835600314E+03  0.44068666092E+03  0.48094862795E+03  0.91852815196E+02 0.  0.
        -24    2    1    2    0    0 -0.12819943839E+02 -0.29217215312E+02  0.22441070600E+03  0.24023217930E+03  0.79582274254E+02 0.  0.
         13    1    4    4    0    0 -0.35332739935E+02 -0.24093478601E+02  0.20684926683E+03  0.21122385616E+03  0.00000000000E+00 0. -1.
        -14    1    4    4    0    0  0.22512796095E+02 -0.51237367101E+01  0.17561439164E+02  0.29008323140E+02  0.00000000000E+00 0.  1.
        -13    1    3    3    0    0 -0.31310922529E+02  0.88880171460E+01  0.79299056273E+02  0.85718790496E+02  0.00000000000E+00 0.  1.
         13    1    3    3    0    0  0.13250851536E+02  0.15946798599E+03  0.36138760465E+03  0.39522983746E+03  0.00000000000E+00 0. -1.
         21    1    1    2  502  501  0.30880014832E+02 -0.13913878783E+03 -0.10328801474E+03  0.17601588446E+03  0.00000000000E+00 0.  1.
<scales pt_clust_5="13000.00000" pt_clust_6="13000.00000" pt_clust_7="13000.00000" pt_clust_8="13000.00000" pt_clust_9="144.41392"></scales>
<clustering>
<clus scale="   79.582">  5  6 -1 -1</clus>
<clus scale="   85.740">  1  5  2 -1</clus>
<clus scale="   91.853">  7  8 -1 -1</clus>
<clus scale="  144.414">  2  9  1 -1</clus>
<clus scale="   85.740">  1  5  2 -1</clus>
</clustering>
</event>
<event>
 9    1  0.2802611E-005  0.1738976E+03  0.7546771E-02  0.1175069E+00
         -4   -1    0    0    0  501 -0.00000000000E+00  0.00000000000E+00  0.49603070979E+03  0.49603070979E+03  0.00000000000E+00 0.  1.
          3   -1    0    0  502    0  0.00000000000E+00 -0.00000000000E+00 -0.17065554810E+03  0.17065554810E+03  0.00000000000E+00 0. -1.
        -24    2    1    2    0    0 -0.12548598401E+03 -0.60676538511E+02  0.20351637092E+03  0.25966696331E+03  0.81115005355E+02 0.  0.
         23    2    1    2    0    0  0.20988440434E+03 -0.62366472999E+02  0.53713669712E+02  0.24298748802E+03  0.90646129983E+02 0.  0.
         11    1    3    3    0    0 -0.43139431347E+02  0.24183347746E+01  0.17375663584E+02  0.46570082296E+02  0.00000000000E+00 0. -1.
        -12    1    3    3    0    0 -0.82346552661E+02 -0.63094873286E+02  0.18614070734E+03  0.21309688102E+03  0.00000000000E+00 0.  1.
        -13    1    4    4    0    0  0.20538329009E+03 -0.33908695351E+02  0.46939243125E+02  0.21339022474E+03  0.00000000000E+00 0. -1.
         13    1    4    4    0    0  0.45011142482E+01 -0.28457777647E+02  0.67744265870E+01  0.29597263280E+02  0.00000000000E+00 0.  1.
         21    1    1    2  502  501 -0.84398420333E+02  0.12304301151E+03  0.68145121058E+02  0.16403180655E+03  0.00000000000E+00 0.  1.
<scales pt_clust_5="13000.00000" pt_clust_6="13000.00000" pt_clust_7="13000.00000" pt_clust_8="13000.00000" pt_clust_9="149.20682"></scales>
<clustering>
<clus scale="   81.115">  5  6 -1 -1</clus>
<clus scale="   90.646">  7  8 -1 -1</clus>
<clus scale="  149.207">  2  9  1 -1</clus>
<clus scale="  169.125">  1  5  2 -1</clus>
<clus scale="  149.207">  2  5  1 -1</clus>
</clustering>
</event>
<event>
 9    1  0.2802611E-005  0.1677104E+03  0.7546771E-02  0.1181981E+00
          1   -1    0    0  502    0  0.00000000000E+00  0.00000000000E+00  0.33223201910E+03  0.33223201910E+03  0.00000000000E+00 0. -1.
         -2   -1    0    0    0  501 -0.00000000000E+00 -0.00000000000E+00 -0.12782544972E+03  0.12782544972E+03  0.00000000000E+00 0.  1.
         23    2    1    2    0    0 -0.12454831847E+03  0.95371536093E+02  0.21004370064E+02  0.18572124596E+03  0.97176046985E+02 0.  0.
        -24    2    1    2    0    0  0.10837193976E+03 -0.71696241737E+02  0.18927221364E+03  0.24506760726E+03  0.85728250099E+02 0.  0.
         11    1    4    4    0    0  0.10555056620E+03 -0.88991166347E+02  0.17051244184E+03  0.21939654176E+03  0.00000000000E+00 0. -1.
        -12    1    4    4    0    0  0.28213735586E+01  0.17294924609E+02  0.18759771800E+02  0.25671065502E+02  0.00000000000E+00 0.  1.
        -11    1    3    3    0    0 -0.10813161623E+03  0.58185344496E+02 -0.23958457700E+02  0.12510790717E+03  0.00000000000E+00 0.  1.
         11    1    3    3    0    0 -0.16416702243E+02  0.37186191597E+02  0.44962827763E+02  0.60613338784E+02  0.00000000000E+00 0. -1.
         21    1    1    2  502  501  0.16176378714E+02 -0.23675294356E+02 -0.58700143266E+01  0.29268615603E+02  0.00000000000E+00 0. -1.
<scales pt_clust_5="13000.00000" pt_clust_6="13000.00000" pt_clust_7="13000.00000" pt_clust_8="13000.00000" pt_clust_9="28.67394"></scales>
<clustering>
<clus scale="   28.674">  2  9  1 -1</clus>
<clus scale="   85.728">  5  6 -1 -1</clus>
<clus scale="   97.176">  7  8 -1 -1</clus>
<clus scale="  161.347">  1  5  2 -1</clus>
<clus scale="  161.347">  1  5  2 -1</clus>
</clustering>
</event>
<event>
 9    1  0.2802611E-005  0.1053389E+03  0.7546771E-02  0.1273696E+00
          1   -1    0    0  502    0  0.00000000000E+00  0.00000000000E+00  0.12612698419E+03  0.12612698419E+03  0.00000000000E+00 0. -1.
         -2   -1    0    0    0  501 -0.00000000000E+00 -0.00000000000E+00 -0.35407217254E+03  0.35407217254E+03  0.00000000000E+00 0.  1.
        -24    2    1    2    0    0 -0.19085353480E+02 -0.50648716020E+02 -0.30097334224E+03  0.31600681466E+03  0.79660598908E+02 0.  0.
         23    2    1    2    0    0  0.23552616304E+02  0.71364270547E+02  0.80248478229E+02  0.14180431580E+03  0.89560375595E+02 0.  0.
         13    1    3    3    0    0 -0.32063544440E+02  0.28833631923E+01 -0.18296899166E+03  0.18577953755E+03  0.00000000000E+00 0. -1.
        -14    1    3    3    0    0  0.12978190960E+02 -0.53532079212E+02 -0.11800435059E+03  0.13022727711E+03  0.00000000000E+00 0.  1.
        -11    1    4    4    0    0  0.32070585779E+02  0.47576219673E+01 -0.55080142739E+01  0.32886101323E+02  0.00000000000E+00 0.  1.
         11    1    4    4    0    0 -0.85179694756E+01  0.66606648579E+02  0.85756492503E+02  0.10891821448E+03  0.00000000000E+00 0. -1.
         21    1    1    2  502  501 -0.44672628231E+01 -0.20715554527E+02 -0.72203243364E+01  0.22388026264E+02  0.00000000000E+00 0. -1.
<scales pt_clust_5="13000.00000" pt_clust_6="13000.00000" pt_clust_7="13000.00000" pt_clust_8="13000.00000" pt_clust_9="21.19176"></scales>
<clustering>
<clus scale="   21.192">  1  9  2 -1</clus>
<clus scale="   79.661">  5  6 -1 -1</clus>
<clus scale="   89.560">  7  8 -1 -1</clus>
<clus scale="   97.062">  2  5  1 -1</clus>
<clus scale="   21.192">  1  5  2 -1</clus>
</clustering>
</event>
<event>
 9    1  0.2802611E-005  0.9413298E+02  0.7546771E-02  0.1300739E+00
          1   -1    0    0  502    0  0.00000000000E+00  0.00000000000E+00  0.15155145056E+03  0.15155145056E+03  0.00000000000E+00 0. -1.
         -2   -1    0    0    0  501 -0.00000000000E+00 -0.00000000000E+00 -0.34560056268E+03  0.34560056268E+03  0.00000000000E+00 0.  1.
        -24    2    1    2    0    0  0.13696232674E+01 -0.47649143298E+02 -0.23293651933E+03  0.25099939199E+03  0.80429820446E+02 0.  0.
         23    2    1    2    0    0 -0.14491748166E+02  0.27654188634E+01  0.12000681601E+03  0.15251984192E+03  0.92967779280E+02 0.  0.
         11    1    3    3    0    0 -0.15097959229E+02 -0.65797350839E+02 -0.14942722442E+03  0.16396870173E+03  0.00000000000E+00 0. -1.
        -12    1    3    3    0    0  0.16467582496E+02  0.18148207541E+02 -0.83509294908E+02  0.87030690255E+02  0.00000000000E+00 0.  1.
        -11    1    4    4    0    0 -0.16056612357E+02 -0.41704995943E+02  0.35729303272E+02  0.57216296623E+02  0.00000000000E+00 0.  1.
         11    1    4    4    0    0  0.15648641915E+01  0.44470414806E+02  0.84277512738E+02  0.95303545297E+02  0.00000000000E+00 0. -1.
         21    1    1    2  502  501  0.13122124898E+02  0.44883724434E+02 -0.81119408800E+02  0.93632779329E+02  0.00000000000E+00 0.  1.
<scales pt_clust_5="13000.00000" pt_clust_6="13000.00000" pt_clust_7="13000.00000" pt_clust_8="13000.00000" pt_clust_9="46.76258"></scales>
<clustering>
<clus scale="   46.763">  2  9  1 -1</clus>
<clus scale="   80.430">  5  6 -1 -1</clus>
<clus scale="   81.774">  2  5  1 -1</clus>
<clus scale="   92.968">  7  8 -1 -1</clus>
<clus scale="   94.133">  1  5  2 -1</clus>
</clustering>
</event>
<event>
 9    1  0.2802611E-005  0.1130084E+03  0.7546771E-02  0.1260810E+00
         -2   -1    0    0    0  501 -0.00000000000E+00  0.00000000000E+00  0.17393845833E+03  0.17393845833E+03  0.00000000000E+00 0.  1.
          1   -1    0    0  502    0  0.00000000000E+00 -0.00000000000E+00 -0.16007869629E+03  0.16007869629E+03  0.00000000000E+00 0. -1.
         23    2    1    2    0    0  0.61403002513E+02  0.11037739594E+02  0.12241184691E+03  0.16755875368E+03  0.95912018318E+02 0.  0.
        -24    2    1    2    0    0 -0.41408084034E+02 -0.23480688655E+02 -0.10735409788E+03  0.14287749937E+03  0.81382463291E+02 0.  0.
         13    1    4    4    0    0 -0.63711737307E+02 -0.30838126997E+02 -0.79555923038E+02  0.10648624530E+03  0.00000000000E+00 0. -1.
        -14    1    4    4    0    0  0.22303653273E+02  0.73574383420E+01 -0.27798174839E+02  0.36391254068E+02  0.00000000000E+00 0.  1.
        -11    1    3    3    0    0  0.35680360934E+02  0.51271682672E+02  0.46486717041E+02  0.77864552022E+02  0.00000000000E+00 0.  1.
         11    1    3    3    0    0  0.25722641579E+02 -0.40233943077E+02  0.75925129871E+02  0.89694201659E+02  0.00000000000E+00 0. -1.
         21    1    1    2  502  501 -0.19994918479E+02  0.12442949061E+02 -0.11979869915E+01  0.23580901576E+02  0.00000000000E+00 0. -1.
<scales pt_clust_5="13000.00000" pt_clust_6="13000.00000" pt_clust_7="13000.00000" pt_clust_8="13000.00000" pt_clust_9="23.55045"></scales>
<clustering>
<clus scale="   23.550">  2  9  1 -1</clus>
<clus scale="   81.382">  5  6 -1 -1</clus>
<clus scale="   95.912">  7  8 -1 -1</clus>
<clus scale="  100.970">  2  5  1 -1</clus>
<clus scale="   23.550">  2  5  1 -1</clus>
</clustering>
</event>
<event>
 9    1  0.2802611E-005  0.1006728E+03  0.7546771E-02  0.1287328E+00
         -2   -1    0    0    0  501 -0.00000000000E+00  0.00000000000E+00  0.12605724017E+03  0.12605724017E+03  0.00000000000E+00 0.  1.
          1   -1    0    0  502    0  0.00000000000E+00 -0.00000000000E+00 -0.49001380705E+03  0.49001380705E+03  0.00000000000E+00 0. -1.
         23    2    1    2    0    0  0.27902966291E+02 -0.30849782986E+02  0.18648958791E+01  0.10383616582E+03  0.95121957804E+02 0.  0.
        -24    2    1    2    0    0 -0.71356860815E+01 -0.37203199323E+02 -0.41600225087E+03  0.42516824126E+03  0.79215936473E+02 0.  0.
         11    1    4    4    0    0 -0.28166294435E+02 -0.53119579255E+02 -0.32050547291E+03  0.32609628641E+03  0.00000000000E+00 0. -1.
        -12    1    4    4    0    0  0.21030608353E+02  0.15916379932E+02 -0.95496777962E+02  0.99071954856E+02  0.00000000000E+00 0.  1.
        -13    1    3    3    0    0  0.16470626313E+02  0.17834478880E+02  0.35904841340E+02  0.43341755845E+02  0.00000000000E+00 0.  1.
         13    1    3    3    0    0  0.11432339978E+02 -0.48684261865E+02 -0.34039945461E+02  0.60494409971E+02  0.00000000000E+00 0. -1.
         21    1    1    2  502  501 -0.20767280210E+02  0.68052982309E+02  0.50180788124E+02  0.87066640140E+02  0.00000000000E+00 0.  1.
<scales pt_clust_5="13000.00000" pt_clust_6="13000.00000" pt_clust_7="13000.00000" pt_clust_8="13000.00000" pt_clust_9="71.15117"></scales>
<clustering>
<clus scale="   71.151">  1  9  2 -1</clus>
<clus scale="   79.216">  5  6 -1 -1</clus>
<clus scale="   85.802">  2  5  1 -1</clus>
<clus scale="   95.122">  7  8 -1 -1</clus>
<clus scale="   85.802">  2  5  1 -1</clus>
</clustering>
</event>
<event>
 9    1  0.2802611E-005  0.1919013E+03  0.7546771E-02  0.1180009E+00
          1   -1    0    0  502    0  0.00000000000E+00  0.00000000000E+00  0.52303407958E+03  0.52303407958E+03  0.00000000000E+00 0. -1.
         -2   -1    0    0    0  501 -0.00000000000E+00 -0.00000000000E+00 -0.23382924897E+03  0.23382924897E+03  0.00000000000E+00 0.  1.
         23    2    1    2    0    0 -0.45949707174E+02  0.48821276192E+02 -0.11264396412E+03  0.15925115837E+03  0.90428846017E+02 0.  0.
        -24    2    1    2    0    0  0.21538659861E+02 -0.18570823985E+03  0.41057289512E+03  0.45829221476E+03  0.80685734075E+02 0.  0.
         13    1    4    4    0    0  0.27823230742E+01 -0.18467454891E+03  0.36749442377E+03  0.41129622152E+03  0.00000000000E+00 0. -1.
        -14    1    4    4    0    0  0.18756336786E+02 -0.10336909489E+01  0.43078471351E+02  0.46995993240E+02  0.00000000000E+00 0.  1.
        -13    1    3    3    0    0 -0.26764105927E+02 -0.16062992408E+02 -0.42914866662E+01  0.31507998175E+02  0.00000000000E+00 0.  1.
         13    1    3    3    0    0 -0.19185601246E+02  0.64884268600E+02 -0.10835247745E+03  0.12774316020E+03  0.00000000000E+00 0. -1.
         21    1    1    2  502  501  0.24411047313E+02  0.13688696366E+03 -0.87241003885E+01  0.13931995542E+03  0.00000000000E+00 0.  1.
<scales pt_clust_5="13000.00000" pt_clust_6="13000.00000" pt_clust_7="13000.00000" pt_clust_8="13000.00000" pt_clust_9="174.11473"></scales>
<clustering>
<clus scale="   80.686">  5  6 -1 -1</clus>
<clus scale="   90.429">  7  8 -1 -1</clus>
<clus scale="  112.571">  2  7  1 -1</clus>
<clus scale="  174.115">  2  9  1 -1</clus>
<clus scale="  191.901">  1  5  2 -1</clus>
</clustering>
</event>
<event>
 9    1  0.2802611E-005  0.2673093E+03  0.7546771E-02  0.1103309E+00
          1   -1    0    0  502    0  0.00000000000E+00  0.00000000000E+00  0.76396604900E+03  0.76396604900E+03  0.00000000000E+00 0. -1.
         -2   -1    0    0    0  501 -0.00000000000E+00 -0.00000000000E+00 -0.13441620820E+03  0.13441620820E+03  0.00000000000E+00 0.  1.
        -24    2    1    2    0    0 -0.12469814768E+03 -0.19507737593E+03  0.88642420178E+02  0.26151354282E+03  0.83228863920E+02 0.  0.
         23    2    1    2    0    0  0.14705714469E+03  0.21172443919E+03  0.54367196875E+03  0.60885635659E+03  0.93133299136E+02 0.  0.
         13    1    3    3    0    0  0.20079770732E+01 -0.23998069260E+02 -0.10979240817E+02  0.26466639928E+02  0.00000000000E+00 0. -1.
        -14    1    3    3    0    0 -0.12670612475E+03 -0.17107930667E+03  0.99621660995E+02  0.23504690289E+03  0.00000000000E+00 0.  1.
        -13    1    4    4    0    0  0.15448633127E+03  0.18144397959E+03  0.43737493712E+03  0.49808109771E+03  0.00000000000E+00 0. -1.
         13    1    4    4    0    0 -0.74291865834E+01  0.30280459601E+02  0.10629703163E+03  0.11077525888E+03  0.00000000000E+00 0.  1.
         21    1    1    2  502  501 -0.22358997013E+02 -0.16647063263E+02 -0.27645481233E+01  0.28012357791E+02  0.00000000000E+00 0. -1.
<scales pt_clust_5="13000.00000" pt_clust_6="13000.00000" pt_clust_7="13000.00000" pt_clust_8="13000.00000" pt_clust_9="27.87561"></scales>
<clustering>
<clus scale="   27.876">  2  9  1 -1</clus>
<clus scale="   83.229">  5  6 -1 -1</clus>
<clus scale="   93.133">  7  8 -1 -1</clus>
<clus scale="  264.022">  2  5  1 -1</clus>
<clus scale="  267.309">  1  5  2 -1</clus>
</clustering>
</event>
<event>
 9    1  0.2802611E-005  0.3792021E+03  0.7546771E-02  0.1051229E+00
          3   -1    0    0  502    0  0.00000000000E+00  0.00000000000E+00  0.23935219583E+03  0.23935219583E+03  0.00000000000E+00 0. -1.
         -4   -1    0    0    0  501 -0.00000000000E+00 -0.00000000000E+00 -0.76155721785E+03  0.76155721785E+03  0.00000000000E+00 0.  1.
        -24    2    1    2    0    0  0.38540000676E+02  0.26324003415E+02 -0.11658978377E+03  0.14906764664E+03  0.80310029178E+02 0.  0.
         23    2    1    2    0    0  0.15375749343E+03  0.22296246929E+03 -0.45121695116E+03  0.53371979683E+03  0.88918249036E+02 0.  0.
         13    1    3    3    0    0 -0.66405903619E+01  0.41818431715E+02 -0.36923941692E+02  0.56180567294E+02  0.00000000000E+00 0. -1.
        -14    1    3    3    0    0  0.45180591038E+02 -0.15494428299E+02 -0.79665842078E+02  0.92887079343E+02  0.00000000000E+00 0.  1.
        -13    1    4    4    0    0 -0.11332969053E+02  0.17267773615E+02 -0.24212547767E+02  0.31825456203E+02  0.00000000000E+00 0. -1.
         13    1    4    4    0    0  0.16509046248E+03  0.20569469568E+03 -0.42700440340E+03  0.50189434063E+03  0.00000000000E+00 0.  1.
         21    1    1    2  502  501 -0.19229749411E+03 -0.24928647271E+03  0.45601712915E+02  0.31812197022E+03  0.00000000000E+00 0. -1.
<scales pt_clust_5="13000.00000" pt_clust_6="13000.00000" pt_clust_7="13000.00000" pt_clust_8="13000.00000" pt_clust_9="314.83658"></scales>
<clustering>
<clus scale="   80.310">  5  6 -1 -1</clus>
<clus scale="   88.918">  7  8 -1 -1</clus>
<clus scale="   90.899">  5  7 -1 -1</clus>
<clus scale="  314.837">  1  9  2 -1</clus>
<clus scale="  314.837">  1  5  2 -1</clus>
</clustering>
</event>
<event>
 9    1  0.2802611E-005  0.1585473E+03  0.7546771E-02  0.1221830E+00
         -2   -1    0    0    0  501 -0.00000000000E+00  0.00000000000E+00  0.18364439830E+03  0.18364439830E+03  0.00000000000E+00 0.  1.
          1   -1    0    0  502    0  0.00000000000E+00 -0.00000000000E+00 -0.24537007888E+03  0.24537007888E+03  0.00000000000E+00 0. -1.
        -24    2    1    2    0    0  0.17627350919E+02 -0.79280525347E+01  0.46660782075E+02  0.93110688403E+02  0.78222721722E+02 0.  0.
         23    2    1    2    0    0  0.12128412571E+03  0.33424804550E+02 -0.11802748249E+03  0.19434308814E+03  0.89508058729E+02 0.  0.
         11    1    3    3    0    0 -0.25961129311E+02  0.14766239444E+02  0.89888501350E+01  0.31190086393E+02  0.00000000000E+00 0. -1.
        -12    1    3    3    0    0  0.43588480230E+02 -0.22694291979E+02  0.37671931940E+02  0.61920602010E+02  0.00000000000E+00 0.  1.
        -13    1    4    4    0    0  0.85107073239E+02  0.45831039003E+02 -0.34777934919E+02  0.10272878277E+03  0.00000000000E+00 0.  1.
         13    1    4    4    0    0  0.36177052466E+02 -0.12406234453E+02 -0.83249547569E+02  0.91614305372E+02  0.00000000000E+00 0. -1.
         21    1    1    2  502  501 -0.13891147662E+03 -0.25496752016E+02  0.96410198333E+01  0.14156070064E+03  0.00000000000E+00 0. -1.
<scales pt_clust_5="13000.00000" pt_clust_6="13000.00000" pt_clust_7="13000.00000" pt_clust_8="13000.00000" pt_clust_9="130.86462"></scales>
<clustering>
<clus scale="   78.223">  5  6 -1 -1</clus>
<clus scale="   80.575">  1  5  2 -1</clus>
<clus scale="   89.508">  7  8 -1 -1</clus>
<clus scale="  130.865">  1  9  2 -1</clus>
<clus scale="  158.547">  2  5  1 -1</clus>
</clustering>
</event>
<event>
 9    1  0.2802611E-005  0.1521201E+03  0.7546771E-02  0.1200155E+00
          1   -1    0    0  502    0  0.00000000000E+00  0.00000000000E+00  0.64288409277E+03  0.64288409277E+03  0.00000000000E+00 0. -1.
         -2   -1    0    0    0  501 -0.00000000000E+00 -0.00000000000E+00 -0.85667181194E+02  0.85667181194E+02  0.00000000000E+00 0.  1.
        -24    2    1    2    0    0  0.63328781773E+02 -0.18646046409E+02  0.69584585737E+00  0.10346022616E+03  0.79657545452E+02 0.  0.
         23    2    1    2    0    0 -0.13372670074E+03 -0.34234380810E+02  0.48181037150E+03  0.50961856447E+03  0.92276886855E+02 0.  0.
         13    1    3    3    0    0 -0.11751549634E+02 -0.20229202562E+02  0.13897863522E+02  0.27211581461E+02  0.00000000000E+00 0. -1.
        -14    1    3    3    0    0  0.75080331407E+02  0.15831561535E+01 -0.13202017665E+02  0.76248644696E+02  0.00000000000E+00 0.  1.
        -11    1    4    4    0    0 -0.18998592899E+01 -0.34117751174E+02  0.10401100551E+03  0.10948022505E+03  0.00000000000E+00 0.  1.
         11    1    4    4    0    0 -0.13182684145E+03 -0.11662963600E+00  0.37779936599E+03  0.40013833942E+03  0.00000000000E+00 0. -1.
         21    1    1    2  502  501  0.70397918967E+02  0.52880427219E+02  0.74710694219E+02  0.11547248334E+03  0.00000000000E+00 0. -1.
<scales pt_clust_5="13000.00000" pt_clust_6="13000.00000" pt_clust_7="13000.00000" pt_clust_8="13000.00000" pt_clust_9="88.04662"></scales>
<clustering>
<clus scale="   79.658">  5  6 -1 -1</clus>
<clus scale="   88.047">  2  9  1 -1</clus>
<clus scale="   92.277">  7  8 -1 -1</clus>
<clus scale="  144.813">  2  5  1 -1</clus>
<clus scale="  152.120">  1  5  2 -1</clus>
</clustering>
</event>
<event>
 9    1  0.2802611E-005  0.1063295E+03  0.7546771E-02  0.1269063E+00
          1   -1    0    0  502    0  0.00000000000E+00  0.00000000000E+00  0.73075538271E+03  0.73075538271E+03  0.00000000000E+00 0. -1.
         -2   -1    0    0    0  501 -0.00000000000E+00 -0.00000000000E+00 -0.52601994668E+02  0.52601994668E+02  0.00000000000E+00 0.  1.
         23    2    1    2    0    0 -0.33188872526E+02 -0.51987637380E+02  0.18164040250E+03  0.21218352455E+03  0.90688458868E+02 0.  0.
        -24    2    1    2    0    0  0.10584274351E+02  0.53481620482E+02  0.52490517872E+03  0.53485145647E+03  0.86996110564E+02 0.  0.
         11    1    4    4    0    0 -0.20149130993E+02  0.47950248830E+02  0.15222645108E+03  0.16086673445E+03  0.00000000000E+00 0. -1.
        -12    1    4    4    0    0  0.30733405344E+02  0.55313716522E+01  0.37267872764E+03  0.37398472203E+03  0.00000000000E+00 0.  1.
        -13    1    3    3    0    0 -0.34185787447E+02 -0.75706601753E+02  0.11839145821E+03  0.14462605225E+03  0.00000000000E+00 0.  1.
         13    1    3    3    0    0  0.99691492140E+00  0.23718964374E+02  0.63248944284E+02  0.67557472298E+02  0.00000000000E+00 0. -1.
         21    1    1    2  502  501  0.22604598174E+02 -0.14939831019E+01 -0.28392193169E+02  0.36322396357E+02  0.00000000000E+00 0.  1.
<scales pt_clust_5="13000.00000" pt_clust_6="13000.00000" pt_clust_7="13000.00000" pt_clust_8="13000.00000" pt_clust_9="22.65391"></scales>
<clustering>
<clus scale="   22.654">  2  9  1 -1</clus>
<clus scale="   86.996">  5  6 -1 -1</clus>
<clus scale="   90.688">  7  8 -1 -1</clus>
<clus scale="  103.198">  1  5  2 -1</clus>
<clus scale="  103.198">  1  5  2 -1</clus>
</clustering>
</event>
<event>
 9    1  0.2802611E-005  0.1053836E+03  0.7546771E-02  0.1273358E+00
         -2   -1    0    0    0  501 -0.00000000000E+00  0.00000000000E+00  0.22332458897E+03  0.22332458897E+03  0.00000000000E+00 0.  1.
          1   -1    0    0  502    0  0.00000000000E+00 -0.00000000000E+00 -0.30321969289E+03  0.30321969289E+03  0.00000000000E+00 0. -1.
         23    2    1    2    0    0  0.31347871527E+02  0.34434939985E+01  0.11344377685E+03  0.14816417604E+03  0.89936565731E+02 0.  0.
        -24    2    1    2    0    0 -0.47680825500E+02  0.31114920671E+02 -0.27285028257E+03  0.29015815602E+03  0.80640432770E+02 0.  0.
         11    1    4    4    0    0 -0.46659768446E+02  0.33519299286E+02 -0.27827156645E+03  0.28414035635E+03  0.00000000000E+00 0. -1.
        -12    1    4    4    0    0 -0.10210570543E+01 -0.24043786149E+01  0.54212838729E+01  0.60177996695E+01  0.00000000000E+00 0.  1.
        -13    1    3    3    0    0 -0.27709843649E+01  0.38341119743E+02  0.21437067167E+02  0.44014402941E+02  0.00000000000E+00 0. -1.
         13    1    3    3    0    0  0.34118855891E+02 -0.34897625744E+02  0.92006709685E+02  0.10414977310E+03  0.00000000000E+00 0.  1.
         21    1    1    2  502  501  0.16332953973E+02 -0.34558414670E+02  0.79511401803E+02  0.88221949801E+02  0.00000000000E+00 0.  1.
<scales pt_clust_5="13000.00000" pt_clust_6="13000.00000" pt_clust_7="13000.00000" pt_clust_8="13000.00000" pt_clust_9="38.22368"></scales>
<clustering>
<clus scale="   38.224">  1  9  2 -1</clus>
<clus scale="   80.640">  5  6 -1 -1</clus>
<clus scale="   89.937">  7  8 -1 -1</clus>
<clus scale="   97.570">  2  5  1 -1</clus>
<clus scale="   97.570">  2  5  1 -1</clus>
</clustering>
</event>
<event>
 9    1  0.2802611E-005  0.1517696E+03  0.7546771E-02  0.1222778E+00
         -2   -1    0    0    0  501 -0.00000000000E+00  0.00000000000E+00  0.32893157925E+03  0.32893157925E+03  0.00000000000E+00 0.  1.
          1   -1    0    0  502    0  0.00000000000E+00 -0.00000000000E+00 -0.16677873725E+03  0.16677873725E+03  0.00000000000E+00 0. -1.
        -24    2    1    2    0    0 -0.16376690311E+02 -0.41726171096E+02  0.17007504196E+03  0.19244573919E+03  0.78106166826E+02 0.  0.
         23    2    1    2    0    0 -0.48049422190E+02  0.12066348635E+03 -0.79400025348E+02  0.17880212018E+03  0.93794510746E+02 0.  0.
         11    1    3    3    0    0  0.23208766846E+02 -0.10898104674E+02  0.11550106649E+03  0.11831277152E+03  0.00000000000E+00 0. -1.
        -12    1    3    3    0    0 -0.39585457158E+02 -0.30828066422E+02  0.54573975467E+02  0.74132967673E+02  0.00000000000E+00 0.  1.
        -13    1    4    4    0    0 -0.13371522209E+02  0.95531333074E+02 -0.92874000618E+02  0.13390523961E+03  0.00000000000E+00 0.  1.
         13    1    4    4    0    0 -0.34677899981E+02  0.25132153272E+02  0.13473975270E+02  0.44896880568E+02  0.00000000000E+00 0. -1.
         21    1    1    2  502  501  0.64426112502E+02 -0.78937315250E+02  0.71477825388E+02  0.12446245712E+03  0.00000000000E+00 0. -1.
<scales pt_clust_5="13000.00000" pt_clust_6="13000.00000" pt_clust_7="13000.00000" pt_clust_8="13000.00000" pt_clust_9="119.31726"></scales>
<clustering>
<clus scale="   78.106">  5  6 -1 -1</clus>
<clus scale="   90.055">  1  5  2 -1</clus>
<clus scale="   93.795">  7  8 -1 -1</clus>
<clus scale="  119.317">  1  9  2 -1</clus>
<clus scale="  151.770">  2  5  1 -1</clus>
</clustering>
</event>
<event>
 9    1  0.2802611E-005  0.1101043E+03  0.7546771E-02  0.1266130E+00
          1   -1    0    0  502    0  0.00000000000E+00  0.00000000000E+00  0.51870560512E+03  0.51870560512E+03  0.00000000000E+00 0. -1.
         -2   -1    0    0    0  501 -0.00000000000E+00 -0.00000000000E+00 -0.70127088216E+02  0.70127088216E+02  0.00000000000E+00 0.  1.
         23    2    1    2    0    0  0.37708670490E+02 -0.36892861596E+02 -0.27321788634E+02  0.85620370641E+02  0.61655013322E+02 0.  0.
        -24    2    1    2    0    0 -0.56690823649E+02  0.55807325479E+02  0.45665973208E+03  0.47022325254E+03  0.79015753294E+02 0.  0.
         11    1    4    4    0    0 -0.62025673712E+02  0.66262082408E+02  0.44305090123E+03  0.45225208550E+03  0.00000000000E+00 0. -1.
        -12    1    4    4    0    0  0.53348500638E+01 -0.10454756929E+02  0.13608830849E+02  0.17971167039E+02  0.00000000000E+00 0.  1.
        -13    1    3    3    0    0  0.20896864853E+02  0.98110188514E+01  0.82908747165E+01  0.24529036980E+02  0.00000000000E+00 0. -1.
         13    1    3    3    0    0  0.16811805637E+02 -0.46703880447E+02 -0.35612663350E+02  0.61091333661E+02  0.00000000000E+00 0.  1.
         21    1    1    2  502  501  0.18982153158E+02 -0.18914463883E+02  0.19240573464E+02  0.32989070155E+02  0.00000000000E+00 0.  1.
<scales pt_clust_5="13000.00000" pt_clust_6="13000.00000" pt_clust_7="13000.00000" pt_clust_8="13000.00000" pt_clust_9="26.79700"></scales>
<clustering>
<clus scale="   26.797">  2  9  1 -1</clus>
<clus scale="   61.655">  7  8 -1 -1</clus>
<clus scale="   79.016">  5  6 -1 -1</clus>
<clus scale="   98.391">  2  7  1 -1</clus>
<clus scale="  110.104">  1  5  2 -1</clus>
</clustering>
</event>
<event>
 9    1  0.2802611E-005  0.1220555E+03  0.7546771E-02  0.1241562E+00
         -2   -1    0    0    0  501 -0.00000000000E+00  0.00000000000E+00  0.43373768088E+03  0.43373768088E+03  0.00000000000E+00 0.  1.
          1   -1    0    0  502    0  0.00000000000E+00 -0.00000000000E+00 -0.21474160751E+03  0.21474160751E+03  0.00000000000E+00 0. -1.
         23    2    1    2    0    0  0.23039527972E+02 -0.31842871019E+02  0.34742622762E+03  0.36048109816E+03  0.87731694411E+02 0.  0.
        -24    2    1    2    0    0  0.30453659279E+02  0.82877354090E+02 -0.16612130771E+03  0.20501227219E+03  0.81471845985E+02 0.  0.
         13    1    4    4    0    0  0.56655683885E+02  0.57331120583E+02 -0.91755431640E+02  0.12213018930E+03  0.00000000000E+00 0. -1.
        -14    1    4    4    0    0 -0.26202024606E+02  0.25546233508E+02 -0.74365876071E+02  0.82882082886E+02  0.00000000000E+00 0.  1.
        -13    1    3    3    0    0  0.42493181524E+02 -0.51721402622E+02  0.21558821634E+03  0.22574111941E+03  0.00000000000E+00 0.  1.
         13    1    3    3    0    0 -0.19453653551E+02  0.19878531604E+02  0.13183801128E+03  0.13473997875E+03  0.00000000000E+00 0. -1.
         21    1    1    2  502  501 -0.53493187251E+02 -0.51034483072E+02  0.37691153462E+02  0.82985918046E+02  0.00000000000E+00 0.  1.
<scales pt_clust_5="13000.00000" pt_clust_6="13000.00000" pt_clust_7="13000.00000" pt_clust_8="13000.00000" pt_clust_9="73.93267"></scales>
<clustering>
<clus scale="   73.933">  1  9  2 -1</clus>
<clus scale="   81.472">  5  6 -1 -1</clus>
<clus scale="   87.732">  7  8 -1 -1</clus>
<clus scale="  117.637">  2  5  1 -1</clus>
<clus scale="  117.637">  2  5  1 -1</clus>
</clustering>
</event>
<event>
 9    1  0.2802611E-005  0.9694913E+02  0.7546771E-02  0.1293613E+00
          1   -1    0    0  502    0  0.00000000000E+00  0.00000000000E+00  0.38501277361E+03  0.38501277361E+03  0.00000000000E+00 0. -1.
         -2   -1    0    0    0  501 -0.00000000000E+00 -0.00000000000E+00 -0.48363355258E+02  0.48363355258E+02  0.00000000000E+00 0.  1.
         23    2    1    2    0    0  0.19532875579E+02  0.17293212693E+02  0.25721595023E+02  0.98856211303E+02  0.91817000763E+02 0.  0.
        -24    2    1    2    0    0 -0.10471491396E+01 -0.33235092169E+02  0.28941736719E+03  0.30198431666E+03  0.79538966555E+02 0.  0.
         11    1    4    4    0    0  0.33907136238E+02 -0.20770575599E+02  0.21698978861E+03  0.22060298969E+03  0.00000000000E+00 0. -1.
        -12    1    4    4    0    0 -0.34954285378E+02 -0.12464516570E+02  0.72427578583E+02  0.81381326967E+02  0.00000000000E+00 0.  1.
        -11    1    3    3    0    0  0.38258897157E+02 -0.26003467363E+02  0.22852984667E+02  0.51596341293E+02  0.00000000000E+00 0. -1.
         11    1    3    3    0    0 -0.18726021578E+02  0.43296680056E+02  0.28686103565E+01  0.47259870010E+02  0.00000000000E+00 0.  1.
         21    1    1    2  502  501 -0.18485726440E+02  0.15941879477E+02  0.21510456135E+02  0.32535600907E+02  0.00000000000E+00 0.  1.
<scales pt_clust_5="13000.00000" pt_clust_6="13000.00000" pt_clust_7="13000.00000" pt_clust_8="13000.00000" pt_clust_9="24.41036"></scales>
<clustering>
<clus scale="   24.410">  2  9  1 -1</clus>
<clus scale="   79.539">  5  6 -1 -1</clus>
<clus scale="   85.412">  1  5  2 -1</clus>
<clus scale="   91.817">  7  8 -1 -1</clus>
<clus scale="   85.412">  1  5  2 -1</clus>
</clustering>
</event>
<event>
 9    1  0.2802611E-005  0.1351714E+03  0.7546771E-02  0.1222571E+00
         -2   -1    0    0    0  501 -0.00000000000E+00  0.00000000000E+00  0.70881601289E+02  0.70881601289E+02  0.00000000000E+00 0.  1.
          1   -1    0    0  502    0  0.00000000000E+00 -0.00000000000E+00 -0.72228796934E+03  0.72228796934E+03  0.00000000000E+00 0. -1.
        -24    2    1    2    0    0  0.40862660106E+02 -0.91324598131E+02 -0.11031524179E+03  0.16925930700E+03  0.80432090740E+02 0.  0.
         23    2    1    2    0    0  0.59219572243E+02  0.94850855147E+02 -0.49127458490E+03  0.51205957961E+03  0.91381906574E+02 0.  0.
         13    1    3    3    0    0  0.56309491491E+02 -0.28701788161E+02 -0.45972624546E+02  0.78153910223E+02  0.00000000000E+00 0. -1.
        -14    1    3    3    0    0 -0.15446831385E+02 -0.62622809969E+02 -0.64342617240E+02  0.91105396775E+02  0.00000000000E+00 0.  1.
        -13    1    4    4    0    0  0.38739891990E+02  0.25647246160E+02 -0.66048330772E+02  0.80752352688E+02  0.00000000000E+00 0.  1.
         13    1    4    4    0    0  0.20479680253E+02  0.69203608987E+02 -0.42522625413E+03  0.43130722693E+03  0.00000000000E+00 0. -1.
         21    1    1    2  502  501 -0.10008223235E+03 -0.35262570163E+01 -0.49816541364E+02  0.11185068401E+03  0.00000000000E+00 0.  1.
<scales pt_clust_5="13000.00000" pt_clust_6="13000.00000" pt_clust_7="13000.00000" pt_clust_8="13000.00000" pt_clust_9="100.14433"></scales>
<clustering>
<clus scale="   80.432">  5  6 -1 -1</clus>
<clus scale="   91.382">  7  8 -1 -1</clus>
<clus scale="  100.144">  1  9  2 -1</clus>
<clus scale="  128.023">  1  5  2 -1</clus>
<clus scale="  135.171">  2  5  1 -1</clus>
</clustering>
</event>
<event>
 9    1  0.2802611E-005  0.9661753E+02  0.7546771E-02  0.1294568E+00
         -4   -1    0    0    0  501 -0.00000000000E+00  0.00000000000E+00  0.23741645195E+03  0.23741645195E+03  0.00000000000E+00 0.  1.
          3   -1    0    0  502    0  0.00000000000E+00 -0.00000000000E+00 -0.61939551103E+02  0.61939551103E+02  0.00000000000E+00 0. -1.
        -24    2    1    2    0    0 -0.13846717331E+02 -0.80574561487E+01  0.11909078364E+03  0.14360296517E+03  0.78629146500E+02 0.  0.
         23    2    1    2    0    0  0.38533592664E+02  0.19359957770E+01  0.59556334572E+01  0.99271644638E+02  0.91273238224E+02 0.  0.
         11    1    3    3    0    0  0.19196871780E+02 -0.32773274454E+02  0.45857305505E+02  0.59544100234E+02  0.00000000000E+00 0. -1.
        -12    1    3    3    0    0 -0.33043589110E+02  0.24715818305E+02  0.73233478131E+02  0.84058864940E+02  0.00000000000E+00 0.  1.
        -13    1    4    4    0    0 -0.27140042052E+02  0.14186542686E+02  0.10336886157E+02  0.32321681444E+02  0.00000000000E+00 0.  1.
         13    1    4    4    0    0  0.65673634716E+02 -0.12250546909E+02 -0.43812526994E+01  0.66949963194E+02  0.00000000000E+00 0. -1.
         21    1    1    2  502  501 -0.24686875334E+02  0.61214603717E+01  0.50430483754E+02  0.56481393241E+02  0.00000000000E+00 0.  1.
<scales pt_clust_5="13000.00000" pt_clust_6="13000.00000" pt_clust_7="13000.00000" pt_clust_8="13000.00000" pt_clust_9="25.43451"></scales>
<clustering>
<clus scale="   25.435">  1  9  2 -1</clus>
<clus scale="   78.629">  5  6 -1 -1</clus>
<clus scale="   84.774">  1  5  2 -1</clus>
<clus scale="   91.273">  7  8 -1 -1</clus>
<clus scale="   96.618">  2  5  1 -1</clus>
</clustering>
</event>
<event>
 9    1  0.2802611E-005  0.1143306E+03  0.7546771E-02  0.1255814E+00
         -2   -1    0    0    0  501 -0.00000000000E+00  0.00000000000E+00  0.88655221583E+02  0.88655221583E+02  0.00000000000E+00 0.  1.
          1   -1    0    0  502    0  0.00000000000E+00 -0.00000000000E+00 -0.54226317613E+03  0.54226317613E+03  0.00000000000E+00 0. -1.
        -24    2    1    2    0    0 -0.78333284158E+02  0.25378927286E+01 -0.31756920553E+02  0.11697341200E+03  0.80819136376E+02 0.  0.
         23    2    1    2    0    0  0.65636768006E+02  0.26412288525E+02 -0.45443046638E+03  0.46854967834E+03  0.89587711219E+02 0.  0.
         11    1    3    3    0    0 -0.24359296703E+02  0.38749900014E+02 -0.29085456990E+01  0.45862726969E+02  0.00000000000E+00 0. -1.
        -12    1    3    3    0    0 -0.53973987455E+02 -0.36212007285E+02 -0.28848374854E+02  0.71110685027E+02  0.00000000000E+00 0.  1.
        -11    1    4    4    0    0  0.89521375682E+01  0.48455564302E+02 -0.14343943565E+03  0.15166724821E+03  0.00000000000E+00 0.  1.
         11    1    4    4    0    0  0.56684630438E+02 -0.22043275777E+02 -0.31099103073E+03  0.31688243014E+03  0.00000000000E+00 0. -1.
         21    1    1    2  502  501  0.12696516152E+02 -0.28950181254E+02  0.32579432386E+02  0.45395307374E+02  0.00000000000E+00 0.  1.
<scales pt_clust_5="13000.00000" pt_clust_6="13000.00000" pt_clust_7="13000.00000" pt_clust_8="13000.00000" pt_clust_9="31.61194"></scales>
<clustering>
<clus scale="   31.612">  1  9  2 -1</clus>
<clus scale="   80.819">  5  6 -1 -1</clus>
<clus scale="   89.588">  7  8 -1 -1</clus>
<clus scale="  107.598">  1  5  2 -1</clus>
<clus scale="  114.331">  2  5  1 -1</clus>
</clustering>
</event>
<event>
 9    1  0.2802611E-005  0.1166602E+03  0.7546771E-02  0.1250832E+00
         -4   -1    0    0    0  501 -0.00000000000E+00  0.00000000000E+00  0.54940729892E+03  0.54940729892E+03  0.00000000000E+00 0.  1.
          3   -1    0    0  502    0  0.00000000000E+00 -0.00000000000E+00 -0.48430342071E+02  0.48430342071E+02  0.00000000000E+00 0. -1.
        -24    2    1    2    0    0 -0.57841289056E+02 -0.51236264955E+02  0.33656919765E+03  0.35493601031E+03  0.82036437270E+02 0.  0.
         23    2    1    2    0    0  0.15836616136E+02  0.83938637013E+02  0.94988996377E+02  0.15542133395E+03  0.88523377810E+02 0.  0.
         11    1    3    3    0    0 -0.62037611364E+02 -0.66851976712E+02  0.31525624292E+03  0.32818341017E+03  0.00000000000E+00 0. -1.
        -12    1    3    3    0    0  0.41963223076E+01  0.15615711757E+02  0.21312954738E+02  0.26752600140E+02  0.00000000000E+00 0.  1.
        -11    1    4    4    0    0 -0.41078446835E+01  0.95410525549E+02  0.91298024466E+02  0.13211878006E+03  0.00000000000E+00 0.  1.
         11    1    4    4    0    0  0.19944460819E+02 -0.11471888536E+02  0.36909719107E+01  0.23302553886E+02  0.00000000000E+00 0. -1.
         21    1    1    2  502  501  0.42004672920E+02 -0.32702372058E+02  0.69418762822E+02  0.87480296736E+02  0.00000000000E+00 0.  1.
<scales pt_clust_5="13000.00000" pt_clust_6="13000.00000" pt_clust_7="13000.00000" pt_clust_8="13000.00000" pt_clust_9="53.23380"></scales>
<clustering>
<clus scale="   53.234">  2  9  1 -1</clus>
<clus scale="   82.036">  5  6 -1 -1</clus>
<clus scale="   88.523">  7  8 -1 -1</clus>
<clus scale="  111.818">  1  5  2 -1</clus>
<clus scale="   53.234">  2  5  1 -1</clus>
</clustering>
</event>
<event>
 9    1  0.2802611E-005  0.9869329E+02  0.7546771E-02  0.1291875E+00
         -2   -1    0    0    0  501 -0.00000000000E+00  0.00000000000E+00  0.11402557809E+03  0.11402557809E+03  0.00000000000E+00 0.  1.
          1   -1    0    0  502    0  0.00000000000E+00 -0.00000000000E+00 -0.12054733041E+03  0.12054733041E+03  0.00000000000E+00 0. -1.
        -24    2    1    2    0    0  0.35919458533E+02  0.36108283055E+01  0.38753886863E+02  0.96069988596E+02  0.80151939337E+02 0.  0.
         23    2    1    2    0    0 -0.15409742242E+02  0.15802303924E+02 -0.49350946959E+02  0.10997002136E+03  0.95763858882E+02 0.  0.
         13    1    3    3    0    0 -0.25564911716E+02  0.16248915731E+01  0.57286660241E+01  0.26249239953E+02  0.00000000000E+00 0. -1.
        -14    1    3    3    0    0  0.61484370249E+02  0.19859367324E+01  0.33025220839E+02  0.69820748643E+02  0.00000000000E+00 0.  1.
        -13    1    4    4    0    0 -0.33829982394E+02  0.48784240673E+02 -0.38148650905E+02  0.70566914434E+02  0.00000000000E+00 0. -1.
         13    1    4    4    0    0  0.18420240152E+02 -0.32981936748E+02 -0.11202296054E+02  0.39403106931E+02  0.00000000000E+00 0.  1.
         21    1    1    2  502  501 -0.20509716291E+02 -0.19413132230E+02  0.40753077759E+01  0.28532898535E+02  0.00000000000E+00 0. -1.
<scales pt_clust_5="13000.00000" pt_clust_6="13000.00000" pt_clust_7="13000.00000" pt_clust_8="13000.00000" pt_clust_9="28.24036"></scales>
<clustering>
<clus scale="   28.240">  1  9  2 -1</clus>
<clus scale="   80.152">  5  6 -1 -1</clus>
<clus scale="   83.630">  1  5  2 -1</clus>
<clus scale="   95.764">  7  8 -1 -1</clus>
<clus scale="   98.693">  2  5  1 -1</clus>
</clustering>
</event>
<event>
 9    1  0.2802611E-005  0.1109908E+03  0.7546771E-02  0.1263016E+00
          1   -1    0    0  502    0  0.00000000000E+00  0.00000000000E+00  0.28749082111E+03  0.28749082111E+03  0.00000000000E+00 0. -1.
         -2   -1    0    0    0  501 -0.00000000000E+00 -0.00000000000E+00 -0.20756642753E+03  0.20756642753E+03  0.00000000000E+00 0.  1.
        -24    2    1    2    0    0 -0.55826428398E+02  0.68518987673E+02  0.28896592293E+02  0.12272199184E+03  0.80088903455E+02 0.  0.
         23    2    1    2    0    0  0.31582243937E+02 -0.46288149342E+02  0.19619412977E+03  0.22348884743E+03  0.91187156282E+02 0.  0.
         11    1    3    3    0    0 -0.47235527178E+01  0.32552036503E+02  0.47267941220E+02  0.57586502741E+02  0.00000000000E+00 0. -1.
        -12    1    3    3    0    0 -0.51102875681E+02  0.35966951170E+02 -0.18371348927E+02  0.65135489103E+02  0.00000000000E+00 0.  1.
        -11    1    4    4    0    0  0.46733265422E+02 -0.66276703866E+02  0.13704816808E+03  0.15924446598E+03  0.00000000000E+00 0. -1.
         11    1    4    4    0    0 -0.15151021485E+02  0.19988554525E+02  0.59145961687E+02  0.64244381450E+02  0.00000000000E+00 0.  1.
         21    1    1    2  502  501  0.24244184461E+02 -0.22230838332E+02 -0.14516632848E+03  0.14884640936E+03  0.00000000000E+00 0. -1.
<scales pt_clust_5="13000.00000" pt_clust_6="13000.00000" pt_clust_7="13000.00000" pt_clust_8="13000.00000" pt_clust_9="32.89363"></scales>
<clustering>
<clus scale="   32.894">  2  9  1 -1</clus>
<clus scale="   80.089">  5  6 -1 -1</clus>
<clus scale="   91.187">  7  8 -1 -1</clus>
<clus scale="  102.069">  2  5  1 -1</clus>
<clus scale="  110.991">  1  5  2 -1</clus>
</clustering>
</event>
<event>
 9    1  0.2802611E-005  0.1051186E+03  0.7546771E-02  0.1273642E+00
         -2   -1    0    0    0  501 -0.00000000000E+00  0.00000000000E+00  0.25956675771E+03  0.25956675771E+03  0.00000000000E+00 0.  1.
          1   -1    0    0  502    0  0.00000000000E+00 -0.00000000000E+00 -0.65166402364E+02  0.65166402364E+02  0.00000000000E+00 0. -1.
        -24    2    1    2    0    0  0.44324089378E+02 -0.15101195372E+02  0.12132272731E+03  0.15243473680E+03  0.79526560467E+02 0.  0.
         23    2    1    2    0    0 -0.62768100867E+02 -0.74075424712E+01  0.18201943921E+02  0.11018429005E+03  0.88400004751E+02 0.  0.
         11    1    3    3    0    0 -0.54529387566E+01  0.20046077014E+02  0.69190992881E+02  0.72242461480E+02  0.00000000000E+00 0. -1.
        -12    1    3    3    0    0  0.49777028135E+02 -0.35147272386E+02  0.52131734427E+02  0.80192275317E+02  0.00000000000E+00 0.  1.
        -13    1    4    4    0    0 -0.71002861924E+02  0.23529936191E+02  0.33042729581E+01  0.74873109448E+02  0.00000000000E+00 0.  1.
         13    1    4    4    0    0  0.82347610571E+01 -0.30937478662E+02  0.14897670963E+02  0.35311180605E+02  0.00000000000E+00 0. -1.
         21    1    1    2  502  501  0.18444011489E+02  0.22508737843E+02  0.54875684118E+02  0.62114133227E+02  0.00000000000E+00 0.  1.
<scales pt_clust_5="13000.00000" pt_clust_6="13000.00000" pt_clust_7="13000.00000" pt_clust_8="13000.00000" pt_clust_9="29.10025"></scales>
<clustering>
<clus scale="   29.100">  1  9  2 -1</clus>
<clus scale="   79.527">  5  6 -1 -1</clus>
<clus scale="   88.400">  7  8 -1 -1</clus>
<clus scale="   97.774">  1  5  2 -1</clus>
<clus scale="  105.119">  2  5  1 -1</clus>
</clustering>
</event>
<event>
 9    1  0.2802611E-005  0.1025507E+03  0.7546771E-02  0.1280778E+00
         -2   -1    0    0    0  501 -0.00000000000E+00  0.00000000000E+00  0.53824389157E+02  0.53824389157E+02  0.00000000000E+00 0.  1.
          1   -1    0    0  502    0  0.00000000000E+00 -0.00000000000E+00 -0.48699079450E+03  0.48699079450E+03  0.00000000000E+00 0. -1.
         23    2    1    2    0    0  0.21224693414E+02 -0.46470219280E+02 -0.30740984733E+02  0.10947501454E+03  0.91813951962E+02 0.  0.
        -24    2    1    2    0    0 -0.40278506425E+02  0.22494159800E+02 -0.38549873177E+03  0.39634856994E+03  0.79715565547E+02 0.  0.
         13    1    4    4    0    0 -0.55399277373E+02 -0.20984285814E+00 -0.16242019649E+03  0.17160840363E+03  0.00000000000E+00 0. -1.
        -14    1    4    4    0    0  0.15120770949E+02  0.22704002659E+02 -0.22307853528E+03  0.22474016631E+03  0.00000000000E+00 0.  1.
        -11    1    3    3    0    0  0.74466047767E+01  0.27645231599E+02 -0.16721167834E+01  0.28679378086E+02  0.00000000000E+00 0. -1.
         11    1    3    3    0    0  0.13778088638E+02 -0.74115450879E+02 -0.29068867950E+02  0.80795636450E+02  0.00000000000E+00 0.  1.
         21    1    1    2  502  501  0.19053813010E+02  0.23976059480E+02 -0.16926688844E+02  0.34991599186E+02  0.00000000000E+00 0.  1.
<scales pt_clust_5="13000.00000" pt_clust_6="13000.00000" pt_clust_7="13000.00000" pt_clust_8="13000.00000" pt_clust_9="30.62514"></scales>
<clustering>
<clus scale="   30.625">  1  9  2 -1</clus>
<clus scale="   79.716">  5  6 -1 -1</clus>
<clus scale="   91.814">  7  8 -1 -1</clus>
<clus scale="   91.877">  2  5  1 -1</clus>
<clus scale="   91.877">  2  5  1 -1</clus>
</clustering>
</event>
<event>
 9    1  0.2802611E-005  0.1622640E+03  0.7546771E-02  0.1187496E+00
         -4   -1    0    0    0  501 -0.00000000000E+00  0.00000000000E+00  0.33875953453E+03  0.33875953453E+03  0.00000000000E+00 0.  1.
          3   -1    0    0  502    0  0.00000000000E+00 -0.00000000000E+00 -0.24079333641E+03  0.24079333641E+03  0.00000000000E+00 0. -1.
        -24    2    1    2    0    0  0.74674070880E+02  0.94387612641E+02  0.26341373940E+03  0.30062562321E+03  0.80645700086E+02 0.  0.
         23    2    1    2    0    0 -0.10098190673E+03 -0.92773241992E+02 -0.18427756083E+03  0.24653468600E+03  0.89537210462E+02 0.  0.
         11    1    3    3    0    0  0.46595337565E+02  0.79118262416E+02  0.10707316032E+03  0.14105136154E+03  0.00000000000E+00 0. -1.
        -12    1    3    3    0    0  0.28078733315E+02  0.15269350226E+02  0.15634057908E+03  0.15957426167E+03  0.00000000000E+00 0.  1.
        -13    1    4    4    0    0  0.12932494970E+01 -0.44603409368E+02 -0.85350446647E+02  0.96311138319E+02  0.00000000000E+00 0. -1.
         13    1    4    4    0    0 -0.10227515623E+03 -0.48169832624E+02 -0.98927114187E+02  0.15022354768E+03  0.00000000000E+00 0.  1.
         21    1    1    2  502  501  0.26307835849E+02 -0.16143706496E+01  0.18830019550E+02  0.32392561737E+02  0.00000000000E+00 0.  1.
<scales pt_clust_5="13000.00000" pt_clust_6="13000.00000" pt_clust_7="13000.00000" pt_clust_8="13000.00000" pt_clust_9="26.35732"></scales>
<clustering>
<clus scale="   26.357">  1  9  2 -1</clus>
<clus scale="   80.646">  5  6 -1 -1</clus>
<clus scale="   89.537">  7  8 -1 -1</clus>
<clus scale="  157.532">  1  5  2 -1</clus>
<clus scale="  162.264">  2  5  1 -1</clus>
</clustering>
</event>
<event>
 9    1  0.2802611E-005  0.1706433E+03  0.7546771E-02  0.1180325E+00
          1   -1    0    0  502    0  0.00000000000E+00  0.00000000000E+00  0.41510045890E+03  0.41510045890E+03  0.00000000000E+00 0. -1.
         -2   -1    0    0    0  501 -0.00000000000E+00 -0.00000000000E+00 -0.12772014613E+03  0.12772014613E+03  0.00000000000E+00 0.  1.
        -24    2    1    2    0    0 -0.11455374846E+03  0.12635656308E+03  0.81726593759E+02  0.20623676634E+03  0.82254637194E+02 0.  0.
         23    2    1    2    0    0  0.67744960313E+02 -0.10210984189E+03  0.22860545830E+03  0.27908819996E+03  0.10302411530E+03 0.  0.
         13    1    3    3    0    0 -0.10497113806E+02  0.22292907180E+02  0.49927791257E+02  0.55677171701E+02  0.00000000000E+00 0. -1.
        -14    1    3    3    0    0 -0.10405663466E+03  0.10406365590E+03  0.31798802502E+02  0.15055959463E+03  0.00000000000E+00 0.  1.
        -13    1    4    4    0    0  0.34955753897E+02 -0.44034447582E+01  0.87906517226E+01  0.36312127643E+02  0.00000000000E+00 0.  1.
         13    1    4    4    0    0  0.32789206416E+02 -0.97706397130E+02  0.21981480658E+03  0.24277607232E+03  0.00000000000E+00 0. -1.
         21    1    1    2  502  501  0.46808788151E+02 -0.24246721193E+02 -0.22951739297E+02  0.57495638735E+02  0.00000000000E+00 0.  1.
<scales pt_clust_5="13000.00000" pt_clust_6="13000.00000" pt_clust_7="13000.00000" pt_clust_8="13000.00000" pt_clust_9="52.71590"></scales>
<clustering>
<clus scale="   52.716">  2  9  1 -1</clus>
<clus scale="   82.255">  5  6 -1 -1</clus>
<clus scale="  103.024">  7  8 -1 -1</clus>
<clus scale="  158.968">  2  5  1 -1</clus>
<clus scale="  170.643">  1  5  2 -1</clus>
</clustering>
</event>
<event>
 9    1  0.2802611E-005  0.9599545E+02  0.7546771E-02  0.1292620E+00
          1   -1    0    0  502    0  0.00000000000E+00  0.00000000000E+00  0.35692191106E+03  0.35692191106E+03  0.00000000000E+00 0. -1.
         -2   -1    0    0    0  501 -0.00000000000E+00 -0.00000000000E+00 -0.53865943008E+02  0.53865943008E+02  0.00000000000E+00 0.  1.
         23    2    1    2    0    0 -0.13567889808E+02 -0.39019805389E+02  0.13646533750E+03  0.16743483577E+03  0.87778146741E+02 0.  0.
        -24    2    1    2    0    0 -0.11572500776E+02  0.38702057780E+02  0.18913327999E+03  0.20958452342E+03  0.80762013381E+02 0.  0.
         13    1    4    4    0    0  0.32741511706E+02  0.30628285187E+02  0.10448423952E+03  0.11369720643E+03  0.00000000000E+00 0. -1.
        -14    1    4    4    0    0 -0.44314012482E+02  0.80737725929E+01  0.84649040473E+02  0.95887316988E+02  0.00000000000E+00 0.  1.
        -13    1    3    3    0    0  0.15904766785E+02 -0.14088791986E+02 -0.41222507850E+01  0.21643673848E+02  0.00000000000E+00 0.  1.
         13    1    3    3    0    0 -0.29472656593E+02 -0.24931013403E+02  0.14058758828E+03  0.14579116193E+03  0.00000000000E+00 0. -1.
         21    1    1    2  502  501  0.25140390584E+02  0.31774760884E+00 -0.22542649441E+02  0.33768494874E+02  0.00000000000E+00 0. -1.
<scales pt_clust_5="13000.00000" pt_clust_6="13000.00000" pt_clust_7="13000.00000" pt_clust_8="13000.00000" pt_clust_9="25.14240"></scales>
<clustering>
<clus scale="   25.142">  2  9  1 -1</clus>
<clus scale="   80.762">  5  6 -1 -1</clus>
<clus scale="   87.778">  7  8 -1 -1</clus>
<clus scale="   89.625">  1  5  2 -1</clus>
<clus scale="   89.625">  1  5  2 -1</clus>
</clustering>
</event>
<event>
 9    1  0.2802611E-005  0.1077853E+03  0.7546771E-02  0.1287662E+00
         -2   -1    0    0    0  501 -0.00000000000E+00  0.00000000000E+00  0.15964371717E+03  0.15964371717E+03  0.00000000000E+00 0.  1.
          1   -1    0    0  502    0  0.00000000000E+00 -0.00000000000E+00 -0.30899265565E+03  0.30899265565E+03  0.00000000000E+00 0. -1.
         23    2    1    2    0    0  0.11925886397E+02 -0.10833926326E+01  0.77267563035E+02  0.12809759512E+03  0.10146584189E+03 0.  0.
        -24    2    1    2    0    0 -0.35005180482E+02  0.13228721622E+02 -0.27597029555E+03  0.28471799468E+03  0.59197725701E+02 0.  0.
         13    1    4    4    0    0 -0.35006281498E+02  0.34121580369E+02 -0.20408564179E+03  0.20985869335E+03  0.00000000000E+00 0. -1.
        -14    1    4    4    0    0  0.11010158048E-02 -0.20892858747E+02 -0.71884653765E+02  0.74859301324E+02  0.00000000000E+00 0.  1.
        -13    1    3    3    0    0  0.43045574028E+02  0.31521805013E+02  0.24525859908E+02  0.58720213206E+02  0.00000000000E+00 0.  1.
         13    1    3    3    0    0 -0.31119687632E+02 -0.32605197646E+02  0.52741703127E+02  0.69377381909E+02  0.00000000000E+00 0. -1.
         21    1    1    2  502  501  0.23079294086E+02 -0.12145328989E+02  0.49353794036E+02  0.55820783025E+02  0.00000000000E+00 0.  1.
<scales pt_clust_5="13000.00000" pt_clust_6="13000.00000" pt_clust_7="13000.00000" pt_clust_8="13000.00000" pt_clust_9="26.07993"></scales>
<clustering>
<clus scale="   26.080">  1  9  2 -1</clus>
<clus scale="   59.198">  5  6 -1 -1</clus>
<clus scale="   69.475">  2  5  1 -1</clus>
<clus scale="  101.466">  7  8 -1 -1</clus>
<clus scale="   69.475">  2  5  1 -1</clus>
</clustering>
</event>
<event>
 9    1  0.2802611E-005  0.4085014E+03  0.7546771E-02  0.1069346E+00
          1   -1    0    0  502    0  0.00000000000E+00  0.00000000000E+00  0.52612630418E+03  0.52612630418E+03  0.00000000000E+00 0. -1.
         -2   -1    0    0    0  501 -0.00000000000E+00 -0.00000000000E+00 -0.50509817362E+03  0.50509817362E+03  0.00000000000E+00 0.  1.
        -24    2    1    2    0    0  0.30373335577E+03  0.21845081045E+03 -0.57003517126E+02  0.38671180406E+03  0.79510442315E+02 0.  0.
         23    2    1    2    0    0  0.13273952986E+03 -0.84022344748E+02  0.12936944803E+02  0.18319183894E+03  0.93339959858E+02 0.  0.
         11    1    3    3    0    0  0.10224691377E+02  0.26037517861E+02 -0.18752782562E+02  0.33677344075E+02  0.00000000000E+00 0. -1.
        -12    1    3    3    0    0  0.29350866439E+03  0.19241329259E+03 -0.38250734564E+02  0.35303445998E+03  0.00000000000E+00 0.  1.
        -11    1    4    4    0    0  0.19105632467E+02 -0.17830399413E+02  0.41098473394E+02  0.48703519898E+02  0.00000000000E+00 0. -1.
         11    1    4    4    0    0  0.11363389740E+03 -0.66191945335E+02 -0.28161528590E+02  0.13448831904E+03  0.00000000000E+00 0.  1.
         21    1    1    2  502  501 -0.43647288563E+03 -0.13442846571E+03  0.65094702889E+02  0.46132083481E+03  0.00000000000E+00 0. -1.
<scales pt_clust_5="13000.00000" pt_clust_6="13000.00000" pt_clust_7="13000.00000" pt_clust_8="13000.00000" pt_clust_9="400.68877"></scales>
<clustering>
<clus scale="   79.510">  5  6 -1 -1</clus>
<clus scale="   93.340">  7  8 -1 -1</clus>
<clus scale="  182.734">  1  7  2 -1</clus>
<clus scale="  400.689">  1  9  2 -1</clus>
<clus scale="  182.734">  1  5  2 -1</clus>
</clustering>
</event>
<event>
 9    1  0.2802611E-005  0.9338812E+02  0.7546771E-02  0.1301326E+00
         -2   -1    0    0    0  501 -0.00000000000E+00  0.00000000000E+00  0.41181263853E+02  0.41181263853E+02  0.00000000000E+00 0.  1.
          1   -1    0    0  502    0  0.00000000000E+00 -0.00000000000E+00 -0.42694500575E+03  0.42694500575E+03  0.00000000000E+00 0. -1.
        -24    2    1    2    0    0  0.11761374826E+02 -0.21495995618E+01 -0.41164005328E+02  0.91182705153E+02  0.80478939284E+02 0.  0.
         23    2    1    2    0    0 -0.10830842726E+02 -0.21004185938E+02 -0.34061788837E+03  0.35343146569E+03  0.91294972918E+02 0.  0.
         11    1    3    3    0    0  0.38916146252E+02 -0.24593587545E+02 -0.25515936979E+02  0.52634342661E+02  0.00000000000E+00 0. -1.
        -12    1    3    3    0    0 -0.27154771425E+02  0.22443987983E+02 -0.15648068349E+02  0.38548362492E+02  0.00000000000E+00 0.  1.
        -13    1    4    4    0    0 -0.38972724630E+02  0.12364717158E+02 -0.87555678574E+02  0.96632066861E+02  0.00000000000E+00 0.  1.
         13    1    4    4    0    0  0.28141881904E+02 -0.33368903096E+02 -0.25306220980E+03  0.25679939883E+03  0.00000000000E+00 0. -1.
         21    1    1    2  502  501 -0.93053210038E+00  0.23153785500E+02 -0.39818481952E+01  0.23512098758E+02  0.00000000000E+00 0.  1.
<scales pt_clust_5="13000.00000" pt_clust_6="13000.00000" pt_clust_7="13000.00000" pt_clust_8="13000.00000" pt_clust_9="23.17248"></scales>
<clustering>
<clus scale="   23.172">  1  9  2 -1</clus>
<clus scale="   80.479">  5  6 -1 -1</clus>
<clus scale="   82.846">  1  5  2 -1</clus>
<clus scale="   91.295">  7  8 -1 -1</clus>
<clus scale="   93.388">  2  5  1 -1</clus>
</clustering>
</event>
<event>
 9    1  0.2802611E-005  0.1170268E+03  0.7546771E-02  0.1254592E+00
          1   -1    0    0  502    0  0.00000000000E+00  0.00000000000E+00  0.27033428599E+03  0.27033428599E+03  0.00000000000E+00 0. -1.
         -2   -1    0    0    0  501 -0.00000000000E+00 -0.00000000000E+00 -0.23215525420E+03  0.23215525420E+03  0.00000000000E+00 0.  1.
         23    2    1    2    0    0  0.42834463584E+02 -0.53244028168E+02 -0.12979621009E+03  0.17257374654E+03  0.90911627619E+02 0.  0.
        -24    2    1    2    0    0 -0.70150456395E+02  0.25812948459E+02  0.23258597662E+03  0.25459531410E+03  0.71659909281E+02 0.  0.
         11    1    4    4    0    0 -0.74538577701E+02 -0.24301678183E+01  0.15787220127E+03  0.17460108022E+03  0.00000000000E+00 0. -1.
        -12    1    4    4    0    0  0.43881213056E+01  0.28243116278E+02  0.74713775352E+02  0.79994233874E+02  0.00000000000E+00 0.  1.
        -13    1    3    3    0    0 -0.63022258297E+01 -0.59672999474E+02 -0.93695932112E+02  0.11126325814E+03  0.00000000000E+00 0. -1.
         13    1    3    3    0    0  0.49136689414E+02  0.64289713062E+01 -0.36100277973E+02  0.61310488404E+02  0.00000000000E+00 0.  1.
         21    1    1    2  502  501  0.27315992811E+02  0.27431079708E+02 -0.64610734737E+02  0.75320479555E+02  0.00000000000E+00 0. -1.
<scales pt_clust_5="13000.00000" pt_clust_6="13000.00000" pt_clust_7="13000.00000" pt_clust_8="13000.00000" pt_clust_9="38.71211"></scales>
<clustering>
<clus scale="   38.712">  2  9  1 -1</clus>
<clus scale="   71.660">  5  6 -1 -1</clus>
<clus scale="   90.912">  7  8 -1 -1</clus>
<clus scale="  102.789">  1  5  2 -1</clus>
<clus scale="  102.789">  1  5  2 -1</clus>
</clustering>
</event>
<event>
 9    1  0.2802611E-005  0.1239962E+03  0.7546771E-02  0.1237034E+00
         -2   -1    0    0    0  501 -0.00000000000E+00  0.00000000000E+00  0.54813622452E+02  0.54813622452E+02  0.00000000000E+00 0.  1.
          1   -1    0    0  502    0  0.00000000000E+00 -0.00000000000E+00 -0.53323273032E+03  0.53323273032E+03  0.00000000000E+00 0. -1.
         23    2    1    2    0    0  0.58899194056E+02  0.83414740322E+02 -0.16961923598E+03  0.21819169549E+03  0.91704944271E+02 0.  0.
        -24    2    1    2    0    0 -0.41633857448E+01 -0.78920772625E+02 -0.28639294117E+03  0.31053960859E+03  0.90377594663E+02 0.  0.
         11    1    4    4    0    0  0.41610406658E+02 -0.53133895936E+02 -0.16459964401E+03  0.17789794728E+03  0.00000000000E+00 0. -1.
        -12    1    4    4    0    0 -0.45773792403E+02 -0.25786876689E+02 -0.12179329716E+03  0.13264166131E+03  0.00000000000E+00 0.  1.
        -11    1    3    3    0    0  0.21204903355E+02 -0.13959602919E+02 -0.96472672123E+01  0.27158575158E+02  0.00000000000E+00 0.  1.
         11    1    3    3    0    0  0.37694290701E+02  0.97374343241E+02 -0.15997196877E+03  0.19103312033E+03  0.00000000000E+00 0. -1.
         21    1    1    2  502  501 -0.54735808311E+02 -0.44939676973E+01 -0.22406930718E+02  0.59315048692E+02  0.00000000000E+00 0. -1.
<scales pt_clust_5="13000.00000" pt_clust_6="13000.00000" pt_clust_7="13000.00000" pt_clust_8="13000.00000" pt_clust_9="54.91998"></scales>
<clustering>
<clus scale="   54.920">  1  9  2 -1</clus>
<clus scale="   90.378">  5  6 -1 -1</clus>
<clus scale="   91.705">  7  8 -1 -1</clus>
<clus scale="  123.018">  2  5  1 -1</clus>
<clus scale="  123.018">  2  5  1 -1</clus>
</clustering>
</event>
<event>
 9    1  0.2802611E-005  0.1364160E+03  0.7546771E-02  0.1221120E+00
         -4   -1    0    0    0  501 -0.00000000000E+00  0.00000000000E+00  0.10701277140E+03  0.10701277140E+03  0.00000000000E+00 0.  1.
          3   -1    0    0  502    0  0.00000000000E+00 -0.00000000000E+00 -0.85835719526E+03  0.85835719526E+03  0.00000000000E+00 0. -1.
         23    2    1    2    0    0  0.13834883964E+02 -0.73298142225E+02 -0.13106283094E+03  0.17562531864E+03  0.90015361047E+02 0.  0.
        -24    2    1    2    0    0  0.54264658917E+02  0.10216383196E+03 -0.68036778312E+03  0.69444970567E+03  0.77317343688E+02 0.  0.
         13    1    4    4    0    0  0.46627459446E+02  0.99503099341E+02 -0.42570879595E+03  0.43966233146E+03  0.00000000000E+00 0. -1.
        -14    1    4    4    0    0  0.76371994707E+01  0.26607326162E+01 -0.25465898717E+03  0.25478737422E+03  0.00000000000E+00 0.  1.
        -11    1    3    3    0    0  0.26098992939E+02 -0.38529602592E+02 -0.13071886535E+03  0.13875557455E+03  0.00000000000E+00 0. -1.
         11    1    3    3    0    0 -0.12264108974E+02 -0.34768539633E+02 -0.34396558895E+00  0.36869744093E+02  0.00000000000E+00 0.  1.
         21    1    1    2  502  501 -0.68099542881E+02 -0.28865689732E+02  0.60086190198E+02  0.95294942347E+02  0.00000000000E+00 0.  1.
<scales pt_clust_5="13000.00000" pt_clust_6="13000.00000" pt_clust_7="13000.00000" pt_clust_8="13000.00000" pt_clust_9="73.96469"></scales>
<clustering>
<clus scale="   73.965">  1  9  2 -1</clus>
<clus scale="   77.317">  5  6 -1 -1</clus>
<clus scale="   90.015">  7  8 -1 -1</clus>
<clus scale="  128.392">  2  5  1 -1</clus>
<clus scale="  128.392">  2  5  1 -1</clus>
</clustering>
</event>
<event>
 9    1  0.2802611E-005  0.9848073E+02  0.7546771E-02  0.1296588E+00
          3   -1    0    0  502    0  0.00000000000E+00  0.00000000000E+00  0.24212081282E+03  0.24212081282E+03  0.00000000000E+00 0. -1.
         -4   -1    0    0    0  501 -0.00000000000E+00 -0.00000000000E+00 -0.10665104156E+03  0.10665104156E+03  0.00000000000E+00 0.  1.
         23    2    1    2    0    0  0.50893550640E+02 -0.15808795688E+01 -0.38630020500E+02  0.11291151206E+03  0.93081031343E+02 0.  0.
        -24    2    1    2    0    0 -0.26934416511E+02  0.14940367885E+02  0.18951699895E+03  0.20439279851E+03  0.70078854201E+02 0.  0.
         13    1    4    4    0    0 -0.33648751386E+02  0.53380133647E+00  0.33211900658E+02  0.47281642940E+02  0.00000000000E+00 0. -1.
        -14    1    4    4    0    0  0.67143348756E+01  0.14406566549E+02  0.15630509829E+03  0.15711115557E+03  0.00000000000E+00 0.  1.
        -11    1    3    3    0    0 -0.27460600504E+02  0.18044174505E+01 -0.12699387599E+02  0.30308661266E+02  0.00000000000E+00 0.  1.
         11    1    3    3    0    0  0.78354151143E+02 -0.33852970193E+01 -0.25930632902E+02  0.82602850798E+02  0.00000000000E+00 0. -1.
         21    1    1    2  502  501 -0.23959134129E+02 -0.13359488317E+02 -0.15417207187E+02  0.31467543815E+02  0.00000000000E+00 0.  1.
<scales pt_clust_5="13000.00000" pt_clust_6="13000.00000" pt_clust_7="13000.00000" pt_clust_8="13000.00000" pt_clust_9="27.43203"></scales>
<clustering>
<clus scale="   27.432">  2  9  1 -1</clus>
<clus scale="   70.079">  5  6 -1 -1</clus>
<clus scale="   77.107">  1  5  2 -1</clus>
<clus scale="   93.081">  7  8 -1 -1</clus>
<clus scale="   77.107">  1  5  2 -1</clus>
</clustering>
</event>
<event>
 9    1  0.2802611E-005  0.1197326E+03  0.7546771E-02  0.1251452E+00
          1   -1    0    0  502    0  0.00000000000E+00  0.00000000000E+00  0.53368224139E+03  0.53368224139E+03  0.00000000000E+00 0. -1.
         -2   -1    0    0    0  501 -0.00000000000E+00 -0.00000000000E+00 -0.34653918365E+02  0.34653918365E+02  0.00000000000E+00 0.  1.
         23    2    1    2    0    0  0.43971228998E+02  0.70176253121E+02  0.22422474856E+03  0.26040856472E+03  0.10333299197E+03 0.  0.
        -24    2    1    2    0    0 -0.40387062362E+02 -0.28400161266E+02  0.20751082021E+03  0.22864075581E+03  0.82329646803E+02 0.  0.
         13    1    4    4    0    0 -0.21710339679E+02  0.25176960173E+02  0.11857375961E+03  0.12314607035E+03  0.00000000000E+00 0. -1.
        -14    1    4    4    0    0 -0.18676722683E+02 -0.53577121439E+02  0.88937060600E+02  0.10549468546E+03  0.00000000000E+00 0.  1.
        -11    1    3    3    0    0  0.50134162250E+02  0.42710993557E+01  0.16172675952E+03  0.16937302400E+03  0.00000000000E+00 0.  1.
         11    1    3    3    0    0 -0.61629332517E+01  0.65905153765E+02  0.62497989039E+02  0.91035540713E+02  0.00000000000E+00 0. -1.
         21    1    1    2  502  501 -0.35841666364E+01 -0.41776091855E+02  0.67292754246E+02  0.79286839231E+02  0.00000000000E+00 0.  1.
<scales pt_clust_5="13000.00000" pt_clust_6="13000.00000" pt_clust_7="13000.00000" pt_clust_8="13000.00000" pt_clust_9="41.92956"></scales>
<clustering>
<clus scale="   41.930">  2  9  1 -1</clus>
<clus scale="   82.330">  5  6 -1 -1</clus>
<clus scale="  102.159">  1  5  2 -1</clus>
<clus scale="  103.333">  7  8 -1 -1</clus>
<clus scale="  102.159">  1  5  2 -1</clus>
</clustering>
</event>
<event>
 9    1  0.2802611E-005  0.1151280E+03  0.7546771E-02  0.1253640E+00
          1   -1    0    0  502    0  0.00000000000E+00  0.00000000000E+00  0.31566572124E+03  0.31566572124E+03  0.00000000000E+00 0. -1.
         -2   -1    0    0    0  501 -0.00000000000E+00 -0.00000000000E+00 -0.79970366999E+02  0.79970366999E+02  0.00000000000E+00 0.  1.
        -24    2    1    2    0    0 -0.81580096564E+02 -0.24371168657E+02  0.62257561900E+02  0.13285837410E+03  0.80784141627E+02 0.  0.
         23    2    1    2    0    0  0.57336831023E+02  0.43015448822E+02  0.19491731673E+03  0.22540506271E+03  0.87617583300E+02 0.  0.
         11    1    3    3    0    0 -0.61733508179E+02  0.18306849028E+02  0.56079226226E+02  0.85387624206E+02  0.00000000000E+00 0. -1.
        -12    1    3    3    0    0 -0.19846588385E+02 -0.42678017685E+02  0.61783356740E+01  0.47470749897E+02  0.00000000000E+00 0.  1.
        -13    1    4    4    0    0  0.35098999303E+01  0.27976525621E+02  0.65842219301E+01  0.28954401423E+02  0.00000000000E+00 0.  1.
         13    1    4    4    0    0  0.53826931092E+02  0.15038923201E+02  0.18833309480E+03  0.19645066128E+03  0.00000000000E+00 0. -1.
         21    1    1    2  502  501  0.24243265541E+02 -0.18644280164E+02 -0.21479524388E+02  0.37372651430E+02  0.00000000000E+00 0.  1.
<scales pt_clust_5="13000.00000" pt_clust_6="13000.00000" pt_clust_7="13000.00000" pt_clust_8="13000.00000" pt_clust_9="30.58341"></scales>
<clustering>
<clus scale="   30.583">  2  9  1 -1</clus>
<clus scale="   80.784">  5  6 -1 -1</clus>
<clus scale="   87.618">  7  8 -1 -1</clus>
<clus scale="  110.017">  2  5  1 -1</clus>
<clus scale="  115.128">  1  5  2 -1</clus>
</clustering>
</event>
<event>
 9    1  0.2802611E-005  0.1565536E+03  0.7546771E-02  0.1194045E+00
         -4   -1    0    0    0  501 -0.00000000000E+00  0.00000000000E+00  0.37473527240E+03  0.37473527240E+03  0.00000000000E+00 0.  1.
          3   -1    0    0  502    0  0.00000000000E+00 -0.00000000000E+00 -0.23299269024E+03  0.23299269024E+03  0.00000000000E+00 0. -1.
         23    2    1    2    0    0  0.63354526724E+02  0.10965209724E+03  0.32484005034E+03  0.36092466374E+03  0.93317608779E+02 0.  0.
        -24    2    1    2    0    0 -0.73203329803E+02 -0.91460799342E+02 -0.16036577676E+03  0.21606810675E+03  0.85114270775E+02 0.  0.
         11    1    4    4    0    0 -0.61724874247E+02 -0.10791974829E+03 -0.13208929982E+03  0.18139519095E+03  0.00000000000E+00 0. -1.
        -12    1    4    4    0    0 -0.11478455556E+02  0.16458948947E+02 -0.28276476936E+02  0.34672915803E+02  0.00000000000E+00 0.  1.
        -11    1    3    3    0    0  0.56328422329E+02  0.57291630021E+02  0.28104119597E+03  0.29230014688E+03  0.00000000000E+00 0.  1.
         11    1    3    3    0    0  0.70261043945E+01  0.52360467223E+02  0.43798854361E+02  0.68624516859E+02  0.00000000000E+00 0. -1.
         21    1    1    2  502  501  0.98488030796E+01 -0.18191297902E+02 -0.22731691423E+02  0.30735192148E+02  0.00000000000E+00 0.  1.
<scales pt_clust_5="13000.00000" pt_clust_6="13000.00000" pt_clust_7="13000.00000" pt_clust_8="13000.00000" pt_clust_9="20.68628"></scales>
<clustering>
<clus scale="   20.686">  2  9  1 -1</clus>
<clus scale="   85.114">  5  6 -1 -1</clus>
<clus scale="   93.318">  7  8 -1 -1</clus>
<clus scale="  151.807">  2  5  1 -1</clus>
<clus scale="   20.686">  2  5  1 -1</clus>
</clustering>
</event>
<event>
 9    1  0.2802611E-005  0.1015204E+03  0.7546771E-02  0.1283677E+00
          1   -1    0    0  502    0  0.00000000000E+00  0.00000000000E+00  0.10545174666E+03  0.10545174666E+03  0.00000000000E+00 0. -1.
         -2   -1    0    0    0  501 -0.00000000000E+00 -0.00000000000E+00 -0.20694323075E+03  0.20694323075E+03  0.00000000000E+00 0.  1.
         23    2    1    2    0    0  0.10445150276E+02  0.49247294252E+02 -0.15177378650E+03  0.18367657553E+03  0.90373696247E+02 0.  0.
        -24    2    1    2    0    0  0.15139596181E+02 -0.30528269081E+02  0.48424014624E+02  0.96962545915E+02  0.76783250338E+02 0.  0.
         11    1    4    4    0    0  0.39954385218E+01 -0.55895260330E+02  0.28762716408E+02  0.62988391879E+02  0.00000000000E+00 0. -1.
        -12    1    4    4    0    0  0.11144157659E+02  0.25366991249E+02  0.19661298216E+02  0.33974154036E+02  0.00000000000E+00 0.  1.
        -13    1    3    3    0    0 -0.23336371797E+02  0.59894554827E+02 -0.72761664954E+02  0.97088639054E+02  0.00000000000E+00 0.  1.
         13    1    3    3    0    0  0.33781522073E+02 -0.10647260575E+02 -0.79012121549E+02  0.86587936475E+02  0.00000000000E+00 0. -1.
         21    1    1    2  502  501 -0.25584746456E+02 -0.18719025171E+02  0.18582877880E+01  0.31755855965E+02  0.00000000000E+00 0. -1.
<scales pt_clust_5="13000.00000" pt_clust_6="13000.00000" pt_clust_7="13000.00000" pt_clust_8="13000.00000" pt_clust_9="31.70144"></scales>
<clustering>
<clus scale="   31.701">  1  9  2 -1</clus>
<clus scale="   76.783">  5  6 -1 -1</clus>
<clus scale="   89.636">  1  5  2 -1</clus>
<clus scale="   90.374">  7  8 -1 -1</clus>
<clus scale="   31.701">  1  5  2 -1</clus>
</clustering>
</event>
<event>
 9    1  0.2802611E-005  0.1027658E+03  0.7546771E-02  0.1281795E+00
          1   -1    0    0  502    0  0.00000000000E+00  0.00000000000E+00  0.11115562884E+03  0.11115562884E+03  0.00000000000E+00 0. -1.
         -2   -1    0    0    0  501 -0.00000000000E+00 -0.00000000000E+00 -0.27964951010E+03  0.27964951010E+03  0.00000000000E+00 0.  1.
        -24    2    1    2    0    0  0.27852442519E+02  0.52857069691E+02 -0.17791241986E+03  0.20434854314E+03  0.80844725072E+02 0.  0.
         23    2    1    2    0    0 -0.28279533008E+02 -0.22372953106E+02  0.66563546448E+02  0.12168765500E+03  0.95272759203E+02 0.  0.
         11    1    3    3    0    0 -0.59546414697E+01  0.62337461932E+02 -0.13563067423E+03  0.14938907827E+03  0.00000000000E+00 0. -1.
        -12    1    3    3    0    0  0.33807083989E+02 -0.94803922403E+01 -0.42281745628E+02  0.54959464865E+02  0.00000000000E+00 0.  1.
        -13    1    4    4    0    0 -0.51782519170E+02 -0.21175014690E+02  0.54619464846E+01  0.56210705369E+02  0.00000000000E+00 0.  1.
         13    1    4    4    0    0  0.23502986162E+02 -0.11979384165E+01  0.61101599964E+02  0.65476949632E+02  0.00000000000E+00 0. -1.
         21    1    1    2  502  501  0.42709048914E+00 -0.30484116585E+02 -0.57145007846E+02  0.64768940797E+02  0.00000000000E+00 0.  1.
<scales pt_clust_5="13000.00000" pt_clust_6="13000.00000" pt_clust_7="13000.00000" pt_clust_8="13000.00000" pt_clust_9="30.48711"></scales>
<clustering>
<clus scale="   30.487">  2  9  1 -1</clus>
<clus scale="   80.845">  5  6 -1 -1</clus>
<clus scale="   89.553">  2  5  1 -1</clus>
<clus scale="   95.273">  7  8 -1 -1</clus>
<clus scale="  102.766">  1  5  2 -1</clus>
</clustering>
</event>
<event>
 9    1  0.2802611E-005  0.1264510E+03  0.7546771E-02  0.1246744E+00
         -2   -1    0    0    0  501 -0.00000000000E+00  0.00000000000E+00  0.74839370560E+02  0.74839370560E+02  0.00000000000E+00 0.  1.
          1   -1    0    0  502    0  0.00000000000E+00 -0.00000000000E+00 -0.78375207450E+03  0.78375207450E+03  0.00000000000E+00 0. -1.
         23    2    1    2    0    0 -0.25194976380E+02  0.97492405262E+01  0.93906567606E+01  0.95752478596E+02  0.91381169818E+02 0.  0.
        -24    2    1    2    0    0 -0.78525775110E+02 -0.38369112638E+02 -0.54736784999E+03  0.56085866992E+03  0.85512562013E+02 0.  0.
         13    1    4    4    0    0 -0.71946215415E+02 -0.11803341661E+01 -0.22353121507E+03  0.23482728805E+03  0.00000000000E+00 0. -1.
        -14    1    4    4    0    0 -0.65795596956E+01 -0.37188778472E+02 -0.32383663492E+03  0.32603138187E+03  0.00000000000E+00 0.  1.
        -11    1    3    3    0    0  0.29830160722E+02  0.18887775268E+02  0.17467982629E+02  0.39391838753E+02  0.00000000000E+00 0. -1.
         11    1    3    3    0    0 -0.55025137102E+02 -0.91385347418E+01 -0.80773258679E+01  0.56360639843E+02  0.00000000000E+00 0.  1.
         21    1    1    2  502  501  0.10372075149E+03  0.28619872112E+02 -0.17093551071E+03  0.20198029654E+03  0.00000000000E+00 0.  1.
<scales pt_clust_5="13000.00000" pt_clust_6="13000.00000" pt_clust_7="13000.00000" pt_clust_8="13000.00000" pt_clust_9="93.15291"></scales>
<clustering>
<clus scale="   85.513">  5  6 -1 -1</clus>
<clus scale="   91.381">  7  8 -1 -1</clus>
<clus scale="   95.291">  1  7  2 -1</clus>
<clus scale="   93.153">  1  9  2 -1</clus>
<clus scale="  126.451">  2  5  1 -1</clus>
</clustering>
</event>
<event>
 9    1  0.2802611E-005  0.9514476E+02  0.7546771E-02  0.1295683E+00
         -2   -1    0    0    0  501 -0.00000000000E+00  0.00000000000E+00  0.47754501050E+02  0.47754501050E+02  0.00000000000E+00 0.  1.
          1   -1    0    0  502    0  0.00000000000E+00 -0.00000000000E+00 -0.35020369044E+03  0.35020369044E+03  0.00000000000E+00 0. -1.
         23    2    1    2    0    0 -0.22277323872E+02 -0.50234490354E+01 -0.26125868897E+02  0.95470151932E+02  0.88940849362E+02 0.  0.
        -24    2    1    2    0    0  0.31568113698E+02 -0.20362345695E+02 -0.24809958466E+03  0.26340688535E+03  0.80116243155E+02 0.  0.
         13    1    4    4    0    0  0.43150763592E+02  0.19867273875E+01 -0.61716652302E+02  0.75331803746E+02  0.00000000000E+00 0. -1.
        -14    1    4    4    0    0 -0.11582649894E+02 -0.22349073083E+02 -0.18638293236E+03  0.18807508161E+03  0.00000000000E+00 0.  1.
        -11    1    3    3    0    0 -0.19567605109E+02  0.31549872060E+02 -0.41519392275E+02  0.55696907738E+02  0.00000000000E+00 0. -1.
         11    1    3    3    0    0 -0.27097187629E+01 -0.36573321096E+02  0.15393523378E+02  0.39773244194E+02  0.00000000000E+00 0.  1.
         21    1    1    2  502  501 -0.92907898263E+01  0.25385794731E+02 -0.28223735835E+02  0.39081154207E+02  0.00000000000E+00 0.  1.
<scales pt_clust_5="13000.00000" pt_clust_6="13000.00000" pt_clust_7="13000.00000" pt_clust_8="13000.00000" pt_clust_9="27.03252"></scales>
<clustering>
<clus scale="   27.033">  1  9  2 -1</clus>
<clus scale="   80.116">  5  6 -1 -1</clus>
<clus scale="   86.952">  2  5  1 -1</clus>
<clus scale="   88.941">  7  8 -1 -1</clus>
<clus scale="   86.952">  2  5  1 -1</clus>
</clustering>
</event>
<event>
 9    1  0.2802611E-005  0.1098170E+03  0.7546771E-02  0.1265114E+00
         -2   -1    0    0    0  501 -0.00000000000E+00  0.00000000000E+00  0.45587632291E+03  0.45587632291E+03  0.00000000000E+00 0.  1.
          1   -1    0    0  502    0  0.00000000000E+00 -0.00000000000E+00 -0.77298742023E+02  0.77298742023E+02  0.00000000000E+00 0. -1.
         23    2    1    2    0    0 -0.28507767641E+01 -0.76405226950E+02  0.37094224970E+03  0.38944317874E+03  0.90674975703E+02 0.  0.
        -24    2    1    2    0    0 -0.10135660895E+02  0.59764943793E+02 -0.26336735605E+02  0.10373628758E+03  0.79956323013E+02 0.  0.
         13    1    4    4    0    0 -0.39550962350E+02  0.47781743457E+02 -0.34452748388E+02  0.70953262801E+02  0.00000000000E+00 0. -1.
        -14    1    4    4    0    0  0.29415301456E+02  0.11983200336E+02  0.81160127834E+01  0.32783024777E+02  0.00000000000E+00 0.  1.
        -11    1    3    3    0    0  0.23107141634E+02  0.12301247036E+02  0.80559058014E+02  0.84705504551E+02  0.00000000000E+00 0. -1.
         11    1    3    3    0    0 -0.25957918398E+02 -0.88706473986E+02  0.29038319169E+03  0.30473767419E+03  0.00000000000E+00 0.  1.
         21    1    1    2  502  501  0.12986437659E+02  0.16640283157E+02  0.33972066784E+02  0.39995598610E+02  0.00000000000E+00 0. -1.
<scales pt_clust_5="13000.00000" pt_clust_6="13000.00000" pt_clust_7="13000.00000" pt_clust_8="13000.00000" pt_clust_9="21.10797"></scales>
<clustering>
<clus scale="   21.108">  1  9  2 -1</clus>
<clus scale="   79.956">  5  6 -1 -1</clus>
<clus scale="   90.675">  7  8 -1 -1</clus>
<clus scale="  101.148">  2  5  1 -1</clus>
<clus scale="  101.148">  2  5  1 -1</clus>
</clustering>
</event>
<event>
 9    1  0.2802611E-005  0.1247577E+03  0.7546771E-02  0.1238840E+00
          1   -1    0    0  502    0  0.00000000000E+00  0.00000000000E+00  0.10597121190E+03  0.10597121190E+03  0.00000000000E+00 0. -1.
         -2   -1    0    0    0  501 -0.00000000000E+00 -0.00000000000E+00 -0.38140209982E+03  0.38140209982E+03  0.00000000000E+00 0.  1.
         23    2    1    2    0    0  0.55034181457E+02 -0.57231956425E+02 -0.87727083675E+02  0.15022739764E+03  0.92563339541E+02 0.  0.
        -24    2    1    2    0    0 -0.37343462987E+02  0.78048589253E+02  0.26318474245E+02  0.12138718444E+03  0.80969561861E+02 0.  0.
         11    1    4    4    0    0 -0.28326906681E+02  0.66321004859E+01  0.38628615913E+02  0.48358746534E+02  0.00000000000E+00 0. -1.
        -12    1    4    4    0    0 -0.90165563060E+01  0.71416488767E+02 -0.12310141668E+02  0.73028437908E+02  0.00000000000E+00 0.  1.
        -11    1    3    3    0    0  0.65963868047E+02 -0.77787878536E+01 -0.28441937655E+02  0.72254309531E+02  0.00000000000E+00 0.  1.
         11    1    3    3    0    0 -0.10929686591E+02 -0.49453168572E+02 -0.59285146020E+02  0.77973088110E+02  0.00000000000E+00 0. -1.
         21    1    1    2  502  501 -0.17690718470E+02 -0.20816632827E+02 -0.21402227849E+03  0.21575872963E+03  0.00000000000E+00 0.  1.
<scales pt_clust_5="13000.00000" pt_clust_6="13000.00000" pt_clust_7="13000.00000" pt_clust_8="13000.00000" pt_clust_9="27.31838"></scales>
<clustering>
<clus scale="   27.318">  2  9  1 -1</clus>
<clus scale="   80.970">  5  6 -1 -1</clus>
<clus scale="   92.563">  7  8 -1 -1</clus>
<clus scale="  116.416">  1  5  2 -1</clus>
<clus scale="  116.416">  1  5  2 -1</clus>
</clustering>
</event>
<event>
 9    1  0.2802611E-005  0.1193236E+03  0.7546771E-02  0.1246942E+00
         -2   -1    0    0    0  501 -0.00000000000E+00  0.00000000000E+00  0.22884484214E+03  0.22884484214E+03  0.00000000000E+00 0.  1.
          1   -1    0    0  502    0  0.00000000000E+00 -0.00000000000E+00 -0.16421495323E+03  0.16421495323E+03  0.00000000000E+00 0. -1.
        -24    2    1    2    0    0 -0.10855913223E+03  0.31543189463E+02  0.10351573633E+03  0.17359800041E+03  0.81490490767E+02 0.  0.
         23    2    1    2    0    0  0.65470412178E+02 -0.28830994742E+02 -0.94618264813E+02  0.14896288615E+03  0.90109512728E+02 0.  0.
         13    1    3    3    0    0 -0.20574362274E+02 -0.33288377435E+01 -0.12166451820E+02  0.24133132693E+02  0.00000000000E+00 0. -1.
        -14    1    3    3    0    0 -0.87984769957E+02  0.34872027206E+02  0.11568218815E+03  0.14946486771E+03  0.00000000000E+00 0.  1.
        -13    1    4    4    0    0 -0.76303819588E+01 -0.32562438012E+02 -0.59227941589E+01  0.33964902307E+02  0.00000000000E+00 0.  1.
         13    1    4    4    0    0  0.73100794137E+02  0.37314432696E+01 -0.88695470654E+02  0.11499798384E+03  0.00000000000E+00 0. -1.
         21    1    1    2  502  501  0.43088720053E+02 -0.27121947207E+01  0.55732417396E+02  0.70498908820E+02  0.00000000000E+00 0.  1.
<scales pt_clust_5="13000.00000" pt_clust_6="13000.00000" pt_clust_7="13000.00000" pt_clust_8="13000.00000" pt_clust_9="43.17399"></scales>
<clustering>
<clus scale="   43.174">  1  9  2 -1</clus>
<clus scale="   81.490">  5  6 -1 -1</clus>
<clus scale="   90.110">  7  8 -1 -1</clus>
<clus scale="  112.956">  1  5  2 -1</clus>
<clus scale="  119.324">  2  5  1 -1</clus>
</clustering>
</event>
<event>
 9    1  0.2802611E-005  0.9897060E+02  0.7546771E-02  0.1286602E+00
          1   -1    0    0  502    0  0.00000000000E+00  0.00000000000E+00  0.19739202717E+03  0.19739202717E+03  0.00000000000E+00 0. -1.
         -2   -1    0    0    0  501 -0.00000000000E+00 -0.00000000000E+00 -0.11737685979E+03  0.11737685979E+03  0.00000000000E+00 0.  1.
        -24    2    1    2    0    0 -0.42895928335E+02  0.24077440570E+02 -0.27766463935E+02  0.98360708185E+02  0.80523714414E+02 0.  0.
         23    2    1    2    0    0 -0.23982621421E+01 -0.48190303074E+02  0.12635378214E+03  0.16183786986E+03  0.88871597761E+02 0.  0.
         11    1    3    3    0    0 -0.52132587851E+02  0.21326352132E+02  0.11875271582E+02  0.57564243124E+02  0.00000000000E+00 0. -1.
        -12    1    3    3    0    0  0.92366595160E+01  0.27510884374E+01 -0.39641735517E+02  0.40796465061E+02  0.00000000000E+00 0.  1.
        -13    1    4    4    0    0 -0.42217604302E+02 -0.17770918503E+02  0.35010928948E+02  0.57653246251E+02  0.00000000000E+00 0.  1.
         13    1    4    4    0    0  0.39819342160E+02 -0.30419384571E+02  0.91342853188E+02  0.10418462361E+03  0.00000000000E+00 0. -1.
         21    1    1    2  502  501  0.45294190477E+02  0.24112862505E+02 -0.18572150815E+02  0.54570308915E+02  0.00000000000E+00 0. -1.
<scales pt_clust_5="13000.00000" pt_clust_6="13000.00000" pt_clust_7="13000.00000" pt_clust_8="13000.00000" pt_clust_9="51.31271"></scales>
<clustering>
<clus scale="   51.313">  2  9  1 -1</clus>
<clus scale="   80.524">  5  6 -1 -1</clus>
<clus scale="   88.872">  7  8 -1 -1</clus>
<clus scale="   91.548">  2  5  1 -1</clus>
<clus scale="   98.971">  1  5  2 -1</clus>
</clustering>
</event>
<event>
 9    1  0.2802611E-005  0.1435053E+03  0.7546771E-02  0.1210501E+00
          1   -1    0    0  502    0  0.00000000000E+00  0.00000000000E+00  0.95973303004E+03  0.95973303004E+03  0.00000000000E+00 0. -1.
         -2   -1    0    0    0  501 -0.00000000000E+00 -0.00000000000E+00 -0.64838146220E+02  0.64838146220E+02  0.00000000000E+00 0.  1.
         23    2    1    2    0    0 -0.94612985511E+02  0.73633380561E+02  0.45629678364E+02  0.15605371483E+03  0.88866206209E+02 0.  0.
        -24    2    1    2    0    0  0.74018635485E+02 -0.84225487448E+02  0.81862568121E+03  0.83011042526E+03  0.79766039425E+02 0.  0.
         11    1    4    4    0    0  0.69807968817E+02 -0.40372050761E+02  0.33873244796E+03  0.34819926234E+03  0.00000000000E+00 0. -1.
        -12    1    4    4    0    0  0.42106666686E+01 -0.43853436687E+02  0.47989323326E+03  0.48191116292E+03  0.00000000000E+00 0.  1.
        -13    1    3    3    0    0 -0.50462560155E+02  0.64791205235E+02 -0.11917609273E+02  0.82984333847E+02  0.00000000000E+00 0.  1.
         13    1    3    3    0    0 -0.44150425355E+02  0.88421753258E+01  0.57547287637E+02  0.73069380988E+02  0.00000000000E+00 0. -1.
         21    1    1    2  502  501  0.20594350026E+02  0.10592106887E+02  0.30639524244E+02  0.38407036167E+02  0.00000000000E+00 0.  1.
<scales pt_clust_5="13000.00000" pt_clust_6="13000.00000" pt_clust_7="13000.00000" pt_clust_8="13000.00000" pt_clust_9="23.15858"></scales>
<clustering>
<clus scale="   23.159">  2  9  1 -1</clus>
<clus scale="   79.766">  5  6 -1 -1</clus>
<clus scale="   88.866">  7  8 -1 -1</clus>
<clus scale="  138.055">  1  5  2 -1</clus>
<clus scale="  138.055">  1  5  2 -1</clus>
</clustering>
</event>
<event>
 9    1  0.2802611E-005  0.2162384E+03  0.7546771E-02  0.1162124E+00
          1   -1    0    0  502    0  0.00000000000E+00  0.00000000000E+00  0.70573043925E+03  0.70573043925E+03  0.00000000000E+00 0. -1.
         -2   -1    0    0    0  501 -0.00000000000E+00 -0.00000000000E+00 -0.38513749837E+03  0.38513749837E+03  0.00000000000E+00 0.  1.
         23    2    1    2    0    0 -0.21254792316E+01 -0.73326112213E+02 -0.30375144864E+03  0.32599747045E+03  0.92887952882E+02 0.  0.
        -24    2    1    2    0    0  0.90302713298E+02  0.20694089339E+03  0.52325208988E+03  0.57553534786E+03  0.80430551946E+02 0.  0.
         13    1    4    4    0    0  0.33475278597E+02  0.10679483272E+02  0.85913931339E+02  0.92821598985E+02  0.00000000000E+00 0. -1.
        -14    1    4    4    0    0  0.56827434701E+02  0.19626141012E+03  0.43733815854E+03  0.48271374887E+03  0.00000000000E+00 0.  1.
        -11    1    3    3    0    0 -0.33600278297E+02 -0.65981775755E+01 -0.42773347583E+02  0.54791184623E+02  0.00000000000E+00 0. -1.
         11    1    3    3    0    0  0.31474799065E+02 -0.66727934637E+02 -0.26097810106E+03  0.27120628582E+03  0.00000000000E+00 0.  1.
         21    1    1    2  502  501 -0.88177234067E+02 -0.13361478118E+03  0.10109229964E+03  0.18933511931E+03  0.00000000000E+00 0. -1.
<scales pt_clust_5="13000.00000" pt_clust_6="13000.00000" pt_clust_7="13000.00000" pt_clust_8="13000.00000" pt_clust_9="200.72361"></scales>
<clustering>
<clus scale="   80.431">  5  6 -1 -1</clus>
<clus scale="   92.888">  7  8 -1 -1</clus>
<clus scale="  118.361">  2  7  1 -1</clus>
<clus scale="  200.724">  2  9  1 -1</clus>
<clus scale="  216.238">  1  5  2 -1</clus>
</clustering>
</event>
<event>
 9    1  0.2802611E-005  0.1778117E+03  0.7546771E-02  0.1203515E+00
          1   -1    0    0  502    0  0.00000000000E+00  0.00000000000E+00  0.86060651310E+03  0.86060651310E+03  0.00000000000E+00 0. -1.
         -2   -1    0    0    0  501 -0.00000000000E+00 -0.00000000000E+00 -0.14176204478E+03  0.14176204478E+03  0.00000000000E+00 0.  1.
         23    2    1    2    0    0  0.81511695659E+02  0.13031091099E+03  0.64669954128E+03  0.67106040729E+03  0.92068906169E+02 0.  0.
        -24    2    1    2    0    0 -0.25089101725E+02  0.11014092802E+02  0.14099904593E+03  0.16428373474E+03  0.79734818501E+02 0.  0.
         13    1    4    4    0    0 -0.32740272741E+02  0.29102550840E+02  0.33877456872E+02  0.55376583577E+02  0.00000000000E+00 0. -1.
        -14    1    4    4    0    0  0.76511710158E+01 -0.18088458038E+02  0.10712158906E+03  0.10890715116E+03  0.00000000000E+00 0.  1.
        -13    1    3    3    0    0  0.86953610606E+02  0.70675875994E+02  0.32341720512E+03  0.34227868530E+03  0.00000000000E+00 0.  1.
         13    1    3    3    0    0 -0.54419149466E+01  0.59635034999E+02  0.32328233617E+03  0.32878172199E+03  0.00000000000E+00 0. -1.
         21    1    1    2  502  501 -0.56422593934E+02 -0.14132500380E+03 -0.68854118893E+02  0.16702441586E+03  0.00000000000E+00 0.  1.
<scales pt_clust_5="13000.00000" pt_clust_6="13000.00000" pt_clust_7="13000.00000" pt_clust_8="13000.00000" pt_clust_9="152.11945"></scales>
<clustering>
<clus scale="   79.735">  5  6 -1 -1</clus>
<clus scale="   84.311">  1  5  2 -1</clus>
<clus scale="   92.069">  7  8 -1 -1</clus>
<clus scale="  152.119">  2  9  1 -1</clus>
<clus scale="   84.311">  1  5  2 -1</clus>
</clustering>
</event>
<event>
 9    1  0.2802611E-005  0.9616806E+02  0.7546771E-02  0.1293652E+00
          1   -1    0    0  502    0  0.00000000000E+00  0.00000000000E+00  0.25628000124E+03  0.25628000124E+03  0.00000000000E+00 0. -1.
         -2   -1    0    0    0  501 -0.00000000000E+00 -0.00000000000E+00 -0.10642191195E+03  0.10642191195E+03  0.00000000000E+00 0.  1.
         23    2    1    2    0    0  0.54187607214E+02  0.34678002200E+02 -0.10766458235E+02  0.11273826025E+03  0.91951824832E+02 0.  0.
        -24    2    1    2    0    0 -0.16935988922E+02  0.26123984041E+02  0.15496981007E+03  0.17843365467E+03  0.82786694728E+02 0.  0.
         13    1    4    4    0    0  0.23325970770E+02 -0.17039791359E+02  0.42038974588E+02  0.51007164069E+02  0.00000000000E+00 0. -1.
        -14    1    4    4    0    0 -0.40261959692E+02  0.43163775400E+02  0.11293083548E+03  0.12742649061E+03  0.00000000000E+00 0.  1.
        -13    1    3    3    0    0 -0.94584459493E+01  0.26156036937E+02 -0.34467326979E+02  0.44289920943E+02  0.00000000000E+00 0.  1.
         13    1    3    3    0    0  0.63646053163E+02  0.85219652627E+01  0.23700868744E+02  0.68448339311E+02  0.00000000000E+00 0. -1.
         21    1    1    2  502  501 -0.37251618292E+02 -0.60801986241E+02  0.56547374584E+01  0.71529998266E+02  0.00000000000E+00 0.  1.
<scales pt_clust_5="13000.00000" pt_clust_6="13000.00000" pt_clust_7="13000.00000" pt_clust_8="13000.00000" pt_clust_9="71.30613"></scales>
<clustering>
<clus scale="   71.306">  2  9  1 -1</clus>
<clus scale="   82.787">  5  6 -1 -1</clus>
<clus scale="   87.446">  1  5  2 -1</clus>
<clus scale="   91.952">  7  8 -1 -1</clus>
<clus scale="   87.446">  1  5  2 -1</clus>
</clustering>
</event>
<event>
 9    1  0.2802611E-005  0.1115047E+03  0.7546771E-02  0.1263130E+00
          1   -1    0    0  502    0  0.00000000000E+00  0.00000000000E+00  0.16448224029E+03  0.16448224029E+03  0.00000000000E+00 0. -1.
         -2   -1    0    0    0  501 -0.00000000000E+00 -0.00000000000E+00 -0.17494970382E+03  0.17494970382E+03  0.00000000000E+00 0.  1.
        -24    2    1    2    0    0  0.69652296247E+02  0.47154098504E+01  0.37875027017E+02  0.11235574275E+03  0.79470861293E+02 0.  0.
         23    2    1    2    0    0 -0.44981935329E+02  0.48319328623E+02  0.40185148152E+02  0.12097034380E+03  0.93063665969E+02 0.  0.
         11    1    3    3    0    0  0.42722394395E+02 -0.23124209491E+02  0.51968364100E+02  0.71138195892E+02  0.00000000000E+00 0. -1.
        -12    1    3    3    0    0  0.26929901852E+02  0.27839619342E+02 -0.14093337083E+02  0.41217546858E+02  0.00000000000E+00 0.  1.
        -13    1    4    4    0    0  0.59764604597E+01  0.50271103081E+02  0.47539335795E+02  0.69447032568E+02  0.00000000000E+00 0.  1.
         13    1    4    4    0    0 -0.50958395789E+02 -0.19517744576E+01 -0.73541876432E+01  0.51523311237E+02  0.00000000000E+00 0. -1.
         21    1    1    2  502  501 -0.24670360918E+02 -0.53034738474E+02 -0.88527638703E+02  0.10610585755E+03  0.00000000000E+00 0. -1.
<scales pt_clust_5="13000.00000" pt_clust_6="13000.00000" pt_clust_7="13000.00000" pt_clust_8="13000.00000" pt_clust_9="58.49197"></scales>
<clustering>
<clus scale="   58.492">  2  9  1 -1</clus>
<clus scale="   79.471">  5  6 -1 -1</clus>
<clus scale="   93.064">  7  8 -1 -1</clus>
<clus scale="  100.439">  2  5  1 -1</clus>
<clus scale="  111.505">  1  5  2 -1</clus>
</clustering>
</event>
<event>
 9    1  0.2802611E-005  0.1417902E+03  0.7546771E-02  0.1213376E+00
         -2   -1    0    0    0  501 -0.00000000000E+00  0.00000000000E+00  0.34716850605E+03  0.34716850605E+03  0.00000000000E+00 0.  1.
          1   -1    0    0  502    0  0.00000000000E+00 -0.00000000000E+00 -0.49946065937E+03  0.49946065937E+03  0.00000000000E+00 0. -1.
        -24    2    1    2    0    0  0.31235742441E+02 -0.97803543938E+02  0.12789665199E+03  0.18217413385E+03  0.79301050694E+02 0.  0.
         23    2    1    2    0    0 -0.10188286230E+02  0.10889664740E+03 -0.46081602680E+03  0.48226764039E+03  0.90930662704E+02 0.  0.
         11    1    3    3    0    0  0.18695385781E+02 -0.16218249243E+02  0.86227870267E+02  0.89709501553E+02  0.00000000000E+00 0. -1.
        -12    1    3    3    0    0  0.12540356660E+02 -0.81585294695E+02  0.41668781723E+02  0.92464632297E+02  0.00000000000E+00 0.  1.
        -11    1    4    4    0    0  0.29066624167E+02  0.48052450952E+02 -0.10415507360E+03  0.11833083300E+03  0.00000000000E+00 0.  1.
         11    1    4    4    0    0 -0.39254910397E+02  0.60844196449E+02 -0.35666095321E+03  0.36393680739E+03  0.00000000000E+00 0. -1.
         21    1    1    2  502  501 -0.21047456211E+02 -0.11093103464E+02  0.18062722150E+03  0.18218739118E+03  0.00000000000E+00 0.  1.
<scales pt_clust_5="13000.00000" pt_clust_6="13000.00000" pt_clust_7="13000.00000" pt_clust_8="13000.00000" pt_clust_9="23.79185"></scales>
<clustering>
<clus scale="   23.792">  1  9  2 -1</clus>
<clus scale="   79.301">  5  6 -1 -1</clus>
<clus scale="   90.931">  7  8 -1 -1</clus>
<clus scale="  134.628">  1  5  2 -1</clus>
<clus scale="  141.790">  2  5  1 -1</clus>
</clustering>
</event>
<event>
 9    1  0.2802611E-005  0.1320788E+03  0.7546771E-02  0.1225228E+00
          1   -1    0    0  502    0  0.00000000000E+00  0.00000000000E+00  0.66831719843E+03  0.66831719843E+03  0.00000000000E+00 0. -1.
         -2   -1    0    0    0  501 -0.00000000000E+00 -0.00000000000E+00 -0.33163843318E+02  0.33163843318E+02  0.00000000000E+00 0.  1.
         23    2    1    2    0    0  0.34409563290E+02  0.98536669186E+02  0.26082454756E+03  0.29118029563E+03  0.76570403762E+02 0.  0.
        -24    2    1    2    0    0 -0.54634633146E+02 -0.91045030247E+02  0.36142331549E+03  0.38516650990E+03  0.80326127114E+02 0.  0.
         11    1    4    4    0    0 -0.52399367029E+02 -0.36916019455E+02  0.10448534303E+03  0.12257925218E+03  0.00000000000E+00 0. -1.
        -12    1    4    4    0    0 -0.22352661166E+01 -0.54129010792E+02  0.25693797246E+03  0.26258725772E+03  0.00000000000E+00 0.  1.
        -13    1    3    3    0    0 -0.48838169983E+00  0.88957003396E+02  0.21578916472E+03  0.23340640647E+03  0.00000000000E+00 0.  1.
         13    1    3    3    0    0  0.34897944990E+02  0.95796657892E+01  0.45035382842E+02  0.57773889162E+02  0.00000000000E+00 0. -1.
         21    1    1    2  502  501  0.20225069856E+02 -0.74916389384E+01  0.12905492048E+02  0.25134236206E+02  0.00000000000E+00 0.  1.
<scales pt_clust_5="13000.00000" pt_clust_6="13000.00000" pt_clust_7="13000.00000" pt_clust_8="13000.00000" pt_clust_9="21.56799"></scales>
<clustering>
<clus scale="   21.568">  2  9  1 -1</clus>
<clus scale="   76.570">  7  8 -1 -1</clus>
<clus scale="   80.326">  5  6 -1 -1</clus>
<clus scale="  129.829">  2  7  1 -1</clus>
<clus scale="  132.079">  1  5  2 -1</clus>
</clustering>
</event>
<event>
 9    1  0.2802611E-005  0.1648863E+03  0.7546771E-02  0.1213682E+00
         -2   -1    0    0    0  501 -0.00000000000E+00  0.00000000000E+00  0.15797473562E+03  0.15797473562E+03  0.00000000000E+00 0.  1.
          1   -1    0    0  502    0  0.00000000000E+00 -0.00000000000E+00 -0.73437715823E+03  0.73437715823E+03  0.00000000000E+00 0. -1.
         23    2    1    2    0    0 -0.62739333403E+02  0.10360217676E+03 -0.26415319624E+03  0.30365199035E+03  0.88079425378E+02 0.  0.
        -24    2    1    2    0    0 -0.27105405874E+02  0.63029084588E+01 -0.40845430973E+03  0.41721630954E+03  0.80374723209E+02 0.  0.
         13    1    4    4    0    0 -0.32873876803E+02 -0.31710452576E+02 -0.25207572023E+03  0.25618043116E+03  0.00000000000E+00 0. -1.
        -14    1    4    4    0    0  0.57684709291E+01  0.38013361035E+02 -0.15637858949E+03  0.16103587838E+03  0.00000000000E+00 0.  1.
        -13    1    3    3    0    0  0.60386320822E+01  0.67293502473E+02 -0.15987144027E+03  0.17356197155E+03  0.00000000000E+00 0.  1.
         13    1    3    3    0    0 -0.68777965485E+02  0.36308674290E+02 -0.10428175597E+03  0.13009001881E+03  0.00000000000E+00 0. -1.
         21    1    1    2  502  501  0.89844739277E+02 -0.10990508522E+03  0.96205083349E+02  0.17148359395E+03  0.00000000000E+00 0.  1.
<scales pt_clust_5="13000.00000" pt_clust_6="13000.00000" pt_clust_7="13000.00000" pt_clust_8="13000.00000" pt_clust_9="139.38973"></scales>
<clustering>
<clus scale="   80.375">  5  6 -1 -1</clus>
<clus scale="   85.056">  2  5  1 -1</clus>
<clus scale="   88.079">  7  8 -1 -1</clus>
<clus scale="  139.390">  1  9  2 -1</clus>
<clus scale="   85.056">  2  5  1 -1</clus>
</clustering>
</event>
<event>
 9    1  0.2802611E-005  0.1815610E+03  0.7546771E-02  0.1167396E+00
          1   -1    0    0  502    0  0.00000000000E+00  0.00000000000E+00  0.16525727218E+03  0.16525727218E+03  0.00000000000E+00 0. -1.
         -2   -1    0    0    0  501 -0.00000000000E+00 -0.00000000000E+00 -0.24291782434E+03  0.24291782434E+03  0.00000000000E+00 0.  1.
        -24    2    1    2    0    0 -0.11699557883E+03 -0.12510588208E+03 -0.86932813768E+02  0.20870571797E+03  0.81616881874E+02 0.  0.
         23    2    1    2    0    0  0.96916779105E+02  0.97540798548E+02  0.38096328720E+01  0.16493197359E+03  0.90999852512E+02 0.  0.
         11    1    3    3    0    0 -0.77214801051E+02 -0.30507951052E+02 -0.17629810863E+02  0.84874441440E+02  0.00000000000E+00 0. -1.
        -12    1    3    3    0    0 -0.39780777782E+02 -0.94597931029E+02 -0.69303002904E+02  0.12383127653E+03  0.00000000000E+00 0.  1.
        -11    1    4    4    0    0  0.92230753229E+02  0.65616402659E+02  0.36568545554E+02  0.11895075730E+03  0.00000000000E+00 0. -1.
         11    1    4    4    0    0  0.46860258756E+01  0.31924395889E+02 -0.32758912682E+02  0.45981216289E+02  0.00000000000E+00 0.  1.
         21    1    1    2  502  501  0.20078799728E+02  0.27565083534E+02  0.54626287376E+01  0.34537404962E+02  0.00000000000E+00 0.  1.
<scales pt_clust_5="13000.00000" pt_clust_6="13000.00000" pt_clust_7="13000.00000" pt_clust_8="13000.00000" pt_clust_9="34.10267"></scales>
<clustering>
<clus scale="   34.103">  1  9  2 -1</clus>
<clus scale="   81.617">  5  6 -1 -1</clus>
<clus scale="   91.000">  7  8 -1 -1</clus>
<clus scale="  177.044">  2  5  1 -1</clus>
<clus scale="   34.103">  1  5  2 -1</clus>
</clustering>
</event>
<event>
 9    1  0.2802611E-005  0.1068238E+03  0.7546771E-02  0.1267083E+00
         -2   -1    0    0    0  501 -0.00000000000E+00  0.00000000000E+00  0.13828164479E+03  0.13828164479E+03  0.00000000000E+00 0.  1.
          1   -1    0    0  502    0  0.00000000000E+00 -0.00000000000E+00 -0.34538405607E+03  0.34538405607E+03  0.00000000000E+00 0. -1.
        -24    2    1    2    0    0 -0.15760496387E+02  0.52938092667E+02  0.18322754625E+02  0.10420409467E+03  0.86440355783E+02 0.  0.
         23    2    1    2    0    0  0.59904525484E+02 -0.29110422292E+02 -0.28309622483E+03  0.30302598479E+03  0.85119363731E+02 0.  0.
         13    1    3    3    0    0  0.58532362163E+01  0.38558694029E+02 -0.30097664484E+02  0.49263603876E+02  0.00000000000E+00 0. -1.
        -14    1    3    3    0    0 -0.21613732603E+02  0.14379398638E+02  0.48420419109E+02  0.54940490796E+02  0.00000000000E+00 0.  1.
        -11    1    4    4    0    0 -0.12798228680E+02 -0.28401636355E+02 -0.12796165995E+03  0.13169902818E+03  0.00000000000E+00 0.  1.
         11    1    4    4    0    0  0.72702754165E+02 -0.70878593766E+00 -0.15513456488E+03  0.17132695661E+03  0.00000000000E+00 0. -1.
         21    1    1    2  502  501 -0.44144029097E+02 -0.23827670375E+02  0.57671058935E+02  0.76435621402E+02  0.00000000000E+00 0.  1.
<scales pt_clust_5="13000.00000" pt_clust_6="13000.00000" pt_clust_7="13000.00000" pt_clust_8="13000.00000" pt_clust_9="50.16426"></scales>
<clustering>
<clus scale="   50.164">  1  9  2 -1</clus>
<clus scale="   85.119">  7  8 -1 -1</clus>
<clus scale="   86.440">  5  6 -1 -1</clus>
<clus scale="  105.758">  2  7  1 -1</clus>
<clus scale="  105.758">  2  5  1 -1</clus>
</clustering>
</event>
<event>
 9    1  0.2802611E-005  0.2372171E+03  0.7546771E-02  0.1121825E+00
         -2   -1    0    0    0  501 -0.00000000000E+00  0.00000000000E+00  0.16111224998E+03  0.16111224998E+03  0.00000000000E+00 0.  1.
          1   -1    0    0  502    0  0.00000000000E+00 -0.00000000000E+00 -0.13970254835E+04  0.13970254835E+04  0.00000000000E+00 0. -1.
        -24    2    1    2    0    0  0.19116910319E+03  0.92128541945E+02 -0.36033004013E+03  0.42771170912E+03  0.89812438113E+02 0.  0.
         23    2    1    2    0    0 -0.13955107219E+03 -0.18132114218E+03 -0.96373327693E+03  0.99481563283E+03  0.92327980057E+02 0.  0.
         13    1    3    3    0    0  0.12827524608E+03  0.18539975510E+02 -0.24474119233E+03  0.27694136684E+03  0.00000000000E+00 0. -1.
        -14    1    3    3    0    0  0.62893857111E+02  0.73588566435E+02 -0.11558884781E+03  0.15077034228E+03  0.00000000000E+00 0.  1.
        -11    1    4    4    0    0 -0.77851072904E+02 -0.44994698515E+02 -0.48415699760E+03  0.49243609816E+03  0.00000000000E+00 0. -1.
         11    1    4    4    0    0 -0.61699999281E+02 -0.13632644367E+03 -0.47957627934E+03  0.50237953467E+03  0.00000000000E+00 0.  1.
         21    1    1    2  502  501 -0.51618031004E+02  0.89192600236E+02  0.88150083543E+02  0.13561039153E+03  0.00000000000E+00 0.  1.
<scales pt_clust_5="13000.00000" pt_clust_6="13000.00000" pt_clust_7="13000.00000" pt_clust_8="13000.00000" pt_clust_9="103.05213"></scales>
<clustering>
<clus scale="   89.812">  5  6 -1 -1</clus>
<clus scale="   92.328">  7  8 -1 -1</clus>
<clus scale="  103.052">  1  9  2 -1</clus>
<clus scale="  236.249">  1  5  2 -1</clus>
<clus scale="  237.217">  2  5  1 -1</clus>
</clustering>
</event>
<event>
 9    1  0.2802611E-005  0.1216881E+03  0.7546771E-02  0.1251091E+00
         -2   -1    0    0    0  501 -0.00000000000E+00  0.00000000000E+00  0.15777699240E+03  0.15777699240E+03  0.00000000000E+00 0.  1.
          1   -1    0    0  502    0  0.00000000000E+00 -0.00000000000E+00 -0.19687652658E+03  0.19687652658E+03  0.00000000000E+00 0. -1.
        -24    2    1    2    0    0 -0.35266103731E+02 -0.63628850207E+01 -0.17862306474E+02  0.93800197444E+02  0.84824705539E+02 0.  0.
         23    2    1    2    0    0  0.45512337563E+02  0.43240478266E+02 -0.10715693673E+03  0.16679409238E+03  0.11133978774E+03 0.  0.
         13    1    3    3    0    0  0.31487026361E+01 -0.37471783154E+02 -0.23035978525E+02  0.44098811409E+02  0.00000000000E+00 0. -1.
        -14    1    3    3    0    0 -0.38414806367E+02  0.31108898133E+02  0.51736720514E+01  0.49701386035E+02  0.00000000000E+00 0.  1.
        -11    1    4    4    0    0 -0.11760802213E+01  0.61520938192E+02 -0.98163050963E+02  0.11585419101E+03  0.00000000000E+00 0.  1.
         11    1    4    4    0    0  0.46688417785E+02 -0.18280459925E+02 -0.89938857642E+01  0.50939901369E+02  0.00000000000E+00 0. -1.
         21    1    1    2  502  501 -0.10246233832E+02 -0.36877593245E+02  0.85919709021E+02  0.94059229157E+02  0.00000000000E+00 0.  1.
<scales pt_clust_5="13000.00000" pt_clust_6="13000.00000" pt_clust_7="13000.00000" pt_clust_8="13000.00000" pt_clust_9="38.27456"></scales>
<clustering>
<clus scale="   38.275">  1  9  2 -1</clus>
<clus scale="   84.825">  5  6 -1 -1</clus>
<clus scale="   98.014">  1  5  2 -1</clus>
<clus scale="  111.340">  7  8 -1 -1</clus>
<clus scale="  121.688">  2  5  1 -1</clus>
</clustering>
</event>
<event>
 9    1  0.2802611E-005  0.1344584E+03  0.7546771E-02  0.1223625E+00
         -2   -1    0    0    0  501 -0.00000000000E+00  0.00000000000E+00  0.10556730362E+03  0.10556730362E+03  0.00000000000E+00 0.  1.
          1   -1    0    0  502    0  0.00000000000E+00 -0.00000000000E+00 -0.56356574014E+03  0.56356574014E+03  0.00000000000E+00 0. -1.
         23    2    1    2    0    0 -0.50088510444E+02  0.93063335708E+02  0.23825720258E+02  0.14257760362E+03  0.92687996947E+02 0.  0.
        -24    2    1    2    0    0  0.22899633731E+02 -0.94151052885E+02 -0.48294094881E+03  0.49932190621E+03  0.81863251840E+02 0.  0.
         11    1    4    4    0    0 -0.22249459065E+02 -0.26007729277E+01 -0.55258717776E+02  0.59626574099E+02  0.00000000000E+00 0. -1.
        -12    1    4    4    0    0  0.45149092795E+02 -0.91550279957E+02 -0.42768223103E+03  0.43969533211E+03  0.00000000000E+00 0.  1.
        -11    1    3    3    0    0 -0.32663015401E+02  0.10236855566E+02 -0.27222992375E+02  0.43735078608E+02  0.00000000000E+00 0. -1.
         11    1    3    3    0    0 -0.17425495043E+02  0.82826480142E+02  0.51048712633E+02  0.98842525017E+02  0.00000000000E+00 0.  1.
         21    1    1    2  502  501  0.27188876714E+02  0.10877171772E+01  0.11167920325E+01  0.27233533925E+02  0.00000000000E+00 0.  1.
<scales pt_clust_5="13000.00000" pt_clust_6="13000.00000" pt_clust_7="13000.00000" pt_clust_8="13000.00000" pt_clust_9="27.21063"></scales>
<clustering>
<clus scale="   27.211">  1  9  2 -1</clus>
<clus scale="   81.863">  5  6 -1 -1</clus>
<clus scale="   92.688">  7  8 -1 -1</clus>
<clus scale="  127.238">  2  5  1 -1</clus>
<clus scale="  127.238">  2  5  1 -1</clus>
</clustering>
</event>
<event>
 9    1  0.2802611E-005  0.1947456E+03  0.7546771E-02  0.1155341E+00
          1   -1    0    0  502    0  0.00000000000E+00  0.00000000000E+00  0.27297902648E+03  0.27297902648E+03  0.00000000000E+00 0. -1.
         -2   -1    0    0    0  501 -0.00000000000E+00 -0.00000000000E+00 -0.28028097861E+03  0.28028097861E+03  0.00000000000E+00 0.  1.
        -24    2    1    2    0    0  0.16630816947E+03  0.21564269207E+02 -0.18081803797E+03  0.25967088373E+03  0.81304243840E+02 0.  0.
         23    2    1    2    0    0 -0.16721156787E+03 -0.42130038439E+02  0.18569317047E+03  0.26967158840E+03  0.92228864592E+02 0.  0.
         13    1    3    3    0    0  0.16437046040E+03  0.36882015949E+02 -0.15162003190E+03  0.22664193219E+03  0.00000000000E+00 0. -1.
        -14    1    3    3    0    0  0.19377090617E+01 -0.15317746742E+02 -0.29198006062E+02  0.33028951537E+02  0.00000000000E+00 0.  1.
        -11    1    4    4    0    0 -0.13230833621E+03 -0.70018457930E+02  0.15489661842E+03  0.21540901254E+03  0.00000000000E+00 0.  1.
         11    1    4    4    0    0 -0.34903231658E+02  0.27888419490E+02  0.30796552042E+02  0.54262575865E+02  0.00000000000E+00 0. -1.
         21    1    1    2  502  501  0.90339840430E+00  0.20565769232E+02 -0.12177084634E+02  0.23917532962E+02  0.00000000000E+00 0. -1.
<scales pt_clust_5="13000.00000" pt_clust_6="13000.00000" pt_clust_7="13000.00000" pt_clust_8="13000.00000" pt_clust_9="20.58560"></scales>
<clustering>
<clus scale="   20.586">  2  9  1 -1</clus>
<clus scale="   81.304">  5  6 -1 -1</clus>
<clus scale="   92.229">  7  8 -1 -1</clus>
<clus scale="  189.816">  2  5  1 -1</clus>
<clus scale="  194.746">  1  5  2 -1</clus>
</clustering>
</event>
<event>
 9    1  0.2802611E-005  0.1117292E+03  0.7546771E-02  0.1259726E+00
          1   -1    0    0  502    0  0.00000000000E+00  0.00000000000E+00  0.59070728303E+02  0.59070728303E+02  0.00000000000E+00 0. -1.
         -2   -1    0    0    0  501 -0.00000000000E+00 -0.00000000000E+00 -0.56664562319E+03  0.56664562319E+03  0.00000000000E+00 0.  1.
         23    2    1    2    0    0 -0.38556439093E+02 -0.46038502332E+02 -0.27827891608E+03  0.29894946152E+03  0.91244083205E+02 0.  0.
        -24    2    1    2    0    0  0.56256713080E+02  0.93962707174E+01 -0.20969413997E+02  0.11450311434E+03  0.97047097847E+02 0.  0.
         11    1    4    4    0    0  0.52691527769E+02  0.22552103970E+02  0.27916852889E+02  0.63752216960E+02  0.00000000000E+00 0. -1.
        -12    1    4    4    0    0  0.35651853114E+01 -0.13155833253E+02 -0.48886266886E+02  0.50750897381E+02  0.00000000000E+00 0.  1.
        -11    1    3    3    0    0 -0.30236425881E+02  0.12994000685E+02 -0.18735859662E+03  0.19022704652E+03  0.00000000000E+00 0.  1.
         11    1    3    3    0    0 -0.83200132124E+01 -0.59032503017E+02 -0.90920319463E+02  0.10872241500E+03  0.00000000000E+00 0. -1.
         21    1    1    2  502  501 -0.17700273988E+02  0.36642231614E+02 -0.20832656481E+03  0.21226377563E+03  0.00000000000E+00 0.  1.
<scales pt_clust_5="13000.00000" pt_clust_6="13000.00000" pt_clust_7="13000.00000" pt_clust_8="13000.00000" pt_clust_9="40.69340"></scales>
<clustering>
<clus scale="   40.693">  2  9  1 -1</clus>
<clus scale="   91.244">  7  8 -1 -1</clus>
<clus scale="   97.047">  5  6 -1 -1</clus>
<clus scale="  106.728">  2  7  1 -1</clus>
<clus scale="  111.729">  1  5  2 -1</clus>
</clustering>
</event>
<event>
 9    1  0.2802611E-005  0.1532172E+03  0.7546771E-02  0.1205025E+00
          1   -1    0    0  502    0  0.00000000000E+00  0.00000000000E+00  0.46984985686E+03  0.46984985686E+03  0.00000000000E+00 0. -1.
         -2   -1    0    0    0  501 -0.00000000000E+00 -0.00000000000E+00 -0.17541654369E+03  0.17541654369E+03  0.00000000000E+00 0.  1.
         23    2    1    2    0    0  0.36089441389E+01 -0.77596793022E+02 -0.61728271149E+02  0.15236945796E+03  0.11563643670E+03 0.  0.
        -24    2    1    2    0    0 -0.31211133848E+01  0.10258195143E+03  0.41196237175E+03  0.43175592529E+03  0.78532701372E+02 0.  0.
         11    1    4    4    0    0  0.37160685447E+02  0.58180401962E+02  0.23363017444E+03  0.24361636670E+03  0.00000000000E+00 0. -1.
        -12    1    4    4    0    0 -0.40281798831E+02  0.44401549468E+02  0.17833219731E+03  0.18813955860E+03  0.00000000000E+00 0.  1.
        -13    1    3    3    0    0 -0.21609895851E+02 -0.49251457909E+02  0.23791958435E+02  0.58811146826E+02  0.00000000000E+00 0. -1.
         13    1    3    3    0    0  0.25218839990E+02 -0.28345335113E+02 -0.85520229585E+02  0.93558311129E+02  0.00000000000E+00 0.  1.
         21    1    1    2  502  501 -0.48783075414E+00 -0.24985158408E+02 -0.55800787421E+02  0.61141017298E+02  0.00000000000E+00 0.  1.
<scales pt_clust_5="13000.00000" pt_clust_6="13000.00000" pt_clust_7="13000.00000" pt_clust_8="13000.00000" pt_clust_9="24.98992"></scales>
<clustering>
<clus scale="   24.990">  2  9  1 -1</clus>
<clus scale="   78.533">  5  6 -1 -1</clus>
<clus scale="  115.636">  7  8 -1 -1</clus>
<clus scale="  127.558">  1  5  2 -1</clus>
<clus scale="  127.558">  1  5  2 -1</clus>
</clustering>
</event>
<event>
 9    1  0.2802611E-005  0.1876299E+03  0.7546771E-02  0.1162185E+00
         -2   -1    0    0    0  501 -0.00000000000E+00  0.00000000000E+00  0.37917994593E+03  0.37917994593E+03  0.00000000000E+00 0.  1.
          1   -1    0    0  502    0  0.00000000000E+00 -0.00000000000E+00 -0.10643158992E+03  0.10643158992E+03  0.00000000000E+00 0. -1.
        -24    2    1    2    0    0  0.14404422946E+03  0.65003982871E+02  0.15235302007E+03  0.23375847916E+03  0.80357488931E+02 0.  0.
         23    2    1    2    0    0 -0.16292706663E+03 -0.44907797614E+02  0.10478555924E+03  0.22016578273E+03  0.94504069395E+02 0.  0.
         13    1    3    3    0    0  0.35540014019E+02  0.58466324260E+02  0.53934965175E+02  0.87122810660E+02  0.00000000000E+00 0. -1.
        -14    1    3    3    0    0  0.10850421544E+03  0.65376586110E+01  0.98418054895E+02  0.14663566850E+03  0.00000000000E+00 0.  1.
        -13    1    4    4    0    0 -0.13702213260E+03 -0.55892167648E+02  0.11781839713E+03  0.18915648001E+03  0.00000000000E+00 0.  1.
         13    1    4    4    0    0 -0.25904934031E+02  0.10984370033E+02 -0.13032837884E+02  0.31009302725E+02  0.00000000000E+00 0. -1.
         21    1    1    2  502  501  0.18882837175E+02 -0.20096185257E+02  0.15609776695E+02  0.31687273946E+02  0.00000000000E+00 0. -1.
<scales pt_clust_5="13000.00000" pt_clust_6="13000.00000" pt_clust_7="13000.00000" pt_clust_8="13000.00000" pt_clust_9="27.57568"></scales>
<clustering>
<clus scale="   27.576">  2  9  1 -1</clus>
<clus scale="   80.357">  5  6 -1 -1</clus>
<clus scale="   94.504">  7  8 -1 -1</clus>
<clus scale="  180.918">  1  5  2 -1</clus>
<clus scale="   27.576">  2  5  1 -1</clus>
</clustering>
</event>
<event>
 9    1  0.2802611E-005  0.1313231E+03  0.7546771E-02  0.1228347E+00
          1   -1    0    0  502    0  0.00000000000E+00  0.00000000000E+00  0.17606164861E+03  0.17606164861E+03  0.00000000000E+00 0. -1.
         -2   -1    0    0    0  501 -0.00000000000E+00 -0.00000000000E+00 -0.19032191428E+03  0.19032191428E+03  0.00000000000E+00 0.  1.
        -24    2    1    2    0    0  0.40661038836E+02  0.42094210634E+02 -0.64249397237E+02  0.11717671031E+03  0.78594870995E+02 0.  0.
         23    2    1    2    0    0 -0.39700937681E+02 -0.10650843368E+03  0.92552264405E+02  0.17199458540E+03  0.89977802060E+02 0.  0.
         11    1    3    3    0    0  0.56290402312E+02  0.42390085326E+02 -0.71105122376E+02  0.10010727823E+03  0.00000000000E+00 0. -1.
        -12    1    3    3    0    0 -0.15629363476E+02 -0.29587469253E+00  0.68557251395E+01  0.17069432084E+02  0.00000000000E+00 0.  1.
        -13    1    4    4    0    0 -0.22556459100E+02 -0.24673589516E+02 -0.14263727479E+02  0.36346028508E+02  0.00000000000E+00 0.  1.
         13    1    4    4    0    0 -0.17144478581E+02 -0.81834844161E+02  0.10681599188E+03  0.13564855689E+03  0.00000000000E+00 0. -1.
         21    1    1    2  502  501 -0.96010115504E+00  0.64414223043E+02 -0.42563132839E+02  0.77212267170E+02  0.00000000000E+00 0.  1.
<scales pt_clust_5="13000.00000" pt_clust_6="13000.00000" pt_clust_7="13000.00000" pt_clust_8="13000.00000" pt_clust_9="64.42138"></scales>
<clustering>
<clus scale="   64.421">  2  9  1 -1</clus>
<clus scale="   78.595">  5  6 -1 -1</clus>
<clus scale="   89.978">  7  8 -1 -1</clus>
<clus scale="  123.802">  2  5  1 -1</clus>
<clus scale="  131.323">  1  5  2 -1</clus>
</clustering>
</event>
<event>
 9    1  0.2802611E-005  0.9408345E+02  0.7546771E-02  0.1295400E+00
          1   -1    0    0  502    0  0.00000000000E+00  0.00000000000E+00  0.53350348789E+02  0.53350348789E+02  0.00000000000E+00 0. -1.
         -2   -1    0    0    0  501 -0.00000000000E+00 -0.00000000000E+00 -0.36631959348E+03  0.36631959348E+03  0.00000000000E+00 0.  1.
         23    2    1    2    0    0  0.52964730355E+02 -0.81325190938E+01 -0.22934999189E+03  0.25142988796E+03  0.88000961667E+02 0.  0.
        -24    2    1    2    0    0 -0.28788879752E+02  0.45063420053E+01 -0.86442251838E+01  0.89380205972E+02  0.84053506024E+02 0.  0.
         11    1    4    4    0    0 -0.23140083562E+02 -0.14927295208E+02  0.33059218851E+02  0.43025568683E+02  0.00000000000E+00 0. -1.
        -12    1    4    4    0    0 -0.56487961897E+01  0.19433637213E+02 -0.41703444035E+02  0.46354637288E+02  0.00000000000E+00 0.  1.
        -13    1    3    3    0    0  0.62261654632E+01  0.34476422387E+02 -0.12102052523E+03  0.12598950894E+03  0.00000000000E+00 0. -1.
         13    1    3    3    0    0  0.46738564892E+02 -0.42608941481E+02 -0.10832946666E+03  0.12544037902E+03  0.00000000000E+00 0.  1.
         21    1    1    2  502  501 -0.24175850604E+02  0.36261770885E+01 -0.74975027626E+02  0.78859848340E+02  0.00000000000E+00 0.  1.
<scales pt_clust_5="13000.00000" pt_clust_6="13000.00000" pt_clust_7="13000.00000" pt_clust_8="13000.00000" pt_clust_9="24.44629"></scales>
<clustering>
<clus scale="   24.446">  2  9  1 -1</clus>
<clus scale="   84.054">  5  6 -1 -1</clus>
<clus scale="   88.001">  7  8 -1 -1</clus>
<clus scale="   90.402">  1  5  2 -1</clus>
<clus scale="   90.402">  1  5  2 -1</clus>
</clustering>
</event>
<event>
 9    1  0.2802611E-005  0.1842102E+03  0.7546771E-02  0.1164500E+00
          1   -1    0    0  502    0  0.00000000000E+00  0.00000000000E+00  0.10669231566E+03  0.10669231566E+03  0.00000000000E+00 0. -1.
         -2   -1    0    0    0  501 -0.00000000000E+00 -0.00000000000E+00 -0.59586783194E+03  0.59586783194E+03  0.00000000000E+00 0.  1.
        -24    2    1    2    0    0  0.20297966394E+02 -0.13362563284E+03 -0.34600236848E+03  0.38029652632E+03  0.81486144531E+02 0.  0.
         23    2    1    2    0    0 -0.45885865275E+01  0.16981704242E+03 -0.19310738280E+02  0.19226939358E+03  0.87953010578E+02 0.  0.
         13    1    3    3    0    0  0.30268488595E+02 -0.10866705131E+02 -0.10236097529E+03  0.10729415615E+03  0.00000000000E+00 0. -1.
        -14    1    3    3    0    0 -0.99705222005E+01 -0.12275892770E+03 -0.24364139319E+03  0.27300237017E+03  0.00000000000E+00 0.  1.
        -13    1    4    4    0    0 -0.26359146572E+02  0.12645314481E+03  0.18849681297E+02  0.13053931563E+03  0.00000000000E+00 0. -1.
         13    1    4    4    0    0  0.21770560045E+02  0.43363897614E+02 -0.38160419577E+02  0.61730077947E+02  0.00000000000E+00 0.  1.
         21    1    1    2  502  501 -0.15709379867E+02 -0.36191409589E+02 -0.12386240952E+03  0.12999422770E+03  0.00000000000E+00 0.  1.
<scales pt_clust_5="13000.00000" pt_clust_6="13000.00000" pt_clust_7="13000.00000" pt_clust_8="13000.00000" pt_clust_9="39.45381"></scales>
<clustering>
<clus scale="   39.454">  2  9  1 -1</clus>
<clus scale="   81.486">  5  6 -1 -1</clus>
<clus scale="   87.953">  7  8 -1 -1</clus>
<clus scale="  181.212">  2  5  1 -1</clus>
<clus scale="  184.210">  1  5  2 -1</clus>
</clustering>
</event>
<event>
 9    1  0.2802611E-005  0.1236273E+03  0.7546771E-02  0.1243403E+00
         -4   -1    0    0    0  501 -0.00000000000E+00  0.00000000000E+00  0.15610963431E+03  0.15610963431E+03  0.00000000000E+00 0.  1.
          3   -1    0    0  502    0  0.00000000000E+00 -0.00000000000E+00 -0.25141623380E+03  0.25141623380E+03  0.00000000000E+00 0. -1.
         23    2    1    2    0    0 -0.33002733686E+02  0.20088012545E+02  0.85386919880E+02  0.12975900063E+03  0.89742762817E+02 0.  0.
        -24    2    1    2    0    0  0.62793843665E+00 -0.69675388166E+02 -0.17726364842E+03  0.21844740017E+03  0.10696640392E+03 0.  0.
         13    1    4    4    0    0  0.26509794096E+01 -0.98193987654E+02 -0.14714236103E+03  0.17691795079E+03  0.00000000000E+00 0. -1.
        -14    1    4    4    0    0 -0.20230409730E+01  0.28518599488E+02 -0.30121287389E+02  0.41529449377E+02  0.00000000000E+00 0.  1.
        -13    1    3    3    0    0 -0.61782009473E+02  0.27089525812E+02  0.52355240284E+02  0.85392799980E+02  0.00000000000E+00 0.  1.
         13    1    3    3    0    0  0.28779275787E+02 -0.70015132665E+01  0.33031679597E+02  0.44366200647E+02  0.00000000000E+00 0. -1.
         21    1    1    2  502  501  0.32374795249E+02  0.49587375621E+02 -0.34298709572E+01  0.59319467320E+02  0.00000000000E+00 0.  1.
<scales pt_clust_5="13000.00000" pt_clust_6="13000.00000" pt_clust_7="13000.00000" pt_clust_8="13000.00000" pt_clust_9="59.22023"></scales>
<clustering>
<clus scale="   59.220">  1  9  2 -1</clus>
<clus scale="   89.743">  7  8 -1 -1</clus>
<clus scale="  106.966">  5  6 -1 -1</clus>
<clus scale="  109.067">  1  7  2 -1</clus>
<clus scale="  123.627">  2  5  1 -1</clus>
</clustering>
</event>
<event>
 9    1  0.2802611E-005  0.1173725E+03  0.7546771E-02  0.1251827E+00
         -2   -1    0    0    0  501 -0.00000000000E+00  0.00000000000E+00  0.90948148133E+02  0.90948148133E+02  0.00000000000E+00 0.  1.
          1   -1    0    0  502    0  0.00000000000E+00 -0.00000000000E+00 -0.23989645052E+03  0.23989645052E+03  0.00000000000E+00 0. -1.
         23    2    1    2    0    0  0.76365946189E+02  0.68118943963E+01 -0.83158474123E+02  0.14655560541E+03  0.93193637207E+02 0.  0.
        -24    2    1    2    0    0 -0.62656355161E+02  0.39591476047E+02 -0.77943535188E+02  0.13439973321E+03  0.80590258659E+02 0.  0.
         13    1    4    4    0    0 -0.27283014036E+02  0.61916106676E+02 -0.47966770155E+02  0.82938399791E+02  0.00000000000E+00 0. -1.
        -14    1    4    4    0    0 -0.35373341125E+02 -0.22324630629E+02 -0.29976765033E+02  0.51461333416E+02  0.00000000000E+00 0.  1.
        -13    1    3    3    0    0  0.25423960030E+02  0.80015319826E+01  0.18770363273E+02  0.32599521393E+02  0.00000000000E+00 0.  1.
         13    1    3    3    0    0  0.50941986159E+02 -0.11896375863E+01 -0.10192883740E+03  0.11395608402E+03  0.00000000000E+00 0. -1.
         21    1    1    2  502  501 -0.13709591028E+02 -0.46403370443E+02  0.12153706927E+02  0.49889260034E+02  0.00000000000E+00 0. -1.
<scales pt_clust_5="13000.00000" pt_clust_6="13000.00000" pt_clust_7="13000.00000" pt_clust_8="13000.00000" pt_clust_9="48.38621"></scales>
<clustering>
<clus scale="   48.386">  1  9  2 -1</clus>
<clus scale="   80.590">  5  6 -1 -1</clus>
<clus scale="   93.194">  7  8 -1 -1</clus>
<clus scale="  107.638">  2  5  1 -1</clus>
<clus scale="  107.638">  2  5  1 -1</clus>
</clustering>
</event>
<event>
 9    1  0.2802611E-005  0.1399752E+03  0.7546771E-02  0.1230576E+00
          3   -1    0    0  502    0  0.00000000000E+00  0.00000000000E+00  0.21391448754E+03  0.21391448754E+03  0.00000000000E+00 0. -1.
         -4   -1    0    0    0  501 -0.00000000000E+00 -0.00000000000E+00 -0.39091521719E+03  0.39091521719E+03  0.00000000000E+00 0.  1.
        -24    2    1    2    0    0  0.11766212909E+03 -0.42421685488E+02  0.43334057839E+02  0.15489149426E+03  0.80433565165E+02 0.  0.
         23    2    1    2    0    0 -0.17867037524E+02 -0.11847544091E+02  0.81662570318E+02  0.12728264535E+03  0.95249677617E+02 0.  0.
         13    1    3    3    0    0  0.12674627292E+03 -0.41086349131E+02  0.51262375491E+02  0.14276041792E+03  0.00000000000E+00 0. -1.
        -14    1    3    3    0    0 -0.90841438342E+01 -0.13353363569E+01 -0.79283176517E+01  0.12131076340E+02  0.00000000000E+00 0.  1.
        -13    1    4    4    0    0  0.99144962378E+01 -0.27803590669E+02  0.89548938125E+02  0.94288648357E+02  0.00000000000E+00 0.  1.
         13    1    4    4    0    0 -0.27781533762E+02  0.15956046578E+02 -0.78863678068E+01  0.32993996996E+02  0.00000000000E+00 0. -1.
         21    1    1    2  502  501 -0.99795091565E+02  0.54269229578E+02 -0.30199735780E+03  0.32265556511E+03  0.00000000000E+00 0.  1.
<scales pt_clust_5="13000.00000" pt_clust_6="13000.00000" pt_clust_7="13000.00000" pt_clust_8="13000.00000" pt_clust_9="114.55787"></scales>
<clustering>
<clus scale="   80.434">  5  6 -1 -1</clus>
<clus scale="   95.250">  7  8 -1 -1</clus>
<clus scale="   97.632">  1  7  2 -1</clus>
<clus scale="  114.558">  2  9  1 -1</clus>
<clus scale="   97.632">  1  5  2 -1</clus>
</clustering>
</event>
<event>
 9    1  0.2802611E-005  0.1014756E+03  0.7546771E-02  0.1284304E+00
          1   -1    0    0  502    0  0.00000000000E+00  0.00000000000E+00  0.17712258931E+03  0.17712258931E+03  0.00000000000E+00 0. -1.
         -2   -1    0    0    0  501 -0.00000000000E+00 -0.00000000000E+00 -0.15310512268E+03  0.15310512268E+03  0.00000000000E+00 0.  1.
        -24    2    1    2    0    0  0.25756292089E+02  0.23054786302E+02 -0.46446103316E+02  0.97691498828E+02  0.78685949676E+02 0.  0.
         23    2    1    2    0    0 -0.44730505496E+02  0.44910128209E+01  0.12896366002E+03  0.16514888229E+03  0.92852250359E+02 0.  0.
         11    1    3    3    0    0 -0.13289074063E+02  0.35201320484E+02 -0.42265718225E+02  0.56587307679E+02  0.00000000000E+00 0. -1.
        -12    1    3    3    0    0  0.39045366151E+02 -0.12146534182E+02 -0.41803850915E+01  0.41104191149E+02  0.00000000000E+00 0.  1.
        -11    1    4    4    0    0  0.13541470328E+02  0.32661482550E+02  0.27472529652E+02  0.44775928204E+02  0.00000000000E+00 0.  1.
         11    1    4    4    0    0 -0.58271975824E+02 -0.28170469729E+02  0.10149113037E+03  0.12037295409E+03  0.00000000000E+00 0. -1.
         21    1    1    2  502  501  0.18974213407E+02 -0.27545799123E+02 -0.58500090075E+02  0.67387330876E+02  0.00000000000E+00 0.  1.
<scales pt_clust_5="13000.00000" pt_clust_6="13000.00000" pt_clust_7="13000.00000" pt_clust_8="13000.00000" pt_clust_9="33.44835"></scales>
<clustering>
<clus scale="   33.448">  2  9  1 -1</clus>
<clus scale="   78.686">  5  6 -1 -1</clus>
<clus scale="   88.697">  2  5  1 -1</clus>
<clus scale="   92.852">  7  8 -1 -1</clus>
<clus scale="  101.476">  1  5  2 -1</clus>
</clustering>
</event>
<event>
 9    1  0.2802611E-005  0.2605913E+03  0.7546771E-02  0.1107339E+00
          1   -1    0    0  502    0  0.00000000000E+00  0.00000000000E+00  0.56162097899E+03  0.56162097899E+03  0.00000000000E+00 0. -1.
         -2   -1    0    0    0  501 -0.00000000000E+00 -0.00000000000E+00 -0.29362348052E+03  0.29362348052E+03  0.00000000000E+00 0.  1.
         23    2    1    2    0    0 -0.19359270345E+03 -0.16989520062E+03 -0.12109349865E+03  0.29906476794E+03  0.91834557705E+02 0.  0.
        -24    2    1    2    0    0  0.19617541458E+03  0.14132194314E+03  0.43373058278E+03  0.50311563550E+03  0.80910069510E+02 0.  0.
         11    1    4    4    0    0  0.97505233351E+02  0.68080197705E+02  0.29341590501E+03  0.31659923747E+03  0.00000000000E+00 0. -1.
        -12    1    4    4    0    0  0.98670181229E+02  0.73241745437E+02  0.14031467776E+03  0.18651639803E+03  0.00000000000E+00 0.  1.
        -13    1    3    3    0    0 -0.78912755401E+02 -0.14895960454E+02 -0.28928894181E+02  0.85358031381E+02  0.00000000000E+00 0.  1.
         13    1    3    3    0    0 -0.11467994805E+03 -0.15499924016E+03 -0.92164604468E+02  0.21370673656E+03  0.00000000000E+00 0. -1.
         21    1    1    2  502  501 -0.25827111307E+01  0.28573257476E+02 -0.44639585657E+02  0.53064056076E+02  0.00000000000E+00 0. -1.
<scales pt_clust_5="13000.00000" pt_clust_6="13000.00000" pt_clust_7="13000.00000" pt_clust_8="13000.00000" pt_clust_9="28.68974"></scales>
<clustering>
<clus scale="   28.690">  2  9  1 -1</clus>
<clus scale="   80.910">  5  6 -1 -1</clus>
<clus scale="   91.835">  7  8 -1 -1</clus>
<clus scale="  256.945">  1  5  2 -1</clus>
<clus scale="  256.945">  1  5  2 -1</clus>
</clustering>
</event>
<event>
 9    1  0.2802611E-005  0.4566398E+03  0.7546771E-02  0.1025921E+00
          1   -1    0    0  502    0  0.00000000000E+00  0.00000000000E+00  0.17725770493E+04  0.17725770493E+04  0.00000000000E+00 0. -1.
         -2   -1    0    0    0  501 -0.00000000000E+00 -0.00000000000E+00 -0.20850684985E+03  0.20850684985E+03  0.00000000000E+00 0.  1.
        -24    2    1    2    0    0 -0.42482040944E+03  0.42412992558E+02  0.17188965540E+03  0.46716127038E+03  0.80139607546E+02 0.  0.
         23    2    1    2    0    0  0.45289129402E+03  0.30805850492E+02  0.13447870056E+04  0.14222977357E+04  0.91756383775E+02 0.  0.
         13    1    3    3    0    0 -0.45621489468E+02  0.16325329430E+01  0.47798091128E+02  0.66095710758E+02  0.00000000000E+00 0. -1.
        -14    1    3    3    0    0 -0.37919891997E+03  0.40780459615E+02  0.12409156428E+03  0.40106555962E+03  0.00000000000E+00 0.  1.
        -13    1    4    4    0    0  0.30435638329E+03  0.53961974568E+02  0.81695711609E+03  0.87347789456E+03  0.00000000000E+00 0.  1.
         13    1    4    4    0    0  0.14853491073E+03 -0.23156124077E+02  0.52782988954E+03  0.54881984118E+03  0.00000000000E+00 0. -1.
         21    1    1    2  502  501 -0.28070884588E+02 -0.73218843050E+02  0.47393538407E+02  0.91624893025E+02  0.00000000000E+00 0. -1.
<scales pt_clust_5="13000.00000" pt_clust_6="13000.00000" pt_clust_7="13000.00000" pt_clust_8="13000.00000" pt_clust_9="78.41539"></scales>
<clustering>
<clus scale="   78.415">  2  9  1 -1</clus>
<clus scale="   80.140">  5  6 -1 -1</clus>
<clus scale="   91.756">  7  8 -1 -1</clus>
<clus scale="  454.448">  2  5  1 -1</clus>
<clus scale="  456.640">  1  5  2 -1</clus>
</clustering>
</event>
<event>
 9    1  0.2802611E-005  0.9336844E+02  0.7546771E-02  0.1302162E+00
         -2   -1    0    0    0  501 -0.00000000000E+00  0.00000000000E+00  0.84971034756E+03  0.84971034756E+03  0.00000000000E+00 0.  1.
          1   -1    0    0  502    0  0.00000000000E+00 -0.00000000000E+00 -0.28216853471E+02  0.28216853471E+02  0.00000000000E+00 0. -1.
        -24    2    1    2    0    0 -0.45062196933E+01 -0.37012202174E+01  0.65234043159E+03  0.65731249674E+03  0.80484002411E+02 0.  0.
         23    2    1    2    0    0 -0.10691059558E+02 -0.12303653860E+02  0.64915155170E+02  0.11406586752E+03  0.92365394551E+02 0.  0.
         11    1    3    3    0    0 -0.16185521650E+02 -0.30263885579E+02  0.13979044243E+03  0.14394179961E+03  0.00000000000E+00 0. -1.
        -12    1    3    3    0    0  0.11679301957E+02  0.26562665362E+02  0.51254998916E+03  0.51337069713E+03  0.00000000000E+00 0.  1.
        -11    1    4    4    0    0  0.30894145448E+02 -0.19046168969E+02 -0.45558945318E+00  0.36296175240E+02  0.00000000000E+00 0. -1.
         11    1    4    4    0    0 -0.41585205005E+02  0.67425151084E+01  0.65370744623E+02  0.77769692284E+02  0.00000000000E+00 0.  1.
         21    1    1    2  502  501  0.15197279251E+02  0.16004874078E+02  0.10423790733E+03  0.10654883677E+03  0.00000000000E+00 0.  1.
<scales pt_clust_5="13000.00000" pt_clust_6="13000.00000" pt_clust_7="13000.00000" pt_clust_8="13000.00000" pt_clust_9="22.07064"></scales>
<clustering>
<clus scale="   22.071">  1  9  2 -1</clus>
<clus scale="   80.484">  5  6 -1 -1</clus>
<clus scale="   81.633">  1  5  2 -1</clus>
<clus scale="   92.365">  7  8 -1 -1</clus>
<clus scale="   93.368">  2  5  1 -1</clus>
</clustering>
</event>
<event>
 9    1  0.2802611E-005  0.1295865E+03  0.7546771E-02  0.1250220E+00
          3   -1    0    0  502    0  0.00000000000E+00  0.00000000000E+00  0.33102990482E+02  0.33102990482E+02  0.00000000000E+00 0. -1.
         -4   -1    0    0    0  501 -0.00000000000E+00 -0.00000000000E+00 -0.84158758888E+03  0.84158758888E+03  0.00000000000E+00 0.  1.
         23    2    1    2    0    0 -0.76749828105E+02  0.31832744762E+02 -0.40421167617E+03  0.42237640662E+03  0.90060479481E+02 0.  0.
        -24    2    1    2    0    0 -0.22490735588E+02 -0.53931938086E+01 -0.92211854218E+02  0.12378738616E+03  0.79280332910E+02 0.  0.
         13    1    4    4    0    0 -0.43343075728E+02  0.27254367729E+01 -0.19309326683E+02  0.47527889876E+02  0.00000000000E+00 0. -1.
        -14    1    4    4    0    0  0.20852340140E+02 -0.81186305815E+01 -0.72902527536E+02  0.76259496280E+02  0.00000000000E+00 0.  1.
        -11    1    3    3    0    0 -0.65497316253E+02 -0.20147450749E+02 -0.25150460302E+03  0.26067294365E+03  0.00000000000E+00 0.  1.
         11    1    3    3    0    0 -0.11252511852E+02  0.51980195512E+02 -0.15270707315E+03  0.16170346298E+03  0.00000000000E+00 0. -1.
         21    1    1    2  502  501  0.99240563693E+02 -0.26439550954E+02 -0.31206106801E+03  0.32852678658E+03  0.00000000000E+00 0.  1.
<scales pt_clust_5="13000.00000" pt_clust_6="13000.00000" pt_clust_7="13000.00000" pt_clust_8="13000.00000" pt_clust_9="93.17606"></scales>
<clustering>
<clus scale="   79.280">  5  6 -1 -1</clus>
<clus scale="   82.585">  1  5  2 -1</clus>
<clus scale="   90.060">  7  8 -1 -1</clus>
<clus scale="   93.176">  1  9  2 -1</clus>
<clus scale="   82.585">  1  5  2 -1</clus>
</clustering>
</event>
<event>
 9    1  0.2802611E-005  0.9055926E+02  0.7546771E-02  0.1306273E+00
          1   -1    0    0  502    0  0.00000000000E+00  0.00000000000E+00  0.11859311419E+03  0.11859311419E+03  0.00000000000E+00 0. -1.
         -2   -1    0    0    0  501 -0.00000000000E+00 -0.00000000000E+00 -0.61245736771E+03  0.61245736771E+03  0.00000000000E+00 0.  1.
        -24    2    1    2    0    0  0.67847896241E+02 -0.13770460361E+02 -0.30062516158E+03  0.31879953962E+03  0.80403333775E+02 0.  0.
         23    2    1    2    0    0  0.10656241528E+02 -0.13114309146E+02  0.83301138661E+02  0.12352929498E+03  0.89637416448E+02 0.  0.
         11    1    3    3    0    0  0.51625443095E+02 -0.32987902676E+02 -0.10501520106E+03  0.12157952357E+03  0.00000000000E+00 0. -1.
        -12    1    3    3    0    0  0.16222453146E+02  0.19217442315E+02 -0.19560996052E+03  0.19722001605E+03  0.00000000000E+00 0.  1.
        -11    1    4    4    0    0  0.49674911041E+02  0.96671339186E+00  0.47435384400E+02  0.68692408714E+02  0.00000000000E+00 0. -1.
         11    1    4    4    0    0 -0.39018669514E+02 -0.14081022538E+02  0.35865754261E+02  0.54836886263E+02  0.00000000000E+00 0.  1.
         21    1    1    2  502  501 -0.78504137769E+02  0.26884769507E+02 -0.27654023060E+03  0.28872164730E+03  0.00000000000E+00 0.  1.
<scales pt_clust_5="13000.00000" pt_clust_6="13000.00000" pt_clust_7="13000.00000" pt_clust_8="13000.00000" pt_clust_9="82.98006"></scales>
<clustering>
<clus scale="   80.403">  5  6 -1 -1</clus>
<clus scale="   82.980">  2  9  1 -1</clus>
<clus scale="   82.980">  2  5  1 -1</clus>
<clus scale="   89.637">  7  8 -1 -1</clus>
<clus scale="   90.559">  1  5  2 -1</clus>
</clustering>
</event>
<event>
 9    1  0.2802611E-005  0.1046000E+03  0.7546771E-02  0.1274476E+00
         -2   -1    0    0    0  501 -0.00000000000E+00  0.00000000000E+00  0.42429265158E+03  0.42429265158E+03  0.00000000000E+00 0.  1.
          1   -1    0    0  502    0  0.00000000000E+00 -0.00000000000E+00 -0.49764803978E+02  0.49764803978E+02  0.00000000000E+00 0. -1.
        -24    2    1    2    0    0 -0.30398815309E+02  0.59251201787E+02  0.21319439907E+03  0.23814931950E+03  0.82634458287E+02 0.  0.
         23    2    1    2    0    0 -0.27893284090E+02 -0.47452921152E+02  0.70753096000E+02  0.12754777180E+03  0.90733778023E+02 0.  0.
         11    1    3    3    0    0 -0.42442090087E+02  0.68770779391E+02  0.12652614510E+03  0.15013199693E+03  0.00000000000E+00 0. -1.
        -12    1    3    3    0    0  0.12043274778E+02 -0.95195776037E+01  0.86668253973E+02  0.88017322567E+02  0.00000000000E+00 0.  1.
        -13    1    4    4    0    0 -0.35107891110E+02  0.18381093607E+02  0.22148567013E+02  0.45398101735E+02  0.00000000000E+00 0. -1.
         13    1    4    4    0    0  0.72146070202E+01 -0.65834014759E+02  0.48604528986E+02  0.82149670064E+02  0.00000000000E+00 0.  1.
         21    1    1    2  502  501  0.58292099399E+02 -0.11798280635E+02  0.90580352530E+02  0.10836036426E+03  0.00000000000E+00 0.  1.
<scales pt_clust_5="13000.00000" pt_clust_6="13000.00000" pt_clust_7="13000.00000" pt_clust_8="13000.00000" pt_clust_9="59.47410"></scales>
<clustering>
<clus scale="   59.474">  1  9  2 -1</clus>
<clus scale="   82.634">  5  6 -1 -1</clus>
<clus scale="   90.734">  7  8 -1 -1</clus>
<clus scale="   97.658">  1  5  2 -1</clus>
<clus scale="  104.600">  2  5  1 -1</clus>
</clustering>
</event>
<event>
 9    1  0.2802611E-005  0.9878928E+02  0.7546771E-02  0.1287026E+00
         -4   -1    0    0    0  501 -0.00000000000E+00  0.00000000000E+00  0.70595675895E+02  0.70595675895E+02  0.00000000000E+00 0.  1.
          3   -1    0    0  502    0  0.00000000000E+00 -0.00000000000E+00 -0.51524821502E+03  0.51524821502E+03  0.00000000000E+00 0. -1.
        -24    2    1    2    0    0  0.61959486579E+02  0.18587579733E+01 -0.30939015576E+02  0.10751252743E+03  0.82214888625E+02 0.  0.
         23    2    1    2    0    0 -0.33954285312E+02  0.15456202424E+02 -0.43042814293E+03  0.44140606521E+03  0.90438600707E+02 0.  0.
         13    1    3    3    0    0  0.66609445072E+01 -0.20722386488E+02 -0.41493233333E+02  0.46855884326E+02  0.00000000000E+00 0. -1.
        -14    1    3    3    0    0  0.55298542072E+02  0.22581144461E+02  0.10554217757E+02  0.60656643106E+02  0.00000000000E+00 0.  1.
        -13    1    4    4    0    0 -0.46565261164E+02  0.45317039128E+02 -0.26680880516E+03  0.27460680271E+03  0.00000000000E+00 0. -1.
         13    1    4    4    0    0  0.12610975852E+02 -0.29860836704E+02 -0.16361933777E+03  0.16679926250E+03  0.00000000000E+00 0.  1.
         21    1    1    2  502  501 -0.28005201267E+02 -0.17314960397E+02  0.16714619378E+02  0.36925298272E+02  0.00000000000E+00 0.  1.
<scales pt_clust_5="13000.00000" pt_clust_6="13000.00000" pt_clust_7="13000.00000" pt_clust_8="13000.00000" pt_clust_9="32.92566"></scales>
<clustering>
<clus scale="   32.926">  1  9  2 -1</clus>
<clus scale="   82.215">  5  6 -1 -1</clus>
<clus scale="   90.439">  7  8 -1 -1</clus>
<clus scale="   91.321">  1  5  2 -1</clus>
<clus scale="   98.789">  2  5  1 -1</clus>
</clustering>
</event>
<event>
 9    1  0.2802611E-005  0.2548345E+03  0.7546771E-02  0.1131361E+00
          1   -1    0    0  502    0  0.00000000000E+00  0.00000000000E+00  0.54513412800E+03  0.54513412800E+03  0.00000000000E+00 0. -1.
         -2   -1    0    0    0  501 -0.00000000000E+00 -0.00000000000E+00 -0.53802882136E+03  0.53802882136E+03  0.00000000000E+00 0.  1.
         23    2    1    2    0    0 -0.57222948764E+02 -0.11171801900E+03  0.27999222124E+03  0.32798381695E+03  0.11585490318E+03 0.  0.
        -24    2    1    2    0    0  0.29091784468E+02 -0.12393607236E+03  0.18555548745E+03  0.23894890356E+03  0.80369506877E+02 0.  0.
         13    1    4    4    0    0 -0.25028350645E+02 -0.61595974063E+02  0.99757918679E+02  0.11988379664E+03  0.00000000000E+00 0. -1.
        -14    1    4    4    0    0  0.54120135113E+02 -0.62340098298E+02  0.85797568767E+02  0.11906510692E+03  0.00000000000E+00 0.  1.
        -13    1    3    3    0    0 -0.78651704773E+02 -0.88590648234E+02  0.27010258654E+03  0.29494033443E+03  0.00000000000E+00 0.  1.
         13    1    3    3    0    0  0.21428756010E+02 -0.23127370763E+02  0.98896347051E+01  0.33043482521E+02  0.00000000000E+00 0. -1.
         21    1    1    2  502  501  0.28131164295E+02  0.23565409136E+03 -0.45844240205E+03  0.51623022885E+03  0.00000000000E+00 0.  1.
<scales pt_clust_5="13000.00000" pt_clust_6="13000.00000" pt_clust_7="13000.00000" pt_clust_8="13000.00000" pt_clust_9="226.97634"></scales>
<clustering>
<clus scale="   80.370">  5  6 -1 -1</clus>
<clus scale="  115.855">  7  8 -1 -1</clus>
<clus scale="  150.551">  1  5  2 -1</clus>
<clus scale="  226.976">  2  9  1 -1</clus>
<clus scale="  150.551">  1  5  2 -1</clus>
</clustering>
</event>
<event>
 9    1  0.2802611E-005  0.1331885E+03  0.7546771E-02  0.1231951E+00
          1   -1    0    0  502    0  0.00000000000E+00  0.00000000000E+00  0.25001350527E+03  0.25001350527E+03  0.00000000000E+00 0. -1.
         -2   -1    0    0    0  501 -0.00000000000E+00 -0.00000000000E+00 -0.17827861533E+03  0.17827861533E+03  0.00000000000E+00 0.  1.
        -24    2    1    2    0    0  0.57964479079E+02  0.28861723651E+02  0.39071614966E+02  0.10964361422E+03  0.79386718769E+02 0.  0.
         23    2    1    2    0    0 -0.66609076633E+02 -0.55001869932E+02  0.14618541219E+03  0.20183535664E+03  0.10911169353E+03 0.  0.
         13    1    3    3    0    0  0.10645505251E+02  0.48535823794E+02  0.28620616257E+02  0.57342764569E+02  0.00000000000E+00 0. -1.
        -14    1    3    3    0    0  0.47318973828E+02 -0.19674100143E+02  0.10450998708E+02  0.52300849655E+02  0.00000000000E+00 0.  1.
        -11    1    4    4    0    0 -0.53146812983E+02  0.19154842909E+02  0.95666483024E+02  0.11110160985E+03  0.00000000000E+00 0. -1.
         11    1    4    4    0    0 -0.13462263650E+02 -0.74156712841E+02  0.50518929170E+02  0.90733746789E+02  0.00000000000E+00 0.  1.
         21    1    1    2  502  501  0.86445975544E+01  0.26140146281E+02 -0.11352213721E+03  0.11681314974E+03  0.00000000000E+00 0.  1.
<scales pt_clust_5="13000.00000" pt_clust_6="13000.00000" pt_clust_7="13000.00000" pt_clust_8="13000.00000" pt_clust_9="27.53246"></scales>
<clustering>
<clus scale="   27.532">  2  9  1 -1</clus>
<clus scale="   79.387">  5  6 -1 -1</clus>
<clus scale="  109.112">  7  8 -1 -1</clus>
<clus scale="  110.164">  2  5  1 -1</clus>
<clus scale="  133.188">  1  5  2 -1</clus>
</clustering>
</event>
<event>
 9    1  0.2802611E-005  0.1333208E+03  0.7546771E-02  0.1225773E+00
          1   -1    0    0  502    0  0.00000000000E+00  0.00000000000E+00  0.15903805457E+03  0.15903805457E+03  0.00000000000E+00 0. -1.
         -2   -1    0    0    0  501 -0.00000000000E+00 -0.00000000000E+00 -0.15803378336E+03  0.15803378336E+03  0.00000000000E+00 0.  1.
         23    2    1    2    0    0 -0.97756147911E+02 -0.32917545384E+02 -0.13222390351E+02  0.13853824083E+03  0.91532416755E+02 0.  0.
        -24    2    1    2    0    0  0.94202413988E+02  0.83224726274E+01  0.51831566424E+02  0.13345948592E+03  0.78622927652E+02 0.  0.
         11    1    4    4    0    0  0.12372806628E+01 -0.21367125066E+02  0.23615866949E+02  0.31871524418E+02  0.00000000000E+00 0. -1.
        -12    1    4    4    0    0  0.92965133326E+02  0.29689597693E+02  0.28215699475E+02  0.10158796150E+03  0.00000000000E+00 0.  1.
        -11    1    3    3    0    0 -0.58894482210E+02 -0.37763890653E+02 -0.49063034685E+02  0.85450879718E+02  0.00000000000E+00 0.  1.
         11    1    3    3    0    0 -0.38861665701E+02  0.48463452689E+01  0.35840644334E+02  0.53087361112E+02  0.00000000000E+00 0. -1.
         21    1    1    2  502  501  0.35537339227E+01  0.24595072756E+02 -0.37604904860E+02  0.45074111175E+02  0.00000000000E+00 0.  1.
<scales pt_clust_5="13000.00000" pt_clust_6="13000.00000" pt_clust_7="13000.00000" pt_clust_8="13000.00000" pt_clust_9="24.85049"></scales>
<clustering>
<clus scale="   24.850">  2  9  1 -1</clus>
<clus scale="   78.623">  5  6 -1 -1</clus>
<clus scale="   91.532">  7  8 -1 -1</clus>
<clus scale="  124.811">  1  5  2 -1</clus>
<clus scale="  124.811">  1  5  2 -1</clus>
</clustering>
</event>
<event>
 9    1  0.2802611E-005  0.9954207E+02  0.7546771E-02  0.1285687E+00
         -2   -1    0    0    0  501 -0.00000000000E+00  0.00000000000E+00  0.96291897657E+02  0.96291897657E+02  0.00000000000E+00 0.  1.
          1   -1    0    0  502    0  0.00000000000E+00 -0.00000000000E+00 -0.38729175207E+03  0.38729175207E+03  0.00000000000E+00 0. -1.
         23    2    1    2    0    0  0.45274407819E+02  0.14020744148E+02  0.18497225715E+02  0.10364154407E+03  0.90294346602E+02 0.  0.
        -24    2    1    2    0    0  0.68731343554E+01 -0.45049788241E+02 -0.30516798055E+03  0.31910701023E+03  0.81394497534E+02 0.  0.
         13    1    4    4    0    0 -0.12267444340E+02 -0.52695740272E+02 -0.10730697471E+03  0.12017536376E+03  0.00000000000E+00 0. -1.
        -14    1    4    4    0    0  0.19140578695E+02  0.76459520312E+01 -0.19786100584E+03  0.19893164647E+03  0.00000000000E+00 0.  1.
        -11    1    3    3    0    0  0.74782312125E+01  0.34576748025E+02  0.41760677445E+02  0.54730518239E+02  0.00000000000E+00 0.  1.
         11    1    3    3    0    0  0.37796176607E+02 -0.20556003877E+02 -0.23263451731E+02  0.48911025832E+02  0.00000000000E+00 0. -1.
         21    1    1    2  502  501 -0.52147542175E+02  0.31029044093E+02 -0.43290995764E+01  0.60835095425E+02  0.00000000000E+00 0.  1.
<scales pt_clust_5="13000.00000" pt_clust_6="13000.00000" pt_clust_7="13000.00000" pt_clust_8="13000.00000" pt_clust_9="60.68087"></scales>
<clustering>
<clus scale="   60.681">  1  9  2 -1</clus>
<clus scale="   81.394">  5  6 -1 -1</clus>
<clus scale="   90.294">  7  8 -1 -1</clus>
<clus scale="   91.546">  2  5  1 -1</clus>
<clus scale="   91.546">  2  5  1 -1</clus>
</clustering>
</event>
<event>
 9    1  0.2802611E-005  0.1138298E+03  0.7546771E-02  0.1258793E+00
         -2   -1    0    0    0  501 -0.00000000000E+00  0.00000000000E+00  0.48247702452E+02  0.48247702452E+02  0.00000000000E+00 0.  1.
          1   -1    0    0  502    0  0.00000000000E+00 -0.00000000000E+00 -0.41830892913E+03  0.41830892913E+03  0.00000000000E+00 0. -1.
        -24    2    1    2    0    0 -0.57955179725E+02  0.51231537572E+02 -0.10149468660E+03  0.15137005536E+03  0.81414058683E+02 0.  0.
         23    2    1    2    0    0  0.50142593217E+02  0.44069536913E+01 -0.19449822053E+03  0.22221994684E+03  0.94965499477E+02 0.  0.
         11    1    3    3    0    0 -0.21364601771E+02 -0.20533424405E+02 -0.15139830495E+02  0.33275850013E+02  0.00000000000E+00 0. -1.
        -12    1    3    3    0    0 -0.36590577955E+02  0.71764961977E+02 -0.86354856105E+02  0.11809420534E+03  0.00000000000E+00 0.  1.
        -11    1    4    4    0    0  0.78538825611E+02  0.28155092380E+01 -0.13344147504E+03  0.15486413878E+03  0.00000000000E+00 0.  1.
         11    1    4    4    0    0 -0.28396232394E+02  0.15914444534E+01 -0.61056745490E+02  0.67355808060E+02  0.00000000000E+00 0. -1.
         21    1    1    2  502  501  0.78125865082E+01 -0.55638491263E+02 -0.74068319548E+02  0.92966629382E+02  0.00000000000E+00 0. -1.
<scales pt_clust_5="13000.00000" pt_clust_6="13000.00000" pt_clust_7="13000.00000" pt_clust_8="13000.00000" pt_clust_9="56.18432"></scales>
<clustering>
<clus scale="   56.184">  2  9  1 -1</clus>
<clus scale="   81.414">  5  6 -1 -1</clus>
<clus scale="   94.965">  7  8 -1 -1</clus>
<clus scale="  102.796">  1  5  2 -1</clus>
<clus scale="   56.184">  2  5  1 -1</clus>
</clustering>
</event>
<event>
 9    1  0.2802611E-005  0.1221085E+03  0.7546771E-02  0.1246363E+00
         -2   -1    0    0    0  501 -0.00000000000E+00  0.00000000000E+00  0.22930642534E+03  0.22930642534E+03  0.00000000000E+00 0.  1.
          1   -1    0    0  502    0  0.00000000000E+00 -0.00000000000E+00 -0.14927119012E+03  0.14927119012E+03  0.00000000000E+00 0. -1.
         23    2    1    2    0    0  0.28660473116E+02 -0.84196061088E+02  0.87395561507E+02  0.16075950995E+03  0.10146544460E+03 0.  0.
        -24    2    1    2    0    0  0.56718108677E+02  0.48928555660E+02 -0.42406825153E+02  0.11901751719E+03  0.82194179640E+02 0.  0.
         13    1    4    4    0    0  0.69358823290E+02  0.52680377757E+02 -0.53129177651E+02  0.10202243913E+03  0.00000000000E+00 0. -1.
        -14    1    4    4    0    0 -0.12640714612E+02 -0.37518220963E+01  0.10722352498E+02  0.16995078053E+02  0.00000000000E+00 0.  1.
        -11    1    3    3    0    0 -0.20703377079E+02  0.11944210696E+02  0.30107641780E+02  0.38441697221E+02  0.00000000000E+00 0. -1.
         11    1    3    3    0    0  0.49363850196E+02 -0.96140271784E+02  0.57287919726E+02  0.12231781273E+03  0.00000000000E+00 0.  1.
         21    1    1    2  502  501 -0.85378581794E+02  0.35267505427E+02  0.35046498868E+02  0.98800588313E+02  0.00000000000E+00 0. -1.
<scales pt_clust_5="13000.00000" pt_clust_6="13000.00000" pt_clust_7="13000.00000" pt_clust_8="13000.00000" pt_clust_9="92.37586"></scales>
<clustering>
<clus scale="   82.194">  5  6 -1 -1</clus>
<clus scale="   92.376">  1  9  2 -1</clus>
<clus scale="  101.465">  7  8 -1 -1</clus>
<clus scale="  106.636">  2  5  1 -1</clus>
<clus scale="  106.636">  2  5  1 -1</clus>
</clustering>
</event>
<event>
 9    1  0.2802611E-005  0.1199359E+03  0.7546771E-02  0.1247185E+00
          1   -1    0    0  502    0  0.00000000000E+00  0.00000000000E+00  0.21522593739E+03  0.21522593739E+03  0.00000000000E+00 0. -1.
         -2   -1    0    0    0  501 -0.00000000000E+00 -0.00000000000E+00 -0.93521091443E+02  0.93521091443E+02  0.00000000000E+00 0.  1.
        -24    2    1    2    0    0  0.39265078345E+01 -0.58949820877E+02  0.22931730194E+01  0.97555738343E+02  0.77597452251E+02 0.  0.
         23    2    1    2    0    0 -0.34808890334E+00  0.90114472868E+02  0.12581769972E+03  0.17917445437E+03  0.90292038132E+02 0.  0.
         13    1    3    3    0    0 -0.19201254356E+02 -0.54330337503E+02  0.26793732935E+02  0.63548232601E+02  0.00000000000E+00 0. -1.
        -14    1    3    3    0    0  0.23127762191E+02 -0.46194833733E+01 -0.24500559916E+02  0.34007505742E+02  0.00000000000E+00 0.  1.
        -13    1    4    4    0    0  0.39463991709E+02  0.64612569369E+02  0.53244068053E+02  0.92558746452E+02  0.00000000000E+00 0.  1.
         13    1    4    4    0    0 -0.39812080613E+02  0.25501903499E+02  0.72573631665E+02  0.86615707917E+02  0.00000000000E+00 0. -1.
         21    1    1    2  502  501 -0.35784189311E+01 -0.31164651991E+02 -0.64060267925E+01  0.32016836119E+02  0.00000000000E+00 0. -1.
<scales pt_clust_5="13000.00000" pt_clust_6="13000.00000" pt_clust_7="13000.00000" pt_clust_8="13000.00000" pt_clust_9="31.36942"></scales>
<clustering>
<clus scale="   31.369">  2  9  1 -1</clus>
<clus scale="   77.597">  5  6 -1 -1</clus>
<clus scale="   90.292">  7  8 -1 -1</clus>
<clus scale="  110.695">  2  5  1 -1</clus>
<clus scale="  119.936">  1  5  2 -1</clus>
</clustering>
</event>
<event>
 9    1  0.2802611E-005  0.9684905E+02  0.7546771E-02  0.1298500E+00
          1   -1    0    0  502    0  0.00000000000E+00  0.00000000000E+00  0.24467076863E+03  0.24467076863E+03  0.00000000000E+00 0. -1.
         -2   -1    0    0    0  501 -0.00000000000E+00 -0.00000000000E+00 -0.12588679589E+03  0.12588679589E+03  0.00000000000E+00 0.  1.
        -24    2    1    2    0    0  0.31059900973E+02 -0.10324949985E+02 -0.84106664558E+02  0.11627830306E+03  0.73317055996E+02 0.  0.
         23    2    1    2    0    0  0.20239323849E+02 -0.13915917842E+02  0.13669220361E+03  0.16709289346E+03  0.92908522313E+02 0.  0.
         11    1    3    3    0    0  0.33259323258E+02 -0.26137055807E+02 -0.14273675430E+02  0.44643768660E+02  0.00000000000E+00 0. -1.
        -12    1    3    3    0    0 -0.21994222848E+01  0.15812105822E+02 -0.69832989128E+02  0.71634534405E+02  0.00000000000E+00 0.  1.
        -13    1    4    4    0    0 -0.83208266356E+01 -0.46348593384E+02  0.99486475557E+02  0.11006810202E+03  0.00000000000E+00 0.  1.
         13    1    4    4    0    0  0.28560150484E+02  0.32432675542E+02  0.37205728052E+02  0.57024791436E+02  0.00000000000E+00 0. -1.
         21    1    1    2  502  501 -0.51299224822E+02  0.24240867827E+02  0.66198433695E+02  0.87186367994E+02  0.00000000000E+00 0. -1.
<scales pt_clust_5="13000.00000" pt_clust_6="13000.00000" pt_clust_7="13000.00000" pt_clust_8="13000.00000" pt_clust_9="56.73826"></scales>
<clustering>
<clus scale="   56.738">  1  9  2 -1</clus>
<clus scale="   73.317">  5  6 -1 -1</clus>
<clus scale="   78.250">  2  5  1 -1</clus>
<clus scale="   92.909">  7  8 -1 -1</clus>
<clus scale="   56.738">  1  5  2 -1</clus>
</clustering>
</event>
<event>
 9    1  0.2802611E-005  0.1120849E+03  0.7546771E-02  0.1259881E+00
         -4   -1    0    0    0  501 -0.00000000000E+00  0.00000000000E+00  0.22589681271E+03  0.22589681271E+03  0.00000000000E+00 0.  1.
          3   -1    0    0  502    0  0.00000000000E+00 -0.00000000000E+00 -0.95559906271E+02  0.95559906271E+02  0.00000000000E+00 0. -1.
         23    2    1    2    0    0  0.43120696527E+02 -0.10892501317E+02  0.82742374893E+02  0.13287304958E+03  0.93972898471E+02 0.  0.
        -24    2    1    2    0    0 -0.66713191943E+02  0.12351099514E+02 -0.24975893606E+02  0.11226067185E+03  0.85880519005E+02 0.  0.
         13    1    4    4    0    0 -0.83129013570E+02  0.18724677138E+02 -0.34860048744E+02  0.92066657534E+02  0.00000000000E+00 0. -1.
        -14    1    4    4    0    0  0.16415821627E+02 -0.63735776247E+01  0.98841551372E+01  0.20194014317E+02  0.00000000000E+00 0.  1.
        -11    1    3    3    0    0 -0.23283828893E+02  0.17250238560E+02  0.10580273013E+02  0.30848818378E+02  0.00000000000E+00 0. -1.
         11    1    3    3    0    0  0.66404525420E+02 -0.28142739877E+02  0.72162101880E+02  0.10202423120E+03  0.00000000000E+00 0.  1.
         21    1    1    2  502  501  0.23592495415E+02 -0.14585981967E+01  0.72570425149E+02  0.76322997550E+02  0.00000000000E+00 0.  1.
<scales pt_clust_5="13000.00000" pt_clust_6="13000.00000" pt_clust_7="13000.00000" pt_clust_8="13000.00000" pt_clust_9="23.63754"></scales>
<clustering>
<clus scale="   23.638">  1  9  2 -1</clus>
<clus scale="   85.881">  5  6 -1 -1</clus>
<clus scale="   93.973">  7  8 -1 -1</clus>
<clus scale="  105.392">  2  5  1 -1</clus>
<clus scale="  105.392">  2  5  1 -1</clus>
</clustering>
</event>
<event>
 9    1  0.2802611E-005  0.9292252E+02  0.7546771E-02  0.1309254E+00
         -2   -1    0    0    0  501 -0.00000000000E+00  0.00000000000E+00  0.19646126907E+02  0.19646126907E+02  0.00000000000E+00 0.  1.
          1   -1    0    0  502    0  0.00000000000E+00 -0.00000000000E+00 -0.59976000314E+03  0.59976000314E+03  0.00000000000E+00 0. -1.
        -24    2    1    2    0    0  0.26079449130E+02  0.12869064070E+02 -0.15111032412E+03  0.16839069490E+03  0.68376498860E+02 0.  0.
         23    2    1    2    0    0 -0.24027337876E+02  0.10117334789E+02 -0.41180821669E+03  0.42223583728E+03  0.89540055411E+02 0.  0.
         11    1    3    3    0    0  0.32432125699E+02  0.24775143222E+02 -0.14929667767E+03  0.15477450844E+03  0.00000000000E+00 0. -1.
        -12    1    3    3    0    0 -0.63526765689E+01 -0.11906079151E+02 -0.18136464504E+01  0.13616186463E+02  0.00000000000E+00 0.  1.
        -13    1    4    4    0    0 -0.39155806073E+02 -0.30477223629E+02 -0.23712251137E+03  0.24225838212E+03  0.00000000000E+00 0.  1.
         13    1    4    4    0    0  0.15128468196E+02  0.40594558418E+02 -0.17468570532E+03  0.17997745516E+03  0.00000000000E+00 0. -1.
         21    1    1    2  502  501 -0.20521112541E+01 -0.22986398860E+02 -0.17195335433E+02  0.28779597874E+02  0.00000000000E+00 0.  1.
<scales pt_clust_5="13000.00000" pt_clust_6="13000.00000" pt_clust_7="13000.00000" pt_clust_8="13000.00000" pt_clust_9="23.07782"></scales>
<clustering>
<clus scale="   23.078">  1  9  2 -1</clus>
<clus scale="   68.376">  5  6 -1 -1</clus>
<clus scale="   72.750">  1  5  2 -1</clus>
<clus scale="   89.540">  7  8 -1 -1</clus>
<clus scale="   92.923">  2  5  1 -1</clus>
</clustering>
</event>
<event>
 9    1  0.2802611E-005  0.1034626E+03  0.7546771E-02  0.1277798E+00
         -2   -1    0    0    0  501 -0.00000000000E+00  0.00000000000E+00  0.76770979759E+03  0.76770979759E+03  0.00000000000E+00 0.  1.
          1   -1    0    0  502    0  0.00000000000E+00 -0.00000000000E+00 -0.11305101254E+03  0.11305101254E+03  0.00000000000E+00 0. -1.
        -24    2    1    2    0    0 -0.17825810955E+01  0.38937887534E+02  0.49225825298E+03  0.50040099489E+03  0.81016241449E+02 0.  0.
         23    2    1    2    0    0 -0.40678822134E+02 -0.29758293516E+02 -0.81747043899E+02  0.13237740748E+03  0.91109144557E+02 0.  0.
         11    1    3    3    0    0  0.12368697244E+02  0.27747207125E+02  0.55500893763E+02  0.63271173398E+02  0.00000000000E+00 0. -1.
        -12    1    3    3    0    0 -0.14151278339E+02  0.11190680410E+02  0.43675735922E+03  0.43712982149E+03  0.00000000000E+00 0.  1.
        -11    1    4    4    0    0  0.20157439256E+02 -0.36534002478E+02 -0.23538778320E+02  0.47907512764E+02  0.00000000000E+00 0.  1.
         11    1    4    4    0    0 -0.60836261390E+02  0.67757089621E+01 -0.58208265578E+02  0.84469894717E+02  0.00000000000E+00 0. -1.
         21    1    1    2  502  501  0.42461403230E+02 -0.91795940186E+01  0.24414757596E+03  0.24798240776E+03  0.00000000000E+00 0.  1.
<scales pt_clust_5="13000.00000" pt_clust_6="13000.00000" pt_clust_7="13000.00000" pt_clust_8="13000.00000" pt_clust_9="43.44233"></scales>
<clustering>
<clus scale="   43.442">  1  9  2 -1</clus>
<clus scale="   81.016">  5  6 -1 -1</clus>
<clus scale="   91.109">  7  8 -1 -1</clus>
<clus scale="   94.696">  1  5  2 -1</clus>
<clus scale="  103.463">  2  5  1 -1</clus>
</clustering>
</event>
<event>
 9    1  0.2802611E-005  0.4440867E+03  0.7546771E-02  0.1029673E+00
          1   -1    0    0  502    0  0.00000000000E+00  0.00000000000E+00  0.32942243874E+04  0.32942243874E+04  0.00000000000E+00 0. -1.
         -2   -1    0    0    0  501 -0.00000000000E+00 -0.00000000000E+00 -0.84334708923E+02  0.84334708923E+02  0.00000000000E+00 0.  1.
        -24    2    1    2    0    0 -0.89008328721E+02  0.43454758141E+03  0.15821389246E+04  0.16463041844E+04  0.10197944727E+03 0.  0.
         23    2    1    2    0    0  0.74882011119E+02 -0.41571713477E+03  0.16464221391E+04  0.17022089605E+04  0.91550168758E+02 0.  0.
         11    1    3    3    0    0 -0.14252701346E+02  0.29169418916E+03  0.10888579501E+04  0.11273421286E+04  0.00000000000E+00 0. -1.
        -12    1    3    3    0    0 -0.74755627375E+02  0.14285339225E+03  0.49328097457E+03  0.51896205581E+03  0.00000000000E+00 0.  1.
        -11    1    4    4    0    0  0.13858363570E+02 -0.25534166819E+03  0.85621669004E+03  0.89358740035E+03  0.00000000000E+00 0. -1.
         11    1    4    4    0    0  0.61023647549E+02 -0.16037546658E+03  0.79020544905E+03  0.80862156016E+03  0.00000000000E+00 0.  1.
         21    1    1    2  502  501  0.14126317603E+02 -0.18830446633E+02 -0.18671385245E+02  0.30045951414E+02  0.00000000000E+00 0.  1.
<scales pt_clust_5="13000.00000" pt_clust_6="13000.00000" pt_clust_7="13000.00000" pt_clust_8="13000.00000" pt_clust_9="23.54015"></scales>
<clustering>
<clus scale="   23.540">  2  9  1 -1</clus>
<clus scale="   91.550">  7  8 -1 -1</clus>
<clus scale="  101.979">  5  6 -1 -1</clus>
<clus scale="  441.808">  1  7  2 -1</clus>
<clus scale="  441.808">  1  5  2 -1</clus>
</clustering>
</event>
<event>
 9    1  0.2802611E-005  0.9838975E+02  0.7546771E-02  0.1290827E+00
         -2   -1    0    0    0  501 -0.00000000000E+00  0.00000000000E+00  0.13191051731E+03  0.13191051731E+03  0.00000000000E+00 0.  1.
          1   -1    0    0  502    0  0.00000000000E+00 -0.00000000000E+00 -0.41599716490E+03  0.41599716490E+03  0.00000000000E+00 0. -1.
        -24    2    1    2    0    0  0.66701891680E+01 -0.40997325481E+01  0.89998999699E+02  0.12142545869E+03  0.81135829575E+02 0.  0.
         23    2    1    2    0    0 -0.23051236282E+01  0.30074228211E+02 -0.38536336491E+03  0.39783060687E+03  0.94098331284E+02 0.  0.
         11    1    3    3    0    0  0.21697309399E+02  0.28353925993E+02  0.74168612066E+02  0.82314648576E+02  0.00000000000E+00 0. -1.
        -12    1    3    3    0    0 -0.15027120231E+02 -0.32453658542E+02  0.15830387632E+02  0.39110810114E+02  0.00000000000E+00 0.  1.
        -11    1    4    4    0    0 -0.44463982492E+02 -0.36672931703E+01 -0.16180843835E+03  0.16784655343E+03  0.00000000000E+00 0. -1.
         11    1    4    4    0    0  0.42158858864E+02  0.33741521381E+02 -0.22355492656E+03  0.22998405344E+03  0.00000000000E+00 0.  1.
         21    1    1    2  502  501 -0.43650655398E+01 -0.25974495663E+02  0.11277717618E+02  0.28651616652E+02  0.00000000000E+00 0.  1.
<scales pt_clust_5="13000.00000" pt_clust_6="13000.00000" pt_clust_7="13000.00000" pt_clust_8="13000.00000" pt_clust_9="26.33872"></scales>
<clustering>
<clus scale="   26.339">  1  9  2 -1</clus>
<clus scale="   81.136">  5  6 -1 -1</clus>
<clus scale="   86.076">  1  5  2 -1</clus>
<clus scale="   94.098">  7  8 -1 -1</clus>
<clus scale="   98.390">  2  5  1 -1</clus>
</clustering>
</event>
<event>
 9    1  0.2802611E-005  0.9389439E+02  0.7546771E-02  0.1302326E+00
          1   -1    0    0  502    0  0.00000000000E+00  0.00000000000E+00  0.10324825727E+03  0.10324825727E+03  0.00000000000E+00 0. -1.
         -2   -1    0    0    0  501 -0.00000000000E+00 -0.00000000000E+00 -0.27634537842E+03  0.27634537842E+03  0.00000000000E+00 0.  1.
         23    2    1    2    0    0 -0.18700918633E+02 -0.37925846384E+02 -0.12286027010E+03  0.15994182151E+03  0.93266532675E+02 0.  0.
        -24    2    1    2    0    0  0.67429603026E+01  0.28805818380E+01  0.62348216822E+02  0.10113362637E+03  0.79290257767E+02 0.  0.
         11    1    4    4    0    0  0.19135006496E+02 -0.31069197029E+02  0.52028426218E+02  0.63548411564E+02  0.00000000000E+00 0. -1.
        -12    1    4    4    0    0 -0.12392046193E+02  0.33949778867E+02  0.10319790604E+02  0.37585214807E+02  0.00000000000E+00 0.  1.
        -13    1    3    3    0    0 -0.44397350397E+02 -0.80493555313E+01 -0.19186092181E+02  0.49030837031E+02  0.00000000000E+00 0.  1.
         13    1    3    3    0    0  0.25696431764E+02 -0.29876490853E+02 -0.10367417791E+03  0.11091098448E+03  0.00000000000E+00 0. -1.
         21    1    1    2  502  501  0.11957958330E+02  0.35045264547E+02 -0.11258506787E+03  0.11851818781E+03  0.00000000000E+00 0.  1.
<scales pt_clust_5="13000.00000" pt_clust_6="13000.00000" pt_clust_7="13000.00000" pt_clust_8="13000.00000" pt_clust_9="37.02922"></scales>
<clustering>
<clus scale="   37.029">  2  9  1 -1</clus>
<clus scale="   79.290">  5  6 -1 -1</clus>
<clus scale="   80.028">  1  5  2 -1</clus>
<clus scale="   93.267">  7  8 -1 -1</clus>
<clus scale="   80.028">  1  5  2 -1</clus>
</clustering>
</event>
<event>
 9    1  0.2802611E-005  0.1036122E+03  0.7546771E-02  0.1276807E+00
         -2   -1    0    0    0  501 -0.00000000000E+00  0.00000000000E+00  0.91872148893E+02  0.91872148893E+02  0.00000000000E+00 0.  1.
          1   -1    0    0  502    0  0.00000000000E+00 -0.00000000000E+00 -0.27493552417E+03  0.27493552417E+03  0.00000000000E+00 0. -1.
        -24    2    1    2    0    0  0.93684464760E+01 -0.81664395333E+02 -0.11308122174E+03  0.16191750703E+03  0.81688892252E+02 0.  0.
         23    2    1    2    0    0  0.32055976524E+02  0.19045261009E+02 -0.83501212796E+02  0.12860187225E+03  0.90419474730E+02 0.  0.
         11    1    3    3    0    0 -0.13423017196E+02 -0.90130137174E+02 -0.94836867614E+02  0.13152053253E+03  0.00000000000E+00 0. -1.
        -12    1    3    3    0    0  0.22791463672E+02  0.84657418409E+01 -0.18244354125E+02  0.30396974499E+02  0.00000000000E+00 0.  1.
        -11    1    4    4    0    0  0.33581295682E+02 -0.21111835406E+02 -0.44403897507E+01  0.39914033561E+02  0.00000000000E+00 0.  1.
         11    1    4    4    0    0 -0.15253191585E+01  0.40157096415E+02 -0.79060823046E+02  0.88687838691E+02  0.00000000000E+00 0. -1.
         21    1    1    2  502  501 -0.41424423000E+02  0.62619134324E+02  0.13519059264E+02  0.76288293779E+02  0.00000000000E+00 0. -1.
<scales pt_clust_5="13000.00000" pt_clust_6="13000.00000" pt_clust_7="13000.00000" pt_clust_8="13000.00000" pt_clust_9="75.08088"></scales>
<clustering>
<clus scale="   75.081">  1  9  2 -1</clus>
<clus scale="   81.689">  5  6 -1 -1</clus>
<clus scale="   90.419">  7  8 -1 -1</clus>
<clus scale="   96.088">  1  5  2 -1</clus>
<clus scale="  103.612">  2  5  1 -1</clus>
</clustering>
</event>
<event>
 9    1  0.2802611E-005  0.1156182E+03  0.7546771E-02  0.1258064E+00
         -2   -1    0    0    0  501 -0.00000000000E+00  0.00000000000E+00  0.12473423178E+03  0.12473423178E+03  0.00000000000E+00 0.  1.
          1   -1    0    0  502    0  0.00000000000E+00 -0.00000000000E+00 -0.46496800424E+03  0.46496800424E+03  0.00000000000E+00 0. -1.
        -24    2    1    2    0    0 -0.38420257306E+02 -0.43713713755E+02 -0.28878486397E+02  0.10362388869E+03  0.80727556570E+02 0.  0.
         23    2    1    2    0    0 -0.34156227301E+02 -0.26321241966E+02 -0.35760091838E+03  0.37512385373E+03  0.10478565344E+03 0.  0.
         13    1    3    3    0    0 -0.39773607508E+02 -0.65778571406E+02 -0.26857667989E+02  0.81425393093E+02  0.00000000000E+00 0. -1.
        -14    1    3    3    0    0  0.13533502023E+01  0.22064857651E+02 -0.20208184076E+01  0.22198495602E+02  0.00000000000E+00 0.  1.
        -13    1    4    4    0    0 -0.38889547994E+00  0.38790467545E+02 -0.99212305219E+02  0.10652667797E+03  0.00000000000E+00 0.  1.
         13    1    4    4    0    0 -0.33767331821E+02 -0.65111709511E+02 -0.25838861316E+03  0.26859717576E+03  0.00000000000E+00 0. -1.
         21    1    1    2  502  501  0.72576484607E+02  0.70034955721E+02  0.46245632323E+02  0.11095449360E+03  0.00000000000E+00 0.  1.
<scales pt_clust_5="13000.00000" pt_clust_6="13000.00000" pt_clust_7="13000.00000" pt_clust_8="13000.00000" pt_clust_9="48.86233"></scales>
<clustering>
<clus scale="   80.728">  5  6 -1 -1</clus>
<clus scale="   99.519">  1  5  2 -1</clus>
<clus scale="   48.862">  1  9  2 -1</clus>
<clus scale="  104.786">  7  8 -1 -1</clus>
<clus scale="  115.618">  2  5  1 -1</clus>
</clustering>
</event>
<event>
 9    1  0.2802611E-005  0.1009314E+03  0.7546771E-02  0.1282287E+00
         -2   -1    0    0    0  501 -0.00000000000E+00  0.00000000000E+00  0.35909063998E+03  0.35909063998E+03  0.00000000000E+00 0.  1.
          1   -1    0    0  502    0  0.00000000000E+00 -0.00000000000E+00 -0.84555636307E+02  0.84555636307E+02  0.00000000000E+00 0. -1.
        -24    2    1    2    0    0  0.72328927179E+02 -0.19476079093E+02  0.15640911343E+03  0.19186192701E+03  0.82075556095E+02 0.  0.
         23    2    1    2    0    0 -0.34898241784E+02  0.17165955095E+02 -0.26947438375E+02  0.10194222049E+03  0.90296703096E+02 0.  0.
         13    1    3    3    0    0  0.95689629972E+01 -0.38782808247E+02  0.31980156698E+02  0.51170320409E+02  0.00000000000E+00 0. -1.
        -14    1    3    3    0    0  0.62759964182E+02  0.19306729154E+02  0.12442895673E+03  0.14069160660E+03  0.00000000000E+00 0.  1.
        -11    1    4    4    0    0  0.30443670285E+02  0.11711093969E+02 -0.11417150943E+02  0.34558907941E+02  0.00000000000E+00 0.  1.
         11    1    4    4    0    0 -0.65341912069E+02  0.54548611263E+01 -0.15530287432E+02  0.67383312552E+02  0.00000000000E+00 0. -1.
         21    1    1    2  502  501 -0.37430685395E+02  0.23101239978E+01  0.14507332862E+03  0.14984212879E+03  0.00000000000E+00 0.  1.
<scales pt_clust_5="13000.00000" pt_clust_6="13000.00000" pt_clust_7="13000.00000" pt_clust_8="13000.00000" pt_clust_9="37.50191"></scales>
<clustering>
<clus scale="   37.502">  1  9  2 -1</clus>
<clus scale="   82.076">  5  6 -1 -1</clus>
<clus scale="   90.297">  7  8 -1 -1</clus>
<clus scale="   93.649">  1  5  2 -1</clus>
<clus scale="  100.931">  2  5  1 -1</clus>
</clustering>
</event>
<event>
 9    1  0.2802611E-005  0.1960210E+03  0.7546771E-02  0.1154160E+00
          1   -1    0    0  502    0  0.00000000000E+00  0.00000000000E+00  0.13297291310E+03  0.13297291310E+03  0.00000000000E+00 0. -1.
         -2   -1    0    0    0  501 -0.00000000000E+00 -0.00000000000E+00 -0.50731785207E+03  0.50731785207E+03  0.00000000000E+00 0.  1.
        -24    2    1    2    0    0 -0.14771797320E+03  0.15434307206E+02 -0.26636662586E+03  0.31539906733E+03  0.80415016380E+02 0.  0.
         23    2    1    2    0    0  0.17827661949E+03 -0.38606576915E+02  0.67451324057E+01  0.20392784415E+03  0.90928807151E+02 0.  0.
         11    1    3    3    0    0 -0.14289502427E+03  0.35852328116E+02 -0.24120943574E+03  0.28264176847E+03  0.00000000000E+00 0. -1.
        -12    1    3    3    0    0 -0.48229489239E+01 -0.20418020911E+02 -0.25157190119E+02  0.32757298865E+02  0.00000000000E+00 0.  1.
        -13    1    4    4    0    0  0.13755008756E+03 -0.45931169118E+02  0.40456906975E+02  0.15055384487E+03  0.00000000000E+00 0. -1.
         13    1    4    4    0    0  0.40726531934E+02  0.73245922036E+01 -0.33711774569E+02  0.53373999278E+02  0.00000000000E+00 0.  1.
         21    1    1    2  502  501 -0.30558646295E+02  0.23172269709E+02 -0.11472344552E+03  0.12096385368E+03  0.00000000000E+00 0.  1.
<scales pt_clust_5="13000.00000" pt_clust_6="13000.00000" pt_clust_7="13000.00000" pt_clust_8="13000.00000" pt_clust_9="38.35081"></scales>
<clustering>
<clus scale="   38.351">  2  9  1 -1</clus>
<clus scale="   80.415">  5  6 -1 -1</clus>
<clus scale="   90.929">  7  8 -1 -1</clus>
<clus scale="  191.371">  2  5  1 -1</clus>
<clus scale="  196.021">  1  5  2 -1</clus>
</clustering>
</event>
<event>
 9    1  0.4623126E-005  0.1795333E+03  0.7546771E-02  0.1168557E+00
          1   -1    0    0  502    0  0.00000000000E+00  0.00000000000E+00  0.28807431203E+03  0.28807431203E+03  0.00000000000E+00 0. -1.
         -2   -1    0    0    0  501 -0.00000000000E+00 -0.00000000000E+00 -0.73777311140E+03  0.73777311140E+03  0.00000000000E+00 0.  1.
        -24    2    1    2    0    0 -0.93800205811E+02  0.10359052958E+03 -0.67377831989E+03  0.69377084388E+03  0.88381463119E+02 0.  0.
         23    2    1    2    0    0  0.11793302427E+03 -0.10143578099E+03  0.24218154446E+03  0.30183225548E+03  0.90848192536E+02 0.  0.
         13    1    3    3    0    0 -0.20356487811E+00  0.63463262233E+02 -0.25035042450E+03  0.25826916607E+03  0.00000000000E+00 0. -1.
        -14    1    3    3    0    0 -0.93596640933E+02  0.40127267347E+02 -0.42342789539E+03  0.43550167781E+03  0.00000000000E+00 0.  1.
        -13    1    4    4    0    0  0.20640471986E+02  0.15436164899E+02  0.54413960590E+02  0.60209495743E+02  0.00000000000E+00 0.  1.
         13    1    4    4    0    0  0.97292552288E+02 -0.11687194589E+03  0.18776758387E+03  0.24162275973E+03  0.00000000000E+00 0. -1.
         21    1    1    2  502  501 -0.24132818462E+02 -0.21547485862E+01 -0.18102023937E+02  0.30244324079E+02  0.00000000000E+00 0.  1.
<scales pt_clust_5="13000.00000" pt_clust_6="13000.00000" pt_clust_7="13000.00000" pt_clust_8="13000.00000" pt_clust_9="24.22882"></scales>
<clustering>
<clus scale="   24.229">  2  9  1 -1</clus>
<clus scale="   88.381">  5  6 -1 -1</clus>
<clus scale="   90.848">  7  8 -1 -1</clus>
<clus scale="  178.298">  2  5  1 -1</clus>
<clus scale="  179.533">  1  5  2 -1</clus>
</clustering>
</event>
<event>
 9    1  0.2802611E-005  0.1776583E+03  0.7546771E-02  0.1171723E+00
         -2   -1    0    0    0  501 -0.00000000000E+00  0.00000000000E+00  0.18496897168E+03  0.18496897168E+03  0.00000000000E+00 0.  1.
          1   -1    0    0  502    0  0.00000000000E+00 -0.00000000000E+00 -0.29752528654E+03  0.29752528654E+03  0.00000000000E+00 0. -1.
        -24    2    1    2    0    0 -0.58007604150E+02 -0.11675591916E+03 -0.35997258016E+02  0.15778575393E+03  0.81263243603E+02 0.  0.
         23    2    1    2    0    0  0.90097930014E+02  0.14012064108E+03 -0.14870781192E+03  0.24236081395E+03  0.94198300220E+02 0.  0.
         11    1    3    3    0    0  0.28702363388E+01 -0.61319186232E+02 -0.43307113352E+02  0.75125141755E+02  0.00000000000E+00 0. -1.
        -12    1    3    3    0    0 -0.60877840489E+02 -0.55436732924E+02  0.73098553366E+01  0.82660612174E+02  0.00000000000E+00 0.  1.
        -11    1    4    4    0    0  0.28542525360E+02  0.10000099247E+03 -0.40581207116E+02  0.11163202327E+03  0.00000000000E+00 0.  1.
         11    1    4    4    0    0  0.61555404654E+02  0.40119648614E+02 -0.10812660481E+03  0.13072879069E+03  0.00000000000E+00 0. -1.
         21    1    1    2  502  501 -0.32090325864E+02 -0.23364721924E+02  0.72148755077E+02  0.82347690337E+02  0.00000000000E+00 0.  1.
<scales pt_clust_5="13000.00000" pt_clust_6="13000.00000" pt_clust_7="13000.00000" pt_clust_8="13000.00000" pt_clust_9="39.69508"></scales>
<clustering>
<clus scale="   39.695">  1  9  2 -1</clus>
<clus scale="   81.263">  5  6 -1 -1</clus>
<clus scale="   94.198">  7  8 -1 -1</clus>
<clus scale="  171.152">  1  5  2 -1</clus>
<clus scale="  177.658">  2  5  1 -1</clus>
</clustering>
</event>
<event>
 9    1  0.2802611E-005  0.1457586E+03  0.7546771E-02  0.1208558E+00
          1   -1    0    0  502    0  0.00000000000E+00  0.00000000000E+00  0.14933421659E+03  0.14933421659E+03  0.00000000000E+00 0. -1.
         -2   -1    0    0    0  501 -0.00000000000E+00 -0.00000000000E+00 -0.25846805928E+03  0.25846805928E+03  0.00000000000E+00 0.  1.
        -24    2    1    2    0    0  0.29383155655E+02 -0.77822392991E+02 -0.99830875175E+02  0.15235372369E+03  0.79534638970E+02 0.  0.
         23    2    1    2    0    0  0.33966089706E+02  0.12976456555E+03  0.27384026231E+02  0.16568747104E+03  0.93326927747E+02 0.  0.
         11    1    3    3    0    0 -0.24006200191E+02 -0.42220815304E+02 -0.58459352162E+02  0.76002570665E+02  0.00000000000E+00 0. -1.
        -12    1    3    3    0    0  0.53389355845E+02 -0.35601577687E+02 -0.41371523013E+02  0.76351153022E+02  0.00000000000E+00 0.  1.
        -11    1    4    4    0    0  0.59642880669E+02  0.51519661447E+02  0.27082330857E+02  0.83336674849E+02  0.00000000000E+00 0. -1.
         11    1    4    4    0    0 -0.25676790963E+02  0.78244904105E+02  0.30169537390E+00  0.82350796188E+02  0.00000000000E+00 0.  1.
         21    1    1    2  502  501 -0.63349245361E+02 -0.51942172562E+02 -0.36686993742E+02  0.89761081144E+02  0.00000000000E+00 0. -1.
<scales pt_clust_5="13000.00000" pt_clust_6="13000.00000" pt_clust_7="13000.00000" pt_clust_8="13000.00000" pt_clust_9="81.92140"></scales>
<clustering>
<clus scale="   79.535">  5  6 -1 -1</clus>
<clus scale="   81.921">  2  9  1 -1</clus>
<clus scale="   93.327">  7  8 -1 -1</clus>
<clus scale="  137.337">  2  5  1 -1</clus>
<clus scale="  145.759">  1  5  2 -1</clus>
</clustering>
</event>
<event>
 9    1  0.2802611E-005  0.3311137E+03  0.7546771E-02  0.1070906E+00
         -2   -1    0    0    0  501 -0.00000000000E+00  0.00000000000E+00  0.31784341216E+03  0.31784341216E+03  0.00000000000E+00 0.  1.
          1   -1    0    0  502    0  0.00000000000E+00 -0.00000000000E+00 -0.18926577332E+04  0.18926577332E+04  0.00000000000E+00 0. -1.
        -24    2    1    2    0    0  0.22267081726E+03 -0.23503102685E+03  0.69281304244E+02  0.34068840291E+03  0.80292043936E+02 0.  0.
         23    2    1    2    0    0 -0.18961638395E+03  0.25601037432E+03 -0.17373974995E+04  0.17686298965E+04  0.89475999111E+02 0.  0.
         13    1    3    3    0    0  0.41267275126E+02 -0.12926402426E+02  0.26567971626E+02  0.50753689446E+02  0.00000000000E+00 0. -1.
        -14    1    3    3    0    0  0.18140354214E+03 -0.22210462442E+03  0.42713332618E+02  0.28993471347E+03  0.00000000000E+00 0.  1.
        -11    1    4    4    0    0 -0.28894471228E+02  0.60354226046E+02 -0.21047767202E+03  0.22085826561E+03  0.00000000000E+00 0.  1.
         11    1    4    4    0    0 -0.16072191272E+03  0.19565614828E+03 -0.15269198275E+04  0.15477716309E+04  0.00000000000E+00 0. -1.
         21    1    1    2  502  501 -0.33054433309E+02 -0.20979347475E+02  0.93301874262E+02  0.10118284599E+03  0.00000000000E+00 0.  1.
<scales pt_clust_5="13000.00000" pt_clust_6="13000.00000" pt_clust_7="13000.00000" pt_clust_8="13000.00000" pt_clust_9="39.15008"></scales>
<clustering>
<clus scale="   39.150">  1  9  2 -1</clus>
<clus scale="   80.292">  5  6 -1 -1</clus>
<clus scale="   89.476">  7  8 -1 -1</clus>
<clus scale="  328.751">  1  5  2 -1</clus>
<clus scale="  331.114">  2  5  1 -1</clus>
</clustering>
</event>
<event>
 9    1  0.2802611E-005  0.1325082E+03  0.7546771E-02  0.1225318E+00
          1   -1    0    0  502    0  0.00000000000E+00  0.00000000000E+00  0.52823424422E+03  0.52823424422E+03  0.00000000000E+00 0. -1.
         -2   -1    0    0    0  501 -0.00000000000E+00 -0.00000000000E+00 -0.45953029189E+02  0.45953029189E+02  0.00000000000E+00 0.  1.
        -24    2    1    2    0    0  0.81896074815E+02 -0.72494852611E+02  0.24661105532E+03  0.28391873250E+03  0.88489340220E+02 0.  0.
         23    2    1    2    0    0 -0.57909632836E+02  0.54041500733E+02  0.22777879972E+03  0.25899316470E+03  0.94447172452E+02 0.  0.
         11    1    3    3    0    0  0.52281949696E+02 -0.14377697715E+02  0.18988590970E+03  0.19747602173E+03  0.00000000000E+00 0. -1.
        -12    1    3    3    0    0  0.29614125119E+02 -0.58117154896E+02  0.56725145625E+02  0.86442710774E+02  0.00000000000E+00 0.  1.
        -11    1    4    4    0    0  0.18722661824E+02  0.16544328594E+02  0.11442648139E+03  0.11712246803E+03  0.00000000000E+00 0. -1.
         11    1    4    4    0    0 -0.76632294660E+02  0.37497172139E+02  0.11335231833E+03  0.14187069667E+03  0.00000000000E+00 0.  1.
         21    1    1    2  502  501 -0.23986441979E+02  0.18453351878E+02  0.78913599895E+01  0.31275376206E+02  0.00000000000E+00 0.  1.
<scales pt_clust_5="13000.00000" pt_clust_6="13000.00000" pt_clust_7="13000.00000" pt_clust_8="13000.00000" pt_clust_9="30.26344"></scales>
<clustering>
<clus scale="   30.263">  2  9  1 -1</clus>
<clus scale="   88.489">  5  6 -1 -1</clus>
<clus scale="   94.447">  7  8 -1 -1</clus>
<clus scale="  128.330">  2  5  1 -1</clus>
<clus scale="  132.508">  1  5  2 -1</clus>
</clustering>
</event>
<event>
 9    1  0.2802611E-005  0.1099714E+03  0.7546771E-02  0.1264328E+00
          1   -1    0    0  502    0  0.00000000000E+00  0.00000000000E+00  0.27510329620E+03  0.27510329620E+03  0.00000000000E+00 0. -1.
         -2   -1    0    0    0  501 -0.00000000000E+00 -0.00000000000E+00 -0.94966473858E+02  0.94966473858E+02  0.00000000000E+00 0.  1.
        -24    2    1    2    0    0 -0.87707970406E+01 -0.49911210905E+02  0.29450504098E+02  0.99152745639E+02  0.79974239111E+02 0.  0.
         23    2    1    2    0    0  0.32481582781E+02  0.62517365612E+02  0.19103072630E+03  0.22245273077E+03  0.89604714239E+02 0.  0.
         13    1    3    3    0    0 -0.25812909619E+02 -0.65271004067E+02  0.29685233608E+02  0.76209076685E+02  0.00000000000E+00 0. -1.
        -14    1    3    3    0    0  0.17042112578E+02  0.15359793162E+02 -0.23472950971E+00  0.22943668954E+02  0.00000000000E+00 0.  1.
        -13    1    4    4    0    0  0.62927831473E+02  0.30953483727E+02  0.11708231832E+03  0.13647820116E+03  0.00000000000E+00 0.  1.
         13    1    4    4    0    0 -0.30446248692E+02  0.31563881885E+02  0.73948407985E+02  0.85974529615E+02  0.00000000000E+00 0. -1.
         21    1    1    2  502  501 -0.23710785741E+02 -0.12606154707E+02 -0.40344408058E+02  0.48464293645E+02  0.00000000000E+00 0. -1.
<scales pt_clust_5="13000.00000" pt_clust_6="13000.00000" pt_clust_7="13000.00000" pt_clust_8="13000.00000" pt_clust_9="26.85361"></scales>
<clustering>
<clus scale="   26.854">  2  9  1 -1</clus>
<clus scale="   79.974">  5  6 -1 -1</clus>
<clus scale="   89.605">  7  8 -1 -1</clus>
<clus scale="  102.277">  2  5  1 -1</clus>
<clus scale="  109.971">  1  5  2 -1</clus>
</clustering>
</event>
<event>
 9    1  0.2802611E-005  0.1448823E+03  0.7546771E-02  0.1209122E+00
          1   -1    0    0  502    0  0.00000000000E+00  0.00000000000E+00  0.92792877612E+02  0.92792877612E+02  0.00000000000E+00 0. -1.
         -2   -1    0    0    0  501 -0.00000000000E+00 -0.00000000000E+00 -0.29273187412E+03  0.29273187412E+03  0.00000000000E+00 0.  1.
        -24    2    1    2    0    0 -0.32552992249E+02 -0.91706310602E+02 -0.99607343437E+02  0.16127751893E+03  0.81357670432E+02 0.  0.
         23    2    1    2    0    0  0.45105277337E+02  0.11402158537E+03 -0.39849203496E+02  0.15856878842E+03  0.92307603517E+02 0.  0.
         13    1    3    3    0    0 -0.36167295004E+02 -0.58743781960E+02 -0.15269016676E+02  0.70654426735E+02  0.00000000000E+00 0. -1.
        -14    1    3    3    0    0  0.36143027551E+01 -0.32962528641E+02 -0.84338326761E+02  0.90623092199E+02  0.00000000000E+00 0.  1.
        -11    1    4    4    0    0 -0.24788365506E+02  0.34989883524E+02 -0.30560666200E+02  0.52656522218E+02  0.00000000000E+00 0. -1.
         11    1    4    4    0    0  0.69893642843E+02  0.79031701850E+02 -0.92885372963E+01  0.10591226620E+03  0.00000000000E+00 0.  1.
         21    1    1    2  502  501 -0.12552285088E+02 -0.22315274773E+02 -0.60482449573E+02  0.65678444375E+02  0.00000000000E+00 0. -1.
<scales pt_clust_5="13000.00000" pt_clust_6="13000.00000" pt_clust_7="13000.00000" pt_clust_8="13000.00000" pt_clust_9="25.60335"></scales>
<clustering>
<clus scale="   25.603">  2  9  1 -1</clus>
<clus scale="   81.358">  5  6 -1 -1</clus>
<clus scale="   92.308">  7  8 -1 -1</clus>
<clus scale="  138.164">  2  5  1 -1</clus>
<clus scale="  144.882">  1  5  2 -1</clus>
</clustering>
</event>
<event>
 9    1  0.2802611E-005  0.2619670E+03  0.7546771E-02  0.1152238E+00
          1   -1    0    0  502    0  0.00000000000E+00  0.00000000000E+00  0.12212563850E+04  0.12212563850E+04  0.00000000000E+00 0. -1.
         -2   -1    0    0    0  501 -0.00000000000E+00 -0.00000000000E+00 -0.17417202341E+03  0.17417202341E+03  0.00000000000E+00 0.  1.
         23    2    1    2    0    0 -0.30802051251E+02  0.25147758757E+03 -0.26093385941E+02  0.26396982920E+03  0.69350288600E+02 0.  0.
        -24    2    1    2    0    0  0.23348974791E+02 -0.40469076989E+01  0.11836055815E+03  0.14507459980E+03  0.80472763684E+02 0.  0.
         13    1    4    4    0    0  0.33174703244E+01 -0.39141448560E+02  0.35766474755E+02  0.53125317139E+02  0.00000000000E+00 0. -1.
        -14    1    4    4    0    0  0.20031504467E+02  0.35094540861E+02  0.82594083399E+02  0.91949282661E+02  0.00000000000E+00 0.  1.
        -11    1    3    3    0    0 -0.52146894324E+02  0.14785174828E+03 -0.12052428820E+02  0.15724089512E+03  0.00000000000E+00 0.  1.
         11    1    3    3    0    0  0.21344843073E+02  0.10362583928E+03 -0.14040957121E+02  0.10672893408E+03  0.00000000000E+00 0. -1.
         21    1    1    2  502  501  0.74530764598E+01 -0.24743067987E+03  0.95481718939E+03  0.98638397941E+03  0.00000000000E+00 0. -1.
<scales pt_clust_5="13000.00000" pt_clust_6="13000.00000" pt_clust_7="13000.00000" pt_clust_8="13000.00000" pt_clust_9="252.62071"></scales>
<clustering>
<clus scale="   69.350">  7  8 -1 -1</clus>
<clus scale="   80.473">  5  6 -1 -1</clus>
<clus scale="   83.889">  1  5  2 -1</clus>
<clus scale="  252.621">  1  9  2 -1</clus>
<clus scale="   83.889">  1  5  2 -1</clus>
</clustering>
</event>
<event>
 9    1  0.2802611E-005  0.1007513E+03  0.7546771E-02  0.1284350E+00
         -2   -1    0    0    0  501 -0.00000000000E+00  0.00000000000E+00  0.49913728366E+03  0.49913728366E+03  0.00000000000E+00 0.  1.
          1   -1    0    0  502    0  0.00000000000E+00 -0.00000000000E+00 -0.17560959012E+03  0.17560959012E+03  0.00000000000E+00 0. -1.
        -24    2    1    2    0    0 -0.92149693066E+02  0.42396079576E+02  0.25731398355E+03  0.28787331608E+03  0.79822092708E+02 0.  0.
         23    2    1    2    0    0  0.85857052583E+01 -0.40492847198E+02 -0.13550680090E+03  0.16852125781E+03  0.91235608373E+02 0.  0.
         11    1    3    3    0    0 -0.66600253643E+02  0.55865372981E+02  0.12380090612E+03  0.15127193408E+03  0.00000000000E+00 0. -1.
        -12    1    3    3    0    0 -0.25549439423E+02 -0.13469293405E+02  0.13351307743E+03  0.13660138200E+03  0.00000000000E+00 0.  1.
        -11    1    4    4    0    0  0.25341913363E+02 -0.61765207120E+02 -0.11998679439E+03  0.13730981105E+03  0.00000000000E+00 0.  1.
         11    1    4    4    0    0 -0.16756208104E+02  0.21272359922E+02 -0.15520006511E+02  0.31211446759E+02  0.00000000000E+00 0. -1.
         21    1    1    2  502  501  0.83563987808E+02 -0.19032323772E+01  0.20172051089E+03  0.21835229989E+03  0.00000000000E+00 0. -1.
<scales pt_clust_5="13000.00000" pt_clust_6="13000.00000" pt_clust_7="13000.00000" pt_clust_8="13000.00000" pt_clust_9="83.58566"></scales>
<clustering>
<clus scale="   79.822">  5  6 -1 -1</clus>
<clus scale="   83.586">  1  9  2 -1</clus>
<clus scale="   90.545">  1  5  2 -1</clus>
<clus scale="   91.236">  7  8 -1 -1</clus>
<clus scale="  100.751">  2  5  1 -1</clus>
</clustering>
</event>
<event>
 9    1  0.2802611E-005  0.9709576E+02  0.7546771E-02  0.1289598E+00
          3   -1    0    0  502    0  0.00000000000E+00  0.00000000000E+00  0.17665542652E+03  0.17665542652E+03  0.00000000000E+00 0. -1.
         -4   -1    0    0    0  501 -0.00000000000E+00 -0.00000000000E+00 -0.10874506798E+03  0.10874506798E+03  0.00000000000E+00 0.  1.
         23    2    1    2    0    0  0.96286155213E+01  0.81194585700E+02  0.60389850594E+01  0.11864121471E+03  0.85755451739E+02 0.  0.
        -24    2    1    2    0    0 -0.27975791490E+02 -0.22305006885E+02  0.58443058636E+02  0.10498262804E+03  0.79533658568E+02 0.  0.
         13    1    4    4    0    0 -0.41163945729E+02 -0.27342105253E+02  0.70719120561E+02  0.86274301855E+02  0.00000000000E+00 0. -1.
        -14    1    4    4    0    0  0.13188154238E+02  0.50370983684E+01 -0.12276061924E+02  0.18708326183E+02  0.00000000000E+00 0.  1.
        -11    1    3    3    0    0 -0.28225648310E+02  0.40892607834E+02  0.30368268953E+02  0.58233361205E+02  0.00000000000E+00 0. -1.
         11    1    3    3    0    0  0.37854263832E+02  0.40301977865E+02 -0.24329283893E+02  0.60407853503E+02  0.00000000000E+00 0.  1.
         21    1    1    2  502  501  0.18347175969E+02 -0.58889578814E+02  0.34283148392E+01  0.61776651751E+02  0.00000000000E+00 0.  1.
<scales pt_clust_5="13000.00000" pt_clust_6="13000.00000" pt_clust_7="13000.00000" pt_clust_8="13000.00000" pt_clust_9="61.68145"></scales>
<clustering>
<clus scale="   61.681">  2  9  1 -1</clus>
<clus scale="   79.534">  5  6 -1 -1</clus>
<clus scale="   85.755">  7  8 -1 -1</clus>
<clus scale="   91.647">  1  5  2 -1</clus>
<clus scale="   91.647">  1  5  2 -1</clus>
</clustering>
</event>
<event>
 9    1  0.2802611E-005  0.1166628E+03  0.7546771E-02  0.1252246E+00
         -2   -1    0    0    0  501 -0.00000000000E+00  0.00000000000E+00  0.31797834780E+03  0.31797834780E+03  0.00000000000E+00 0.  1.
          1   -1    0    0  502    0  0.00000000000E+00 -0.00000000000E+00 -0.14385835100E+03  0.14385835100E+03  0.00000000000E+00 0. -1.
         23    2    1    2    0    0 -0.57685557743E+02 -0.57188432644E+02  0.24314010408E+03  0.27177587704E+03  0.90260050566E+02 0.  0.
        -24    2    1    2    0    0  0.11097750800E+02  0.15543163923E+02 -0.92244678109E+02  0.12339649207E+03  0.79704853035E+02 0.  0.
         11    1    4    4    0    0  0.22790014170E+02  0.33208526154E+02 -0.93874147780E+02  0.10214962837E+03  0.00000000000E+00 0. -1.
        -12    1    4    4    0    0 -0.11692263369E+02 -0.17665362231E+02  0.16294696711E+01  0.21246863695E+02  0.00000000000E+00 0.  1.
        -11    1    3    3    0    0 -0.13750362269E+02 -0.31888904222E+02  0.20605610388E+03  0.20896194060E+03  0.00000000000E+00 0.  1.
         11    1    3    3    0    0 -0.43935195474E+02 -0.25299528422E+02  0.37084000203E+02  0.62813936437E+02  0.00000000000E+00 0. -1.
         21    1    1    2  502  501  0.46587806943E+02  0.41645268721E+02  0.23224570831E+02  0.66664329689E+02  0.00000000000E+00 0. -1.
<scales pt_clust_5="13000.00000" pt_clust_6="13000.00000" pt_clust_7="13000.00000" pt_clust_8="13000.00000" pt_clust_9="62.48802"></scales>
<clustering>
<clus scale="   62.488">  2  9  1 -1</clus>
<clus scale="   79.705">  5  6 -1 -1</clus>
<clus scale="   90.260">  7  8 -1 -1</clus>
<clus scale="  108.702">  2  5  1 -1</clus>
<clus scale="   62.488">  2  5  1 -1</clus>
</clustering>
</event>
<event>
 9    1  0.2802611E-005  0.1306801E+03  0.7546771E-02  0.1228705E+00
         -2   -1    0    0    0  501 -0.00000000000E+00  0.00000000000E+00  0.44169355385E+03  0.44169355385E+03  0.00000000000E+00 0.  1.
          1   -1    0    0  502    0  0.00000000000E+00 -0.00000000000E+00 -0.63619278783E+02  0.63619278783E+02  0.00000000000E+00 0. -1.
        -24    2    1    2    0    0 -0.11464287692E+03 -0.12120546063E+02  0.28324046952E+03  0.31585684271E+03  0.79060006631E+02 0.  0.
         23    2    1    2    0    0  0.58503285066E+02  0.18789741483E+02  0.61392533471E+02  0.12377151216E+03  0.88174005848E+02 0.  0.
         13    1    3    3    0    0 -0.78591642995E+02 -0.35806176347E+02  0.12564377309E+03  0.15246339341E+03  0.00000000000E+00 0. -1.
        -14    1    3    3    0    0 -0.36051233923E+02  0.23685630284E+02  0.15759669643E+03  0.16339344931E+03  0.00000000000E+00 0.  1.
        -13    1    4    4    0    0  0.92406523926E+00  0.39273478680E+02  0.46492424826E+02  0.60867114195E+02  0.00000000000E+00 0.  1.
         13    1    4    4    0    0  0.57579219827E+02 -0.20483737197E+02  0.14900108645E+02  0.62904397963E+02  0.00000000000E+00 0. -1.
         21    1    1    2  502  501  0.56139591851E+02 -0.66691954200E+01  0.33441272068E+02  0.65684477758E+02  0.00000000000E+00 0. -1.
<scales pt_clust_5="13000.00000" pt_clust_6="13000.00000" pt_clust_7="13000.00000" pt_clust_8="13000.00000" pt_clust_9="56.53434"></scales>
<clustering>
<clus scale="   56.534">  2  9  1 -1</clus>
<clus scale="   79.060">  5  6 -1 -1</clus>
<clus scale="   88.174">  7  8 -1 -1</clus>
<clus scale="  124.712">  1  5  2 -1</clus>
<clus scale="   56.534">  2  5  1 -1</clus>
</clustering>
</event>
<event>
 9    1  0.2802611E-005  0.9514035E+02  0.7546771E-02  0.1296576E+00
         -2   -1    0    0    0  501 -0.00000000000E+00  0.00000000000E+00  0.67830524017E+02  0.67830524017E+02  0.00000000000E+00 0.  1.
          1   -1    0    0  502    0  0.00000000000E+00 -0.00000000000E+00 -0.31325513125E+03  0.31325513125E+03  0.00000000000E+00 0. -1.
        -24    2    1    2    0    0  0.10326369408E+02  0.32062092529E+02 -0.49563496920E+02  0.99996191356E+02  0.80050523897E+02 0.  0.
         23    2    1    2    0    0 -0.38243957581E+02  0.32750471337E+02 -0.18182335371E+03  0.20913726606E+03  0.90241179275E+02 0.  0.
         13    1    3    3    0    0  0.18751578909E+02  0.44024312204E+02 -0.63686802924E+02  0.79660345488E+02  0.00000000000E+00 0. -1.
        -14    1    3    3    0    0 -0.84252095012E+01 -0.11962219675E+02  0.14123306004E+02  0.20335845868E+02  0.00000000000E+00 0.  1.
        -11    1    4    4    0    0 -0.44928092759E+02 -0.17462596270E+02 -0.58402405668E+02  0.75725271708E+02  0.00000000000E+00 0.  1.
         11    1    4    4    0    0  0.66841351785E+01  0.50213067607E+02 -0.12342094805E+03  0.13341199436E+03  0.00000000000E+00 0. -1.
         21    1    1    2  502  501  0.27917588172E+02 -0.64812563866E+02 -0.14037756597E+02  0.71952197844E+02  0.00000000000E+00 0.  1.
<scales pt_clust_5="13000.00000" pt_clust_6="13000.00000" pt_clust_7="13000.00000" pt_clust_8="13000.00000" pt_clust_9="70.56954"></scales>
<clustering>
<clus scale="   70.570">  1  9  2 -1</clus>
<clus scale="   80.051">  5  6 -1 -1</clus>
<clus scale="   85.535">  1  5  2 -1</clus>
<clus scale="   90.241">  7  8 -1 -1</clus>
<clus scale="   95.140">  2  5  1 -1</clus>
</clustering>
</event>
<event>
 9    1  0.2802611E-005  0.9373584E+02  0.7546771E-02  0.1298786E+00
         -2   -1    0    0    0  501 -0.00000000000E+00  0.00000000000E+00  0.10362561358E+03  0.10362561358E+03  0.00000000000E+00 0.  1.
          1   -1    0    0  502    0  0.00000000000E+00 -0.00000000000E+00 -0.77441340706E+03  0.77441340706E+03  0.00000000000E+00 0. -1.
         23    2    1    2    0    0  0.10503198604E+02  0.12982940024E-01 -0.21957824019E+02  0.92204525522E+02  0.88933745797E+02 0.  0.
        -24    2    1    2    0    0 -0.29765397420E+02 -0.88990047354E+01 -0.71301924410E+03  0.71823082166E+03  0.80584735243E+02 0.  0.
         13    1    4    4    0    0 -0.51370923194E+02 -0.12202384304E+01 -0.28482712477E+03  0.28942520923E+03  0.00000000000E+00 0. -1.
        -14    1    4    4    0    0  0.21605525773E+02 -0.76787663050E+01 -0.42819211933E+03  0.42880561243E+03  0.00000000000E+00 0.  1.
        -11    1    3    3    0    0 -0.28617817573E+02  0.10043561923E+02 -0.38112061347E+02  0.48707102550E+02  0.00000000000E+00 0. -1.
         11    1    3    3    0    0  0.39121016177E+02 -0.10030578983E+02  0.16154237328E+02  0.43497422971E+02  0.00000000000E+00 0.  1.
         21    1    1    2  502  501  0.19262198816E+02  0.88860217954E+01  0.64189274641E+02  0.67603673462E+02  0.00000000000E+00 0.  1.
<scales pt_clust_5="13000.00000" pt_clust_6="13000.00000" pt_clust_7="13000.00000" pt_clust_8="13000.00000" pt_clust_9="21.21305"></scales>
<clustering>
<clus scale="   21.213">  1  9  2 -1</clus>
<clus scale="   80.585">  5  6 -1 -1</clus>
<clus scale="   85.855">  2  5  1 -1</clus>
<clus scale="   88.934">  7  8 -1 -1</clus>
<clus scale="   85.855">  2  5  1 -1</clus>
</clustering>
</event>
<event>
 9    1  0.2802611E-005  0.1519717E+03  0.7546771E-02  0.1202607E+00
         -2   -1    0    0    0  501 -0.00000000000E+00  0.00000000000E+00  0.14779846354E+03  0.14779846354E+03  0.00000000000E+00 0.  1.
          1   -1    0    0  502    0  0.00000000000E+00 -0.00000000000E+00 -0.40492769324E+03  0.40492769324E+03  0.00000000000E+00 0. -1.
         23    2    1    2    0    0 -0.77868873384E+02 -0.43342226338E+02  0.41092076439E+02  0.14265944926E+03  0.10354250186E+03 0.  0.
        -24    2    1    2    0    0  0.98085401169E+02  0.59344072928E+02 -0.33608142235E+03  0.36426108025E+03  0.81196965596E+02 0.  0.
         11    1    4    4    0    0  0.64316015166E+02  0.76593158539E+02 -0.20999710240E+03  0.23259803257E+03  0.00000000000E+00 0. -1.
        -12    1    4    4    0    0  0.33769386003E+02 -0.17249085612E+02 -0.12608431996E+03  0.13166304768E+03  0.00000000000E+00 0.  1.
        -13    1    3    3    0    0 -0.24324675906E+02 -0.61893366353E+02  0.52656779200E+02  0.84824613481E+02  0.00000000000E+00 0.  1.
         13    1    3    3    0    0 -0.53544197479E+02  0.18551140015E+02 -0.11564702761E+02  0.57834835778E+02  0.00000000000E+00 0. -1.
         21    1    1    2  502  501 -0.20216527785E+02 -0.16001846590E+02  0.37860116211E+02  0.45805627269E+02  0.00000000000E+00 0.  1.
<scales pt_clust_5="13000.00000" pt_clust_6="13000.00000" pt_clust_7="13000.00000" pt_clust_8="13000.00000" pt_clust_9="25.78308"></scales>
<clustering>
<clus scale="   25.783">  1  9  2 -1</clus>
<clus scale="   81.197">  5  6 -1 -1</clus>
<clus scale="  103.543">  7  8 -1 -1</clus>
<clus scale="  137.722">  2  5  1 -1</clus>
<clus scale="  137.722">  2  5  1 -1</clus>
</clustering>
</event>
<event>
 9    1  0.2802611E-005  0.9192757E+02  0.7546771E-02  0.1300754E+00
         -2   -1    0    0    0  501 -0.00000000000E+00  0.00000000000E+00  0.56379445921E+02  0.56379445921E+02  0.00000000000E+00 0.  1.
          1   -1    0    0  502    0  0.00000000000E+00 -0.00000000000E+00 -0.24451162321E+03  0.24451162321E+03  0.00000000000E+00 0. -1.
         23    2    1    2    0    0 -0.45580352101E+01  0.11465539036E+02 -0.24787794456E+02  0.95576216303E+02  0.91477560628E+02 0.  0.
        -24    2    1    2    0    0 -0.24335838643E+01  0.16163042462E+02 -0.14886094376E+03  0.17334625480E+03  0.87305081192E+02 0.  0.
         11    1    4    4    0    0 -0.25463651186E+02  0.60947045534E+01 -0.14567629529E+03  0.14801056031E+03  0.00000000000E+00 0. -1.
        -12    1    4    4    0    0  0.23030067322E+02  0.10068337909E+02 -0.31846484753E+01  0.25335694484E+02  0.00000000000E+00 0.  1.
        -13    1    3    3    0    0  0.15838981946E+02 -0.32447483697E+02  0.81509448004E+01  0.37015543337E+02  0.00000000000E+00 0.  1.
         13    1    3    3    0    0 -0.20397017156E+02  0.43913022733E+02 -0.32938739257E+02  0.58560672966E+02  0.00000000000E+00 0. -1.
         21    1    1    2  502  501  0.69916190744E+01 -0.27628581498E+02 -0.14483439072E+02  0.31968598033E+02  0.00000000000E+00 0.  1.
<scales pt_clust_5="13000.00000" pt_clust_6="13000.00000" pt_clust_7="13000.00000" pt_clust_8="13000.00000" pt_clust_9="28.49950"></scales>
<clustering>
<clus scale="   28.499">  1  9  2 -1</clus>
<clus scale="   87.305">  5  6 -1 -1</clus>
<clus scale="   87.776">  2  5  1 -1</clus>
<clus scale="   91.478">  7  8 -1 -1</clus>
<clus scale="   87.776">  2  5  1 -1</clus>
</clustering>
</event>
<event>
 9    1  0.2802611E-005  0.8991626E+02  0.7546771E-02  0.1309510E+00
         -2   -1    0    0    0  501 -0.00000000000E+00  0.00000000000E+00  0.80218567719E+02  0.80218567719E+02  0.00000000000E+00 0.  1.
          1   -1    0    0  502    0  0.00000000000E+00 -0.00000000000E+00 -0.26376005313E+03  0.26376005313E+03  0.00000000000E+00 0. -1.
         23    2    1    2    0    0 -0.42063864054E+01 -0.13165196058E+02  0.11018970716E+02  0.90915210732E+02  0.89180388836E+02 0.  0.
        -24    2    1    2    0    0 -0.12253864320E+02 -0.81140179572E+01 -0.20798243634E+03  0.22299857425E+03  0.79092830359E+02 0.  0.
         13    1    4    4    0    0 -0.27127660204E+02 -0.29243755209E+02 -0.18212905137E+03  0.18644596675E+03  0.00000000000E+00 0. -1.
        -14    1    4    4    0    0  0.14873795884E+02  0.21129737252E+02 -0.25853384972E+02  0.36552607497E+02  0.00000000000E+00 0.  1.
        -11    1    3    3    0    0 -0.94287017228E+01  0.25919218886E+02  0.35154959751E+02  0.44683078665E+02  0.00000000000E+00 0.  1.
         11    1    3    3    0    0  0.52223153174E+01 -0.39084414944E+02 -0.24135989036E+02  0.46232132068E+02  0.00000000000E+00 0. -1.
         21    1    1    2  502  501  0.16460250726E+02  0.21279214016E+02  0.13421980209E+02  0.30064835869E+02  0.00000000000E+00 0.  1.
<scales pt_clust_5="13000.00000" pt_clust_6="13000.00000" pt_clust_7="13000.00000" pt_clust_8="13000.00000" pt_clust_9="26.90251"></scales>
<clustering>
<clus scale="   26.903">  1  9  2 -1</clus>
<clus scale="   79.093">  5  6 -1 -1</clus>
<clus scale="   79.922">  2  5  1 -1</clus>
<clus scale="   89.180">  7  8 -1 -1</clus>
<clus scale="   79.922">  2  5  1 -1</clus>
</clustering>
</event>
<event>
 9    1  0.2802611E-005  0.1003979E+03  0.7546771E-02  0.1294492E+00
          1   -1    0    0  502    0  0.00000000000E+00  0.00000000000E+00  0.23494072403E+03  0.23494072403E+03  0.00000000000E+00 0. -1.
         -2   -1    0    0    0  501 -0.00000000000E+00 -0.00000000000E+00 -0.72498845114E+02  0.72498845114E+02  0.00000000000E+00 0.  1.
         23    2    1    2    0    0 -0.30049365007E+02 -0.31855019666E+02  0.13813014082E+02  0.10411417803E+03  0.93441190561E+02 0.  0.
        -24    2    1    2    0    0 -0.79015633081E+01  0.37707934705E+02  0.14597953081E+03  0.16483450199E+03  0.66151844949E+02 0.  0.
         13    1    4    4    0    0 -0.21684682025E+02  0.45992634940E+02  0.13761323501E+03  0.14670702216E+03  0.00000000000E+00 0. -1.
        -14    1    4    4    0    0  0.13783118717E+02 -0.82847002349E+01  0.83662958022E+01  0.18127479830E+02  0.00000000000E+00 0.  1.
        -13    1    3    3    0    0 -0.10089517925E+01  0.22320219818E+02  0.32883480573E+02  0.39755923975E+02  0.00000000000E+00 0. -1.
         13    1    3    3    0    0 -0.29040413214E+02 -0.54175239484E+02 -0.19070466491E+02  0.64358254055E+02  0.00000000000E+00 0.  1.
         21    1    1    2  502  501  0.37950928315E+02 -0.58529150393E+01  0.26493340231E+01  0.38490889119E+02  0.00000000000E+00 0. -1.
<scales pt_clust_5="13000.00000" pt_clust_6="13000.00000" pt_clust_7="13000.00000" pt_clust_8="13000.00000" pt_clust_9="38.39960"></scales>
<clustering>
<clus scale="   38.400">  2  9  1 -1</clus>
<clus scale="   66.152">  5  6 -1 -1</clus>
<clus scale="   75.661">  1  5  2 -1</clus>
<clus scale="   93.441">  7  8 -1 -1</clus>
<clus scale="   75.661">  1  5  2 -1</clus>
</clustering>
</event>
<event>
 9    1  0.2802611E-005  0.5374289E+03  0.7546771E-02  0.1004446E+00
         -2   -1    0    0    0  501 -0.00000000000E+00  0.00000000000E+00  0.24049318785E+03  0.24049318785E+03  0.00000000000E+00 0.  1.
          1   -1    0    0  502    0  0.00000000000E+00 -0.00000000000E+00 -0.21656487176E+04  0.21656487176E+04  0.00000000000E+00 0. -1.
        -24    2    1    2    0    0 -0.60307417928E+02  0.96852422451E+02 -0.57838056788E+03  0.59499412148E+03  0.80476996101E+02 0.  0.
         23    2    1    2    0    0 -0.24502157342E+03  0.29504653611E+03 -0.12424747969E+04  0.13035169032E+04  0.91239607816E+02 0.  0.
         11    1    3    3    0    0 -0.62154543572E+02  0.43236070077E+02 -0.44205842579E+03  0.44849548142E+03  0.00000000000E+00 0. -1.
        -12    1    3    3    0    0  0.18471256449E+01  0.53616352374E+02 -0.13632214209E+03  0.14649864006E+03  0.00000000000E+00 0.  1.
        -11    1    4    4    0    0 -0.58223361849E+02  0.57323199534E+02 -0.16056691329E+03  0.18016004750E+03  0.00000000000E+00 0.  1.
         11    1    4    4    0    0 -0.18679821157E+03  0.23772333658E+03 -0.10819078836E+04  0.11233568557E+04  0.00000000000E+00 0. -1.
         21    1    1    2  502  501  0.30532899135E+03 -0.39189895856E+03 -0.10430016492E+03  0.50763088074E+03  0.00000000000E+00 0.  1.
<scales pt_clust_5="13000.00000" pt_clust_6="13000.00000" pt_clust_7="13000.00000" pt_clust_8="13000.00000" pt_clust_9="496.80035"></scales>
<clustering>
<clus scale="   80.477">  5  6 -1 -1</clus>
<clus scale="   91.240">  7  8 -1 -1</clus>
<clus scale="  103.726">  5  7 -1 -1</clus>
<clus scale="  496.800">  1  9  2 -1</clus>
<clus scale="  537.429">  2  5  1 -1</clus>
</clustering>
</event>
<event>
 9    1  0.2802611E-005  0.1081606E+03  0.7546771E-02  0.1269157E+00
         -2   -1    0    0    0  501 -0.00000000000E+00  0.00000000000E+00  0.16292031009E+03  0.16292031009E+03  0.00000000000E+00 0.  1.
          1   -1    0    0  502    0  0.00000000000E+00 -0.00000000000E+00 -0.11579832538E+03  0.11579832538E+03  0.00000000000E+00 0. -1.
         23    2    1    2    0    0  0.40039086587E+02 -0.35093901700E+02  0.75332556854E+02  0.13038268685E+03  0.92140873210E+02 0.  0.
        -24    2    1    2    0    0 -0.56596562350E+02  0.15997964035E+02 -0.53439522063E+02  0.11262453935E+03  0.79808512212E+02 0.  0.
         13    1    4    4    0    0 -0.20649942671E+02  0.47152012570E+02 -0.25308401374E+02  0.57360679928E+02  0.00000000000E+00 0. -1.
        -14    1    4    4    0    0 -0.35946619680E+02 -0.31154048535E+02 -0.28131120689E+02  0.55263859418E+02  0.00000000000E+00 0.  1.
        -13    1    3    3    0    0  0.56063700767E+02 -0.19151120320E+02  0.86756728332E+02  0.10505538475E+03  0.00000000000E+00 0.  1.
         13    1    3    3    0    0 -0.16024614180E+02 -0.15942781381E+02 -0.11424171478E+02  0.25327302101E+02  0.00000000000E+00 0. -1.
         21    1    1    2  502  501  0.16557475764E+02  0.19095937665E+02  0.25228949910E+02  0.35711409277E+02  0.00000000000E+00 0.  1.
<scales pt_clust_5="13000.00000" pt_clust_6="13000.00000" pt_clust_7="13000.00000" pt_clust_8="13000.00000" pt_clust_9="25.27459"></scales>
<clustering>
<clus scale="   25.275">  1  9  2 -1</clus>
<clus scale="   79.809">  5  6 -1 -1</clus>
<clus scale="   92.141">  7  8 -1 -1</clus>
<clus scale="   97.868">  2  5  1 -1</clus>
<clus scale="   97.868">  2  5  1 -1</clus>
</clustering>
</event>
<event>
 9    1  0.2802611E-005  0.1702644E+03  0.7546771E-02  0.1178616E+00
          1   -1    0    0  502    0  0.00000000000E+00  0.00000000000E+00  0.78985496923E+03  0.78985496923E+03  0.00000000000E+00 0. -1.
         -2   -1    0    0    0  501 -0.00000000000E+00 -0.00000000000E+00 -0.70261819452E+02  0.70261819452E+02  0.00000000000E+00 0.  1.
         23    2    1    2    0    0  0.14986183344E+03 -0.51795474346E+02  0.95977728975E+02  0.20703526464E+03  0.92252566687E+02 0.  0.
        -24    2    1    2    0    0 -0.97605794851E+02  0.36856276028E+02  0.36858481732E+03  0.39232400846E+03  0.84723572805E+02 0.  0.
         11    1    4    4    0    0 -0.53492808563E+02 -0.92602824060E+01  0.26619331563E+03  0.27167280814E+03  0.00000000000E+00 0. -1.
        -12    1    4    4    0    0 -0.44112986288E+02  0.46116558434E+02  0.10239150169E+03  0.12065120032E+03  0.00000000000E+00 0.  1.
        -11    1    3    3    0    0  0.46747966468E+02 -0.35832438501E+02 -0.83421852218E+01  0.59488890325E+02  0.00000000000E+00 0.  1.
         11    1    3    3    0    0  0.10311386698E+03 -0.15963035845E+02  0.10431991420E+03  0.14754637432E+03  0.00000000000E+00 0. -1.
         21    1    1    2  502  501 -0.52256038593E+02  0.14939198318E+02  0.25503060349E+03  0.26075751558E+03  0.00000000000E+00 0.  1.
<scales pt_clust_5="13000.00000" pt_clust_6="13000.00000" pt_clust_7="13000.00000" pt_clust_8="13000.00000" pt_clust_9="54.34955"></scales>
<clustering>
<clus scale="   54.350">  1  9  2 -1</clus>
<clus scale="   84.724">  5  6 -1 -1</clus>
<clus scale="   92.253">  7  8 -1 -1</clus>
<clus scale="  166.305">  1  5  2 -1</clus>
<clus scale="   54.350">  1  5  2 -1</clus>
</clustering>
</event>
<event>
 9    1  0.2802611E-005  0.1409525E+03  0.7546771E-02  0.1214108E+00
         -2   -1    0    0    0  501 -0.00000000000E+00  0.00000000000E+00  0.48743020186E+03  0.48743020186E+03  0.00000000000E+00 0.  1.
          1   -1    0    0  502    0  0.00000000000E+00 -0.00000000000E+00 -0.72702984396E+02  0.72702984396E+02  0.00000000000E+00 0. -1.
         23    2    1    2    0    0  0.28471100160E+02  0.13624233169E+03  0.19029470319E+03  0.25284990074E+03  0.91369698219E+02 0.  0.
        -24    2    1    2    0    0  0.44949467623E+01 -0.93425903912E+02  0.67685706169E+02  0.14148350087E+03  0.81777882892E+02 0.  0.
         13    1    4    4    0    0  0.15271346195E+02 -0.17987976950E+02 -0.15839446253E+02  0.28419524748E+02  0.00000000000E+00 0. -1.
        -14    1    4    4    0    0 -0.10776399432E+02 -0.75437926962E+02  0.83525152422E+02  0.11306397612E+03  0.00000000000E+00 0.  1.
        -13    1    3    3    0    0  0.61495951485E+02  0.89057395503E+02  0.11312416963E+03  0.15655685708E+03  0.00000000000E+00 0. -1.
         13    1    3    3    0    0 -0.33024851325E+02  0.47184936191E+02  0.77170533558E+02  0.96293043664E+02  0.00000000000E+00 0.  1.
         21    1    1    2  502  501 -0.32966046922E+02 -0.42816427783E+02  0.15674680811E+03  0.16579978465E+03  0.00000000000E+00 0.  1.
<scales pt_clust_5="13000.00000" pt_clust_6="13000.00000" pt_clust_7="13000.00000" pt_clust_8="13000.00000" pt_clust_9="54.03709"></scales>
<clustering>
<clus scale="   54.037">  1  9  2 -1</clus>
<clus scale="   81.778">  5  6 -1 -1</clus>
<clus scale="   91.370">  7  8 -1 -1</clus>
<clus scale="  134.933">  2  5  1 -1</clus>
<clus scale="  134.933">  2  5  1 -1</clus>
</clustering>
</event>
<event>
 9    1  0.2802611E-005  0.2466020E+03  0.7546771E-02  0.1116149E+00
         -2   -1    0    0    0  501 -0.00000000000E+00  0.00000000000E+00  0.35100039613E+02  0.35100039613E+02  0.00000000000E+00 0.  1.
          1   -1    0    0  502    0  0.00000000000E+00 -0.00000000000E+00 -0.20905949442E+04  0.20905949442E+04  0.00000000000E+00 0. -1.
        -24    2    1    2    0    0 -0.46437582963E+02  0.20505489261E+03 -0.76218926003E+03  0.79457243561E+03  0.78796758981E+02 0.  0.
         23    2    1    2    0    0  0.77488697482E+02 -0.23388318327E+03 -0.12036116307E+04  0.12319244727E+04  0.90835606048E+02 0.  0.
         11    1    3    3    0    0  0.18360144897E+02  0.87678477617E+02 -0.34018264633E+03  0.35177953781E+03  0.00000000000E+00 0. -1.
        -12    1    3    3    0    0 -0.64797727860E+02  0.11737641499E+03 -0.42200661371E+03  0.44279289780E+03  0.00000000000E+00 0.  1.
        -11    1    4    4    0    0  0.67233927144E+02 -0.88332756990E+02 -0.39730316188E+03  0.41252015630E+03  0.00000000000E+00 0.  1.
         11    1    4    4    0    0  0.10254770338E+02 -0.14555042628E+03 -0.80630846877E+03  0.81940431639E+03  0.00000000000E+00 0. -1.
         21    1    1    2  502  501 -0.31051114520E+02  0.28828290657E+02 -0.89694013888E+02  0.99198075497E+02  0.00000000000E+00 0.  1.
<scales pt_clust_5="13000.00000" pt_clust_6="13000.00000" pt_clust_7="13000.00000" pt_clust_8="13000.00000" pt_clust_9="42.37030"></scales>
<clustering>
<clus scale="   42.370">  1  9  2 -1</clus>
<clus scale="   78.797">  5  6 -1 -1</clus>
<clus scale="   90.836">  7  8 -1 -1</clus>
<clus scale="  242.426">  1  5  2 -1</clus>
<clus scale="  246.602">  2  5  1 -1</clus>
</clustering>
</event>
<event>
 9    1  0.2802611E-005  0.9637543E+02  0.7546771E-02  0.1293814E+00
         -2   -1    0    0    0  501 -0.00000000000E+00  0.00000000000E+00  0.16263183327E+03  0.16263183327E+03  0.00000000000E+00 0.  1.
          1   -1    0    0  502    0  0.00000000000E+00 -0.00000000000E+00 -0.31209522171E+03  0.31209522171E+03  0.00000000000E+00 0. -1.
        -24    2    1    2    0    0 -0.34041268696E+01  0.79213976269E+02  0.78841308500E+02  0.13776134396E+03  0.80472317274E+02 0.  0.
         23    2    1    2    0    0  0.15296778173E+02 -0.24620196169E+02 -0.25701340359E+03  0.27414767366E+03  0.90889558607E+02 0.  0.
         11    1    3    3    0    0  0.98026107925E+01  0.49259488538E+02 -0.22866804649E+01  0.50277403443E+02  0.00000000000E+00 0. -1.
        -12    1    3    3    0    0 -0.13206737662E+02  0.29954487731E+02  0.81127988965E+02  0.87483940517E+02  0.00000000000E+00 0.  1.
        -13    1    4    4    0    0  0.15201173696E+02  0.30877055195E+02 -0.14642309586E+03  0.15041340107E+03  0.00000000000E+00 0.  1.
         13    1    4    4    0    0  0.95604476919E-01 -0.55497251363E+02 -0.11059030773E+03  0.12373427259E+03  0.00000000000E+00 0. -1.
         21    1    1    2  502  501 -0.11892651303E+02 -0.54593780101E+02  0.28708706648E+02  0.62818037362E+02  0.00000000000E+00 0.  1.
<scales pt_clust_5="13000.00000" pt_clust_6="13000.00000" pt_clust_7="13000.00000" pt_clust_8="13000.00000" pt_clust_9="55.87411"></scales>
<clustering>
<clus scale="   55.874">  1  9  2 -1</clus>
<clus scale="   80.472">  5  6 -1 -1</clus>
<clus scale="   86.620">  1  5  2 -1</clus>
<clus scale="   90.890">  7  8 -1 -1</clus>
<clus scale="   96.375">  2  5  1 -1</clus>
</clustering>
</event>
<event>
 9    1  0.2802611E-005  0.1281938E+03  0.7546771E-02  0.1233162E+00
          1   -1    0    0  502    0  0.00000000000E+00  0.00000000000E+00  0.14766965148E+03  0.14766965148E+03  0.00000000000E+00 0. -1.
         -2   -1    0    0    0  501 -0.00000000000E+00 -0.00000000000E+00 -0.19215686232E+03  0.19215686232E+03  0.00000000000E+00 0.  1.
        -24    2    1    2    0    0  0.27163063547E+01  0.67235546637E+02 -0.10313746499E+03  0.14693610194E+03  0.80155376100E+02 0.  0.
         23    2    1    2    0    0 -0.38054850628E+02 -0.91146338109E+02  0.65619773255E+02  0.14965717399E+03  0.91298896365E+02 0.  0.
         11    1    3    3    0    0  0.11423160059E+02  0.54061089554E+02 -0.14805914833E+02  0.57204065446E+02  0.00000000000E+00 0. -1.
        -12    1    3    3    0    0 -0.87068537045E+01  0.13174457083E+02 -0.88331550154E+02  0.89732036494E+02  0.00000000000E+00 0.  1.
        -11    1    4    4    0    0 -0.67846386700E+02 -0.57135313380E+02  0.50000541685E+02  0.10182156153E+03  0.00000000000E+00 0.  1.
         11    1    4    4    0    0  0.29791536072E+02 -0.34011024729E+02  0.15619231570E+02  0.47835612461E+02  0.00000000000E+00 0. -1.
         21    1    1    2  502  501  0.35338544273E+02  0.23910791472E+02 -0.69695191072E+01  0.43233237870E+02  0.00000000000E+00 0.  1.
<scales pt_clust_5="13000.00000" pt_clust_6="13000.00000" pt_clust_7="13000.00000" pt_clust_8="13000.00000" pt_clust_9="42.66777"></scales>
<clustering>
<clus scale="   42.668">  2  9  1 -1</clus>
<clus scale="   80.155">  5  6 -1 -1</clus>
<clus scale="   91.299">  7  8 -1 -1</clus>
<clus scale="  120.512">  2  5  1 -1</clus>
<clus scale="  128.194">  1  5  2 -1</clus>
</clustering>
</event>
<event>
 9    1  0.2802611E-005  0.1017746E+03  0.7546771E-02  0.1280682E+00
         -2   -1    0    0    0  501 -0.00000000000E+00  0.00000000000E+00  0.13840517673E+03  0.13840517673E+03  0.00000000000E+00 0.  1.
          1   -1    0    0  502    0  0.00000000000E+00 -0.00000000000E+00 -0.49177111656E+03  0.49177111656E+03  0.00000000000E+00 0. -1.
         23    2    1    2    0    0 -0.64737273380E+01  0.57362246928E+02  0.54982217594E+02  0.12041022630E+03  0.90239912605E+02 0.  0.
        -24    2    1    2    0    0 -0.20436531923E+02 -0.42251715928E+02 -0.44898379967E+03  0.45873915624E+03  0.81561643991E+02 0.  0.
         11    1    4    4    0    0 -0.49586290695E+02 -0.16343525263E+02 -0.31091125253E+03  0.31526452067E+03  0.00000000000E+00 0. -1.
        -12    1    4    4    0    0  0.29149758771E+02 -0.25908190665E+02 -0.13807254713E+03  0.14347463557E+03  0.00000000000E+00 0.  1.
        -13    1    3    3    0    0 -0.20747591158E+02 -0.10594104319E+02 -0.99593132461E+01  0.25335459449E+02  0.00000000000E+00 0. -1.
         13    1    3    3    0    0  0.14273863820E+02  0.67956351247E+02  0.64941530840E+02  0.95074766847E+02  0.00000000000E+00 0.  1.
         21    1    1    2  502  501  0.26910259261E+02 -0.15110531000E+02  0.40635642236E+02  0.51026910748E+02  0.00000000000E+00 0.  1.
<scales pt_clust_5="13000.00000" pt_clust_6="13000.00000" pt_clust_7="13000.00000" pt_clust_8="13000.00000" pt_clust_9="30.86244"></scales>
<clustering>
<clus scale="   30.862">  1  9  2 -1</clus>
<clus scale="   81.562">  5  6 -1 -1</clus>
<clus scale="   90.240">  7  8 -1 -1</clus>
<clus scale="   94.165">  2  5  1 -1</clus>
<clus scale="   94.165">  2  5  1 -1</clus>
</clustering>
</event>
<event>
 9    1  0.2802611E-005  0.3734562E+03  0.7546771E-02  0.1096804E+00
          1   -1    0    0  502    0  0.00000000000E+00  0.00000000000E+00  0.10996593463E+04  0.10996593463E+04  0.00000000000E+00 0. -1.
         -2   -1    0    0    0  501 -0.00000000000E+00 -0.00000000000E+00 -0.32235303155E+03  0.32235303155E+03  0.00000000000E+00 0.  1.
        -24    2    1    2    0    0 -0.71996060491E+02  0.36837961941E+02 -0.16193784628E+03  0.19839708986E+03  0.81222355540E+02 0.  0.
         23    2    1    2    0    0 -0.32998445994E+03  0.63428435052E+02  0.57500484985E+03  0.67197050649E+03  0.89447605137E+02 0.  0.
         13    1    3    3    0    0 -0.44492466217E+02  0.10314282566E+02 -0.15228623387E+03  0.15898761273E+03  0.00000000000E+00 0. -1.
        -14    1    3    3    0    0 -0.27503594274E+02  0.26523679375E+02 -0.96516124148E+01  0.39409477131E+02  0.00000000000E+00 0.  1.
        -11    1    4    4    0    0 -0.10348923259E+03  0.34954364633E+02  0.11601020502E+03  0.15934301534E+03  0.00000000000E+00 0.  1.
         11    1    4    4    0    0 -0.22649522735E+03  0.28474070419E+02  0.45899464483E+03  0.51262749115E+03  0.00000000000E+00 0. -1.
         21    1    1    2  502  501  0.40198052043E+03 -0.10026639699E+03  0.36423931122E+03  0.55164478154E+03  0.00000000000E+00 0.  1.
<scales pt_clust_5="13000.00000" pt_clust_6="13000.00000" pt_clust_7="13000.00000" pt_clust_8="13000.00000" pt_clust_9="362.58610"></scales>
<clustering>
<clus scale="   81.222">  5  6 -1 -1</clus>
<clus scale="   89.448">  7  8 -1 -1</clus>
<clus scale="  114.619">  2  5  1 -1</clus>
<clus scale="  362.586">  2  9  1 -1</clus>
<clus scale="  373.456">  1  5  2 -1</clus>
</clustering>
</event>
<event>
 9    1  0.2802611E-005  0.1244643E+03  0.7546771E-02  0.1247132E+00
          1   -1    0    0  502    0  0.00000000000E+00  0.00000000000E+00  0.18788271091E+03  0.18788271091E+03  0.00000000000E+00 0. -1.
         -2   -1    0    0    0  501 -0.00000000000E+00 -0.00000000000E+00 -0.72201175271E+03  0.72201175271E+03  0.00000000000E+00 0.  1.
        -24    2    1    2    0    0  0.15579703444E+01  0.56910302350E+01 -0.24382708244E+03  0.25568683857E+03  0.76741763023E+02 0.  0.
         23    2    1    2    0    0  0.48607569058E+02 -0.47826070579E+02  0.15701306922E+03  0.20212060050E+03  0.10746908599E+03 0.  0.
         11    1    3    3    0    0  0.36738891768E+02 -0.35463124662E+01 -0.16180588921E+03  0.16596224957E+03  0.00000000000E+00 0. -1.
        -12    1    3    3    0    0 -0.35180921423E+02  0.92373427012E+01 -0.82021193230E+02  0.89724589000E+02  0.00000000000E+00 0.  1.
        -11    1    4    4    0    0 -0.19511999818E+02 -0.55018750525E+02  0.64269348798E+02  0.86823558099E+02  0.00000000000E+00 0.  1.
         11    1    4    4    0    0  0.68119568876E+02  0.71926799459E+01  0.92743720420E+02  0.11529704240E+03  0.00000000000E+00 0. -1.
         21    1    1    2  502  501 -0.50165539403E+02  0.42135040344E+02 -0.44731502858E+03  0.45208702455E+03  0.00000000000E+00 0.  1.
<scales pt_clust_5="13000.00000" pt_clust_6="13000.00000" pt_clust_7="13000.00000" pt_clust_8="13000.00000" pt_clust_9="65.51292"></scales>
<clustering>
<clus scale="   65.513">  2  9  1 -1</clus>
<clus scale="   76.742">  5  6 -1 -1</clus>
<clus scale="   99.152">  2  5  1 -1</clus>
<clus scale="  107.469">  7  8 -1 -1</clus>
<clus scale="  124.464">  1  5  2 -1</clus>
</clustering>
</event>
<event>
 9    1  0.2802611E-005  0.1035370E+03  0.7546771E-02  0.1278451E+00
         -4   -1    0    0    0  501 -0.00000000000E+00  0.00000000000E+00  0.35009625804E+03  0.35009625804E+03  0.00000000000E+00 0.  1.
          3   -1    0    0  502    0  0.00000000000E+00 -0.00000000000E+00 -0.50114491436E+02  0.50114491436E+02  0.00000000000E+00 0. -1.
        -24    2    1    2    0    0  0.28173857885E+02  0.24460834493E+02  0.10889213354E+03  0.14087492127E+03  0.81216673194E+02 0.  0.
         23    2    1    2    0    0 -0.49020994025E+02 -0.19722011521E+02  0.52263763039E+02  0.11887344279E+03  0.92775960676E+02 0.  0.
         11    1    3    3    0    0  0.30127983912E+02  0.41926870021E+02  0.11172098424E+03  0.12307370216E+03  0.00000000000E+00 0. -1.
        -12    1    3    3    0    0 -0.19541260276E+01 -0.17466035528E+02 -0.28288506996E+01  0.17801219112E+02  0.00000000000E+00 0.  1.
        -11    1    4    4    0    0 -0.68708352716E+02  0.87121381039E+01  0.21318070619E+02  0.72465158650E+02  0.00000000000E+00 0.  1.
         11    1    4    4    0    0  0.19687358691E+02 -0.28434149625E+02  0.30945692419E+02  0.46408284136E+02  0.00000000000E+00 0. -1.
         21    1    1    2  502  501  0.20847136140E+02 -0.47388229718E+01  0.13882587003E+03  0.14046238542E+03  0.00000000000E+00 0.  1.
<scales pt_clust_5="13000.00000" pt_clust_6="13000.00000" pt_clust_7="13000.00000" pt_clust_8="13000.00000" pt_clust_9="21.37895"></scales>
<clustering>
<clus scale="   21.379">  1  9  2 -1</clus>
<clus scale="   81.217">  5  6 -1 -1</clus>
<clus scale="   92.776">  7  8 -1 -1</clus>
<clus scale="   93.320">  1  5  2 -1</clus>
<clus scale="  103.537">  2  5  1 -1</clus>
</clustering>
</event>
<event>
 9    1  0.2802611E-005  0.1242405E+03  0.7546771E-02  0.1255297E+00
          1   -1    0    0  502    0  0.00000000000E+00  0.00000000000E+00  0.99715950801E+03  0.99715950801E+03  0.00000000000E+00 0. -1.
         -2   -1    0    0    0  501 -0.00000000000E+00 -0.00000000000E+00 -0.32221623833E+02  0.32221623833E+02  0.00000000000E+00 0.  1.
        -24    2    1    2    0    0 -0.24748220600E+02 -0.82271648432E+01  0.83450286786E+02  0.11891165506E+03  0.80596964459E+02 0.  0.
         23    2    1    2    0    0 -0.28629150061E+02  0.74988908198E+02  0.31912670453E+03  0.34164960380E+03  0.91867478743E+02 0.  0.
         13    1    3    3    0    0  0.19765258966E+01  0.32370093383E+02  0.17096214307E+02  0.36660743907E+02  0.00000000000E+00 0. -1.
        -14    1    3    3    0    0 -0.26724746497E+02 -0.40597258226E+02  0.66354072480E+02  0.82250911152E+02  0.00000000000E+00 0.  1.
        -11    1    4    4    0    0 -0.61144172448E+02  0.61206794919E+02  0.21841093458E+03  0.23492172720E+03  0.00000000000E+00 0.  1.
         11    1    4    4    0    0  0.32515022386E+02  0.13782113279E+02  0.10071576995E+03  0.10672787660E+03  0.00000000000E+00 0. -1.
         21    1    1    2  502  501  0.53377370661E+02 -0.66761743355E+02  0.56236089286E+03  0.56881987298E+03  0.00000000000E+00 0. -1.
<scales pt_clust_5="13000.00000" pt_clust_6="13000.00000" pt_clust_7="13000.00000" pt_clust_8="13000.00000" pt_clust_9="83.64254"></scales>
<clustering>
<clus scale="   80.597">  5  6 -1 -1</clus>
<clus scale="   84.711">  2  5  1 -1</clus>
<clus scale="   83.643">  1  9  2 -1</clus>
<clus scale="   91.867">  7  8 -1 -1</clus>
<clus scale="   83.643">  1  5  2 -1</clus>
</clustering>
</event>
<event>
 9    1  0.2802611E-005  0.9476725E+02  0.7546771E-02  0.1300684E+00
          1   -1    0    0  502    0  0.00000000000E+00  0.00000000000E+00  0.14345919122E+03  0.14345919122E+03  0.00000000000E+00 0. -1.
         -2   -1    0    0    0  501 -0.00000000000E+00 -0.00000000000E+00 -0.46406939330E+03  0.46406939330E+03  0.00000000000E+00 0.  1.
        -24    2    1    2    0    0 -0.18910692470E+02  0.52046936136E+02 -0.15788694668E+03  0.18553770643E+03  0.80183880721E+02 0.  0.
         23    2    1    2    0    0 -0.43295441248E+01  0.69816966679E+01  0.10802255858E+03  0.14391214126E+03  0.94733004798E+02 0.  0.
         11    1    3    3    0    0 -0.81142082936E+01  0.58202531504E+02 -0.50643854636E+02  0.77576897735E+02  0.00000000000E+00 0. -1.
        -12    1    3    3    0    0 -0.10796484177E+02 -0.61555953680E+01 -0.10724309204E+03  0.10796080870E+03  0.00000000000E+00 0.  1.
        -11    1    4    4    0    0  0.17951784165E+02 -0.93928672625E+01  0.11386252070E+03  0.11565105331E+03  0.00000000000E+00 0.  1.
         11    1    4    4    0    0 -0.22281328290E+02  0.16374563930E+02 -0.58399621263E+01  0.28261087947E+02  0.00000000000E+00 0. -1.
         21    1    1    2  502  501  0.23240236595E+02 -0.59028632804E+02 -0.27074581399E+03  0.27807873683E+03  0.00000000000E+00 0.  1.
<scales pt_clust_5="13000.00000" pt_clust_6="13000.00000" pt_clust_7="13000.00000" pt_clust_8="13000.00000" pt_clust_9="63.43885"></scales>
<clustering>
<clus scale="   63.439">  2  9  1 -1</clus>
<clus scale="   80.184">  5  6 -1 -1</clus>
<clus scale="   80.224">  2  5  1 -1</clus>
<clus scale="   94.733">  7  8 -1 -1</clus>
<clus scale="   94.767">  1  5  2 -1</clus>
</clustering>
</event>
<event>
 9    1  0.2802611E-005  0.9159490E+02  0.7546771E-02  0.1303582E+00
         -2   -1    0    0    0  501 -0.00000000000E+00  0.00000000000E+00  0.17021023693E+03  0.17021023693E+03  0.00000000000E+00 0.  1.
          1   -1    0    0  502    0  0.00000000000E+00 -0.00000000000E+00 -0.22375981310E+03  0.22375981310E+03  0.00000000000E+00 0. -1.
         23    2    1    2    0    0  0.36633648944E+02  0.14008408966E+01  0.12461435480E+03  0.15817531711E+03  0.90259109964E+02 0.  0.
        -24    2    1    2    0    0 -0.11115864661E+02 -0.96183055608E+01 -0.18901467669E+03  0.20687375916E+03  0.82789673132E+02 0.  0.
         11    1    4    4    0    0 -0.41812046925E+02  0.13830957624E+02 -0.11935332901E+03  0.12721933738E+03  0.00000000000E+00 0. -1.
        -12    1    4    4    0    0  0.30696182264E+02 -0.23449263185E+02 -0.69661347676E+02  0.79654421783E+02  0.00000000000E+00 0.  1.
        -13    1    3    3    0    0  0.65790586237E+02  0.62221753625E+00  0.68778070335E+02  0.95179889426E+02  0.00000000000E+00 0.  1.
         13    1    3    3    0    0 -0.29156937293E+02  0.77862336033E+00  0.55836284464E+02  0.62995427687E+02  0.00000000000E+00 0. -1.
         21    1    1    2  502  501 -0.25517784283E+02  0.82174646642E+01  0.10850745722E+02  0.28920973755E+02  0.00000000000E+00 0.  1.
<scales pt_clust_5="13000.00000" pt_clust_6="13000.00000" pt_clust_7="13000.00000" pt_clust_8="13000.00000" pt_clust_9="26.80828"></scales>
<clustering>
<clus scale="   26.808">  1  9  2 -1</clus>
<clus scale="   82.790">  5  6 -1 -1</clus>
<clus scale="   84.244">  2  5  1 -1</clus>
<clus scale="   90.259">  7  8 -1 -1</clus>
<clus scale="   84.244">  2  5  1 -1</clus>
</clustering>
</event>
<event>
 9    1  0.2802611E-005  0.9622904E+02  0.7546771E-02  0.1300045E+00
         -2   -1    0    0    0  501 -0.00000000000E+00  0.00000000000E+00  0.36196188880E+03  0.36196188880E+03  0.00000000000E+00 0.  1.
          1   -1    0    0  502    0  0.00000000000E+00 -0.00000000000E+00 -0.21186350285E+03  0.21186350285E+03  0.00000000000E+00 0. -1.
        -24    2    1    2    0    0 -0.53655139489E+02 -0.49095792596E+02  0.14527689059E+03  0.17780750322E+03  0.72255535543E+02 0.  0.
         23    2    1    2    0    0  0.18279850336E+02  0.16830662146E+02 -0.18076154168E+03  0.20435799862E+03  0.92032779665E+02 0.  0.
         11    1    3    3    0    0 -0.65568025841E+02 -0.17388909125E+02  0.85966910367E+02  0.10950730501E+03  0.00000000000E+00 0. -1.
        -12    1    3    3    0    0  0.11912886351E+02 -0.31706883471E+02  0.59309980221E+02  0.68300198202E+02  0.00000000000E+00 0.  1.
        -13    1    4    4    0    0 -0.29048236795E+02  0.28498099728E+01 -0.18028526825E+02  0.34306694059E+02  0.00000000000E+00 0.  1.
         13    1    4    4    0    0  0.47328087131E+02  0.13980852174E+02 -0.16273301486E+03  0.17005130456E+03  0.00000000000E+00 0. -1.
         21    1    1    2  502  501  0.35375289153E+02  0.32265130450E+02  0.18558303704E+03  0.19165988981E+03  0.00000000000E+00 0. -1.
<scales pt_clust_5="13000.00000" pt_clust_6="13000.00000" pt_clust_7="13000.00000" pt_clust_8="13000.00000" pt_clust_9="47.87953"></scales>
<clustering>
<clus scale="   47.880">  1  9  2 -1</clus>
<clus scale="   72.256">  5  6 -1 -1</clus>
<clus scale="   77.530">  1  5  2 -1</clus>
<clus scale="   92.033">  7  8 -1 -1</clus>
<clus scale="   96.229">  2  5  1 -1</clus>
</clustering>
</event>
<event>
 9    1  0.2802611E-005  0.1598355E+03  0.7546771E-02  0.1191505E+00
         -2   -1    0    0    0  501 -0.00000000000E+00  0.00000000000E+00  0.82129562492E+02  0.82129562492E+02  0.00000000000E+00 0.  1.
          1   -1    0    0  502    0  0.00000000000E+00 -0.00000000000E+00 -0.81089954759E+03  0.81089954759E+03  0.00000000000E+00 0. -1.
        -24    2    1    2    0    0 -0.58335022001E+02 -0.98149089161E+02 -0.26605240083E+03  0.30056871598E+03  0.80755523319E+02 0.  0.
         23    2    1    2    0    0  0.73596882994E+02  0.11644269817E+03 -0.51135163082E+03  0.53830459093E+03  0.96519112732E+02 0.  0.
         13    1    3    3    0    0 -0.13470714918E+02 -0.88267522850E+02 -0.20931985004E+03  0.22756848501E+03  0.00000000000E+00 0. -1.
        -14    1    3    3    0    0 -0.44864307083E+02 -0.98815663104E+01 -0.56732550790E+02  0.73000230972E+02  0.00000000000E+00 0.  1.
        -11    1    4    4    0    0 -0.21251333556E+02  0.43812747382E+02 -0.15365618648E+03  0.16118746743E+03  0.00000000000E+00 0.  1.
         11    1    4    4    0    0  0.94848216550E+02  0.72629950793E+02 -0.35769544434E+03  0.37711712350E+03  0.00000000000E+00 0. -1.
         21    1    1    2  502  501 -0.15261860994E+02 -0.18293609014E+02  0.48634046560E+02  0.54155803165E+02  0.00000000000E+00 0.  1.
<scales pt_clust_5="13000.00000" pt_clust_6="13000.00000" pt_clust_7="13000.00000" pt_clust_8="13000.00000" pt_clust_9="23.82395"></scales>
<clustering>
<clus scale="   23.824">  1  9  2 -1</clus>
<clus scale="   80.756">  5  6 -1 -1</clus>
<clus scale="   96.519">  7  8 -1 -1</clus>
<clus scale="  150.841">  1  5  2 -1</clus>
<clus scale="  159.836">  2  5  1 -1</clus>
</clustering>
</event>
<event>
 9    1  0.2802611E-005  0.1182797E+03  0.7546771E-02  0.1249748E+00
         -2   -1    0    0    0  501 -0.00000000000E+00  0.00000000000E+00  0.10403408084E+04  0.10403408084E+04  0.00000000000E+00 0.  1.
          1   -1    0    0  502    0  0.00000000000E+00 -0.00000000000E+00 -0.32839603639E+02  0.32839603639E+02  0.00000000000E+00 0. -1.
        -24    2    1    2    0    0 -0.76388987604E+02  0.98678742042E+01  0.85910851833E+03  0.86628275467E+03  0.80285194140E+02 0.  0.
         23    2    1    2    0    0  0.54461376423E+02 -0.20801860143E+02  0.82087641628E+02  0.13621009732E+03  0.91739036377E+02 0.  0.
         11    1    3    3    0    0 -0.14734954934E+02 -0.16455121776E+02  0.53370376012E+02  0.57760600458E+02  0.00000000000E+00 0. -1.
        -12    1    3    3    0    0 -0.61654032670E+02  0.26322995980E+02  0.80573814232E+03  0.80852215421E+03  0.00000000000E+00 0.  1.
        -13    1    4    4    0    0  0.29372936144E+02  0.34512554166E+02  0.20600491646E+02  0.49782185858E+02  0.00000000000E+00 0. -1.
         13    1    4    4    0    0  0.25088440279E+02 -0.55314414308E+02  0.61487149982E+02  0.86427911457E+02  0.00000000000E+00 0.  1.
         21    1    1    2  502  501  0.21927611181E+02  0.10933985939E+02  0.66305044830E+02  0.70687560083E+02  0.00000000000E+00 0.  1.
<scales pt_clust_5="13000.00000" pt_clust_6="13000.00000" pt_clust_7="13000.00000" pt_clust_8="13000.00000" pt_clust_9="24.50249"></scales>
<clustering>
<clus scale="   24.502">  2  9  1 -1</clus>
<clus scale="   80.285">  5  6 -1 -1</clus>
<clus scale="   91.739">  7  8 -1 -1</clus>
<clus scale="  109.635">  1  5  2 -1</clus>
<clus scale="   24.502">  2  5  1 -1</clus>
</clustering>
</event>
<event>
 9    1  0.2802611E-005  0.1460195E+03  0.7546771E-02  0.1206683E+00
          1   -1    0    0  502    0  0.00000000000E+00  0.00000000000E+00  0.82334937981E+03  0.82334937981E+03  0.00000000000E+00 0. -1.
         -2   -1    0    0    0  501 -0.00000000000E+00 -0.00000000000E+00 -0.34790010376E+02  0.34790010376E+02  0.00000000000E+00 0.  1.
         23    2    1    2    0    0  0.13020554700E+03 -0.11530532693E+02  0.27908754560E+03  0.32045544109E+03  0.87837315333E+02 0.  0.
        -24    2    1    2    0    0 -0.99155109105E+02 -0.17295243087E+02  0.37561127933E+03  0.39727846338E+03  0.81335620800E+02 0.  0.
         13    1    4    4    0    0 -0.91304223297E+02 -0.18590227022E+02  0.37772310536E+03  0.38904601535E+03  0.00000000000E+00 0. -1.
        -14    1    4    4    0    0 -0.78508858080E+01  0.12949839347E+01 -0.21118260361E+01  0.82324480301E+01  0.00000000000E+00 0.  1.
        -13    1    3    3    0    0  0.90455987714E+02  0.33301587589E+02  0.15258821212E+03  0.18048391598E+03  0.00000000000E+00 0.  1.
         13    1    3    3    0    0  0.39749559285E+02 -0.44832120282E+02  0.12649933347E+03  0.13997152511E+03  0.00000000000E+00 0. -1.
         21    1    1    2  502  501 -0.31050437893E+02  0.28825775781E+02  0.13386054451E+03  0.14040548571E+03  0.00000000000E+00 0.  1.
<scales pt_clust_5="13000.00000" pt_clust_6="13000.00000" pt_clust_7="13000.00000" pt_clust_8="13000.00000" pt_clust_9="42.36809"></scales>
<clustering>
<clus scale="   42.368">  1  9  2 -1</clus>
<clus scale="   81.336">  5  6 -1 -1</clus>
<clus scale="   87.837">  7  8 -1 -1</clus>
<clus scale="  142.203">  1  5  2 -1</clus>
<clus scale="   42.368">  1  5  2 -1</clus>
</clustering>
</event>
<event>
 9    1  0.2802611E-005  0.9243760E+02  0.7546771E-02  0.1304466E+00
         -2   -1    0    0    0  501 -0.00000000000E+00  0.00000000000E+00  0.11964384812E+03  0.11964384812E+03  0.00000000000E+00 0.  1.
          1   -1    0    0  502    0  0.00000000000E+00 -0.00000000000E+00 -0.32471353163E+03  0.32471353163E+03  0.00000000000E+00 0. -1.
        -24    2    1    2    0    0 -0.16021947379E+02 -0.33442546480E+02  0.94727209805E+01  0.87747359741E+02  0.78960496363E+02 0.  0.
         23    2    1    2    0    0  0.40781639188E+01  0.12612080192E+02 -0.27585100203E+03  0.29076697618E+03  0.90972320677E+02 0.  0.
         13    1    3    3    0    0 -0.31738265235E+02 -0.30520389107E+02 -0.24365045014E+02  0.50323623180E+02  0.00000000000E+00 0. -1.
        -14    1    3    3    0    0  0.15716317856E+02 -0.29221573725E+01  0.33837765995E+02  0.37423736561E+02  0.00000000000E+00 0.  1.
        -11    1    4    4    0    0  0.42338323289E+02 -0.85729269540E+01 -0.18446369402E+03  0.18945417152E+03  0.00000000000E+00 0.  1.
         11    1    4    4    0    0 -0.38260159370E+02  0.21185007146E+02 -0.91387308011E+02  0.10131280466E+03  0.00000000000E+00 0. -1.
         21    1    1    2  502  501  0.11943783460E+02  0.20830466288E+02  0.61308597534E+02  0.65843043829E+02  0.00000000000E+00 0.  1.
<scales pt_clust_5="13000.00000" pt_clust_6="13000.00000" pt_clust_7="13000.00000" pt_clust_8="13000.00000" pt_clust_9="24.01171"></scales>
<clustering>
<clus scale="   24.012">  1  9  2 -1</clus>
<clus scale="   78.960">  5  6 -1 -1</clus>
<clus scale="   80.644">  1  5  2 -1</clus>
<clus scale="   90.972">  7  8 -1 -1</clus>
<clus scale="   92.438">  2  5  1 -1</clus>
</clustering>
</event>
<event>
 9    1  0.2802611E-005  0.9991616E+02  0.7546771E-02  0.1286046E+00
          1   -1    0    0  502    0  0.00000000000E+00  0.00000000000E+00  0.32667184156E+03  0.32667184156E+03  0.00000000000E+00 0. -1.
         -2   -1    0    0    0  501 -0.00000000000E+00 -0.00000000000E+00 -0.55778511642E+02  0.55778511642E+02  0.00000000000E+00 0.  1.
         23    2    1    2    0    0 -0.22763799599E+00 -0.19025873720E+02  0.26949857232E+02  0.97694288870E+02  0.91955660963E+02 0.  0.
        -24    2    1    2    0    0  0.24690852093E+01  0.43797258189E+02  0.24300078849E+03  0.25986561983E+03  0.80971976351E+02 0.  0.
         13    1    4    4    0    0  0.32644566529E+02  0.16162732232E+02  0.18696754724E+03  0.19048297918E+03  0.00000000000E+00 0. -1.
        -14    1    4    4    0    0 -0.30175481320E+02  0.27634525957E+02  0.56033241251E+02  0.69382640645E+02  0.00000000000E+00 0.  1.
        -13    1    3    3    0    0 -0.40165940467E+02 -0.15758123874E+01 -0.90055565867E+01  0.41193276244E+02  0.00000000000E+00 0.  1.
         13    1    3    3    0    0  0.39938302471E+02 -0.17450061333E+02  0.35955413818E+02  0.56501012625E+02  0.00000000000E+00 0. -1.
         21    1    1    2  502  501 -0.22414472133E+01 -0.24771384468E+02  0.94268419323E+00  0.24890444504E+02  0.00000000000E+00 0. -1.
<scales pt_clust_5="13000.00000" pt_clust_6="13000.00000" pt_clust_7="13000.00000" pt_clust_8="13000.00000" pt_clust_9="24.87259"></scales>
<clustering>
<clus scale="   24.873">  2  9  1 -1</clus>
<clus scale="   80.972">  5  6 -1 -1</clus>
<clus scale="   89.910">  1  5  2 -1</clus>
<clus scale="   91.956">  7  8 -1 -1</clus>
<clus scale="   89.910">  1  5  2 -1</clus>
</clustering>
</event>
<event>
 9    1  0.2802611E-005  0.1442513E+03  0.7546771E-02  0.1210794E+00
         -4   -1    0    0    0  501 -0.00000000000E+00  0.00000000000E+00  0.12268207811E+03  0.12268207811E+03  0.00000000000E+00 0.  1.
          3   -1    0    0  502    0  0.00000000000E+00 -0.00000000000E+00 -0.57386531969E+03  0.57386531969E+03  0.00000000000E+00 0. -1.
         23    2    1    2    0    0 -0.77277540487E+02 -0.47115075577E+02  0.48070644853E+02  0.13956076497E+03  0.94735271219E+02 0.  0.
        -24    2    1    2    0    0  0.77109235354E+02  0.79581302912E+02 -0.50572750813E+03  0.52388086260E+03  0.80073889478E+02 0.  0.
         13    1    4    4    0    0  0.81081682557E+02  0.55133522897E+02 -0.47176164765E+03  0.48184333220E+03  0.00000000000E+00 0. -1.
        -14    1    4    4    0    0 -0.39724472031E+01  0.24447780015E+02 -0.33965860479E+02  0.42037530405E+02  0.00000000000E+00 0.  1.
        -11    1    3    3    0    0 -0.93013113491E+01 -0.60902675408E+02  0.24565510123E+02  0.66325821158E+02  0.00000000000E+00 0.  1.
         11    1    3    3    0    0 -0.67976229138E+02  0.13787599831E+02  0.23505134731E+02  0.73234943816E+02  0.00000000000E+00 0. -1.
         21    1    1    2  502  501  0.16830513338E+00 -0.32466227335E+02  0.64736216930E+01  0.33105770219E+02  0.00000000000E+00 0. -1.
<scales pt_clust_5="13000.00000" pt_clust_6="13000.00000" pt_clust_7="13000.00000" pt_clust_8="13000.00000" pt_clust_9="32.46666"></scales>
<clustering>
<clus scale="   32.467">  1  9  2 -1</clus>
<clus scale="   80.074">  5  6 -1 -1</clus>
<clus scale="   94.735">  7  8 -1 -1</clus>
<clus scale="  135.076">  2  5  1 -1</clus>
<clus scale="  135.076">  2  5  1 -1</clus>
</clustering>
</event>
<event>
 9    1  0.2802611E-005  0.2299209E+03  0.7546771E-02  0.1127617E+00
         -2   -1    0    0    0  501 -0.00000000000E+00  0.00000000000E+00  0.69830244961E+02  0.69830244961E+02  0.00000000000E+00 0.  1.
          1   -1    0    0  502    0  0.00000000000E+00 -0.00000000000E+00 -0.13114489743E+04  0.13114489743E+04  0.00000000000E+00 0. -1.
        -24    2    1    2    0    0 -0.36244139587E+02 -0.19105900814E+03 -0.28738981637E+03  0.35621218270E+03  0.80479999386E+02 0.  0.
         23    2    1    2    0    0  0.74319087111E+02  0.20394191894E+03 -0.95600734825E+03  0.98483230214E+03  0.93962654408E+02 0.  0.
         11    1    3    3    0    0  0.17620593958E+02 -0.52306308879E+02 -0.42595029772E+02  0.69719235805E+02  0.00000000000E+00 0. -1.
        -12    1    3    3    0    0 -0.53864733545E+02 -0.13875269926E+03 -0.24479478660E+03  0.28649294689E+03  0.00000000000E+00 0.  1.
        -13    1    4    4    0    0  0.42515208156E+02  0.30432836166E+02 -0.12845222807E+03  0.13868552678E+03  0.00000000000E+00 0.  1.
         13    1    4    4    0    0  0.31803878955E+02  0.17350908278E+03 -0.82755512018E+03  0.84614677536E+03  0.00000000000E+00 0. -1.
         21    1    1    2  502  501 -0.38074947524E+02 -0.12882910801E+02  0.17784353093E+01  0.40234734394E+02  0.00000000000E+00 0.  1.
<scales pt_clust_5="13000.00000" pt_clust_6="13000.00000" pt_clust_7="13000.00000" pt_clust_8="13000.00000" pt_clust_9="40.19541"></scales>
<clustering>
<clus scale="   40.195">  1  9  2 -1</clus>
<clus scale="   80.480">  5  6 -1 -1</clus>
<clus scale="   93.963">  7  8 -1 -1</clus>
<clus scale="  224.748">  1  5  2 -1</clus>
<clus scale="  229.921">  2  5  1 -1</clus>
</clustering>
</event>
<event>
 9    1  0.2802611E-005  0.9848856E+02  0.7546771E-02  0.1292546E+00
          1   -1    0    0  502    0  0.00000000000E+00  0.00000000000E+00  0.30981809802E+03  0.30981809802E+03  0.00000000000E+00 0. -1.
         -2   -1    0    0    0  501 -0.00000000000E+00 -0.00000000000E+00 -0.49634751587E+02  0.49634751587E+02  0.00000000000E+00 0.  1.
        -24    2    1    2    0    0 -0.44448142329E+02 -0.37495184572E+01  0.79940832038E+02  0.11715587770E+03  0.73111331594E+02 0.  0.
         23    2    1    2    0    0  0.31842428981E+02  0.21443629861E+02  0.19344678394E+03  0.21687378718E+03  0.90215363461E+02 0.  0.
         11    1    3    3    0    0 -0.39364457813E+02 -0.29187806984E+02  0.76692171532E+02  0.91011965091E+02  0.00000000000E+00 0. -1.
        -12    1    3    3    0    0 -0.50836845161E+01  0.25438288527E+02  0.32486605067E+01  0.26143912609E+02  0.00000000000E+00 0.  1.
        -11    1    4    4    0    0  0.32353872917E+02  0.47012341623E+02  0.67663935331E+02  0.88517464390E+02  0.00000000000E+00 0.  1.
         11    1    4    4    0    0 -0.51144393608E+00 -0.25568711761E+02  0.12578284861E+03  0.12835632279E+03  0.00000000000E+00 0. -1.
         21    1    1    2  502  501  0.12605713349E+02 -0.17694111404E+02 -0.13204269545E+02  0.25423184726E+02  0.00000000000E+00 0.  1.
<scales pt_clust_5="13000.00000" pt_clust_6="13000.00000" pt_clust_7="13000.00000" pt_clust_8="13000.00000" pt_clust_9="21.72523"></scales>
<clustering>
<clus scale="   21.725">  2  9  1 -1</clus>
<clus scale="   73.111">  5  6 -1 -1</clus>
<clus scale="   83.105">  2  5  1 -1</clus>
<clus scale="   90.215">  7  8 -1 -1</clus>
<clus scale="   98.489">  1  5  2 -1</clus>
</clustering>
</event>
<event>
 9    1  0.2802611E-005  0.1170113E+03  0.7546771E-02  0.1253522E+00
          1   -1    0    0  502    0  0.00000000000E+00  0.00000000000E+00  0.30273094847E+03  0.30273094847E+03  0.00000000000E+00 0. -1.
         -2   -1    0    0    0  501 -0.00000000000E+00 -0.00000000000E+00 -0.52679950379E+02  0.52679950379E+02  0.00000000000E+00 0.  1.
         23    2    1    2    0    0  0.42178053550E+02 -0.52293513854E+02  0.10549583477E+03  0.15693120838E+03  0.94786250144E+02 0.  0.
        -24    2    1    2    0    0 -0.25604086001E+02  0.66167510229E+02  0.14072364217E+03  0.17652827298E+03  0.79532251724E+02 0.  0.
         11    1    4    4    0    0  0.23943923828E+02  0.20058679725E+02  0.78905454164E+02  0.84863023853E+02  0.00000000000E+00 0. -1.
        -12    1    4    4    0    0 -0.49548009830E+02  0.46108830504E+02  0.61818188011E+02  0.91665249127E+02  0.00000000000E+00 0.  1.
        -13    1    3    3    0    0  0.67644320142E+02 -0.23155134976E+02  0.43024095317E+02  0.83444515105E+02  0.00000000000E+00 0.  1.
         13    1    3    3    0    0 -0.25466266592E+02 -0.29138378878E+02  0.62471739453E+02  0.73486693272E+02  0.00000000000E+00 0. -1.
         21    1    1    2  502  501 -0.16573967549E+02 -0.13873996375E+02  0.38315211480E+01  0.21951417495E+02  0.00000000000E+00 0. -1.
<scales pt_clust_5="13000.00000" pt_clust_6="13000.00000" pt_clust_7="13000.00000" pt_clust_8="13000.00000" pt_clust_9="21.61444"></scales>
<clustering>
<clus scale="   21.614">  2  9  1 -1</clus>
<clus scale="   79.532">  5  6 -1 -1</clus>
<clus scale="   94.786">  7  8 -1 -1</clus>
<clus scale="  105.036">  1  5  2 -1</clus>
<clus scale="  105.036">  1  5  2 -1</clus>
</clustering>
</event>
<event>
 9    1  0.2802611E-005  0.1014344E+03  0.7546771E-02  0.1284937E+00
         -2   -1    0    0    0  501 -0.00000000000E+00  0.00000000000E+00  0.63322673602E+02  0.63322673602E+02  0.00000000000E+00 0.  1.
          1   -1    0    0  502    0  0.00000000000E+00 -0.00000000000E+00 -0.54145874247E+03  0.54145874247E+03  0.00000000000E+00 0. -1.
        -24    2    1    2    0    0 -0.64478709909E+01 -0.19659648303E+02  0.18044480906E+02  0.84467073084E+02  0.79881201370E+02 0.  0.
         23    2    1    2    0    0 -0.20226076194E+02  0.33052038838E+02 -0.46870735982E+03  0.47974795606E+03  0.94709982359E+02 0.  0.
         11    1    3    3    0    0 -0.59456679122E+00  0.27850437114E+02 -0.92630942844E+01  0.29356520108E+02  0.00000000000E+00 0. -1.
        -12    1    3    3    0    0 -0.58533041997E+01 -0.47510085418E+02  0.27307575191E+02  0.55110552975E+02  0.00000000000E+00 0.  1.
        -13    1    4    4    0    0 -0.56603412285E+02  0.30402377507E+02 -0.25623958875E+03  0.26417225003E+03  0.00000000000E+00 0. -1.
         13    1    4    4    0    0  0.36377336091E+02  0.26496613308E+01 -0.21246777107E+03  0.21557570603E+03  0.00000000000E+00 0.  1.
         21    1    1    2  502  501  0.26673947185E+02 -0.13392390534E+02 -0.27473189953E+02  0.40566386934E+02  0.00000000000E+00 0.  1.
<scales pt_clust_5="13000.00000" pt_clust_6="13000.00000" pt_clust_7="13000.00000" pt_clust_8="13000.00000" pt_clust_9="29.84720"></scales>
<clustering>
<clus scale="   29.847">  1  9  2 -1</clus>
<clus scale="   79.881">  5  6 -1 -1</clus>
<clus scale="   87.749">  1  5  2 -1</clus>
<clus scale="   94.710">  7  8 -1 -1</clus>
<clus scale="  101.434">  2  5  1 -1</clus>
</clustering>
</event>
<event>
 9    1  0.2802611E-005  0.8738879E+02  0.7546771E-02  0.1313539E+00
          1   -1    0    0  502    0  0.00000000000E+00  0.00000000000E+00  0.85756927381E+02  0.85756927381E+02  0.00000000000E+00 0. -1.
         -2   -1    0    0    0  501 -0.00000000000E+00 -0.00000000000E+00 -0.16924650196E+03  0.16924650196E+03  0.00000000000E+00 0.  1.
        -24    2    1    2    0    0  0.25823303315E+02  0.29079805323E+01 -0.64834265600E+02  0.10564301875E+03  0.79256962278E+02 0.  0.
         23    2    1    2    0    0 -0.78781870085E+01 -0.13220588719E+02  0.33366332739E+02  0.93372659307E+02  0.85838753189E+02 0.  0.
         13    1    3    3    0    0  0.70885945288E+01 -0.32433644769E+02 -0.48597260377E+01  0.33553038946E+02  0.00000000000E+00 0. -1.
        -14    1    3    3    0    0  0.18734708786E+02  0.35341625301E+02 -0.59974539562E+02  0.72089979802E+02  0.00000000000E+00 0.  1.
        -13    1    4    4    0    0 -0.30672680984E+02  0.17173957616E+02 -0.91800290142E+01  0.36332232407E+02  0.00000000000E+00 0.  1.
         13    1    4    4    0    0  0.22794493976E+02 -0.30394546335E+02  0.42546361753E+02  0.57040426900E+02  0.00000000000E+00 0. -1.
         21    1    1    2  502  501 -0.17945116307E+02  0.10312608187E+02 -0.52021641714E+02  0.55987751281E+02  0.00000000000E+00 0.  1.
<scales pt_clust_5="13000.00000" pt_clust_6="13000.00000" pt_clust_7="13000.00000" pt_clust_8="13000.00000" pt_clust_9="20.69727"></scales>
<clustering>
<clus scale="   20.697">  2  9  1 -1</clus>
<clus scale="   79.257">  5  6 -1 -1</clus>
<clus scale="   80.933">  2  5  1 -1</clus>
<clus scale="   85.839">  7  8 -1 -1</clus>
<clus scale="   87.389">  1  5  2 -1</clus>
</clustering>
</event>
<event>
 9    1  0.2802611E-005  0.9291012E+02  0.7546771E-02  0.1301567E+00
          3   -1    0    0  502    0  0.00000000000E+00  0.00000000000E+00  0.14486028469E+03  0.14486028469E+03  0.00000000000E+00 0. -1.
         -4   -1    0    0    0  501 -0.00000000000E+00 -0.00000000000E+00 -0.13549552374E+03  0.13549552374E+03  0.00000000000E+00 0.  1.
        -24    2    1    2    0    0  0.81315602818E+01 -0.13161286766E+02 -0.83353175985E+02  0.11765701638E+03  0.81584801365E+02 0.  0.
         23    2    1    2    0    0 -0.51423316355E+01  0.43331715181E+02  0.83659138001E+02  0.13105622457E+03  0.90954942216E+02 0.  0.
         11    1    3    3    0    0 -0.10668927358E+02 -0.17913499384E+02  0.94197662827E+01  0.22879061781E+02  0.00000000000E+00 0. -1.
        -12    1    3    3    0    0  0.18800487640E+02  0.47522126179E+01 -0.92772942268E+02  0.94777954595E+02  0.00000000000E+00 0.  1.
        -11    1    4    4    0    0  0.37223191929E+02  0.45012466775E+02  0.46019227947E+02  0.74360322238E+02  0.00000000000E+00 0.  1.
         11    1    4    4    0    0 -0.42365523565E+02 -0.16807515942E+01  0.37639910054E+02  0.56695902336E+02  0.00000000000E+00 0. -1.
         21    1    1    2  502  501 -0.29892286462E+01 -0.30170428414E+02  0.90587989379E+01  0.31642567481E+02  0.00000000000E+00 0.  1.
<scales pt_clust_5="13000.00000" pt_clust_6="13000.00000" pt_clust_7="13000.00000" pt_clust_8="13000.00000" pt_clust_9="30.31815"></scales>
<clustering>
<clus scale="   30.318">  1  9  2 -1</clus>
<clus scale="   81.585">  5  6 -1 -1</clus>
<clus scale="   83.759">  2  5  1 -1</clus>
<clus scale="   90.955">  7  8 -1 -1</clus>
<clus scale="   30.318">  1  5  2 -1</clus>
</clustering>
</event>
<event>
 9    1  0.2802611E-005  0.1177129E+03  0.7546771E-02  0.1253278E+00
         -2   -1    0    0    0  501 -0.00000000000E+00  0.00000000000E+00  0.61553122559E+02  0.61553122559E+02  0.00000000000E+00 0.  1.
          1   -1    0    0  502    0  0.00000000000E+00 -0.00000000000E+00 -0.42381916258E+03  0.42381916258E+03  0.00000000000E+00 0. -1.
         23    2    1    2    0    0  0.66393575892E+02  0.11062605428E+01 -0.19634428897E+02  0.11890192762E+03  0.96658299499E+02 0.  0.
        -24    2    1    2    0    0 -0.69937295238E+02 -0.20792335520E+02 -0.31088166527E+03  0.32894491873E+03  0.78954437949E+02 0.  0.
         11    1    4    4    0    0 -0.42793090921E+02 -0.48100101410E+02 -0.14494821752E+03  0.15860281885E+03  0.00000000000E+00 0. -1.
        -12    1    4    4    0    0 -0.27144204316E+02  0.27307765890E+02 -0.16593344776E+03  0.17034209988E+03  0.00000000000E+00 0.  1.
        -13    1    3    3    0    0  0.60727971530E+02  0.27990937067E+02  0.20788754086E+02  0.70025362409E+02  0.00000000000E+00 0.  1.
         13    1    3    3    0    0  0.56656043616E+01 -0.26884676524E+02 -0.40423182983E+02  0.48876565213E+02  0.00000000000E+00 0. -1.
         21    1    1    2  502  501  0.35437193460E+01  0.19686074977E+02 -0.31749945846E+02  0.37525438786E+02  0.00000000000E+00 0. -1.
<scales pt_clust_5="13000.00000" pt_clust_6="13000.00000" pt_clust_7="13000.00000" pt_clust_8="13000.00000" pt_clust_9="20.00249"></scales>
<clustering>
<clus scale="   20.002">  2  9  1 -1</clus>
<clus scale="   78.954">  5  6 -1 -1</clus>
<clus scale="   96.658">  7  8 -1 -1</clus>
<clus scale="  103.669">  2  5  1 -1</clus>
<clus scale="   20.002">  2  5  1 -1</clus>
</clustering>
</event>
<event>
 9    1  0.2802611E-005  0.9557236E+02  0.7546771E-02  0.1294573E+00
          1   -1    0    0  502    0  0.00000000000E+00  0.00000000000E+00  0.25761615017E+03  0.25761615017E+03  0.00000000000E+00 0. -1.
         -2   -1    0    0    0  501 -0.00000000000E+00 -0.00000000000E+00 -0.12160526410E+03  0.12160526410E+03  0.00000000000E+00 0.  1.
         23    2    1    2    0    0  0.52023791571E+02 -0.12895374923E+02  0.64606213149E+02  0.12302228707E+03  0.89931945123E+02 0.  0.
        -24    2    1    2    0    0 -0.22049406627E+02 -0.19523606441E+02  0.14587841389E+03  0.16962088399E+03  0.81384182168E+02 0.  0.
         11    1    4    4    0    0  0.23449153588E+02 -0.27601338581E+02  0.90606280082E+02  0.97576609317E+02  0.00000000000E+00 0. -1.
        -12    1    4    4    0    0 -0.45498560215E+02  0.80777321402E+01  0.55272133805E+02  0.72044274675E+02  0.00000000000E+00 0.  1.
        -13    1    3    3    0    0  0.16368864500E+02  0.24826943231E+02 -0.10662557065E+02  0.31591248130E+02  0.00000000000E+00 0.  1.
         13    1    3    3    0    0  0.35654927071E+02 -0.37722318154E+02  0.75268770214E+02  0.91431038936E+02  0.00000000000E+00 0. -1.
         21    1    1    2  502  501 -0.29974384944E+02  0.32418981364E+02 -0.74473740960E+02  0.86578243214E+02  0.00000000000E+00 0.  1.
<scales pt_clust_5="13000.00000" pt_clust_6="13000.00000" pt_clust_7="13000.00000" pt_clust_8="13000.00000" pt_clust_9="44.15262"></scales>
<clustering>
<clus scale="   44.153">  2  9  1 -1</clus>
<clus scale="   81.384">  5  6 -1 -1</clus>
<clus scale="   87.577">  1  5  2 -1</clus>
<clus scale="   89.932">  7  8 -1 -1</clus>
<clus scale="   87.577">  1  5  2 -1</clus>
</clustering>
</event>
<event>
 9    1  0.2802611E-005  0.9748498E+02  0.7546771E-02  0.1290966E+00
         -4   -1    0    0    0  501 -0.00000000000E+00  0.00000000000E+00  0.11671017075E+03  0.11671017075E+03  0.00000000000E+00 0.  1.
          3   -1    0    0  502    0  0.00000000000E+00 -0.00000000000E+00 -0.20898532786E+03  0.20898532786E+03  0.00000000000E+00 0. -1.
         23    2    1    2    0    0 -0.89402784886E+01  0.62480141810E+02  0.35497290926E+02  0.11677421263E+03  0.91610383543E+02 0.  0.
        -24    2    1    2    0    0 -0.33152060315E+02 -0.12338780818E+02 -0.10912180612E+03  0.14084950392E+03  0.81729490206E+02 0.  0.
         11    1    4    4    0    0 -0.21581938060E+02 -0.43283883550E+02 -0.91280466977E+02  0.10330246017E+03  0.00000000000E+00 0. -1.
        -12    1    4    4    0    0 -0.11570122255E+02  0.30945102732E+02 -0.17841339139E+02  0.37547043750E+02  0.00000000000E+00 0.  1.
        -13    1    3    3    0    0 -0.27496317712E+02  0.10426533053E+02 -0.22226902315E+02  0.36861840238E+02  0.00000000000E+00 0. -1.
         13    1    3    3    0    0  0.18556039223E+02  0.52053608757E+02  0.57724193241E+02  0.79912372394E+02  0.00000000000E+00 0.  1.
         21    1    1    2  502  501  0.42092338804E+02 -0.50141360992E+02 -0.18650641924E+02  0.68071782056E+02  0.00000000000E+00 0. -1.
<scales pt_clust_5="13000.00000" pt_clust_6="13000.00000" pt_clust_7="13000.00000" pt_clust_8="13000.00000" pt_clust_9="65.46695"></scales>
<clustering>
<clus scale="   65.467">  1  9  2 -1</clus>
<clus scale="   81.729">  5  6 -1 -1</clus>
<clus scale="   88.264">  2  5  1 -1</clus>
<clus scale="   91.610">  7  8 -1 -1</clus>
<clus scale="   88.264">  2  5  1 -1</clus>
</clustering>
</event>
<event>
 9    1  0.2802611E-005  0.1349704E+03  0.7546771E-02  0.1223108E+00
          3   -1    0    0  502    0  0.00000000000E+00  0.00000000000E+00  0.22708698458E+03  0.22708698458E+03  0.00000000000E+00 0. -1.
         -4   -1    0    0    0  501 -0.00000000000E+00 -0.00000000000E+00 -0.30869559696E+03  0.30869559696E+03  0.00000000000E+00 0.  1.
        -24    2    1    2    0    0 -0.14853644498E+03  0.93303226735E+02 -0.18052157354E+03  0.26346874438E+03  0.77840690821E+02 0.  0.
         23    2    1    2    0    0  0.71333636945E+02 -0.57654944970E+02  0.12901302772E+03  0.18210803042E+03  0.90035509564E+02 0.  0.
         11    1    3    3    0    0  0.40679709490E+01  0.23768913794E+02 -0.25458258034E+02  0.35066116875E+02  0.00000000000E+00 0. -1.
        -12    1    3    3    0    0 -0.15260441593E+03  0.69534312941E+02 -0.15506331550E+03  0.22840262751E+03  0.00000000000E+00 0.  1.
        -13    1    4    4    0    0  0.35369254173E+02 -0.44342789218E+02  0.13197202075E+03  0.14364498375E+03  0.00000000000E+00 0. -1.
         13    1    4    4    0    0  0.35964382772E+02 -0.13312155752E+02 -0.29589930328E+01  0.38463046665E+02  0.00000000000E+00 0.  1.
         21    1    1    2  502  501  0.77202808033E+02 -0.35648281765E+02 -0.30100066563E+02  0.90205806732E+02  0.00000000000E+00 0. -1.
<scales pt_clust_5="13000.00000" pt_clust_6="13000.00000" pt_clust_7="13000.00000" pt_clust_8="13000.00000" pt_clust_9="85.03572"></scales>
<clustering>
<clus scale="   77.841">  5  6 -1 -1</clus>
<clus scale="   85.036">  2  9  1 -1</clus>
<clus scale="   90.036">  7  8 -1 -1</clus>
<clus scale="  127.160">  2  5  1 -1</clus>
<clus scale="  134.970">  1  5  2 -1</clus>
</clustering>
</event>
<event>
 9    1  0.2802611E-005  0.1236306E+03  0.7546771E-02  0.1239821E+00
         -2   -1    0    0    0  501 -0.00000000000E+00  0.00000000000E+00  0.89895796368E+03  0.89895796368E+03  0.00000000000E+00 0.  1.
          1   -1    0    0  502    0  0.00000000000E+00 -0.00000000000E+00 -0.12591811573E+03  0.12591811573E+03  0.00000000000E+00 0. -1.
        -24    2    1    2    0    0  0.61687487058E+02  0.17358120768E+01  0.67984248614E+03  0.68731380487E+03  0.80038124016E+02 0.  0.
         23    2    1    2    0    0 -0.76801075638E+02  0.41358761971E+02 -0.86756990341E+02  0.15190363152E+03  0.89100984764E+02 0.  0.
         11    1    3    3    0    0  0.29683731671E+02  0.34831277470E+02  0.19535220187E+03  0.20064103416E+03  0.00000000000E+00 0. -1.
        -12    1    3    3    0    0  0.32003755387E+02 -0.33095465393E+02  0.48449028427E+03  0.48667277070E+03  0.00000000000E+00 0.  1.
        -13    1    4    4    0    0 -0.59047513658E+02 -0.99530320053E-01 -0.88933998375E+02  0.10675146295E+03  0.00000000000E+00 0. -1.
         13    1    4    4    0    0 -0.17753561980E+02  0.41458292291E+02  0.21770080336E+01  0.45152168571E+02  0.00000000000E+00 0.  1.
         21    1    1    2  502  501  0.15113588580E+02 -0.43094574048E+02  0.17995435215E+03  0.18565864302E+03  0.00000000000E+00 0.  1.
<scales pt_clust_5="13000.00000" pt_clust_6="13000.00000" pt_clust_7="13000.00000" pt_clust_8="13000.00000" pt_clust_9="45.66796"></scales>
<clustering>
<clus scale="   45.668">  1  9  2 -1</clus>
<clus scale="   80.038">  5  6 -1 -1</clus>
<clus scale="   89.101">  7  8 -1 -1</clus>
<clus scale="  117.267">  1  5  2 -1</clus>
<clus scale="  123.631">  2  5  1 -1</clus>
</clustering>
</event>
<event>
 9    1  0.2802611E-005  0.1071817E+03  0.7546771E-02  0.1269904E+00
         -2   -1    0    0    0  501 -0.00000000000E+00  0.00000000000E+00  0.72073281135E+02  0.72073281135E+02  0.00000000000E+00 0.  1.
          1   -1    0    0  502    0  0.00000000000E+00 -0.00000000000E+00 -0.36221116759E+03  0.36221116759E+03  0.00000000000E+00 0. -1.
         23    2    1    2    0    0 -0.48816152999E+02 -0.64740263951E+02 -0.13712040961E+03  0.18332857586E+03  0.90736108703E+02 0.  0.
        -24    2    1    2    0    0  0.26573164038E+02  0.36877018891E+02 -0.18242750731E+03  0.20473833426E+03  0.81067518314E+02 0.  0.
         11    1    4    4    0    0  0.35004506787E+02  0.52944319245E+02 -0.87519953519E+02  0.10811178798E+03  0.00000000000E+00 0. -1.
        -12    1    4    4    0    0 -0.84313427492E+01 -0.16067300354E+02 -0.94907553787E+02  0.96626546286E+02  0.00000000000E+00 0.  1.
        -13    1    3    3    0    0 -0.16455805353E+02  0.14017865154E+02  0.35561524229E+00  0.21619910627E+02  0.00000000000E+00 0. -1.
         13    1    3    3    0    0 -0.32360347645E+02 -0.78758129105E+02 -0.13747602486E+03  0.16170866523E+03  0.00000000000E+00 0.  1.
         21    1    1    2  502  501  0.22242988961E+02  0.27863245060E+02  0.29410030463E+02  0.46217538609E+02  0.00000000000E+00 0. -1.
<scales pt_clust_5="13000.00000" pt_clust_6="13000.00000" pt_clust_7="13000.00000" pt_clust_8="13000.00000" pt_clust_9="35.65264"></scales>
<clustering>
<clus scale="   35.653">  1  9  2 -1</clus>
<clus scale="   81.068">  5  6 -1 -1</clus>
<clus scale="   90.736">  7  8 -1 -1</clus>
<clus scale="   99.130">  2  5  1 -1</clus>
<clus scale="   99.130">  2  5  1 -1</clus>
</clustering>
</event>
<event>
 9    1  0.2802611E-005  0.1375314E+03  0.7546771E-02  0.1237885E+00
          1   -1    0    0  502    0  0.00000000000E+00  0.00000000000E+00  0.35305482095E+03  0.35305482095E+03  0.00000000000E+00 0. -1.
         -2   -1    0    0    0  501 -0.00000000000E+00 -0.00000000000E+00 -0.93158777568E+02  0.93158777568E+02  0.00000000000E+00 0.  1.
        -24    2    1    2    0    0 -0.37543431096E+02 -0.66698506425E+01  0.45624294296E+01  0.88720996091E+02  0.79978767551E+02 0.  0.
         23    2    1    2    0    0 -0.86103646515E+02 -0.18481835229E+02  0.13192698674E+03  0.18099783553E+03  0.87178382973E+02 0.  0.
         13    1    3    3    0    0  0.10851327012E+02 -0.19210348388E+02 -0.22801823670E+02  0.31728724301E+02  0.00000000000E+00 0. -1.
        -14    1    3    3    0    0 -0.48394758108E+02  0.12540497746E+02  0.27364253100E+02  0.56992271789E+02  0.00000000000E+00 0.  1.
        -11    1    4    4    0    0 -0.40046133436E+02 -0.49005828801E+02  0.96365798524E+02  0.11528933682E+03  0.00000000000E+00 0. -1.
         11    1    4    4    0    0 -0.46057513079E+02  0.30523993572E+02  0.35561188220E+02  0.65708498706E+02  0.00000000000E+00 0.  1.
         21    1    1    2  502  501  0.12364707761E+03  0.25151685872E+02  0.12340662721E+03  0.17649476690E+03  0.00000000000E+00 0.  1.
<scales pt_clust_5="13000.00000" pt_clust_6="13000.00000" pt_clust_7="13000.00000" pt_clust_8="13000.00000" pt_clust_9="106.37114"></scales>
<clustering>
<clus scale="   79.979">  5  6 -1 -1</clus>
<clus scale="   87.178">  7  8 -1 -1</clus>
<clus scale="   88.604">  2  5  1 -1</clus>
<clus scale="  106.371">  2  9  1 -1</clus>
<clus scale="  137.531">  1  5  2 -1</clus>
</clustering>
</event>
<event>
 9    1  0.2802611E-005  0.1505358E+03  0.7546771E-02  0.1213027E+00
          1   -1    0    0  502    0  0.00000000000E+00  0.00000000000E+00  0.71247501324E+03  0.71247501324E+03  0.00000000000E+00 0. -1.
         -2   -1    0    0    0  501 -0.00000000000E+00 -0.00000000000E+00 -0.12777020770E+03  0.12777020770E+03  0.00000000000E+00 0.  1.
        -24    2    1    2    0    0 -0.31789039465E+02  0.96696049904E+02  0.16501966739E+02  0.13000883403E+03  0.79178992932E+02 0.  0.
         23    2    1    2    0    0 -0.31294592192E+02  0.57255521070E+02  0.52670861051E+03  0.53876510136E+03  0.92673231618E+02 0.  0.
         11    1    3    3    0    0 -0.48653068383E+02  0.99416101863E+02  0.20251324453E+02  0.11252021381E+03  0.00000000000E+00 0. -1.
        -12    1    3    3    0    0  0.16864028918E+02 -0.27200519587E+01 -0.37493577145E+01  0.17488620222E+02  0.00000000000E+00 0.  1.
        -11    1    4    4    0    0 -0.47264105724E+01 -0.24518053646E+02  0.78211502613E+02  0.82100627601E+02  0.00000000000E+00 0.  1.
         11    1    4    4    0    0 -0.26568181619E+02  0.81773574716E+02  0.44849710790E+03  0.45666447376E+03  0.00000000000E+00 0. -1.
         21    1    1    2  502  501  0.63083631657E+02 -0.15395157097E+03  0.41494228291E+02  0.17147128555E+03  0.00000000000E+00 0.  1.
<scales pt_clust_5="13000.00000" pt_clust_6="13000.00000" pt_clust_7="13000.00000" pt_clust_8="13000.00000" pt_clust_9="128.03011"></scales>
<clustering>
<clus scale="   79.179">  5  6 -1 -1</clus>
<clus scale="   92.673">  7  8 -1 -1</clus>
<clus scale="  113.340">  1  7  2 -1</clus>
<clus scale="  128.030">  1  9  2 -1</clus>
<clus scale="  113.340">  1  5  2 -1</clus>
</clustering>
</event>
<event>
 9    1  0.2802611E-005  0.9091676E+02  0.7546771E-02  0.1305087E+00
         -2   -1    0    0    0  501 -0.00000000000E+00  0.00000000000E+00  0.69980506492E+02  0.69980506492E+02  0.00000000000E+00 0.  1.
          1   -1    0    0  502    0  0.00000000000E+00 -0.00000000000E+00 -0.23566032637E+03  0.23566032637E+03  0.00000000000E+00 0. -1.
        -24    2    1    2    0    0  0.92128879532E+01 -0.10599041627E+02  0.87077487656E+00  0.81497392084E+02  0.80273592667E+02 0.  0.
         23    2    1    2    0    0  0.84115462251E+01  0.27204517812E+02 -0.17557291484E+03  0.19830229570E+03  0.87676177806E+02 0.  0.
         11    1    3    3    0    0 -0.14636189587E+02  0.29261605237E+02 -0.91604669566E+01  0.33976076018E+02  0.00000000000E+00 0. -1.
        -12    1    3    3    0    0  0.23849077540E+02 -0.39860646864E+02  0.10031241833E+02  0.47521316066E+02  0.00000000000E+00 0.  1.
        -13    1    4    4    0    0 -0.36713757602E+02  0.20976378554E+02 -0.11489124809E+03  0.12242510912E+03  0.00000000000E+00 0. -1.
         13    1    4    4    0    0  0.45125303827E+02  0.62281392581E+01 -0.60681666747E+02  0.75877186579E+02  0.00000000000E+00 0.  1.
         21    1    1    2  502  501 -0.17624434178E+02 -0.16605476186E+02  0.90223200821E+01  0.25841145081E+02  0.00000000000E+00 0.  1.
<scales pt_clust_5="13000.00000" pt_clust_6="13000.00000" pt_clust_7="13000.00000" pt_clust_8="13000.00000" pt_clust_9="24.21492"></scales>
<clustering>
<clus scale="   24.215">  1  9  2 -1</clus>
<clus scale="   80.274">  5  6 -1 -1</clus>
<clus scale="   83.801">  1  5  2 -1</clus>
<clus scale="   87.676">  7  8 -1 -1</clus>
<clus scale="   90.917">  2  5  1 -1</clus>
</clustering>
</event>
<event>
 9    1  0.2802611E-005  0.1157125E+03  0.7546771E-02  0.1252411E+00
         -2   -1    0    0    0  501 -0.00000000000E+00  0.00000000000E+00  0.45701500252E+02  0.45701500252E+02  0.00000000000E+00 0.  1.
          1   -1    0    0  502    0  0.00000000000E+00 -0.00000000000E+00 -0.48444468641E+03  0.48444468641E+03  0.00000000000E+00 0. -1.
         23    2    1    2    0    0 -0.90033902260E+02  0.61081076493E+02 -0.20977515172E+03  0.25174288175E+03  0.86786305180E+02 0.  0.
        -24    2    1    2    0    0  0.48107178071E+02 -0.32140447112E+02 -0.18991296382E+03  0.21421055789E+03  0.80448246487E+02 0.  0.
         13    1    4    4    0    0 -0.44669054553E+01 -0.41652703150E+02 -0.11339648480E+03  0.12088698726E+03  0.00000000000E+00 0. -1.
        -14    1    4    4    0    0  0.52574083526E+02  0.95122560373E+01 -0.76516479014E+02  0.93323570625E+02  0.00000000000E+00 0.  1.
        -13    1    3    3    0    0 -0.48924937246E+01  0.28999845349E+02 -0.12136793179E+03  0.12488035231E+03  0.00000000000E+00 0. -1.
         13    1    3    3    0    0 -0.85141408535E+02  0.32081231144E+02 -0.88407219933E+02  0.12686252944E+03  0.00000000000E+00 0.  1.
         21    1    1    2  502  501  0.41926724189E+02 -0.28940629381E+02 -0.39055070617E+02  0.64192747029E+02  0.00000000000E+00 0.  1.
<scales pt_clust_5="13000.00000" pt_clust_6="13000.00000" pt_clust_7="13000.00000" pt_clust_8="13000.00000" pt_clust_9="50.94517"></scales>
<clustering>
<clus scale="   50.945">  1  9  2 -1</clus>
<clus scale="   80.448">  5  6 -1 -1</clus>
<clus scale="   86.786">  7  8 -1 -1</clus>
<clus scale="  111.038">  2  5  1 -1</clus>
<clus scale="  111.038">  2  5  1 -1</clus>
</clustering>
</event>
<event>
 9    1  0.2802611E-005  0.1135887E+03  0.7546771E-02  0.1261956E+00
         -4   -1    0    0    0  501 -0.00000000000E+00  0.00000000000E+00  0.67390112770E+03  0.67390112770E+03  0.00000000000E+00 0.  1.
          3   -1    0    0  502    0  0.00000000000E+00 -0.00000000000E+00 -0.11461688842E+03  0.11461688842E+03  0.00000000000E+00 0. -1.
        -24    2    1    2    0    0 -0.63226111804E+01 -0.11072065281E+03  0.50586198663E+03  0.52441744529E+03  0.82572810498E+02 0.  0.
         23    2    1    2    0    0 -0.28557829746E+02  0.39595077238E+02 -0.58652490589E+02  0.12685538610E+03  0.10133535686E+03 0.  0.
         13    1    3    3    0    0  0.22862506141E+02 -0.28504679401E+02  0.61207048389E+02  0.71284736847E+02  0.00000000000E+00 0. -1.
        -14    1    3    3    0    0 -0.29185117321E+02 -0.82215973405E+02  0.44465493824E+03  0.45313270844E+03  0.00000000000E+00 0.  1.
        -11    1    4    4    0    0 -0.46013605322E+02  0.84419980324E+00  0.90648152134E+01  0.46905601189E+02  0.00000000000E+00 0.  1.
         11    1    4    4    0    0  0.17455775576E+02  0.38750877435E+02 -0.67717305802E+02  0.79949784915E+02  0.00000000000E+00 0. -1.
         21    1    1    2  502  501  0.34880440926E+02  0.71125575568E+02  0.11207474324E+03  0.13724518473E+03  0.00000000000E+00 0. -1.
<scales pt_clust_5="13000.00000" pt_clust_6="13000.00000" pt_clust_7="13000.00000" pt_clust_8="13000.00000" pt_clust_9="79.21801"></scales>
<clustering>
<clus scale="   79.218">  1  9  2 -1</clus>
<clus scale="   82.573">  5  6 -1 -1</clus>
<clus scale="   97.220">  1  5  2 -1</clus>
<clus scale="  101.335">  7  8 -1 -1</clus>
<clus scale="  113.589">  2  5  1 -1</clus>
</clustering>
</event>
<event>
 9    1  0.2802611E-005  0.9517898E+02  0.7546771E-02  0.1292840E+00
         -2   -1    0    0    0  501 -0.00000000000E+00  0.00000000000E+00  0.30824516109E+02  0.30824516109E+02  0.00000000000E+00 0.  1.
          1   -1    0    0  502    0  0.00000000000E+00 -0.00000000000E+00 -0.45534318934E+03  0.45534318934E+03  0.00000000000E+00 0. -1.
         23    2    1    2    0    0  0.31283517542E+02 -0.14413378116E+02 -0.12968031887E+03  0.16034547313E+03  0.87791125472E+02 0.  0.
        -24    2    1    2    0    0 -0.18566000029E+02  0.35943559465E+02 -0.28343446766E+03  0.29833891752E+03  0.83871189485E+02 0.  0.
         11    1    4    4    0    0  0.16112507197E+02  0.40323773105E+02 -0.23277603039E+03  0.23679168037E+03  0.00000000000E+00 0. -1.
        -12    1    4    4    0    0 -0.34678507225E+02 -0.43802136400E+01 -0.50658437268E+02  0.61547237154E+02  0.00000000000E+00 0.  1.
        -11    1    3    3    0    0 -0.20263771948E+02  0.18676396063E+02 -0.17836125261E+02  0.32826141836E+02  0.00000000000E+00 0.  1.
         11    1    3    3    0    0  0.51547289490E+02 -0.33089774179E+02 -0.11184419361E+03  0.12751933129E+03  0.00000000000E+00 0. -1.
         21    1    1    2  502  501 -0.12717517513E+02 -0.21530181349E+02 -0.11403886704E+02  0.27483314803E+02  0.00000000000E+00 0. -1.
<scales pt_clust_5="13000.00000" pt_clust_6="13000.00000" pt_clust_7="13000.00000" pt_clust_8="13000.00000" pt_clust_9="25.00568"></scales>
<clustering>
<clus scale="   25.006">  1  9  2 -1</clus>
<clus scale="   83.871">  5  6 -1 -1</clus>
<clus scale="   87.791">  7  8 -1 -1</clus>
<clus scale="   91.576">  2  5  1 -1</clus>
<clus scale="   91.576">  2  5  1 -1</clus>
</clustering>
</event>
<event>
 9    1  0.2802611E-005  0.1501824E+03  0.7546771E-02  0.1202293E+00
         -2   -1    0    0    0  501 -0.00000000000E+00  0.00000000000E+00  0.55190593819E+02  0.55190593819E+02  0.00000000000E+00 0.  1.
          1   -1    0    0  502    0  0.00000000000E+00 -0.00000000000E+00 -0.69627768084E+03  0.69627768084E+03  0.00000000000E+00 0. -1.
         23    2    1    2    0    0 -0.64097093901E+02  0.76181356162E+02 -0.89448590337E+02  0.16238307579E+03  0.91952033775E+02 0.  0.
        -24    2    1    2    0    0  0.42830430144E+02 -0.11881362018E+03 -0.48133190431E+03  0.50415700654E+03  0.80887347854E+02 0.  0.
         11    1    4    4    0    0  0.66298697740E+02 -0.75840230369E+02 -0.30908012980E+03  0.32508119678E+03  0.00000000000E+00 0. -1.
        -12    1    4    4    0    0 -0.23468267596E+02 -0.42973389811E+02 -0.17225177452E+03  0.17907580976E+03  0.00000000000E+00 0.  1.
        -13    1    3    3    0    0 -0.22274473472E+02  0.50568639803E+02 -0.98091980806E+02  0.11258497324E+03  0.00000000000E+00 0. -1.
         13    1    3    3    0    0 -0.41822620429E+02  0.25612716359E+02  0.86433904697E+01  0.49798102551E+02  0.00000000000E+00 0.  1.
         21    1    1    2  502  501  0.21266663758E+02  0.42632264018E+02 -0.70306592369E+02  0.84928192335E+02  0.00000000000E+00 0.  1.
<scales pt_clust_5="13000.00000" pt_clust_6="13000.00000" pt_clust_7="13000.00000" pt_clust_8="13000.00000" pt_clust_9="47.64222"></scales>
<clustering>
<clus scale="   47.642">  1  9  2 -1</clus>
<clus scale="   80.887">  5  6 -1 -1</clus>
<clus scale="   91.952">  7  8 -1 -1</clus>
<clus scale="  143.674">  2  5  1 -1</clus>
<clus scale="  143.674">  2  5  1 -1</clus>
</clustering>
</event>
<event>
 9    1  0.2802611E-005  0.1108975E+03  0.7546771E-02  0.1262488E+00
         -2   -1    0    0    0  501 -0.00000000000E+00  0.00000000000E+00  0.18949693190E+03  0.18949693190E+03  0.00000000000E+00 0.  1.
          1   -1    0    0  502    0  0.00000000000E+00 -0.00000000000E+00 -0.17205704051E+03  0.17205704051E+03  0.00000000000E+00 0. -1.
        -24    2    1    2    0    0 -0.40285556208E+02  0.15476566605E+01  0.12905458949E+03  0.15734409347E+03  0.80478291489E+02 0.  0.
         23    2    1    2    0    0  0.66428690685E+02 -0.17700788632E+02 -0.12676677607E+03  0.16994659510E+03  0.89921859434E+02 0.  0.
         13    1    3    3    0    0  0.17752447419E+02 -0.15273780236E+02  0.65901236457E+02  0.69938621080E+02  0.00000000000E+00 0. -1.
        -14    1    3    3    0    0 -0.58038003626E+02  0.16821436896E+02  0.63153353035E+02  0.87405472391E+02  0.00000000000E+00 0.  1.
        -13    1    4    4    0    0  0.58651635633E+01  0.30029387377E+02 -0.14781159213E+02  0.33980095902E+02  0.00000000000E+00 0.  1.
         13    1    4    4    0    0  0.60563527121E+02 -0.47730176009E+02 -0.11198561686E+03  0.13596649919E+03  0.00000000000E+00 0. -1.
         21    1    1    2  502  501 -0.26143134477E+02  0.16153131972E+02  0.15152077979E+02  0.34263283845E+02  0.00000000000E+00 0.  1.
<scales pt_clust_5="13000.00000" pt_clust_6="13000.00000" pt_clust_7="13000.00000" pt_clust_8="13000.00000" pt_clust_9="30.73088"></scales>
<clustering>
<clus scale="   30.731">  1  9  2 -1</clus>
<clus scale="   80.478">  5  6 -1 -1</clus>
<clus scale="   89.922">  7  8 -1 -1</clus>
<clus scale="  103.388">  1  5  2 -1</clus>
<clus scale="  110.898">  2  5  1 -1</clus>
</clustering>
</event>
<event>
 9    1  0.2802611E-005  0.1182893E+03  0.7546771E-02  0.1249148E+00
         -2   -1    0    0    0  501 -0.00000000000E+00  0.00000000000E+00  0.39900392654E+02  0.39900392654E+02  0.00000000000E+00 0.  1.
          1   -1    0    0  502    0  0.00000000000E+00 -0.00000000000E+00 -0.70842630835E+03  0.70842630835E+03  0.00000000000E+00 0. -1.
         23    2    1    2    0    0  0.92703412431E+02  0.61748675175E+02 -0.20895922521E+03  0.25393727214E+03  0.91724363275E+02 0.  0.
        -24    2    1    2    0    0 -0.59524668424E+02 -0.24912498181E+02 -0.41435251203E+03  0.42729207480E+03  0.82016426674E+02 0.  0.
         13    1    4    4    0    0 -0.71484035466E+02 -0.67256768046E+01 -0.37926434489E+03  0.38600083596E+03  0.00000000000E+00 0. -1.
        -14    1    4    4    0    0  0.11959367043E+02 -0.18186821376E+02 -0.35088167137E+02  0.41291238839E+02  0.00000000000E+00 0.  1.
        -11    1    3    3    0    0  0.95779542732E+02  0.18527940742E+02 -0.11739915569E+03  0.15264195737E+03  0.00000000000E+00 0.  1.
         11    1    3    3    0    0 -0.30761303013E+01  0.43220734433E+02 -0.91560069522E+02  0.10129531477E+03  0.00000000000E+00 0. -1.
         21    1    1    2  502  501 -0.33178744008E+02 -0.36836176994E+02 -0.45214178463E+02  0.67097354072E+02  0.00000000000E+00 0.  1.
<scales pt_clust_5="13000.00000" pt_clust_6="13000.00000" pt_clust_7="13000.00000" pt_clust_8="13000.00000" pt_clust_9="49.57553"></scales>
<clustering>
<clus scale="   49.576">  1  9  2 -1</clus>
<clus scale="   82.016">  5  6 -1 -1</clus>
<clus scale="   91.724">  7  8 -1 -1</clus>
<clus scale="  110.931">  2  5  1 -1</clus>
<clus scale="  110.931">  2  5  1 -1</clus>
</clustering>
</event>
<event>
 9    1  0.2802611E-005  0.1726837E+03  0.7546771E-02  0.1176339E+00
          1   -1    0    0  502    0  0.00000000000E+00  0.00000000000E+00  0.59331071190E+03  0.59331071190E+03  0.00000000000E+00 0. -1.
         -2   -1    0    0    0  501 -0.00000000000E+00 -0.00000000000E+00 -0.81558780215E+02  0.81558780215E+02  0.00000000000E+00 0.  1.
        -24    2    1    2    0    0  0.13121446886E+03  0.62674385153E+02  0.19916447953E+03  0.26624095544E+03  0.10036155168E+03 0.  0.
         23    2    1    2    0    0 -0.10648138585E+03 -0.89896688725E+02  0.32858718259E+03  0.36851905425E+03  0.91744518116E+02 0.  0.
         11    1    3    3    0    0  0.19073462755E+02 -0.27025727760E+02  0.38019379365E+02  0.50395040924E+02  0.00000000000E+00 0. -1.
        -12    1    3    3    0    0  0.11214100611E+03  0.89700112913E+02  0.16114510016E+03  0.21584591452E+03  0.00000000000E+00 0.  1.
        -11    1    4    4    0    0 -0.91260119327E+02 -0.24097185886E+02  0.14612354670E+03  0.17395739319E+03  0.00000000000E+00 0.  1.
         11    1    4    4    0    0 -0.15221266519E+02 -0.65799502839E+02  0.18246363589E+03  0.19456166105E+03  0.00000000000E+00 0. -1.
         21    1    1    2  502  501 -0.24733083016E+02  0.27222303572E+02 -0.15999730429E+02  0.40109482433E+02  0.00000000000E+00 0.  1.
<scales pt_clust_5="13000.00000" pt_clust_6="13000.00000" pt_clust_7="13000.00000" pt_clust_8="13000.00000" pt_clust_9="36.78015"></scales>
<clustering>
<clus scale="   36.780">  2  9  1 -1</clus>
<clus scale="   91.745">  7  8 -1 -1</clus>
<clus scale="  100.362">  5  6 -1 -1</clus>
<clus scale="  167.822">  1  7  2 -1</clus>
<clus scale="  167.822">  1  5  2 -1</clus>
</clustering>
</event>
<event>
 9    1  0.2802611E-005  0.1587107E+03  0.7546771E-02  0.1191838E+00
         -2   -1    0    0    0  501 -0.00000000000E+00  0.00000000000E+00  0.78820095550E+02  0.78820095550E+02  0.00000000000E+00 0.  1.
          1   -1    0    0  502    0  0.00000000000E+00 -0.00000000000E+00 -0.69421688157E+03  0.69421688157E+03  0.00000000000E+00 0. -1.
        -24    2    1    2    0    0 -0.15816245788E+03 -0.81372577797E+01 -0.99315361572E+02  0.20175431759E+03  0.75892592353E+02 0.  0.
         23    2    1    2    0    0  0.12114876017E+03  0.41145380309E+02 -0.49278002255E+03  0.51648753839E+03  0.86932515597E+02 0.  0.
         11    1    3    3    0    0 -0.90026974336E+02  0.32717341127E+02 -0.47630979554E+02  0.10697658964E+03  0.00000000000E+00 0. -1.
        -12    1    3    3    0    0 -0.68135483546E+02 -0.40854598907E+02 -0.51684382018E+02  0.94777727945E+02  0.00000000000E+00 0.  1.
        -13    1    4    4    0    0 -0.22593287925E-01  0.29479134212E+02 -0.59062693317E+02  0.66010768865E+02  0.00000000000E+00 0.  1.
         13    1    4    4    0    0  0.12117135346E+03  0.11666246096E+02 -0.43371732924E+03  0.45047676952E+03  0.00000000000E+00 0. -1.
         21    1    1    2  502  501  0.37013697708E+02 -0.33008122529E+02 -0.23301401892E+02  0.54795121143E+02  0.00000000000E+00 0.  1.
<scales pt_clust_5="13000.00000" pt_clust_6="13000.00000" pt_clust_7="13000.00000" pt_clust_8="13000.00000" pt_clust_9="49.59385"></scales>
<clustering>
<clus scale="   49.594">  1  9  2 -1</clus>
<clus scale="   75.893">  5  6 -1 -1</clus>
<clus scale="   86.933">  7  8 -1 -1</clus>
<clus scale="  152.943">  1  5  2 -1</clus>
<clus scale="  158.711">  2  5  1 -1</clus>
</clustering>
</event>
<event>
 9    1  0.2802611E-005  0.9667924E+02  0.7546771E-02  0.1293521E+00
          1   -1    0    0  502    0  0.00000000000E+00  0.00000000000E+00  0.24871411838E+03  0.24871411838E+03  0.00000000000E+00 0. -1.
         -2   -1    0    0    0  501 -0.00000000000E+00 -0.00000000000E+00 -0.99030635185E+02  0.99030635185E+02  0.00000000000E+00 0.  1.
        -24    2    1    2    0    0 -0.28078840547E+02  0.15440153398E+02 -0.54476513207E+02  0.10240042634E+03  0.80568835170E+02 0.  0.
         23    2    1    2    0    0  0.12751246835E+02 -0.28810762027E+02  0.20304188129E+03  0.22497379739E+03  0.91621774989E+02 0.  0.
         11    1    3    3    0    0 -0.28662621612E+02 -0.18106716630E+02  0.48455967065E+01  0.34247319198E+02  0.00000000000E+00 0. -1.
        -12    1    3    3    0    0  0.58378106576E+00  0.33546870028E+02 -0.59322109913E+02  0.68153107145E+02  0.00000000000E+00 0.  1.
        -11    1    4    4    0    0 -0.92817608604E+01  0.22401366135E+02  0.14256710926E+02  0.28128741454E+02  0.00000000000E+00 0.  1.
         11    1    4    4    0    0  0.22033007696E+02 -0.51212128162E+02  0.18878517036E+03  0.19684505594E+03  0.00000000000E+00 0. -1.
         21    1    1    2  502  501  0.15327593711E+02  0.13370608629E+02  0.11181151128E+01  0.20370529828E+02  0.00000000000E+00 0.  1.
<scales pt_clust_5="13000.00000" pt_clust_6="13000.00000" pt_clust_7="13000.00000" pt_clust_8="13000.00000" pt_clust_9="20.33982"></scales>
<clustering>
<clus scale="   20.340">  2  9  1 -1</clus>
<clus scale="   80.569">  5  6 -1 -1</clus>
<clus scale="   86.277">  2  5  1 -1</clus>
<clus scale="   91.622">  7  8 -1 -1</clus>
<clus scale="   96.679">  1  5  2 -1</clus>
</clustering>
</event>
<event>
 9    1  0.2802611E-005  0.9860276E+02  0.7546771E-02  0.1289863E+00
         -2   -1    0    0    0  501 -0.00000000000E+00  0.00000000000E+00  0.23462184963E+03  0.23462184963E+03  0.00000000000E+00 0.  1.
          1   -1    0    0  502    0  0.00000000000E+00 -0.00000000000E+00 -0.16713827314E+03  0.16713827314E+03  0.00000000000E+00 0. -1.
        -24    2    1    2    0    0 -0.16540854733E+02 -0.10627443960E+01  0.13940741491E+03  0.16108509713E+03  0.78988935192E+02 0.  0.
         23    2    1    2    0    0  0.93625402699E+01  0.39000655602E+02 -0.13424541704E+03  0.16736204953E+03  0.91539692651E+02 0.  0.
         11    1    3    3    0    0 -0.16495137386E+02  0.15176950750E+02  0.17610109748E+01  0.22484006562E+02  0.00000000000E+00 0. -1.
        -12    1    3    3    0    0 -0.45717346292E-01 -0.16239695146E+02  0.13764640394E+03  0.13860109057E+03  0.00000000000E+00 0.  1.
        -11    1    4    4    0    0  0.28815988941E+02 -0.18175435052E+02 -0.24053773153E+02  0.41704815799E+02  0.00000000000E+00 0.  1.
         11    1    4    4    0    0 -0.19453448671E+02  0.57176090654E+02 -0.11019164388E+03  0.12565723373E+03  0.00000000000E+00 0. -1.
         21    1    1    2  502  501  0.71783144627E+01 -0.37937911206E+02  0.62321578614E+02  0.73312976110E+02  0.00000000000E+00 0.  1.
<scales pt_clust_5="13000.00000" pt_clust_6="13000.00000" pt_clust_7="13000.00000" pt_clust_8="13000.00000" pt_clust_9="38.61105"></scales>
<clustering>
<clus scale="   38.611">  1  9  2 -1</clus>
<clus scale="   78.989">  5  6 -1 -1</clus>
<clus scale="   87.076">  1  5  2 -1</clus>
<clus scale="   91.540">  7  8 -1 -1</clus>
<clus scale="   98.603">  2  5  1 -1</clus>
</clustering>
</event>
<event>
 9    1  0.2802611E-005  0.1528303E+03  0.7546771E-02  0.1199482E+00
          1   -1    0    0  502    0  0.00000000000E+00  0.00000000000E+00  0.96792183612E+02  0.96792183612E+02  0.00000000000E+00 0. -1.
         -2   -1    0    0    0  501 -0.00000000000E+00 -0.00000000000E+00 -0.38096249880E+03  0.38096249880E+03  0.00000000000E+00 0.  1.
        -24    2    1    2    0    0 -0.97877704737E+02 -0.89785516142E+02 -0.14783883014E+03  0.21421889864E+03  0.79949564379E+02 0.  0.
         23    2    1    2    0    0  0.72250954725E+02  0.90063906677E+02 -0.26743622055E+02  0.15099109250E+03  0.93548815862E+02 0.  0.
         13    1    3    3    0    0 -0.20842625280E+02 -0.15895263177E+02  0.60804867646E+01  0.26908116607E+02  0.00000000000E+00 0. -1.
        -14    1    3    3    0    0 -0.77035079457E+02 -0.73890252965E+02 -0.15391931690E+03  0.18731078203E+03  0.00000000000E+00 0.  1.
        -13    1    4    4    0    0 -0.20263398654E+02  0.36250148368E+02 -0.57698350349E+01  0.41928147801E+02  0.00000000000E+00 0.  1.
         13    1    4    4    0    0  0.92514353380E+02  0.53813758310E+02 -0.20973787020E+02  0.10906294470E+03  0.00000000000E+00 0. -1.
         21    1    1    2  502  501  0.25626750011E+02 -0.27839053537E+00 -0.10958786299E+03  0.11254469127E+03  0.00000000000E+00 0.  1.
<scales pt_clust_5="13000.00000" pt_clust_6="13000.00000" pt_clust_7="13000.00000" pt_clust_8="13000.00000" pt_clust_9="25.62826"></scales>
<clustering>
<clus scale="   25.628">  2  9  1 -1</clus>
<clus scale="   79.950">  5  6 -1 -1</clus>
<clus scale="   93.549">  7  8 -1 -1</clus>
<clus scale="  144.906">  2  5  1 -1</clus>
<clus scale="  152.830">  1  5  2 -1</clus>
</clustering>
</event>
<event>
 9    1  0.2802611E-005  0.1014882E+03  0.7546771E-02  0.1282666E+00
          3   -1    0    0  502    0  0.00000000000E+00  0.00000000000E+00  0.13324978649E+03  0.13324978649E+03  0.00000000000E+00 0. -1.
         -4   -1    0    0    0  501 -0.00000000000E+00 -0.00000000000E+00 -0.42298509699E+03  0.42298509699E+03  0.00000000000E+00 0.  1.
         23    2    1    2    0    0 -0.63300315877E+02 -0.44063379688E+02 -0.23460122592E+03  0.26461626337E+03  0.95055353449E+02 0.  0.
        -24    2    1    2    0    0  0.33461645655E+02 -0.64867875427E+00  0.95499349021E+02  0.13168130198E+03  0.84259937776E+02 0.  0.
         11    1    4    4    0    0  0.57216446189E+02  0.16042621488E+02  0.76971679071E+02  0.97240561484E+02  0.00000000000E+00 0. -1.
        -12    1    4    4    0    0 -0.23754800535E+02 -0.16691300242E+02  0.18527669949E+02  0.34440740497E+02  0.00000000000E+00 0.  1.
        -11    1    3    3    0    0 -0.20983046523E+02  0.24180248341E+02 -0.12319581414E+03  0.12728778918E+03  0.00000000000E+00 0.  1.
         11    1    3    3    0    0 -0.42317269354E+02 -0.68243628029E+02 -0.11140541177E+03  0.13732847420E+03  0.00000000000E+00 0. -1.
         21    1    1    2  502  501  0.29838670222E+02  0.44712058442E+02 -0.15063343360E+03  0.15993731813E+03  0.00000000000E+00 0.  1.
<scales pt_clust_5="13000.00000" pt_clust_6="13000.00000" pt_clust_7="13000.00000" pt_clust_8="13000.00000" pt_clust_9="53.75420"></scales>
<clustering>
<clus scale="   53.754">  2  9  1 -1</clus>
<clus scale="   84.260">  5  6 -1 -1</clus>
<clus scale="   91.455">  1  5  2 -1</clus>
<clus scale="   95.055">  7  8 -1 -1</clus>
<clus scale="   91.455">  1  5  2 -1</clus>
</clustering>
</event>
<event>
 9    1  0.2802611E-005  0.1112625E+03  0.7546771E-02  0.1263835E+00
         -2   -1    0    0    0  501 -0.00000000000E+00  0.00000000000E+00  0.14303560251E+03  0.14303560251E+03  0.00000000000E+00 0.  1.
          1   -1    0    0  502    0  0.00000000000E+00 -0.00000000000E+00 -0.11376143322E+03  0.11376143322E+03  0.00000000000E+00 0. -1.
        -24    2    1    2    0    0 -0.49900280452E+02  0.51234070739E+02  0.56726751782E+02  0.11989759758E+03  0.77733786381E+02 0.  0.
         23    2    1    2    0    0  0.27288539962E+02 -0.52459373147E+02 -0.31538945069E+02  0.11388877686E+03  0.92083104822E+02 0.  0.
         13    1    3    3    0    0  0.18280416899E+02  0.95183365196E+01  0.28413084550E+02  0.35100936536E+02  0.00000000000E+00 0. -1.
        -14    1    3    3    0    0 -0.68180697351E+02  0.41715734219E+02  0.28313667233E+02  0.84796661048E+02  0.00000000000E+00 0.  1.
        -13    1    4    4    0    0 -0.26881144516E+02 -0.39725342323E+02 -0.33003682121E+02  0.58223206600E+02  0.00000000000E+00 0. -1.
         13    1    4    4    0    0  0.54169684478E+02 -0.12734030824E+02  0.14647370526E+01  0.55665570258E+02  0.00000000000E+00 0.  1.
         21    1    1    2  502  501  0.22611740490E+02  0.12253024084E+01  0.40863625761E+01  0.23010661292E+02  0.00000000000E+00 0. -1.
<scales pt_clust_5="13000.00000" pt_clust_6="13000.00000" pt_clust_7="13000.00000" pt_clust_8="13000.00000" pt_clust_9="22.64491"></scales>
<clustering>
<clus scale="   22.645">  1  9  2 -1</clus>
<clus scale="   77.734">  5  6 -1 -1</clus>
<clus scale="   92.083">  7  8 -1 -1</clus>
<clus scale="   99.712">  1  5  2 -1</clus>
<clus scale="  111.262">  2  5  1 -1</clus>
</clustering>
</event>
<event>
 9    1  0.2802611E-005  0.1361492E+03  0.7546771E-02  0.1221882E+00
          1   -1    0    0  502    0  0.00000000000E+00  0.00000000000E+00  0.74033922241E+03  0.74033922241E+03  0.00000000000E+00 0. -1.
         -2   -1    0    0    0  501 -0.00000000000E+00 -0.00000000000E+00 -0.86532776453E+02  0.86532776453E+02  0.00000000000E+00 0.  1.
         23    2    1    2    0    0  0.89760950054E+02  0.48920794255E+02 -0.50937932777E+01  0.13766403185E+03  0.92060668416E+02 0.  0.
        -24    2    1    2    0    0 -0.74695519739E+02 -0.67026260015E+02  0.65253880823E+03  0.66481036702E+03  0.78063997119E+02 0.  0.
         13    1    4    4    0    0 -0.48002349938E+02 -0.82330666763E+02  0.45333158826E+03  0.46324085874E+03  0.00000000000E+00 0. -1.
        -14    1    4    4    0    0 -0.26693169801E+02  0.15304406748E+02  0.19920721997E+03  0.20156950828E+03  0.00000000000E+00 0.  1.
        -11    1    3    3    0    0 -0.13941975524E+02  0.22045267522E+02 -0.14980913286E+02  0.30079898013E+02  0.00000000000E+00 0. -1.
         11    1    3    3    0    0  0.10370292558E+03  0.26875526733E+02  0.98871200088E+01  0.10758413383E+03  0.00000000000E+00 0.  1.
         21    1    1    2  502  501 -0.15065430316E+02  0.18105465761E+02  0.63614309956E+01  0.24397599991E+02  0.00000000000E+00 0.  1.
<scales pt_clust_5="13000.00000" pt_clust_6="13000.00000" pt_clust_7="13000.00000" pt_clust_8="13000.00000" pt_clust_9="23.55366"></scales>
<clustering>
<clus scale="   23.554">  2  9  1 -1</clus>
<clus scale="   78.064">  5  6 -1 -1</clus>
<clus scale="   92.061">  7  8 -1 -1</clus>
<clus scale="  127.104">  1  5  2 -1</clus>
<clus scale="  127.104">  1  5  2 -1</clus>
</clustering>
</event>
<event>
 9    1  0.2802611E-005  0.1712787E+03  0.7546771E-02  0.1178139E+00
         -2   -1    0    0    0  501 -0.00000000000E+00  0.00000000000E+00  0.12712285945E+03  0.12712285945E+03  0.00000000000E+00 0.  1.
          1   -1    0    0  502    0  0.00000000000E+00 -0.00000000000E+00 -0.50734585162E+03  0.50734585162E+03  0.00000000000E+00 0. -1.
         23    2    1    2    0    0  0.24091492009E+01  0.15079809736E+03 -0.90710611415E+02  0.19880016485E+03  0.92451178216E+02 0.  0.
        -24    2    1    2    0    0 -0.13238978639E+03 -0.10738163524E+03 -0.16628253571E+03  0.25137109659E+03  0.80496430938E+02 0.  0.
         11    1    4    4    0    0 -0.86368447714E+02 -0.10477358282E+03 -0.92230951842E+02  0.16414493868E+03  0.00000000000E+00 0. -1.
        -12    1    4    4    0    0 -0.46021338675E+02 -0.26080524208E+01 -0.74051583864E+02  0.87226157909E+02  0.00000000000E+00 0.  1.
        -13    1    3    3    0    0 -0.24107044999E+02  0.14197736505E+03 -0.91892772173E+02  0.17083033508E+03  0.00000000000E+00 0.  1.
         13    1    3    3    0    0  0.26516194200E+02  0.88207323084E+01  0.11821607589E+01  0.27969829770E+02  0.00000000000E+00 0. -1.
         21    1    1    2  502  501  0.12998063719E+03 -0.43416462121E+02 -0.12322984506E+03  0.18429744963E+03  0.00000000000E+00 0. -1.
<scales pt_clust_5="13000.00000" pt_clust_6="13000.00000" pt_clust_7="13000.00000" pt_clust_8="13000.00000" pt_clust_9="137.03998"></scales>
<clustering>
<clus scale="   80.496">  5  6 -1 -1</clus>
<clus scale="   92.451">  7  8 -1 -1</clus>
<clus scale="  137.040">  2  9  1 -1</clus>
<clus scale="  165.133">  2  5  1 -1</clus>
<clus scale="  137.040">  2  5  1 -1</clus>
</clustering>
</event>
<event>
 9    1  0.2802611E-005  0.1011505E+03  0.7546771E-02  0.1283234E+00
         -2   -1    0    0    0  501 -0.00000000000E+00  0.00000000000E+00  0.79232344900E+02  0.79232344900E+02  0.00000000000E+00 0.  1.
          1   -1    0    0  502    0  0.00000000000E+00 -0.00000000000E+00 -0.28783452065E+03  0.28783452065E+03  0.00000000000E+00 0. -1.
         23    2    1    2    0    0  0.99487440048E+01  0.55330945968E+01 -0.83962133248E+01  0.92603893210E+02  0.91517167769E+02 0.  0.
        -24    2    1    2    0    0  0.76588224904E+01  0.57651978037E+02 -0.18036515077E+03  0.20593533113E+03  0.80593826466E+02 0.  0.
         13    1    4    4    0    0  0.30869345446E+02  0.53140107822E+01 -0.11429553345E+03  0.11851001715E+03  0.00000000000E+00 0. -1.
        -14    1    4    4    0    0 -0.23210522956E+02  0.52337967255E+02 -0.66069617315E+02  0.87425313980E+02  0.00000000000E+00 0.  1.
        -13    1    3    3    0    0  0.40293164129E+00  0.44040385433E+02  0.15023603288E+02  0.46534144010E+02  0.00000000000E+00 0. -1.
         13    1    3    3    0    0  0.95458123635E+01 -0.38507290836E+02 -0.23419816613E+02  0.46069749200E+02  0.00000000000E+00 0.  1.
         21    1    1    2  502  501 -0.17607566495E+02 -0.63185072634E+02 -0.19840811654E+02  0.68527641202E+02  0.00000000000E+00 0.  1.
<scales pt_clust_5="13000.00000" pt_clust_6="13000.00000" pt_clust_7="13000.00000" pt_clust_8="13000.00000" pt_clust_9="65.59253"></scales>
<clustering>
<clus scale="   65.593">  1  9  2 -1</clus>
<clus scale="   80.594">  5  6 -1 -1</clus>
<clus scale="   91.386">  2  5  1 -1</clus>
<clus scale="   91.517">  7  8 -1 -1</clus>
<clus scale="   91.386">  2  5  1 -1</clus>
</clustering>
</event>
<event>
 9    1  0.2802611E-005  0.1179712E+03  0.7546771E-02  0.1248863E+00
         -2   -1    0    0    0  501 -0.00000000000E+00  0.00000000000E+00  0.29477841091E+02  0.29477841091E+02  0.00000000000E+00 0.  1.
          1   -1    0    0  502    0  0.00000000000E+00 -0.00000000000E+00 -0.96515854902E+03  0.96515854902E+03  0.00000000000E+00 0. -1.
         23    2    1    2    0    0 -0.92492828206E+02  0.39493339310E+02 -0.37176196361E+03  0.39538133968E+03  0.89469542669E+02 0.  0.
        -24    2    1    2    0    0  0.68369571953E+02 -0.75207829844E+00 -0.53423956180E+03  0.54481544469E+03  0.82079201987E+02 0.  0.
         13    1    4    4    0    0 -0.66892011475E+01  0.26221215568E+02 -0.13817302717E+03  0.14079802198E+03  0.00000000000E+00 0. -1.
        -14    1    4    4    0    0  0.75058773101E+02 -0.26973293866E+02 -0.39606653463E+03  0.40401742271E+03  0.00000000000E+00 0.  1.
        -13    1    3    3    0    0 -0.42131854618E+02 -0.23227288723E+02 -0.20018904176E+03  0.20588893257E+03  0.00000000000E+00 0.  1.
         13    1    3    3    0    0 -0.50360973587E+02  0.62720628033E+02 -0.17157292185E+03  0.18949240711E+03  0.00000000000E+00 0. -1.
         21    1    1    2  502  501  0.24123256253E+02 -0.38741261012E+02 -0.29679182526E+02  0.54439605734E+02  0.00000000000E+00 0.  1.
<scales pt_clust_5="13000.00000" pt_clust_6="13000.00000" pt_clust_7="13000.00000" pt_clust_8="13000.00000" pt_clust_9="45.63789"></scales>
<clustering>
<clus scale="   45.638">  1  9  2 -1</clus>
<clus scale="   82.079">  5  6 -1 -1</clus>
<clus scale="   89.470">  7  8 -1 -1</clus>
<clus scale="  112.470">  2  5  1 -1</clus>
<clus scale="  112.470">  2  5  1 -1</clus>
</clustering>
</event>
<event>
 9    1  0.2802611E-005  0.1159724E+03  0.7546771E-02  0.1253995E+00
         -2   -1    0    0    0  501 -0.00000000000E+00  0.00000000000E+00  0.45917103391E+02  0.45917103391E+02  0.00000000000E+00 0.  1.
          1   -1    0    0  502    0  0.00000000000E+00 -0.00000000000E+00 -0.46691048276E+03  0.46691048276E+03  0.00000000000E+00 0. -1.
        -24    2    1    2    0    0 -0.37736626104E+00  0.51956906586E+02 -0.64736728143E+02  0.13496398024E+03  0.10641790002E+03 0.  0.
         23    2    1    2    0    0 -0.20793252381E+01 -0.27695227933E+02 -0.30541069162E+03  0.32147233005E+03  0.96423125810E+02 0.  0.
         13    1    3    3    0    0 -0.52111809973E+02  0.23868436859E+02 -0.18893474708E+02  0.60351523620E+02  0.00000000000E+00 0. -1.
        -14    1    3    3    0    0  0.51734443712E+02  0.28088469727E+02 -0.45843253436E+02  0.74612456623E+02  0.00000000000E+00 0.  1.
        -13    1    4    4    0    0 -0.44897425709E+02 -0.33487937129E+02 -0.14817370929E+03  0.15840665672E+03  0.00000000000E+00 0. -1.
         13    1    4    4    0    0  0.42818100471E+02  0.57927091955E+01 -0.15723698233E+03  0.16306567334E+03  0.00000000000E+00 0.  1.
         21    1    1    2  502  501  0.24566914991E+01 -0.24261678653E+02 -0.50845959610E+02  0.56391275858E+02  0.00000000000E+00 0. -1.
<scales pt_clust_5="13000.00000" pt_clust_6="13000.00000" pt_clust_7="13000.00000" pt_clust_8="13000.00000" pt_clust_9="24.38574"></scales>
<clustering>
<clus scale="   24.386">  2  9  1 -1</clus>
<clus scale="   96.423">  7  8 -1 -1</clus>
<clus scale="  106.418">  5  6 -1 -1</clus>
<clus scale="  106.875">  2  7  1 -1</clus>
<clus scale="   24.386">  2  5  1 -1</clus>
</clustering>
</event>
<event>
 9    1  0.2802611E-005  0.1050086E+03  0.7546771E-02  0.1274979E+00
          1   -1    0    0  502    0  0.00000000000E+00  0.00000000000E+00  0.13917904804E+03  0.13917904804E+03  0.00000000000E+00 0. -1.
         -2   -1    0    0    0  501 -0.00000000000E+00 -0.00000000000E+00 -0.21357260936E+03  0.21357260936E+03  0.00000000000E+00 0.  1.
         23    2    1    2    0    0  0.43637307829E+02 -0.13321670637E+02 -0.52089333065E+02  0.11478525185E+03  0.91546020556E+02 0.  0.
        -24    2    1    2    0    0 -0.39783728863E+02  0.36433700574E+02  0.84501927912E+02  0.12862029911E+03  0.80575715347E+02 0.  0.
         11    1    4    4    0    0 -0.63083440521E+02  0.14653905481E+02  0.61359596182E+02  0.89214670640E+02  0.00000000000E+00 0. -1.
        -12    1    4    4    0    0  0.23299711657E+02  0.21779795092E+02  0.23142331729E+02  0.39405628474E+02  0.00000000000E+00 0.  1.
        -11    1    3    3    0    0 -0.47435999294E+01 -0.25650052634E+02 -0.58879250356E+02  0.64398703891E+02  0.00000000000E+00 0.  1.
         11    1    3    3    0    0  0.48380907758E+02  0.12328381998E+02  0.67899172909E+01  0.50386547957E+02  0.00000000000E+00 0. -1.
         21    1    1    2  502  501 -0.38535789658E+01 -0.23112029937E+02 -0.10680615617E+03  0.10934610644E+03  0.00000000000E+00 0. -1.
<scales pt_clust_5="13000.00000" pt_clust_6="13000.00000" pt_clust_7="13000.00000" pt_clust_8="13000.00000" pt_clust_9="23.43109"></scales>
<clustering>
<clus scale="   23.431">  2  9  1 -1</clus>
<clus scale="   80.576">  5  6 -1 -1</clus>
<clus scale="   91.546">  7  8 -1 -1</clus>
<clus scale="   95.596">  1  5  2 -1</clus>
<clus scale="   95.596">  1  5  2 -1</clus>
</clustering>
</event>
<event>
 9    1  0.2802611E-005  0.1488067E+03  0.7546771E-02  0.1204087E+00
          1   -1    0    0  502    0  0.00000000000E+00  0.00000000000E+00  0.17786172274E+03  0.17786172274E+03  0.00000000000E+00 0. -1.
         -2   -1    0    0    0  501 -0.00000000000E+00 -0.00000000000E+00 -0.35145711629E+03  0.35145711629E+03  0.00000000000E+00 0.  1.
        -24    2    1    2    0    0  0.26169952225E+02  0.17181717637E+03 -0.17559543995E+03  0.25962036251E+03  0.79768199198E+02 0.  0.
         23    2    1    2    0    0 -0.60743218820E+02 -0.90189058912E+02  0.69737290329E+02  0.15813327344E+03  0.91208757945E+02 0.  0.
         13    1    3    3    0    0  0.34636905869E+02  0.69022477750E+02 -0.33846707685E+02  0.84317360633E+02  0.00000000000E+00 0. -1.
        -14    1    3    3    0    0 -0.84669536446E+01  0.10279469862E+03 -0.14174873227E+03  0.17530300188E+03  0.00000000000E+00 0.  1.
        -11    1    4    4    0    0 -0.38661480569E+02  0.65662990354E+01  0.47412675045E+01  0.39500708606E+02  0.00000000000E+00 0.  1.
         11    1    4    4    0    0 -0.22081738251E+02 -0.96755357948E+02  0.64996022825E+02  0.11863256483E+03  0.00000000000E+00 0. -1.
         21    1    1    2  502  501  0.34573266596E+02 -0.81628117458E+02 -0.67737243930E+02  0.11156520308E+03  0.00000000000E+00 0. -1.
<scales pt_clust_5="13000.00000" pt_clust_6="13000.00000" pt_clust_7="13000.00000" pt_clust_8="13000.00000" pt_clust_9="88.64796"></scales>
<clustering>
<clus scale="   79.768">  5  6 -1 -1</clus>
<clus scale="   88.648">  2  9  1 -1</clus>
<clus scale="   91.209">  7  8 -1 -1</clus>
<clus scale="  142.082">  2  5  1 -1</clus>
<clus scale="  148.807">  1  5  2 -1</clus>
</clustering>
</event>
<event>
 9    1  0.2802611E-005  0.2273704E+03  0.7546771E-02  0.1150480E+00
          1   -1    0    0  502    0  0.00000000000E+00  0.00000000000E+00  0.11999881673E+04  0.11999881673E+04  0.00000000000E+00 0. -1.
         -2   -1    0    0    0  501 -0.00000000000E+00 -0.00000000000E+00 -0.39509153078E+03  0.39509153078E+03  0.00000000000E+00 0.  1.
         23    2    1    2    0    0  0.10764451802E+03  0.28976272692E+03  0.10187519587E+04  0.10684861769E+04  0.90870108413E+02 0.  0.
        -24    2    1    2    0    0 -0.21385345337E+02 -0.10334645498E+03  0.88997940880E+02  0.16065394937E+03  0.82165900564E+02 0.  0.
         11    1    4    4    0    0  0.16733703333E+02 -0.92356180079E+02  0.66692527386E+02  0.11514153914E+03  0.00000000000E+00 0. -1.
        -12    1    4    4    0    0 -0.38119048670E+02 -0.10990274897E+02  0.22305413494E+02  0.45512410230E+02  0.00000000000E+00 0.  1.
        -13    1    3    3    0    0  0.11842562762E+03  0.23831780229E+03  0.90220196232E+03  0.94063190727E+03  0.00000000000E+00 0. -1.
         13    1    3    3    0    0 -0.10781109600E+02  0.51444924631E+02  0.11654999640E+03  0.12785426960E+03  0.00000000000E+00 0.  1.
         21    1    1    2  502  501 -0.86259172683E+02 -0.18641627194E+03 -0.30285326306E+03  0.36593957187E+03  0.00000000000E+00 0.  1.
<scales pt_clust_5="13000.00000" pt_clust_6="13000.00000" pt_clust_7="13000.00000" pt_clust_8="13000.00000" pt_clust_9="208.42245"></scales>
<clustering>
<clus scale="   82.166">  5  6 -1 -1</clus>
<clus scale="   90.870">  7  8 -1 -1</clus>
<clus scale="  133.750">  1  5  2 -1</clus>
<clus scale="  208.422">  2  9  1 -1</clus>
<clus scale="  133.750">  1  5  2 -1</clus>
</clustering>
</event>
<event>
 9    1  0.2802611E-005  0.8831190E+02  0.7546771E-02  0.1311135E+00
         -2   -1    0    0    0  501 -0.00000000000E+00  0.00000000000E+00  0.10161886063E+03  0.10161886063E+03  0.00000000000E+00 0.  1.
          1   -1    0    0  502    0  0.00000000000E+00 -0.00000000000E+00 -0.21623072182E+03  0.21623072182E+03  0.00000000000E+00 0. -1.
         23    2    1    2    0    0  0.95746635915E+01 -0.64737151575E+01  0.40448387613E+02  0.96888429880E+02  0.87279508553E+02 0.  0.
        -24    2    1    2    0    0  0.97248891602E+00 -0.16177470956E+02 -0.17203707715E+03  0.19075301858E+03  0.80791719131E+02 0.  0.
         11    1    4    4    0    0 -0.32019709483E+02 -0.18703949669E+02 -0.39628515406E+02  0.54272633637E+02  0.00000000000E+00 0. -1.
        -12    1    4    4    0    0  0.32992198399E+02  0.25264787127E+01 -0.13240856174E+03  0.13648038494E+03  0.00000000000E+00 0.  1.
        -13    1    3    3    0    0  0.23746951265E+02  0.32593306358E+02  0.37756606199E+02  0.55243122879E+02  0.00000000000E+00 0. -1.
         13    1    3    3    0    0 -0.14172287673E+02 -0.39067021516E+02  0.26917814136E+01  0.41645307001E+02  0.00000000000E+00 0.  1.
         21    1    1    2  502  501 -0.10547152507E+02  0.22651186114E+02  0.16976828349E+02  0.30208133990E+02  0.00000000000E+00 0. -1.
<scales pt_clust_5="13000.00000" pt_clust_6="13000.00000" pt_clust_7="13000.00000" pt_clust_8="13000.00000" pt_clust_9="24.98637"></scales>
<clustering>
<clus scale="   24.986">  1  9  2 -1</clus>
<clus scale="   80.792">  5  6 -1 -1</clus>
<clus scale="   81.906">  2  5  1 -1</clus>
<clus scale="   87.280">  7  8 -1 -1</clus>
<clus scale="   81.906">  2  5  1 -1</clus>
</clustering>
</event>
<event>
 9    1  0.2802611E-005  0.1607986E+03  0.7546771E-02  0.1189198E+00
          1   -1    0    0  502    0  0.00000000000E+00  0.00000000000E+00  0.86320127483E+02  0.86320127483E+02  0.00000000000E+00 0. -1.
         -2   -1    0    0    0  501 -0.00000000000E+00 -0.00000000000E+00 -0.45362795111E+03  0.45362795111E+03  0.00000000000E+00 0.  1.
         23    2    1    2    0    0 -0.12336105182E+03  0.50070878284E+02 -0.23390468586E+03  0.28408535575E+03  0.90928792635E+02 0.  0.
        -24    2    1    2    0    0  0.13145378304E+03 -0.22224324693E+02 -0.44998596832E+02  0.16282356063E+03  0.81930583398E+02 0.  0.
         13    1    4    4    0    0  0.32094251936E+02 -0.42130990593E+02 -0.27476316869E+01  0.53034053735E+02  0.00000000000E+00 0. -1.
        -14    1    4    4    0    0  0.99359531108E+02  0.19906665901E+02 -0.42250965145E+02  0.10978950690E+03  0.00000000000E+00 0.  1.
        -11    1    3    3    0    0 -0.87381468491E+01  0.22464524964E+02 -0.23191966363E+01  0.24215465415E+02  0.00000000000E+00 0. -1.
         11    1    3    3    0    0 -0.11462290497E+03  0.27606353319E+02 -0.23158548922E+03  0.25986989034E+03  0.00000000000E+00 0.  1.
         21    1    1    2  502  501 -0.80927312252E+01 -0.27846553591E+02 -0.88404540942E+02  0.93039162210E+02  0.00000000000E+00 0. -1.
<scales pt_clust_5="13000.00000" pt_clust_6="13000.00000" pt_clust_7="13000.00000" pt_clust_8="13000.00000" pt_clust_9="28.99867"></scales>
<clustering>
<clus scale="   28.999">  2  9  1 -1</clus>
<clus scale="   81.931">  5  6 -1 -1</clus>
<clus scale="   90.929">  7  8 -1 -1</clus>
<clus scale="  155.887">  1  5  2 -1</clus>
<clus scale="  155.887">  1  5  2 -1</clus>
</clustering>
</event>
<event>
 9    1  0.2802611E-005  0.1313157E+03  0.7546771E-02  0.1228417E+00
          1   -1    0    0  502    0  0.00000000000E+00  0.00000000000E+00  0.25858287421E+03  0.25858287421E+03  0.00000000000E+00 0. -1.
         -2   -1    0    0    0  501 -0.00000000000E+00 -0.00000000000E+00 -0.86265537866E+02  0.86265537866E+02  0.00000000000E+00 0.  1.
        -24    2    1    2    0    0 -0.43438195952E+02  0.73089816351E+02  0.10701454833E+02  0.11798222576E+03  0.81094305215E+02 0.  0.
         23    2    1    2    0    0  0.33031764766E+02 -0.92052755280E+02  0.15260629774E+03  0.20343416842E+03  0.92368671818E+02 0.  0.
         13    1    3    3    0    0 -0.29905783909E+02  0.14830772427E+02  0.39402963754E+02  0.51642049481E+02  0.00000000000E+00 0. -1.
        -14    1    3    3    0    0 -0.13532412043E+02  0.58259043924E+02 -0.28701508920E+02  0.66340176281E+02  0.00000000000E+00 0.  1.
        -13    1    4    4    0    0 -0.57318577904E+00 -0.54474269215E+02  0.14440640947E+02  0.56358731883E+02  0.00000000000E+00 0.  1.
         13    1    4    4    0    0  0.33604950545E+02 -0.37578486065E+02  0.13816565679E+03  0.14707543654E+03  0.00000000000E+00 0. -1.
         21    1    1    2  502  501  0.10406431186E+02  0.18962938929E+02  0.90095837728E+01  0.23432017895E+02  0.00000000000E+00 0.  1.
<scales pt_clust_5="13000.00000" pt_clust_6="13000.00000" pt_clust_7="13000.00000" pt_clust_8="13000.00000" pt_clust_9="21.63069"></scales>
<clustering>
<clus scale="   21.631">  2  9  1 -1</clus>
<clus scale="   81.094">  5  6 -1 -1</clus>
<clus scale="   92.369">  7  8 -1 -1</clus>
<clus scale="  123.645">  2  5  1 -1</clus>
<clus scale="  131.316">  1  5  2 -1</clus>
</clustering>
</event>
<event>
 9    1  0.2802611E-005  0.1030253E+03  0.7546771E-02  0.1279064E+00
          1   -1    0    0  502    0  0.00000000000E+00  0.00000000000E+00  0.17972103802E+03  0.17972103802E+03  0.00000000000E+00 0. -1.
         -2   -1    0    0    0  501 -0.00000000000E+00 -0.00000000000E+00 -0.13619651918E+03  0.13619651918E+03  0.00000000000E+00 0.  1.
        -24    2    1    2    0    0 -0.24342191300E+02  0.40134147086E+01 -0.39118293500E+02  0.93385401108E+02  0.81129171565E+02 0.  0.
         23    2    1    2    0    0  0.47905319440E+02 -0.23392051184E+02  0.12897397269E+03  0.16705847783E+03  0.91826693809E+02 0.  0.
         13    1    3    3    0    0  0.13197818730E+02  0.24929044393E+02  0.82889391060E+01  0.29399765052E+02  0.00000000000E+00 0. -1.
        -14    1    3    3    0    0 -0.37540010030E+02 -0.20915629685E+02 -0.47407232606E+02  0.63985636056E+02  0.00000000000E+00 0.  1.
        -11    1    4    4    0    0  0.73236964479E+02 -0.29663538544E+02  0.10654674566E+03  0.13264911419E+03  0.00000000000E+00 0. -1.
         11    1    4    4    0    0 -0.25331645040E+02  0.62714873607E+01  0.22427227033E+02  0.34409363646E+02  0.00000000000E+00 0.  1.
         21    1    1    2  502  501 -0.23563128140E+02  0.19378636475E+02 -0.46331160352E+02  0.55473678253E+02  0.00000000000E+00 0.  1.
<scales pt_clust_5="13000.00000" pt_clust_6="13000.00000" pt_clust_7="13000.00000" pt_clust_8="13000.00000" pt_clust_9="30.50824"></scales>
<clustering>
<clus scale="   30.508">  2  9  1 -1</clus>
<clus scale="   81.129">  5  6 -1 -1</clus>
<clus scale="   91.827">  7  8 -1 -1</clus>
<clus scale="   93.616">  2  5  1 -1</clus>
<clus scale="  103.025">  1  5  2 -1</clus>
</clustering>
</event>
<event>
 9    1  0.2802611E-005  0.1285582E+03  0.7546771E-02  0.1232539E+00
         -2   -1    0    0    0  501 -0.00000000000E+00  0.00000000000E+00  0.32125554632E+02  0.32125554632E+02  0.00000000000E+00 0.  1.
          1   -1    0    0  502    0  0.00000000000E+00 -0.00000000000E+00 -0.71906498474E+03  0.71906498474E+03  0.00000000000E+00 0. -1.
        -24    2    1    2    0    0 -0.86893606286E+02 -0.16042738801E+02 -0.17981726665E+03  0.21633625414E+03  0.81604271868E+02 0.  0.
         23    2    1    2    0    0  0.90474873892E+02 -0.40321353897E+01 -0.49386502746E+03  0.51053191474E+03  0.92402433403E+02 0.  0.
         13    1    3    3    0    0 -0.33112219316E+02 -0.19959612765E+02 -0.14961641096E+03  0.15453114779E+03  0.00000000000E+00 0. -1.
        -14    1    3    3    0    0 -0.53781386969E+02  0.39168739640E+01 -0.30200855693E+02  0.61805106347E+02  0.00000000000E+00 0.  1.
        -11    1    4    4    0    0  0.56645228703E+02  0.40513772097E+02 -0.21120963203E+03  0.22239504564E+03  0.00000000000E+00 0.  1.
         11    1    4    4    0    0  0.33829645189E+02 -0.44545907487E+02 -0.28265539543E+03  0.28813686910E+03  0.00000000000E+00 0. -1.
         21    1    1    2  502  501 -0.35812676067E+01  0.20074874191E+02 -0.13257135992E+02  0.24322370489E+02  0.00000000000E+00 0. -1.
<scales pt_clust_5="13000.00000" pt_clust_6="13000.00000" pt_clust_7="13000.00000" pt_clust_8="13000.00000" pt_clust_9="20.39181"></scales>
<clustering>
<clus scale="   20.392">  1  9  2 -1</clus>
<clus scale="   81.604">  5  6 -1 -1</clus>
<clus scale="   92.402">  7  8 -1 -1</clus>
<clus scale="  121.030">  1  5  2 -1</clus>
<clus scale="  128.558">  2  5  1 -1</clus>
</clustering>
</event>
<event>
 9    1  0.2802611E-005  0.1146956E+03  0.7546771E-02  0.1257985E+00
         -2   -1    0    0    0  501 -0.00000000000E+00  0.00000000000E+00  0.54853070138E+03  0.54853070138E+03  0.00000000000E+00 0.  1.
          1   -1    0    0  502    0  0.00000000000E+00 -0.00000000000E+00 -0.33680624342E+02  0.33680624342E+02  0.00000000000E+00 0. -1.
         23    2    1    2    0    0  0.18058442982E+02 -0.57205195349E+02  0.37383555483E+03  0.39006385511E+03  0.93798972619E+02 0.  0.
        -24    2    1    2    0    0 -0.40827578705E+02  0.55197726603E+02  0.94841472882E+02  0.14062646562E+03  0.77892346534E+02 0.  0.
         11    1    4    4    0    0 -0.70667708095E+00  0.54394347103E+02  0.24539523604E+02  0.59677739636E+02  0.00000000000E+00 0. -1.
        -12    1    4    4    0    0 -0.40120901624E+02  0.80337949917E+00  0.70301949278E+02  0.80948725982E+02  0.00000000000E+00 0.  1.
        -11    1    3    3    0    0  0.49579446747E+02 -0.78277993396E+01  0.21467819423E+03  0.22046796380E+03  0.00000000000E+00 0. -1.
         11    1    3    3    0    0 -0.31521003765E+02 -0.49377396010E+02  0.15915736060E+03  0.16959589131E+03  0.00000000000E+00 0.  1.
         21    1    1    2  502  501  0.22769135723E+02  0.20074687468E+01  0.46173049325E+02  0.51521005001E+02  0.00000000000E+00 0. -1.
<scales pt_clust_5="13000.00000" pt_clust_6="13000.00000" pt_clust_7="13000.00000" pt_clust_8="13000.00000" pt_clust_9="22.85746"></scales>
<clustering>
<clus scale="   22.857">  1  9  2 -1</clus>
<clus scale="   77.892">  5  6 -1 -1</clus>
<clus scale="   93.799">  7  8 -1 -1</clus>
<clus scale="  102.098">  2  5  1 -1</clus>
<clus scale="  102.098">  2  5  1 -1</clus>
</clustering>
</event>
<event>
 9    1  0.2802611E-005  0.1732549E+03  0.7546771E-02  0.1176012E+00
         -2   -1    0    0    0  501 -0.00000000000E+00  0.00000000000E+00  0.44976120935E+02  0.44976120935E+02  0.00000000000E+00 0.  1.
          1   -1    0    0  502    0  0.00000000000E+00 -0.00000000000E+00 -0.94288624682E+03  0.94288624682E+03  0.00000000000E+00 0. -1.
         23    2    1    2    0    0  0.18990655575E+02  0.12569053293E+03 -0.24525307238E+03  0.29089105402E+03  0.91157998717E+02 0.  0.
        -24    2    1    2    0    0 -0.30498064019E+02 -0.15506949479E+03 -0.63820401136E+03  0.66226635333E+03  0.79471268496E+02 0.  0.
         13    1    4    4    0    0 -0.20684640786E+02 -0.12601093006E+02 -0.36195803113E+02  0.43552015710E+02  0.00000000000E+00 0. -1.
        -14    1    4    4    0    0 -0.98134232334E+01 -0.14246840178E+03 -0.60200820825E+03  0.61871433762E+03  0.00000000000E+00 0.  1.
        -13    1    3    3    0    0 -0.26691105030E+02  0.95044034526E+02 -0.18211026883E+03  0.20714713032E+03  0.00000000000E+00 0. -1.
         13    1    3    3    0    0  0.45681760605E+02  0.30646498400E+02 -0.63142803545E+02  0.83743923694E+02  0.00000000000E+00 0.  1.
         21    1    1    2  502  501  0.11507408444E+02  0.29378961863E+02 -0.14453042143E+02  0.34704960401E+02  0.00000000000E+00 0. -1.
<scales pt_clust_5="13000.00000" pt_clust_6="13000.00000" pt_clust_7="13000.00000" pt_clust_8="13000.00000" pt_clust_9="31.55224"></scales>
<clustering>
<clus scale="   31.552">  1  9  2 -1</clus>
<clus scale="   79.471">  5  6 -1 -1</clus>
<clus scale="   91.158">  7  8 -1 -1</clus>
<clus scale="  167.401">  2  5  1 -1</clus>
<clus scale="  167.401">  2  5  1 -1</clus>
</clustering>
</event>
<event>
 9    1  0.2802611E-005  0.1382826E+03  0.7546771E-02  0.1238503E+00
          1   -1    0    0  502    0  0.00000000000E+00  0.00000000000E+00  0.10641401205E+04  0.10641401205E+04  0.00000000000E+00 0. -1.
         -2   -1    0    0    0  501 -0.00000000000E+00 -0.00000000000E+00 -0.35876464214E+02  0.35876464214E+02  0.00000000000E+00 0.  1.
         23    2    1    2    0    0  0.12524107958E+02 -0.11817567118E+03  0.17973656396E+03  0.23288081797E+03  0.88351006868E+02 0.  0.
        -24    2    1    2    0    0 -0.50281978778E+01  0.31623029727E+02  0.53129778668E+03  0.53822547385E+03  0.79900086279E+02 0.  0.
         11    1    4    4    0    0 -0.80403404340E+00  0.56262495237E+02  0.27411578668E+03  0.27983134089E+03  0.00000000000E+00 0. -1.
        -12    1    4    4    0    0 -0.42241638344E+01 -0.24639465510E+02  0.25718200001E+03  0.25839413296E+03  0.00000000000E+00 0.  1.
        -13    1    3    3    0    0 -0.31561613180E+02 -0.64377766782E+02  0.56158912789E+02  0.91073902782E+02  0.00000000000E+00 0.  1.
         13    1    3    3    0    0  0.44085721138E+02 -0.53797904399E+02  0.12357765117E+03  0.14180691519E+03  0.00000000000E+00 0. -1.
         21    1    1    2  502  501 -0.74959100797E+01  0.86552641454E+02  0.31722930564E+03  0.32891029288E+03  0.00000000000E+00 0. -1.
<scales pt_clust_5="13000.00000" pt_clust_6="13000.00000" pt_clust_7="13000.00000" pt_clust_8="13000.00000" pt_clust_9="106.37748"></scales>
<clustering>
<clus scale="   79.900">  5  6 -1 -1</clus>
<clus scale="   86.077">  1  5  2 -1</clus>
<clus scale="   88.351">  7  8 -1 -1</clus>
<clus scale="  106.377">  1  9  2 -1</clus>
<clus scale="   86.077">  1  5  2 -1</clus>
</clustering>
</event>
<event>
 9    1  0.2802611E-005  0.1080767E+03  0.7546771E-02  0.1266907E+00
          1   -1    0    0  502    0  0.00000000000E+00  0.00000000000E+00  0.19015314081E+03  0.19015314081E+03  0.00000000000E+00 0. -1.
         -2   -1    0    0    0  501 -0.00000000000E+00 -0.00000000000E+00 -0.14047701539E+03  0.14047701539E+03  0.00000000000E+00 0.  1.
         23    2    1    2    0    0 -0.66572868570E+02  0.53489879155E+02  0.36122959620E+02  0.12816188375E+03  0.88473081964E+02 0.  0.
        -24    2    1    2    0    0  0.48531873644E+02 -0.17957156686E+02  0.79723621649E+02  0.12522462488E+03  0.81532500211E+02 0.  0.
         13    1    4    4    0    0  0.20098447127E+02 -0.11835040926E+02  0.91066538635E+02  0.94006011667E+02  0.00000000000E+00 0. -1.
        -14    1    4    4    0    0  0.28433426517E+02 -0.61221157596E+01 -0.11342916986E+02  0.31218613208E+02  0.00000000000E+00 0.  1.
        -13    1    3    3    0    0 -0.19409859735E+02  0.21519068042E+02 -0.29433110858E+02  0.41305217094E+02  0.00000000000E+00 0.  1.
         13    1    3    3    0    0 -0.47163008835E+02  0.31970811112E+02  0.65556070479E+02  0.86856666654E+02  0.00000000000E+00 0. -1.
         21    1    1    2  502  501  0.18040994926E+02 -0.35532722469E+02 -0.66170455854E+02  0.77243647583E+02  0.00000000000E+00 0.  1.
<scales pt_clust_5="13000.00000" pt_clust_6="13000.00000" pt_clust_7="13000.00000" pt_clust_8="13000.00000" pt_clust_9="39.85037"></scales>
<clustering>
<clus scale="   39.850">  2  9  1 -1</clus>
<clus scale="   81.533">  5  6 -1 -1</clus>
<clus scale="   88.473">  7  8 -1 -1</clus>
<clus scale="  102.473">  1  5  2 -1</clus>
<clus scale="  102.473">  1  5  2 -1</clus>
</clustering>
</event>
<event>
 9    1  0.2802611E-005  0.1624443E+03  0.7546771E-02  0.1187683E+00
          1   -1    0    0  502    0  0.00000000000E+00  0.00000000000E+00  0.14844387512E+03  0.14844387512E+03  0.00000000000E+00 0. -1.
         -2   -1    0    0    0  501 -0.00000000000E+00 -0.00000000000E+00 -0.20701367269E+03  0.20701367269E+03  0.00000000000E+00 0.  1.
         23    2    1    2    0    0  0.13043719981E+03 -0.60542175180E+02 -0.12483905796E+02  0.17134304461E+03  0.92322115247E+02 0.  0.
        -24    2    1    2    0    0 -0.10918458191E+03  0.59772988000E+02 -0.19177334858E+02  0.14981675033E+03  0.81136955123E+02 0.  0.
         11    1    4    4    0    0 -0.38646486714E+02  0.39978060639E+02  0.28423972102E+02  0.62447725802E+02  0.00000000000E+00 0. -1.
        -12    1    4    4    0    0 -0.70538095193E+02  0.19794927361E+02 -0.47601306960E+02  0.87369024528E+02  0.00000000000E+00 0.  1.
        -11    1    3    3    0    0  0.89648820308E+02 -0.36416611936E+02 -0.51811018989E+02  0.10976093247E+03  0.00000000000E+00 0.  1.
         11    1    3    3    0    0  0.40788379499E+02 -0.24125563244E+02  0.39327113192E+02  0.61582112144E+02  0.00000000000E+00 0. -1.
         21    1    1    2  502  501 -0.21252617900E+02  0.76918717989E+00 -0.26908556915E+02  0.34297752868E+02  0.00000000000E+00 0.  1.
<scales pt_clust_5="13000.00000" pt_clust_6="13000.00000" pt_clust_7="13000.00000" pt_clust_8="13000.00000" pt_clust_9="21.26653"></scales>
<clustering>
<clus scale="   21.267">  2  9  1 -1</clus>
<clus scale="   81.137">  5  6 -1 -1</clus>
<clus scale="   92.322">  7  8 -1 -1</clus>
<clus scale="  156.359">  1  5  2 -1</clus>
<clus scale="  156.359">  1  5  2 -1</clus>
</clustering>
</event>
<event>
 9    1  0.2802611E-005  0.1798065E+03  0.7546771E-02  0.1175167E+00
         -2   -1    0    0    0  501 -0.00000000000E+00  0.00000000000E+00  0.26647987047E+03  0.26647987047E+03  0.00000000000E+00 0.  1.
          1   -1    0    0  502    0  0.00000000000E+00 -0.00000000000E+00 -0.25316862661E+03  0.25316862661E+03  0.00000000000E+00 0. -1.
         23    2    1    2    0    0  0.73581068420E+01  0.12532543289E+03  0.25349947533E+02  0.17851620337E+03  0.12435758585E+03 0.  0.
        -24    2    1    2    0    0 -0.29940133448E+02 -0.12831973233E+03 -0.14170635910E+03  0.20947890554E+03  0.80239356668E+02 0.  0.
         13    1    4    4    0    0  0.56268987824E+01 -0.68576980625E+02 -0.24191837106E+02  0.72936336926E+02  0.00000000000E+00 0. -1.
        -14    1    4    4    0    0 -0.35567032230E+02 -0.59742751707E+02 -0.11751452199E+03  0.13654256861E+03  0.00000000000E+00 0.  1.
        -13    1    3    3    0    0  0.48673877888E+02  0.78675725373E+02  0.56958391449E+02  0.10864287601E+03  0.00000000000E+00 0.  1.
         13    1    3    3    0    0 -0.41315771046E+02  0.46649707519E+02 -0.31608443916E+02  0.69873327354E+02  0.00000000000E+00 0. -1.
         21    1    1    2  502  501  0.22582026606E+02  0.29942994409E+01  0.12966765543E+03  0.13165338818E+03  0.00000000000E+00 0.  1.
<scales pt_clust_5="13000.00000" pt_clust_6="13000.00000" pt_clust_7="13000.00000" pt_clust_8="13000.00000" pt_clust_9="22.77968"></scales>
<clustering>
<clus scale="   22.780">  1  9  2 -1</clus>
<clus scale="   80.239">  5  6 -1 -1</clus>
<clus scale="  124.358">  7  8 -1 -1</clus>
<clus scale="  152.656">  2  5  1 -1</clus>
<clus scale="  152.656">  2  5  1 -1</clus>
</clustering>
</event>
<event>
 9    1  0.2802611E-005  0.1369336E+03  0.7546771E-02  0.1219203E+00
          1   -1    0    0  502    0  0.00000000000E+00  0.00000000000E+00  0.64955733473E+03  0.64955733473E+03  0.00000000000E+00 0. -1.
         -2   -1    0    0    0  501 -0.00000000000E+00 -0.00000000000E+00 -0.95912794086E+02  0.95912794086E+02  0.00000000000E+00 0.  1.
        -24    2    1    2    0    0  0.92785053803E+02  0.30988960598E+02 -0.26564440027E+02  0.12994884616E+03  0.81312060948E+02 0.  0.
         23    2    1    2    0    0 -0.10458568751E+03 -0.10117543014E+02  0.57466411307E+03  0.59091200423E+03  0.88868572532E+02 0.  0.
         13    1    3    3    0    0  0.29010594230E+02  0.49876930420E+02  0.15913386748E+01  0.57722223836E+02  0.00000000000E+00 0. -1.
        -14    1    3    3    0    0  0.63774459573E+02 -0.18887969822E+02 -0.28155778702E+02  0.72226622323E+02  0.00000000000E+00 0.  1.
        -13    1    4    4    0    0 -0.10219426361E+03 -0.34804866603E+02  0.51680665135E+03  0.52796227245E+03  0.00000000000E+00 0. -1.
         13    1    4    4    0    0 -0.23914239058E+01  0.24687323589E+02  0.57857461725E+02  0.62949731783E+02  0.00000000000E+00 0.  1.
         21    1    1    2  502  501  0.11800633711E+02 -0.20871417584E+02  0.55448675989E+01  0.24609278426E+02  0.00000000000E+00 0. -1.
<scales pt_clust_5="13000.00000" pt_clust_6="13000.00000" pt_clust_7="13000.00000" pt_clust_8="13000.00000" pt_clust_9="23.97647"></scales>
<clustering>
<clus scale="   23.976">  2  9  1 -1</clus>
<clus scale="   81.312">  5  6 -1 -1</clus>
<clus scale="   88.869">  7  8 -1 -1</clus>
<clus scale="  132.155">  2  5  1 -1</clus>
<clus scale="  136.934">  1  5  2 -1</clus>
</clustering>
</event>
<event>
 9    1  0.2802611E-005  0.2434808E+03  0.7546771E-02  0.1118219E+00
          1   -1    0    0  502    0  0.00000000000E+00  0.00000000000E+00  0.11404875950E+04  0.11404875950E+04  0.00000000000E+00 0. -1.
         -2   -1    0    0    0  501 -0.00000000000E+00 -0.00000000000E+00 -0.10006870757E+03  0.10006870757E+03  0.00000000000E+00 0.  1.
         23    2    1    2    0    0  0.71352213886E+02  0.23325479444E+03  0.26070889792E+03  0.36842788388E+03  0.90945250588E+02 0.  0.
        -24    2    1    2    0    0 -0.72386896986E+02 -0.20807755544E+03  0.80388323523E+03  0.83720980276E+03  0.78459327195E+02 0.  0.
         13    1    4    4    0    0 -0.31229843274E+02 -0.16420371833E+03  0.66821010796E+03  0.68879816536E+03  0.00000000000E+00 0. -1.
        -14    1    4    4    0    0 -0.41157053712E+02 -0.43873837110E+02  0.13567312727E+03  0.14841163740E+03  0.00000000000E+00 0.  1.
        -11    1    3    3    0    0  0.17256171410E+02  0.11924720494E+03  0.68802949392E+02  0.13874983669E+03  0.00000000000E+00 0.  1.
         11    1    3    3    0    0  0.54096042475E+02  0.11400758950E+03  0.19190594853E+03  0.22967804718E+03  0.00000000000E+00 0. -1.
         21    1    1    2  502  501  0.10346831007E+01 -0.25177239001E+02 -0.24173245695E+02  0.34918615956E+02  0.00000000000E+00 0.  1.
<scales pt_clust_5="13000.00000" pt_clust_6="13000.00000" pt_clust_7="13000.00000" pt_clust_8="13000.00000" pt_clust_9="25.19849"></scales>
<clustering>
<clus scale="   25.198">  2  9  1 -1</clus>
<clus scale="   78.459">  5  6 -1 -1</clus>
<clus scale="   90.945">  7  8 -1 -1</clus>
<clus scale="  239.098">  1  5  2 -1</clus>
<clus scale="  239.098">  1  5  2 -1</clus>
</clustering>
</event>
<event>
 9    1  0.2802611E-005  0.1102107E+03  0.7546771E-02  0.1265896E+00
         -4   -1    0    0    0  501 -0.00000000000E+00  0.00000000000E+00  0.46695787840E+03  0.46695787840E+03  0.00000000000E+00 0.  1.
          3   -1    0    0  502    0  0.00000000000E+00 -0.00000000000E+00 -0.79914492978E+02  0.79914492978E+02  0.00000000000E+00 0. -1.
         23    2    1    2    0    0 -0.50364487532E+02 -0.27776522009E+02  0.41005330288E+03  0.42482199567E+03  0.94983682932E+02 0.  0.
        -24    2    1    2    0    0  0.44188622378E+02  0.58135378074E+01 -0.31345125417E+02  0.97760672593E+02  0.81167731575E+02 0.  0.
         13    1    4    4    0    0  0.42868587628E+02  0.39564154677E+02 -0.24636207013E+02  0.63324409484E+02  0.00000000000E+00 0. -1.
        -14    1    4    4    0    0  0.13200347497E+01 -0.33750616869E+02 -0.67089184036E+01  0.34436263109E+02  0.00000000000E+00 0.  1.
        -11    1    3    3    0    0  0.11187875595E+02  0.26510307632E+02  0.11781758059E+03  0.12128044882E+03  0.00000000000E+00 0.  1.
         11    1    3    3    0    0 -0.61552363127E+02 -0.54286829641E+02  0.29223572230E+03  0.30354154685E+03  0.00000000000E+00 0. -1.
         21    1    1    2  502  501  0.61758651545E+01  0.21962984202E+02  0.83352079502E+01  0.24289703107E+02  0.00000000000E+00 0. -1.
<scales pt_clust_5="13000.00000" pt_clust_6="13000.00000" pt_clust_7="13000.00000" pt_clust_8="13000.00000" pt_clust_9="22.81478"></scales>
<clustering>
<clus scale="   22.815">  2  9  1 -1</clus>
<clus scale="   81.168">  5  6 -1 -1</clus>
<clus scale="   94.984">  7  8 -1 -1</clus>
<clus scale="   98.553">  2  5  1 -1</clus>
<clus scale="   22.815">  2  5  1 -1</clus>
</clustering>
</event>
<event>
 9    1  0.2802611E-005  0.1402677E+03  0.7546771E-02  0.1215775E+00
         -4   -1    0    0    0  501 -0.00000000000E+00  0.00000000000E+00  0.42528001117E+02  0.42528001117E+02  0.00000000000E+00 0.  1.
          3   -1    0    0  502    0  0.00000000000E+00 -0.00000000000E+00 -0.70487068801E+03  0.70487068801E+03  0.00000000000E+00 0. -1.
         23    2    1    2    0    0  0.11465412845E+03 -0.51396389962E+02 -0.26887965500E+03  0.31093192848E+03  0.92710502111E+02 0.  0.
        -24    2    1    2    0    0 -0.92156275669E+02  0.26694178080E+02 -0.38077157752E+03  0.40072566854E+03  0.79929399402E+02 0.  0.
         11    1    4    4    0    0 -0.43236390489E+02  0.48387216158E+02 -0.14342766608E+03  0.15742364354E+03  0.00000000000E+00 0. -1.
        -12    1    4    4    0    0 -0.48919885179E+02 -0.21693038079E+02 -0.23734391144E+03  0.24330202499E+03  0.00000000000E+00 0.  1.
        -13    1    3    3    0    0  0.89481064814E+02  0.87646315756E+01 -0.13800898780E+03  0.16471235667E+03  0.00000000000E+00 0.  1.
         13    1    3    3    0    0  0.25173063633E+02 -0.60161021537E+02 -0.13087066720E+03  0.14621957181E+03  0.00000000000E+00 0. -1.
         21    1    1    2  502  501 -0.22497852778E+02  0.24702211882E+02 -0.12691454373E+02  0.35741092115E+02  0.00000000000E+00 0.  1.
<scales pt_clust_5="13000.00000" pt_clust_6="13000.00000" pt_clust_7="13000.00000" pt_clust_8="13000.00000" pt_clust_9="33.41186"></scales>
<clustering>
<clus scale="   33.412">  1  9  2 -1</clus>
<clus scale="   79.929">  5  6 -1 -1</clus>
<clus scale="   92.711">  7  8 -1 -1</clus>
<clus scale="  132.168">  2  5  1 -1</clus>
<clus scale="  132.168">  2  5  1 -1</clus>
</clustering>
</event>
<event>
 9    1  0.2802611E-005  0.1132480E+03  0.7546771E-02  0.1257549E+00
         -2   -1    0    0    0  501 -0.00000000000E+00  0.00000000000E+00  0.25576022003E+03  0.25576022003E+03  0.00000000000E+00 0.  1.
          1   -1    0    0  502    0  0.00000000000E+00 -0.00000000000E+00 -0.10020171932E+03  0.10020171932E+03  0.00000000000E+00 0. -1.
        -24    2    1    2    0    0 -0.17825960599E+02  0.53510954232E+02  0.12855534213E+03  0.16257574581E+03  0.81995183041E+02 0.  0.
         23    2    1    2    0    0 -0.40718175813E+02 -0.67864451974E+02 -0.13714637917E+02  0.12064433655E+03  0.90018947812E+02 0.  0.
         11    1    3    3    0    0  0.21511277244E+02 -0.10847995857E+02  0.31299326039E+02  0.39497618578E+02  0.00000000000E+00 0. -1.
        -12    1    3    3    0    0 -0.39337237843E+02  0.64358950089E+02  0.97256016086E+02  0.12307812723E+03  0.00000000000E+00 0.  1.
        -11    1    4    4    0    0 -0.32463052454E+02  0.15382756008E+02 -0.79366124204E+01  0.36789519890E+02  0.00000000000E+00 0.  1.
         11    1    4    4    0    0 -0.82551233592E+01 -0.83247207982E+02 -0.57780254964E+01  0.83854816661E+02  0.00000000000E+00 0. -1.
         21    1    1    2  502  501  0.58544136412E+02  0.14353497742E+02  0.40717796500E+02  0.72741856984E+02  0.00000000000E+00 0.  1.
<scales pt_clust_5="13000.00000" pt_clust_6="13000.00000" pt_clust_7="13000.00000" pt_clust_8="13000.00000" pt_clust_9="60.27801"></scales>
<clustering>
<clus scale="   60.278">  1  9  2 -1</clus>
<clus scale="   81.995">  5  6 -1 -1</clus>
<clus scale="   90.019">  7  8 -1 -1</clus>
<clus scale="  106.981">  1  5  2 -1</clus>
<clus scale="  113.248">  2  5  1 -1</clus>
</clustering>
</event>
<event>
 9    1  0.2802611E-005  0.1301860E+03  0.7546771E-02  0.1232111E+00
         -2   -1    0    0    0  501 -0.00000000000E+00  0.00000000000E+00  0.49020838026E+03  0.49020838026E+03  0.00000000000E+00 0.  1.
          1   -1    0    0  502    0  0.00000000000E+00 -0.00000000000E+00 -0.20985593048E+03  0.20985593048E+03  0.00000000000E+00 0. -1.
         23    2    1    2    0    0  0.35825967198E+02 -0.11777577062E+03  0.83297367703E+02  0.17527345405E+03  0.92885414114E+02 0.  0.
        -24    2    1    2    0    0 -0.81716723821E+02  0.40647641019E+02 -0.13602998762E+03  0.17982654901E+03  0.74186093865E+02 0.  0.
         13    1    4    4    0    0 -0.93667591437E+02  0.34932439383E+02 -0.99833216433E+02  0.14128186051E+03  0.00000000000E+00 0. -1.
        -14    1    4    4    0    0  0.11950867616E+02  0.57152016360E+01 -0.36196771191E+02  0.38544688495E+02  0.00000000000E+00 0.  1.
        -11    1    3    3    0    0  0.63598790845E+02 -0.49933731788E+02  0.45904825810E+02  0.92980841036E+02  0.00000000000E+00 0.  1.
         11    1    3    3    0    0 -0.27772823646E+02 -0.67842038835E+02  0.37392541893E+02  0.82292613009E+02  0.00000000000E+00 0. -1.
         21    1    1    2  502  501  0.45890756623E+02  0.77128129605E+02  0.33308506970E+03  0.34496430768E+03  0.00000000000E+00 0.  1.
<scales pt_clust_5="13000.00000" pt_clust_6="13000.00000" pt_clust_7="13000.00000" pt_clust_8="13000.00000" pt_clust_9="89.74804"></scales>
<clustering>
<clus scale="   74.186">  5  6 -1 -1</clus>
<clus scale="   89.748">  1  9  2 -1</clus>
<clus scale="   92.885">  7  8 -1 -1</clus>
<clus scale="  117.577">  2  5  1 -1</clus>
<clus scale="  117.577">  2  5  1 -1</clus>
</clustering>
</event>
<event>
 9    1  0.2802611E-005  0.1067484E+03  0.7546771E-02  0.1267443E+00
          1   -1    0    0  502    0  0.00000000000E+00  0.00000000000E+00  0.21008622133E+03  0.21008622133E+03  0.00000000000E+00 0. -1.
         -2   -1    0    0    0  501 -0.00000000000E+00 -0.00000000000E+00 -0.20744163266E+03  0.20744163266E+03  0.00000000000E+00 0.  1.
        -24    2    1    2    0    0 -0.10352676015E+03 -0.14924466474E+02 -0.12663858694E+03  0.18495193711E+03  0.85025628931E+02 0.  0.
         23    2    1    2    0    0  0.47624934687E+02  0.33613797812E+02  0.13780306438E+03  0.17302011362E+03  0.86880684617E+02 0.  0.
         13    1    3    3    0    0 -0.89209497019E+02 -0.53202145175E+01 -0.42307270525E+02  0.98876408612E+02  0.00000000000E+00 0. -1.
        -14    1    3    3    0    0 -0.14317263128E+02 -0.96042519560E+01 -0.84331316412E+02  0.86075528502E+02  0.00000000000E+00 0.  1.
        -13    1    4    4    0    0  0.30805949482E+01 -0.25913699544E+02  0.16914409055E+02  0.31098345985E+02  0.00000000000E+00 0.  1.
         13    1    4    4    0    0  0.44544339739E+02  0.59527497357E+02  0.12088865532E+03  0.14192176764E+03  0.00000000000E+00 0. -1.
         21    1    1    2  502  501  0.55901825459E+02 -0.18689331339E+02 -0.85198887690E+01  0.59555803246E+02  0.00000000000E+00 0.  1.
<scales pt_clust_5="13000.00000" pt_clust_6="13000.00000" pt_clust_7="13000.00000" pt_clust_8="13000.00000" pt_clust_9="58.94324"></scales>
<clustering>
<clus scale="   58.943">  2  9  1 -1</clus>
<clus scale="   85.026">  5  6 -1 -1</clus>
<clus scale="   86.881">  7  8 -1 -1</clus>
<clus scale="  105.244">  2  5  1 -1</clus>
<clus scale="  106.748">  1  5  2 -1</clus>
</clustering>
</event>
<event>
 9    1  0.2802611E-005  0.1403564E+03  0.7546771E-02  0.1220204E+00
          1   -1    0    0  502    0  0.00000000000E+00  0.00000000000E+00  0.16996472699E+03  0.16996472699E+03  0.00000000000E+00 0. -1.
         -2   -1    0    0    0  501 -0.00000000000E+00 -0.00000000000E+00 -0.26945757274E+03  0.26945757274E+03  0.00000000000E+00 0.  1.
         23    2    1    2    0    0 -0.66056719785E+02  0.65177614317E+02 -0.20843092127E+03  0.25262286965E+03  0.10845853443E+03 0.  0.
        -24    2    1    2    0    0  0.35153492582E+02 -0.58820276166E+02  0.11320030151E+03  0.15496247403E+03  0.80644077066E+02 0.  0.
         11    1    4    4    0    0 -0.23877278529E+02 -0.26958191537E+02  0.57135887923E+02  0.67537976055E+02  0.00000000000E+00 0. -1.
        -12    1    4    4    0    0  0.59030771111E+02 -0.31862084629E+02  0.56064413591E+02  0.87424497975E+02  0.00000000000E+00 0.  1.
        -13    1    3    3    0    0 -0.47304301474E+02  0.72283709448E+02 -0.21485012200E+03  0.23156685107E+03  0.00000000000E+00 0.  1.
         13    1    3    3    0    0 -0.18752418311E+02 -0.71060951310E+01  0.64192007306E+01  0.21056018582E+02  0.00000000000E+00 0. -1.
         21    1    1    2  502  501  0.30903227203E+02 -0.63573381512E+01 -0.42622259969E+01  0.31836956048E+02  0.00000000000E+00 0.  1.
<scales pt_clust_5="13000.00000" pt_clust_6="13000.00000" pt_clust_7="13000.00000" pt_clust_8="13000.00000" pt_clust_9="31.55036"></scales>
<clustering>
<clus scale="   31.550">  1  9  2 -1</clus>
<clus scale="   80.644">  5  6 -1 -1</clus>
<clus scale="  108.459">  7  8 -1 -1</clus>
<clus scale="  120.167">  1  5  2 -1</clus>
<clus scale="   31.550">  1  5  2 -1</clus>
</clustering>
</event>
<event>
 9    1  0.2802611E-005  0.9659786E+02  0.7546771E-02  0.1295541E+00
          1   -1    0    0  502    0  0.00000000000E+00  0.00000000000E+00  0.15038253697E+03  0.15038253697E+03  0.00000000000E+00 0. -1.
         -2   -1    0    0    0  501 -0.00000000000E+00 -0.00000000000E+00 -0.17840969318E+03  0.17840969318E+03  0.00000000000E+00 0.  1.
         23    2    1    2    0    0  0.53665772492E+02 -0.29264856245E+02 -0.68184547278E+02  0.12817804067E+03  0.89688520299E+02 0.  0.
        -24    2    1    2    0    0  0.18256712717E+02  0.36318424445E+02  0.80872264798E+02  0.11766662987E+03  0.75184952341E+02 0.  0.
         11    1    4    4    0    0 -0.23255369237E+02  0.12091993136E+02  0.33101552852E+01  0.26419417563E+02  0.00000000000E+00 0. -1.
        -12    1    4    4    0    0  0.41512081954E+02  0.24226431309E+02  0.77562109513E+02  0.91247212310E+02  0.00000000000E+00 0.  1.
        -11    1    3    3    0    0  0.67477507488E+02 -0.49231104298E+02 -0.46351178371E+02  0.95526684144E+02  0.00000000000E+00 0.  1.
         11    1    3    3    0    0 -0.13811734997E+02  0.19966248053E+02 -0.21833368906E+02  0.32651356522E+02  0.00000000000E+00 0. -1.
         21    1    1    2  502  501 -0.71922485209E+02 -0.70535681997E+01 -0.40714873729E+02  0.82947559613E+02  0.00000000000E+00 0. -1.
<scales pt_clust_5="13000.00000" pt_clust_6="13000.00000" pt_clust_7="13000.00000" pt_clust_8="13000.00000" pt_clust_9="72.26754"></scales>
<clustering>
<clus scale="   72.268">  2  9  1 -1</clus>
<clus scale="   75.185">  5  6 -1 -1</clus>
<clus scale="   83.306">  1  5  2 -1</clus>
<clus scale="   89.689">  7  8 -1 -1</clus>
<clus scale="   83.306">  1  5  2 -1</clus>
</clustering>
</event>
<event>
 9    1  0.2802611E-005  0.9049122E+02  0.7546771E-02  0.1305274E+00
          3   -1    0    0  502    0  0.00000000000E+00  0.00000000000E+00  0.28036350125E+03  0.28036350125E+03  0.00000000000E+00 0. -1.
         -4   -1    0    0    0  501 -0.00000000000E+00 -0.00000000000E+00 -0.88757871985E+02  0.88757871985E+02  0.00000000000E+00 0.  1.
        -24    2    1    2    0    0  0.34716556787E+02 -0.38026992383E+01  0.66489897269E+00  0.89399339223E+02  0.82292769586E+02 0.  0.
         23    2    1    2    0    0 -0.69199215508E+01  0.18887612094E+02  0.21930042043E+03  0.23724286793E+03  0.88243281780E+02 0.  0.
         13    1    3    3    0    0  0.27147566785E+02  0.21803467988E+02 -0.31944397616E+02  0.47252789735E+02  0.00000000000E+00 0. -1.
        -14    1    3    3    0    0  0.75689900015E+01 -0.25606167227E+02  0.32609296589E+02  0.42146549488E+02  0.00000000000E+00 0.  1.
        -11    1    4    4    0    0  0.33648561045E+02  0.51789662190E+01  0.16294680813E+03  0.16646534063E+03  0.00000000000E+00 0. -1.
         11    1    4    4    0    0 -0.40568482595E+02  0.13708645875E+02  0.56353612304E+02  0.70777527306E+02  0.00000000000E+00 0.  1.
         21    1    1    2  502  501 -0.27796635236E+02 -0.15084912856E+02 -0.28359690137E+02  0.42479166081E+02  0.00000000000E+00 0.  1.
<scales pt_clust_5="13000.00000" pt_clust_6="13000.00000" pt_clust_7="13000.00000" pt_clust_8="13000.00000" pt_clust_9="31.62606"></scales>
<clustering>
<clus scale="   31.626">  2  9  1 -1</clus>
<clus scale="   82.293">  5  6 -1 -1</clus>
<clus scale="   84.699">  2  5  1 -1</clus>
<clus scale="   88.243">  7  8 -1 -1</clus>
<clus scale="   90.491">  1  5  2 -1</clus>
</clustering>
</event>
<event>
 9    1  0.2802611E-005  0.9626740E+02  0.7546771E-02  0.1295065E+00
         -4   -1    0    0    0  501 -0.00000000000E+00  0.00000000000E+00  0.13211209511E+03  0.13211209511E+03  0.00000000000E+00 0.  1.
          3   -1    0    0  502    0  0.00000000000E+00 -0.00000000000E+00 -0.28209411370E+03  0.28209411370E+03  0.00000000000E+00 0. -1.
         23    2    1    2    0    0 -0.33892036888E+02  0.38209126952E+02  0.16091222745E+02  0.10628062848E+03  0.91804340826E+02 0.  0.
        -24    2    1    2    0    0  0.27029498600E+02 -0.44181383352E+01 -0.22463735681E+03  0.23996470213E+03  0.79818559556E+02 0.  0.
         13    1    4    4    0    0 -0.88287616452E+01 -0.27750840590E+02 -0.15880289416E+03  0.16145096896E+03  0.00000000000E+00 0. -1.
        -14    1    4    4    0    0  0.35858260245E+02  0.23332702255E+02 -0.65834462653E+02  0.78513733163E+02  0.00000000000E+00 0.  1.
        -11    1    3    3    0    0  0.15842634342E+02 -0.21868254471E+02  0.25851772718E+01  0.27127343364E+02  0.00000000000E+00 0. -1.
         11    1    3    3    0    0 -0.49734671229E+02  0.60077381422E+02  0.13506045474E+02  0.79153285119E+02  0.00000000000E+00 0.  1.
         21    1    1    2  502  501  0.68625382875E+01 -0.33790988616E+02  0.58564115479E+02  0.67960878196E+02  0.00000000000E+00 0.  1.
<scales pt_clust_5="13000.00000" pt_clust_6="13000.00000" pt_clust_7="13000.00000" pt_clust_8="13000.00000" pt_clust_9="34.48080"></scales>
<clustering>
<clus scale="   34.481">  1  9  2 -1</clus>
<clus scale="   79.819">  5  6 -1 -1</clus>
<clus scale="   84.914">  2  5  1 -1</clus>
<clus scale="   91.804">  7  8 -1 -1</clus>
<clus scale="   84.914">  2  5  1 -1</clus>
</clustering>
</event>
<event>
 9    1  0.2802611E-005  0.9783999E+02  0.7546771E-02  0.1287239E+00
         -2   -1    0    0    0  501 -0.00000000000E+00  0.00000000000E+00  0.39177018383E+03  0.39177018383E+03  0.00000000000E+00 0.  1.
          1   -1    0    0  502    0  0.00000000000E+00 -0.00000000000E+00 -0.49633057171E+02  0.49633057171E+02  0.00000000000E+00 0. -1.
         23    2    1    2    0    0  0.10304258395E+02  0.18156375850E+02  0.23424513040E+03  0.25055722403E+03  0.86442522379E+02 0.  0.
        -24    2    1    2    0    0 -0.33461165701E+01 -0.52625710634E+02  0.24340108938E+02  0.10019576240E+03  0.81646114321E+02 0.  0.
         13    1    4    4    0    0  0.34204569991E+01 -0.58853713123E+02 -0.14145728580E+02  0.60626402759E+02  0.00000000000E+00 0. -1.
        -14    1    4    4    0    0 -0.67665735692E+01  0.62280024886E+01  0.38485837518E+02  0.39569359641E+02  0.00000000000E+00 0.  1.
        -13    1    3    3    0    0 -0.35115494511E+02  0.44594892651E+01  0.14749236261E+03  0.15168052620E+03  0.00000000000E+00 0.  1.
         13    1    3    3    0    0  0.45419752906E+02  0.13696886585E+02  0.86752767787E+02  0.98876697835E+02  0.00000000000E+00 0. -1.
         21    1    1    2  502  501 -0.69581418249E+01  0.34469334784E+02  0.83551887325E+02  0.90650254571E+02  0.00000000000E+00 0. -1.
<scales pt_clust_5="13000.00000" pt_clust_6="13000.00000" pt_clust_7="13000.00000" pt_clust_8="13000.00000" pt_clust_9="35.16462"></scales>
<clustering>
<clus scale="   35.165">  1  9  2 -1</clus>
<clus scale="   81.646">  5  6 -1 -1</clus>
<clus scale="   86.443">  7  8 -1 -1</clus>
<clus scale="   93.629">  2  5  1 -1</clus>
<clus scale="   93.629">  2  5  1 -1</clus>
</clustering>
</event>
<event>
 9    1  0.2802611E-005  0.1386083E+03  0.7546771E-02  0.1217910E+00
          3   -1    0    0  502    0  0.00000000000E+00  0.00000000000E+00  0.17613370506E+03  0.17613370506E+03  0.00000000000E+00 0. -1.
         -4   -1    0    0    0  501 -0.00000000000E+00 -0.00000000000E+00 -0.22667434555E+03  0.22667434555E+03  0.00000000000E+00 0.  1.
         23    2    1    2    0    0  0.29079224722E+02 -0.97012859575E+02 -0.13552124576E+03  0.19295993046E+03  0.92792405277E+02 0.  0.
        -24    2    1    2    0    0 -0.64895954294E+02  0.81897139243E+02  0.10247383861E+03  0.16721789225E+03  0.80884544810E+02 0.  0.
         11    1    4    4    0    0 -0.71531381924E+02  0.32548639352E+02  0.81408806120E+02  0.11315275621E+03  0.00000000000E+00 0. -1.
        -12    1    4    4    0    0  0.66354276302E+01  0.49348499891E+02  0.21065032487E+02  0.54065136040E+02  0.00000000000E+00 0.  1.
        -13    1    3    3    0    0 -0.80951916277E+01 -0.36345455437E+02  0.28730968792E+01  0.37346739404E+02  0.00000000000E+00 0. -1.
         13    1    3    3    0    0  0.37174416350E+02 -0.60667404138E+02 -0.13839434264E+03  0.15561319106E+03  0.00000000000E+00 0.  1.
         21    1    1    2  502  501  0.35816729572E+02  0.15115720332E+02 -0.17493233332E+02  0.42630227900E+02  0.00000000000E+00 0.  1.
<scales pt_clust_5="13000.00000" pt_clust_6="13000.00000" pt_clust_7="13000.00000" pt_clust_8="13000.00000" pt_clust_9="38.87574"></scales>
<clustering>
<clus scale="   38.876">  2  9  1 -1</clus>
<clus scale="   80.885">  5  6 -1 -1</clus>
<clus scale="   92.792">  7  8 -1 -1</clus>
<clus scale="  130.936">  1  5  2 -1</clus>
<clus scale="  130.936">  1  5  2 -1</clus>
</clustering>
</event>
<event>
 9    1  0.2802611E-005  0.1002695E+03  0.7546771E-02  0.1286412E+00
         -2   -1    0    0    0  501 -0.00000000000E+00  0.00000000000E+00  0.15876627661E+03  0.15876627661E+03  0.00000000000E+00 0.  1.
          1   -1    0    0  502    0  0.00000000000E+00 -0.00000000000E+00 -0.40259527083E+03  0.40259527083E+03  0.00000000000E+00 0. -1.
        -24    2    1    2    0    0 -0.46473864314E+01 -0.14525590450E+02 -0.18267267718E+02  0.83687827892E+02  0.80233213128E+02 0.  0.
         23    2    1    2    0    0  0.19622206509E+02  0.37142913301E+02 -0.34260387961E+03  0.35752941410E+03  0.93194616929E+02 0.  0.
         11    1    3    3    0    0  0.12352576920E+02 -0.40391220736E+02 -0.28653345400E+02  0.51039700937E+02  0.00000000000E+00 0. -1.
        -12    1    3    3    0    0 -0.16999963352E+02  0.25865630286E+02  0.10386077681E+02  0.32648126955E+02  0.00000000000E+00 0.  1.
        -13    1    4    4    0    0  0.32740138152E+02 -0.23415859085E+02 -0.13255715701E+03  0.13853381889E+03  0.00000000000E+00 0.  1.
         13    1    4    4    0    0 -0.13117931643E+02  0.60558772386E+02 -0.21004672260E+03  0.21899559520E+03  0.00000000000E+00 0. -1.
         21    1    1    2  502  501 -0.14974820078E+02 -0.22617322851E+02  0.11704215310E+03  0.12014430545E+03  0.00000000000E+00 0.  1.
<scales pt_clust_5="13000.00000" pt_clust_6="13000.00000" pt_clust_7="13000.00000" pt_clust_8="13000.00000" pt_clust_9="27.12542"></scales>
<clustering>
<clus scale="   27.125">  1  9  2 -1</clus>
<clus scale="   80.233">  5  6 -1 -1</clus>
<clus scale="   88.352">  1  5  2 -1</clus>
<clus scale="   93.195">  7  8 -1 -1</clus>
<clus scale="  100.269">  2  5  1 -1</clus>
</clustering>
</event>
<event>
 9    1  0.2802611E-005  0.1165831E+03  0.7546771E-02  0.1251568E+00
          1   -1    0    0  502    0  0.00000000000E+00  0.00000000000E+00  0.15570832899E+03  0.15570832899E+03  0.00000000000E+00 0. -1.
         -2   -1    0    0    0  501 -0.00000000000E+00 -0.00000000000E+00 -0.21677381584E+03  0.21677381584E+03  0.00000000000E+00 0.  1.
        -24    2    1    2    0    0 -0.71910454673E+02  0.25941126807E+02 -0.19079084966E+02  0.11243439523E+03  0.80208641654E+02 0.  0.
         23    2    1    2    0    0  0.61665661663E+02 -0.45501184053E+02  0.76279838140E+02  0.13973791977E+03  0.88515879574E+02 0.  0.
         13    1    3    3    0    0 -0.25284748271E+02 -0.27706748921E+02 -0.17369121941E+02  0.41336047561E+02  0.00000000000E+00 0. -1.
        -14    1    3    3    0    0 -0.46625706401E+02  0.53647875728E+02 -0.17099630245E+01  0.71098347668E+02  0.00000000000E+00 0.  1.
        -11    1    4    4    0    0  0.34103157405E+02 -0.56586672570E+02  0.96300466384E+01  0.66766867950E+02  0.00000000000E+00 0.  1.
         11    1    4    4    0    0  0.27562504258E+02  0.11085488518E+02  0.66649791502E+02  0.72971051821E+02  0.00000000000E+00 0. -1.
         21    1    1    2  502  501  0.10244793010E+02  0.19560057246E+02 -0.11826624003E+03  0.12030982983E+03  0.00000000000E+00 0.  1.
<scales pt_clust_5="13000.00000" pt_clust_6="13000.00000" pt_clust_7="13000.00000" pt_clust_8="13000.00000" pt_clust_9="22.08057"></scales>
<clustering>
<clus scale="   22.081">  2  9  1 -1</clus>
<clus scale="   80.209">  5  6 -1 -1</clus>
<clus scale="   88.516">  7  8 -1 -1</clus>
<clus scale="  110.408">  2  5  1 -1</clus>
<clus scale="  116.583">  1  5  2 -1</clus>
</clustering>
</event>
<event>
 9    1  0.2802611E-005  0.1136706E+03  0.7546771E-02  0.1259008E+00
          1   -1    0    0  502    0  0.00000000000E+00  0.00000000000E+00  0.18892852697E+03  0.18892852697E+03  0.00000000000E+00 0. -1.
         -2   -1    0    0    0  501 -0.00000000000E+00 -0.00000000000E+00 -0.53053095591E+03  0.53053095591E+03  0.00000000000E+00 0.  1.
        -24    2    1    2    0    0 -0.21537262718E+02 -0.12432747894E+02 -0.29935474760E+03  0.31100882989E+03  0.80590324824E+02 0.  0.
         23    2    1    2    0    0 -0.74097506577E+00  0.66940826083E+02  0.16027943600E+03  0.19753672807E+03  0.94072515072E+02 0.  0.
         11    1    3    3    0    0 -0.48160242591E+02  0.10147747312E+02 -0.16412478109E+03  0.17134564339E+03  0.00000000000E+00 0. -1.
        -12    1    3    3    0    0  0.26622979872E+02 -0.22580495206E+02 -0.13522996651E+03  0.13966318650E+03  0.00000000000E+00 0.  1.
        -11    1    4    4    0    0 -0.22692744791E+02 -0.16830794143E+02  0.31120363499E+02  0.42032289039E+02  0.00000000000E+00 0.  1.
         11    1    4    4    0    0  0.21951769725E+02  0.83771620225E+02  0.12915907250E+03  0.15550443903E+03  0.00000000000E+00 0. -1.
         21    1    1    2  502  501  0.22278237784E+02 -0.54508078189E+02 -0.20252711734E+03  0.21091392492E+03  0.00000000000E+00 0.  1.
<scales pt_clust_5="13000.00000" pt_clust_6="13000.00000" pt_clust_7="13000.00000" pt_clust_8="13000.00000" pt_clust_9="58.88506"></scales>
<clustering>
<clus scale="   58.885">  2  9  1 -1</clus>
<clus scale="   80.590">  5  6 -1 -1</clus>
<clus scale="   94.073">  7  8 -1 -1</clus>
<clus scale="  102.792">  2  5  1 -1</clus>
<clus scale="  113.671">  1  5  2 -1</clus>
</clustering>
</event>
<event>
 9    1  0.2802611E-005  0.9850261E+02  0.7546771E-02  0.1290488E+00
         -2   -1    0    0    0  501 -0.00000000000E+00  0.00000000000E+00  0.53595291472E+02  0.53595291472E+02  0.00000000000E+00 0.  1.
          1   -1    0    0  502    0  0.00000000000E+00 -0.00000000000E+00 -0.38552493512E+03  0.38552493512E+03  0.00000000000E+00 0. -1.
        -24    2    1    2    0    0 -0.25329063157E+02  0.29433719070E+02 -0.40617284867E+01  0.87998692977E+02  0.78862963859E+02 0.  0.
         23    2    1    2    0    0  0.11790535223E+01 -0.14168001838E+02 -0.28301570291E+03  0.29794272174E+03  0.92031814635E+02 0.  0.
         13    1    3    3    0    0 -0.31811683433E+02 -0.17764735898E+02 -0.14520514389E+02  0.39222625900E+02  0.00000000000E+00 0. -1.
        -14    1    3    3    0    0  0.64826202752E+01  0.47198454968E+02  0.10458785903E+02  0.48776067078E+02  0.00000000000E+00 0.  1.
        -13    1    4    4    0    0 -0.39175265938E+02 -0.21942330455E+02 -0.89745163127E+02  0.10035119148E+03  0.00000000000E+00 0. -1.
         13    1    4    4    0    0  0.40354319460E+02  0.77743286175E+01 -0.19327053978E+03  0.19759153026E+03  0.00000000000E+00 0.  1.
         21    1    1    2  502  501  0.24150009635E+02 -0.15265717232E+02 -0.44852212257E+02  0.53178811874E+02  0.00000000000E+00 0.  1.
<scales pt_clust_5="13000.00000" pt_clust_6="13000.00000" pt_clust_7="13000.00000" pt_clust_8="13000.00000" pt_clust_9="28.57035"></scales>
<clustering>
<clus scale="   28.570">  2  9  1 -1</clus>
<clus scale="   78.863">  5  6 -1 -1</clus>
<clus scale="   86.327">  1  5  2 -1</clus>
<clus scale="   92.032">  7  8 -1 -1</clus>
<clus scale="   28.570">  2  5  1 -1</clus>
</clustering>
</event>
<event>
 9    1  0.2802611E-005  0.3285699E+03  0.7546771E-02  0.1119262E+00
         -2   -1    0    0    0  501 -0.00000000000E+00  0.00000000000E+00  0.19887429685E+03  0.19887429685E+03  0.00000000000E+00 0.  1.
          1   -1    0    0  502    0  0.00000000000E+00 -0.00000000000E+00 -0.13539010331E+04  0.13539010331E+04  0.00000000000E+00 0. -1.
         23    2    1    2    0    0  0.82131322778E+01  0.12102289077E+02 -0.57684290012E+02  0.11095734864E+03  0.93648998710E+02 0.  0.
        -24    2    1    2    0    0  0.30950556906E+03  0.25440915001E+02 -0.23797877617E+02  0.32161594321E+03  0.80184403164E+02 0.  0.
         13    1    4    4    0    0  0.10986479722E+03  0.27015787935E+02  0.25493053115E+02  0.11597423085E+03  0.00000000000E+00 0. -1.
        -14    1    4    4    0    0  0.19964077185E+03 -0.15748729341E+01 -0.49290930732E+02  0.20564171235E+03  0.00000000000E+00 0.  1.
        -13    1    3    3    0    0  0.21484770375E+02 -0.37617336681E+02 -0.25898055891E+02  0.50471463977E+02  0.00000000000E+00 0.  1.
         13    1    3    3    0    0 -0.13271638097E+02  0.49719625758E+02 -0.31786234121E+02  0.60485884659E+02  0.00000000000E+00 0. -1.
         21    1    1    2  502  501 -0.31771870134E+03 -0.37543204078E+02 -0.10735445686E+04  0.11202020381E+04  0.00000000000E+00 0. -1.
<scales pt_clust_5="13000.00000" pt_clust_6="13000.00000" pt_clust_7="13000.00000" pt_clust_8="13000.00000" pt_clust_9="318.63558"></scales>
<clustering>
<clus scale="   80.184">  5  6 -1 -1</clus>
<clus scale="   93.649">  7  8 -1 -1</clus>
<clus scale="   94.784">  1  7  2 -1</clus>
<clus scale="  318.636">  2  9  1 -1</clus>
<clus scale="  318.636">  2  5  1 -1</clus>
</clustering>
</event>
<event>
 9    1  0.2802611E-005  0.1059687E+03  0.7546771E-02  0.1270403E+00
          1   -1    0    0  502    0  0.00000000000E+00  0.00000000000E+00  0.17525687862E+03  0.17525687862E+03  0.00000000000E+00 0. -1.
         -2   -1    0    0    0  501 -0.00000000000E+00 -0.00000000000E+00 -0.16495407877E+03  0.16495407877E+03  0.00000000000E+00 0.  1.
        -24    2    1    2    0    0  0.16187936966E+02 -0.60049498959E+02 -0.11359684579E+03  0.15241858047E+03  0.80369077831E+02 0.  0.
         23    2    1    2    0    0  0.82127372113E+01  0.65514742413E+02  0.12136719986E+03  0.16265923011E+03  0.85839369826E+02 0.  0.
         13    1    3    3    0    0  0.23950757931E+02  0.13614594979E+02 -0.30517976984E+02  0.41113780185E+02  0.00000000000E+00 0. -1.
        -14    1    3    3    0    0 -0.77628209646E+01 -0.73664093938E+02 -0.83078868807E+02  0.11130480029E+03  0.00000000000E+00 0.  1.
        -11    1    4    4    0    0 -0.29567699307E+02  0.55881537786E+02  0.99695975496E+02  0.11805203360E+03  0.00000000000E+00 0. -1.
         11    1    4    4    0    0  0.37780436518E+02  0.96332046262E+01  0.21671224367E+02  0.44607196510E+02  0.00000000000E+00 0.  1.
         21    1    1    2  502  501 -0.24400674177E+02 -0.54652434534E+01  0.25324457785E+01  0.25133146797E+02  0.00000000000E+00 0.  1.
<scales pt_clust_5="13000.00000" pt_clust_6="13000.00000" pt_clust_7="13000.00000" pt_clust_8="13000.00000" pt_clust_9="25.00524"></scales>
<clustering>
<clus scale="   25.005">  1  9  2 -1</clus>
<clus scale="   80.369">  5  6 -1 -1</clus>
<clus scale="   85.839">  7  8 -1 -1</clus>
<clus scale="  101.588">  2  5  1 -1</clus>
<clus scale="   25.005">  1  5  2 -1</clus>
</clustering>
</event>
<event>
 9    1  0.2802611E-005  0.1506737E+03  0.7546771E-02  0.1201636E+00
         -2   -1    0    0    0  501 -0.00000000000E+00  0.00000000000E+00  0.40700878432E+03  0.40700878432E+03  0.00000000000E+00 0.  1.
          1   -1    0    0  502    0  0.00000000000E+00 -0.00000000000E+00 -0.10669979286E+03  0.10669979286E+03  0.00000000000E+00 0. -1.
        -24    2    1    2    0    0  0.82047891030E+02  0.47376752702E+02  0.22388532404E+03  0.25598443762E+03  0.80168453066E+02 0.  0.
         23    2    1    2    0    0 -0.11676710288E+03 -0.51248768843E+02 -0.17316995559E+02  0.15768550664E+03  0.91125452235E+02 0.  0.
         13    1    3    3    0    0  0.20033682987E+02  0.32999470330E+02  0.22291402969E+02  0.44578247413E+02  0.00000000000E+00 0. -1.
        -14    1    3    3    0    0  0.62014208043E+02  0.14377282373E+02  0.20159392107E+03  0.21140619021E+03  0.00000000000E+00 0.  1.
        -13    1    4    4    0    0 -0.29723515390E+02 -0.38534756021E+02  0.30626836113E+02  0.57501459799E+02  0.00000000000E+00 0. -1.
         13    1    4    4    0    0 -0.87043587494E+02 -0.12714012822E+02 -0.47943831672E+02  0.10018404684E+03  0.00000000000E+00 0.  1.
         21    1    1    2  502  501  0.34719211854E+02  0.38720161408E+01  0.93740662976E+02  0.10003863292E+03  0.00000000000E+00 0.  1.
<scales pt_clust_5="13000.00000" pt_clust_6="13000.00000" pt_clust_7="13000.00000" pt_clust_8="13000.00000" pt_clust_9="34.93446"></scales>
<clustering>
<clus scale="   34.934">  1  9  2 -1</clus>
<clus scale="   80.168">  5  6 -1 -1</clus>
<clus scale="   91.125">  7  8 -1 -1</clus>
<clus scale="  144.311">  1  5  2 -1</clus>
<clus scale="  150.674">  2  5  1 -1</clus>
</clustering>
</event>
<event>
 9    1  0.2802611E-005  0.1443953E+03  0.7546771E-02  0.1220444E+00
          1   -1    0    0  502    0  0.00000000000E+00  0.00000000000E+00  0.36006155106E+03  0.36006155106E+03  0.00000000000E+00 0. -1.
         -2   -1    0    0    0  501 -0.00000000000E+00 -0.00000000000E+00 -0.40957181711E+03  0.40957181711E+03  0.00000000000E+00 0.  1.
         23    2    1    2    0    0  0.77040484461E+02  0.95201961012E+02 -0.15802124328E+03  0.22069512454E+03  0.93471787419E+02 0.  0.
        -24    2    1    2    0    0 -0.73530500593E+02  0.16881091912E+02  0.30419147462E+03  0.32340379437E+03  0.79786309605E+02 0.  0.
         13    1    4    4    0    0 -0.46428337361E+02  0.40373844100E+02  0.11100772237E+03  0.12691868350E+03  0.00000000000E+00 0. -1.
        -14    1    4    4    0    0 -0.27102163232E+02 -0.23492752189E+02  0.19318375226E+03  0.19648511087E+03  0.00000000000E+00 0.  1.
        -13    1    3    3    0    0 -0.16252504535E+02  0.32731916665E+02 -0.16639646801E+02  0.40154702313E+02  0.00000000000E+00 0. -1.
         13    1    3    3    0    0  0.93292988996E+02  0.62470044347E+02 -0.14138159647E+03  0.18054042223E+03  0.00000000000E+00 0.  1.
         21    1    1    2  502  501 -0.35099838679E+01 -0.11208305292E+03 -0.19568049739E+03  0.22553444925E+03  0.00000000000E+00 0.  1.
<scales pt_clust_5="13000.00000" pt_clust_6="13000.00000" pt_clust_7="13000.00000" pt_clust_8="13000.00000" pt_clust_9="110.05925"></scales>
<clustering>
<clus scale="   79.786">  5  6 -1 -1</clus>
<clus scale="   93.472">  7  8 -1 -1</clus>
<clus scale="  109.807">  1  5  2 -1</clus>
<clus scale="  110.059">  2  9  1 -1</clus>
<clus scale="  109.807">  1  5  2 -1</clus>
</clustering>
</event>
<event>
 9    1  0.2802611E-005  0.1145039E+03  0.7546771E-02  0.1255713E+00
         -2   -1    0    0    0  501 -0.00000000000E+00  0.00000000000E+00  0.29106568591E+02  0.29106568591E+02  0.00000000000E+00 0.  1.
          1   -1    0    0  502    0  0.00000000000E+00 -0.00000000000E+00 -0.56516878744E+03  0.56516878744E+03  0.00000000000E+00 0. -1.
        -24    2    1    2    0    0  0.64992809358E+02  0.85679243418E+01 -0.15901365476E+03  0.18929469646E+03  0.79054823451E+02 0.  0.
         23    2    1    2    0    0 -0.77374467728E+02  0.15366192955E+02 -0.33127206405E+03  0.35186159152E+03  0.88557727083E+02 0.  0.
         13    1    3    3    0    0  0.74038332886E+02  0.27012656719E+02 -0.14287395392E+03  0.16316962054E+03  0.00000000000E+00 0. -1.
        -14    1    3    3    0    0 -0.90455235277E+01 -0.18444732377E+02 -0.16139700844E+02  0.26125075918E+02  0.00000000000E+00 0.  1.
        -11    1    4    4    0    0  0.25431431857E+01  0.29384172950E+02 -0.41289789392E+02  0.50741934386E+02  0.00000000000E+00 0.  1.
         11    1    4    4    0    0 -0.79917610914E+02 -0.14017979996E+02 -0.28998227466E+03  0.30111965714E+03  0.00000000000E+00 0. -1.
         21    1    1    2  502  501  0.12381658370E+02 -0.23934117297E+02 -0.45776500030E+02  0.53119068043E+02  0.00000000000E+00 0. -1.
<scales pt_clust_5="13000.00000" pt_clust_6="13000.00000" pt_clust_7="13000.00000" pt_clust_8="13000.00000" pt_clust_9="26.94712"></scales>
<clustering>
<clus scale="   26.947">  1  9  2 -1</clus>
<clus scale="   79.055">  5  6 -1 -1</clus>
<clus scale="   88.558">  7  8 -1 -1</clus>
<clus scale="  107.323">  1  5  2 -1</clus>
<clus scale="  114.504">  2  5  1 -1</clus>
</clustering>
</event>
<event>
 9    1  0.2802611E-005  0.1126436E+03  0.7546771E-02  0.1259428E+00
          1   -1    0    0  502    0  0.00000000000E+00  0.00000000000E+00  0.31557440047E+02  0.31557440047E+02  0.00000000000E+00 0. -1.
         -2   -1    0    0    0  501 -0.00000000000E+00 -0.00000000000E+00 -0.47945508518E+03  0.47945508518E+03  0.00000000000E+00 0.  1.
        -24    2    1    2    0    0 -0.96868506513E+01 -0.71777920006E+02 -0.24239816793E+03  0.26549308602E+03  0.80522059284E+02 0.  0.
         23    2    1    2    0    0  0.25887833631E+02  0.59020183431E+02 -0.15290726210E+03  0.18902897292E+03  0.90541481201E+02 0.  0.
         11    1    3    3    0    0 -0.29280163176E+02 -0.52529244740E+02 -0.22518832204E+03  0.23308030782E+03  0.00000000000E+00 0. -1.
        -12    1    3    3    0    0  0.19593312525E+02 -0.19248675266E+02 -0.17209845892E+02  0.32412778202E+02  0.00000000000E+00 0.  1.
        -11    1    4    4    0    0  0.58421625088E+02  0.40917318942E+02 -0.80093114547E+02  0.10724840449E+03  0.00000000000E+00 0.  1.
         11    1    4    4    0    0 -0.32533791458E+02  0.18102864489E+02 -0.72814147550E+02  0.81780568430E+02  0.00000000000E+00 0. -1.
         21    1    1    2  502  501 -0.16200982980E+02  0.12757736575E+02 -0.52592215099E+02  0.56490466284E+02  0.00000000000E+00 0. -1.
<scales pt_clust_5="13000.00000" pt_clust_6="13000.00000" pt_clust_7="13000.00000" pt_clust_8="13000.00000" pt_clust_9="20.62115"></scales>
<clustering>
<clus scale="   20.621">  2  9  1 -1</clus>
<clus scale="   80.522">  5  6 -1 -1</clus>
<clus scale="   90.541">  7  8 -1 -1</clus>
<clus scale="  104.760">  2  5  1 -1</clus>
<clus scale="  112.644">  1  5  2 -1</clus>
</clustering>
</event>
<event>
 9    1  0.2802611E-005  0.1143225E+03  0.7546771E-02  0.1256711E+00
         -2   -1    0    0    0  501 -0.00000000000E+00  0.00000000000E+00  0.50266101597E+02  0.50266101597E+02  0.00000000000E+00 0.  1.
          1   -1    0    0  502    0  0.00000000000E+00 -0.00000000000E+00 -0.33933059726E+03  0.33933059726E+03  0.00000000000E+00 0. -1.
        -24    2    1    2    0    0 -0.17710132966E+02  0.54389794706E+02 -0.91352914083E+02  0.13472384159E+03  0.80828584075E+02 0.  0.
         23    2    1    2    0    0  0.11068858124E+02 -0.76170533284E+02 -0.19877304121E+03  0.23207737962E+03  0.91786265092E+02 0.  0.
         11    1    3    3    0    0 -0.40342615729E+02  0.78557270126E+01 -0.64351302535E+02  0.76356592569E+02  0.00000000000E+00 0. -1.
        -12    1    3    3    0    0  0.22632482763E+02  0.46534067694E+02 -0.27001611548E+02  0.58367249022E+02  0.00000000000E+00 0.  1.
        -11    1    4    4    0    0  0.44020609270E+02 -0.27768405551E+02 -0.13890211000E+03  0.14833305279E+03  0.00000000000E+00 0.  1.
         11    1    4    4    0    0 -0.32951751146E+02 -0.48402127733E+02 -0.59870931208E+02  0.83744326831E+02  0.00000000000E+00 0. -1.
         21    1    1    2  502  501  0.66412748419E+01  0.21780738578E+02  0.10614596289E+01  0.22795477645E+02  0.00000000000E+00 0.  1.
<scales pt_clust_5="13000.00000" pt_clust_6="13000.00000" pt_clust_7="13000.00000" pt_clust_8="13000.00000" pt_clust_9="22.77075"></scales>
<clustering>
<clus scale="   22.771">  1  9  2 -1</clus>
<clus scale="   80.829">  5  6 -1 -1</clus>
<clus scale="   91.786">  7  8 -1 -1</clus>
<clus scale="  105.727">  1  5  2 -1</clus>
<clus scale="  114.323">  2  5  1 -1</clus>
</clustering>
</event>
<event>
 9    1  0.2802611E-005  0.1851334E+03  0.7546771E-02  0.1163985E+00
          1   -1    0    0  502    0  0.00000000000E+00  0.00000000000E+00  0.28850579434E+03  0.28850579434E+03  0.00000000000E+00 0. -1.
         -2   -1    0    0    0  501 -0.00000000000E+00 -0.00000000000E+00 -0.28804952302E+03  0.28804952302E+03  0.00000000000E+00 0.  1.
         23    2    1    2    0    0  0.14787607433E+03 -0.11328254702E+02 -0.19878376311E+03  0.26402840409E+03  0.90555789330E+02 0.  0.
        -24    2    1    2    0    0 -0.16341725140E+03 -0.26680412185E+01  0.21812731634E+03  0.28434617690E+03  0.80999417832E+02 0.  0.
         11    1    4    4    0    0 -0.17258040476E+03 -0.51281162344E+01  0.20305506307E+03  0.26653639962E+03  0.00000000000E+00 0. -1.
        -12    1    4    4    0    0  0.91631533571E+01  0.24600750159E+01  0.15072253266E+02  0.17809777288E+02  0.00000000000E+00 0.  1.
        -13    1    3    3    0    0  0.53435860639E+02  0.32263636126E+02 -0.11344946021E+03  0.12948788916E+03  0.00000000000E+00 0.  1.
         13    1    3    3    0    0  0.94440213686E+02 -0.43591890827E+02 -0.85334302900E+02  0.13454051493E+03  0.00000000000E+00 0. -1.
         21    1    1    2  502  501  0.15541177073E+02  0.13996295920E+02 -0.18887281902E+02  0.28180736363E+02  0.00000000000E+00 0. -1.
<scales pt_clust_5="13000.00000" pt_clust_6="13000.00000" pt_clust_7="13000.00000" pt_clust_8="13000.00000" pt_clust_9="20.91470"></scales>
<clustering>
<clus scale="   20.915">  2  9  1 -1</clus>
<clus scale="   80.999">  5  6 -1 -1</clus>
<clus scale="   90.556">  7  8 -1 -1</clus>
<clus scale="  180.651">  1  5  2 -1</clus>
<clus scale="  180.651">  1  5  2 -1</clus>
</clustering>
</event>
<event>
 9    1  0.2802611E-005  0.1123490E+03  0.7546771E-02  0.1259677E+00
         -2   -1    0    0    0  501 -0.00000000000E+00  0.00000000000E+00  0.15272654878E+03  0.15272654878E+03  0.00000000000E+00 0.  1.
          1   -1    0    0  502    0  0.00000000000E+00 -0.00000000000E+00 -0.15146991754E+03  0.15146991754E+03  0.00000000000E+00 0. -1.
         23    2    1    2    0    0  0.67990432173E+02  0.67312124563E+02  0.67170042876E+02  0.13589986339E+03  0.69306112500E+02 0.  0.
        -24    2    1    2    0    0 -0.62241934436E+02 -0.41550385723E+02 -0.82533097268E+02  0.13710483534E+03  0.79909516167E+02 0.  0.
         11    1    4    4    0    0 -0.45201840853E+02 -0.31417969549E+02 -0.97701782981E+02  0.11214247021E+03  0.00000000000E+00 0. -1.
        -12    1    4    4    0    0 -0.17040093582E+02 -0.10132416174E+02  0.15168685713E+02  0.24962365134E+02  0.00000000000E+00 0.  1.
        -11    1    3    3    0    0  0.91995179205E+01  0.45990095513E+02  0.40988210126E+01  0.47079935736E+02  0.00000000000E+00 0. -1.
         11    1    3    3    0    0  0.58790914253E+02  0.21322029050E+02  0.63071221864E+02  0.88819927656E+02  0.00000000000E+00 0.  1.
         21    1    1    2  502  501 -0.57484977374E+01 -0.25761738840E+02  0.16619685633E+02  0.31191767581E+02  0.00000000000E+00 0.  1.
<scales pt_clust_5="13000.00000" pt_clust_6="13000.00000" pt_clust_7="13000.00000" pt_clust_8="13000.00000" pt_clust_9="26.39531"></scales>
<clustering>
<clus scale="   26.395">  1  9  2 -1</clus>
<clus scale="   69.306">  7  8 -1 -1</clus>
<clus scale="   79.910">  5  6 -1 -1</clus>
<clus scale="  105.072">  1  7  2 -1</clus>
<clus scale="  112.349">  2  5  1 -1</clus>
</clustering>
</event>
<event>
 9    1  0.2802611E-005  0.1355991E+03  0.7546771E-02  0.1222190E+00
         -2   -1    0    0    0  501 -0.00000000000E+00  0.00000000000E+00  0.45572496277E+03  0.45572496277E+03  0.00000000000E+00 0.  1.
          1   -1    0    0  502    0  0.00000000000E+00 -0.00000000000E+00 -0.10486925394E+03  0.10486925394E+03  0.00000000000E+00 0. -1.
        -24    2    1    2    0    0 -0.13397010830E+02  0.10212386607E+03  0.32717885994E+03  0.35223477432E+03  0.80090985311E+02 0.  0.
         23    2    1    2    0    0  0.50448703337E+02 -0.86565268547E+02 -0.31968363074E+02  0.13972062327E+03  0.91985101747E+02 0.  0.
         13    1    3    3    0    0 -0.41351010298E+02  0.83525475380E+02  0.19920404235E+03  0.21992876478E+03  0.00000000000E+00 0. -1.
        -14    1    3    3    0    0  0.27953999468E+02  0.18598390689E+02  0.12797481758E+03  0.13230600953E+03  0.00000000000E+00 0.  1.
        -13    1    4    4    0    0 -0.24854874581E+02 -0.18065977436E+02 -0.21252148482E+02  0.37360382041E+02  0.00000000000E+00 0.  1.
         13    1    4    4    0    0  0.75303577918E+02 -0.68499291111E+02 -0.10716214592E+02  0.10236024123E+03  0.00000000000E+00 0. -1.
         21    1    1    2  502  501 -0.37051692507E+02 -0.15558597523E+02  0.55645211966E+02  0.68638819113E+02  0.00000000000E+00 0.  1.
<scales pt_clust_5="13000.00000" pt_clust_6="13000.00000" pt_clust_7="13000.00000" pt_clust_8="13000.00000" pt_clust_9="40.18579"></scales>
<clustering>
<clus scale="   40.186">  1  9  2 -1</clus>
<clus scale="   80.091">  5  6 -1 -1</clus>
<clus scale="   91.985">  7  8 -1 -1</clus>
<clus scale="  127.830">  1  5  2 -1</clus>
<clus scale="  135.599">  2  5  1 -1</clus>
</clustering>
</event>
<event>
 9    1  0.2802611E-005  0.3604965E+03  0.7546771E-02  0.1058639E+00
         -2   -1    0    0    0  501 -0.00000000000E+00  0.00000000000E+00  0.10961183240E+03  0.10961183240E+03  0.00000000000E+00 0.  1.
          1   -1    0    0  502    0  0.00000000000E+00 -0.00000000000E+00 -0.22361908676E+04  0.22361908676E+04  0.00000000000E+00 0. -1.
         23    2    1    2    0    0  0.33172988023E+03  0.99036118380E+02 -0.87630583649E+03  0.94654620267E+03  0.90470594830E+02 0.  0.
        -24    2    1    2    0    0 -0.36001261725E+03  0.22592972245E+02 -0.12143721347E+04  0.12693240715E+04  0.79777126514E+02 0.  0.
         13    1    4    4    0    0 -0.14434054995E+03  0.23224680952E+02 -0.62085511256E+03  0.63783591225E+03  0.00000000000E+00 0. -1.
        -14    1    4    4    0    0 -0.21567206731E+03 -0.63170870715E+00 -0.59351702216E+03  0.63148815925E+03  0.00000000000E+00 0.  1.
        -13    1    3    3    0    0  0.18770998046E+03  0.90054060690E+02 -0.59529988603E+03  0.63065578957E+03  0.00000000000E+00 0. -1.
         13    1    3    3    0    0  0.14401989977E+03  0.89820576898E+01 -0.28100595046E+03  0.31589041309E+03  0.00000000000E+00 0.  1.
         21    1    1    2  502  501  0.28282737021E+02 -0.12162909062E+03 -0.35901064030E+02  0.12993242589E+03  0.00000000000E+00 0. -1.
<scales pt_clust_5="13000.00000" pt_clust_6="13000.00000" pt_clust_7="13000.00000" pt_clust_8="13000.00000" pt_clust_9="124.87413"></scales>
<clustering>
<clus scale="   79.777">  5  6 -1 -1</clus>
<clus scale="   90.471">  7  8 -1 -1</clus>
<clus scale="  124.874">  1  9  2 -1</clus>
<clus scale="  357.963">  2  5  1 -1</clus>
<clus scale="  357.963">  2  5  1 -1</clus>
</clustering>
</event>
<event>
 9    1  0.2802611E-005  0.1112621E+03  0.7546771E-02  0.1263088E+00
          1   -1    0    0  502    0  0.00000000000E+00  0.00000000000E+00  0.32850525187E+03  0.32850525187E+03  0.00000000000E+00 0. -1.
         -2   -1    0    0    0  501 -0.00000000000E+00 -0.00000000000E+00 -0.37037950256E+03  0.37037950256E+03  0.00000000000E+00 0.  1.
         23    2    1    2    0    0  0.32347532425E+02 -0.96104517414E+01 -0.71729948480E+02  0.12107820539E+03  0.91520613392E+02 0.  0.
        -24    2    1    2    0    0 -0.47069795767E+02 -0.48609345831E+02  0.29143104485E+03  0.30942631121E+03  0.78956658948E+02 0.  0.
         13    1    4    4    0    0 -0.63893646275E+02 -0.51823753924E+02  0.19754980106E+03  0.21399538173E+03  0.00000000000E+00 0. -1.
        -14    1    4    4    0    0  0.16823850508E+02  0.32144080922E+01  0.93881243788E+02  0.95430929475E+02  0.00000000000E+00 0.  1.
        -11    1    3    3    0    0  0.37257655319E+02 -0.35406060643E+02 -0.78620588326E+02  0.93930394010E+02  0.00000000000E+00 0.  1.
         11    1    3    3    0    0 -0.49101228945E+01  0.25795608901E+02  0.68906398460E+01  0.27147811383E+02  0.00000000000E+00 0. -1.
         21    1    1    2  502  501  0.14722263342E+02  0.58219797573E+02 -0.26157534705E+03  0.26838023782E+03  0.00000000000E+00 0.  1.
<scales pt_clust_5="13000.00000" pt_clust_6="13000.00000" pt_clust_7="13000.00000" pt_clust_8="13000.00000" pt_clust_9="60.05239"></scales>
<clustering>
<clus scale="   60.052">  2  9  1 -1</clus>
<clus scale="   78.957">  5  6 -1 -1</clus>
<clus scale="   91.521">  7  8 -1 -1</clus>
<clus scale="  101.180">  1  5  2 -1</clus>
<clus scale="  101.180">  1  5  2 -1</clus>
</clustering>
</event>
<event>
 9    1  0.2802611E-005  0.1479247E+03  0.7546771E-02  0.1206492E+00
         -2   -1    0    0    0  501 -0.00000000000E+00  0.00000000000E+00  0.10127589116E+03  0.10127589116E+03  0.00000000000E+00 0.  1.
          1   -1    0    0  502    0  0.00000000000E+00 -0.00000000000E+00 -0.69030744856E+03  0.69030744856E+03  0.00000000000E+00 0. -1.
        -24    2    1    2    0    0  0.10948459791E+03  0.57806884005E+02 -0.11823684099E+02  0.14810265490E+03  0.80411963432E+02 0.  0.
         23    2    1    2    0    0 -0.89949712423E+02 -0.63010156328E+02 -0.59724404801E+03  0.61501783023E+03  0.97392238161E+02 0.  0.
         13    1    3    3    0    0  0.14005159828E+02  0.49665765390E+02 -0.45417808510E+00  0.51604641567E+02  0.00000000000E+00 0. -1.
        -14    1    3    3    0    0  0.95479438086E+02  0.81411186150E+01 -0.11369506014E+02  0.96498013329E+02  0.00000000000E+00 0.  1.
        -11    1    4    4    0    0 -0.39832552648E+02  0.11608806451E+02 -0.81009950580E+02  0.91016529985E+02  0.00000000000E+00 0.  1.
         11    1    4    4    0    0 -0.50117159775E+02 -0.74618962779E+02 -0.51623409743E+03  0.52400130025E+03  0.00000000000E+00 0. -1.
         21    1    1    2  502  501 -0.19534885491E+02  0.52032723231E+01  0.20036174709E+02  0.28462854583E+02  0.00000000000E+00 0. -1.
<scales pt_clust_5="13000.00000" pt_clust_6="13000.00000" pt_clust_7="13000.00000" pt_clust_8="13000.00000" pt_clust_9="20.21598"></scales>
<clustering>
<clus scale="   20.216">  1  9  2 -1</clus>
<clus scale="   80.412">  5  6 -1 -1</clus>
<clus scale="   97.392">  7  8 -1 -1</clus>
<clus scale="  137.341">  1  5  2 -1</clus>
<clus scale="  147.925">  2  5  1 -1</clus>
</clustering>
</event>
<event>
 9    1  0.2802611E-005  0.9938923E+02  0.7546771E-02  0.1286930E+00
         -2   -1    0    0    0  501 -0.00000000000E+00  0.00000000000E+00  0.16903214966E+03  0.16903214966E+03  0.00000000000E+00 0.  1.
          1   -1    0    0  502    0  0.00000000000E+00 -0.00000000000E+00 -0.18819046971E+03  0.18819046971E+03  0.00000000000E+00 0. -1.
        -24    2    1    2    0    0  0.28150016144E+02  0.33778671738E+02  0.10848374612E+03  0.14161649744E+03  0.79706255106E+02 0.  0.
         23    2    1    2    0    0 -0.40276439177E+02 -0.11735523369E+02 -0.15125485392E+03  0.18110229212E+03  0.90333245893E+02 0.  0.
         13    1    3    3    0    0  0.27591484237E+02  0.57351787314E+02  0.58921440806E+02  0.86730926993E+02  0.00000000000E+00 0. -1.
        -14    1    3    3    0    0  0.55853190758E+00 -0.23573115575E+02  0.49562305311E+02  0.54885570449E+02  0.00000000000E+00 0.  1.
        -13    1    4    4    0    0 -0.32941653651E+01 -0.20668551586E+02  0.39529498112E+01  0.21299445118E+02  0.00000000000E+00 0.  1.
         13    1    4    4    0    0 -0.36982273812E+02  0.89330282169E+01 -0.15520780373E+03  0.15980284700E+03  0.00000000000E+00 0. -1.
         21    1    1    2  502  501  0.12126423033E+02 -0.22043148369E+02  0.23612787758E+02  0.34503829807E+02  0.00000000000E+00 0. -1.
<scales pt_clust_5="13000.00000" pt_clust_6="13000.00000" pt_clust_7="13000.00000" pt_clust_8="13000.00000" pt_clust_9="25.15851"></scales>
<clustering>
<clus scale="   25.159">  1  9  2 -1</clus>
<clus scale="   79.706">  5  6 -1 -1</clus>
<clus scale="   89.840">  1  5  2 -1</clus>
<clus scale="   90.333">  7  8 -1 -1</clus>
<clus scale="   99.389">  2  5  1 -1</clus>
</clustering>
</event>
<event>
 9    1  0.2802611E-005  0.1355113E+03  0.7546771E-02  0.1222490E+00
         -2   -1    0    0    0  501 -0.00000000000E+00  0.00000000000E+00  0.65424210795E+02  0.65424210795E+02  0.00000000000E+00 0.  1.
          1   -1    0    0  502    0  0.00000000000E+00 -0.00000000000E+00 -0.48074251963E+03  0.48074251963E+03  0.00000000000E+00 0. -1.
        -24    2    1    2    0    0 -0.43257352635E+02 -0.60652377101E+02 -0.34267337557E+02  0.11418793415E+03  0.79465240691E+02 0.  0.
         23    2    1    2    0    0  0.82311860636E+02  0.70700530845E+02 -0.35864182531E+03  0.38584432096E+03  0.92076455707E+02 0.  0.
         11    1    3    3    0    0 -0.18029107341E+02 -0.26695539180E+02 -0.57512249979E+02  0.65919340267E+02  0.00000000000E+00 0. -1.
        -12    1    3    3    0    0 -0.25228245294E+02 -0.33956837921E+02  0.23244912423E+02  0.48268593886E+02  0.00000000000E+00 0.  1.
        -11    1    4    4    0    0 -0.12543229236E+02  0.32777807363E+02 -0.52860253376E+02  0.63450166605E+02  0.00000000000E+00 0.  1.
         11    1    4    4    0    0  0.94855089872E+02  0.37922723482E+02 -0.30578157193E+03  0.32239415436E+03  0.00000000000E+00 0. -1.
         21    1    1    2  502  501 -0.39054508000E+02 -0.10048153744E+02 -0.22409145969E+02  0.46134475307E+02  0.00000000000E+00 0.  1.
<scales pt_clust_5="13000.00000" pt_clust_6="13000.00000" pt_clust_7="13000.00000" pt_clust_8="13000.00000" pt_clust_9="40.32642"></scales>
<clustering>
<clus scale="   40.326">  1  9  2 -1</clus>
<clus scale="   79.465">  5  6 -1 -1</clus>
<clus scale="   92.076">  7  8 -1 -1</clus>
<clus scale="  127.279">  1  5  2 -1</clus>
<clus scale="  135.511">  2  5  1 -1</clus>
</clustering>
</event>
<event>
 9    1  0.2802611E-005  0.1352368E+03  0.7546771E-02  0.1222741E+00
         -2   -1    0    0    0  501 -0.00000000000E+00  0.00000000000E+00  0.26085542264E+03  0.26085542264E+03  0.00000000000E+00 0.  1.
          1   -1    0    0  502    0  0.00000000000E+00 -0.00000000000E+00 -0.28842255068E+03  0.28842255068E+03  0.00000000000E+00 0. -1.
        -24    2    1    2    0    0 -0.12525933214E+03 -0.74973166309E+01 -0.58288712255E+02  0.15868879017E+03  0.77707452044E+02 0.  0.
         23    2    1    2    0    0  0.84234285654E+02 -0.41774041671E+02 -0.15013785022E+03  0.19870156966E+03  0.90002523742E+02 0.  0.
         13    1    3    3    0    0 -0.97059016256E+02  0.29109886639E+02 -0.42047958565E+02  0.10970810798E+03  0.00000000000E+00 0. -1.
        -14    1    3    3    0    0 -0.28200315889E+02 -0.36607203270E+02 -0.16240753691E+02  0.48980682191E+02  0.00000000000E+00 0.  1.
        -11    1    4    4    0    0  0.35238277736E+02 -0.19556301132E+02 -0.13771088778E+03  0.14348684172E+03  0.00000000000E+00 0. -1.
         11    1    4    4    0    0  0.48996007918E+02 -0.22217740539E+02 -0.12426962437E+02  0.55214727945E+02  0.00000000000E+00 0.  1.
         21    1    1    2  502  501  0.41025046490E+02  0.49271358302E+02  0.18085943443E+03  0.19188761349E+03  0.00000000000E+00 0.  1.
<scales pt_clust_5="13000.00000" pt_clust_6="13000.00000" pt_clust_7="13000.00000" pt_clust_8="13000.00000" pt_clust_9="64.11491"></scales>
<clustering>
<clus scale="   64.115">  1  9  2 -1</clus>
<clus scale="   77.707">  5  6 -1 -1</clus>
<clus scale="   90.003">  7  8 -1 -1</clus>
<clus scale="  127.385">  1  5  2 -1</clus>
<clus scale="  135.237">  2  5  1 -1</clus>
</clustering>
</event>
<event>
 9    1  0.2802611E-005  0.9922453E+02  0.7546771E-02  0.1285759E+00
          1   -1    0    0  502    0  0.00000000000E+00  0.00000000000E+00  0.78023131829E+02  0.78023131829E+02  0.00000000000E+00 0. -1.
         -2   -1    0    0    0  501 -0.00000000000E+00 -0.00000000000E+00 -0.16023714373E+03  0.16023714373E+03  0.00000000000E+00 0.  1.
         23    2    1    2    0    0 -0.42641246420E+01 -0.16915203420E+02 -0.61848171889E+02  0.11215886938E+03  0.91924473063E+02 0.  0.
        -24    2    1    2    0    0  0.95279389556E+01 -0.45117710247E+01 -0.56777482625E+01  0.99595500910E+02  0.98873096835E+02 0.  0.
         13    1    4    4    0    0  0.20750507894E+02 -0.87529119951E+01  0.43495349048E+02  0.48980020774E+02  0.00000000000E+00 0. -1.
        -14    1    4    4    0    0 -0.11222568938E+02  0.42411409705E+01 -0.49173097310E+02  0.50615480136E+02  0.00000000000E+00 0.  1.
        -11    1    3    3    0    0  0.42016581541E+02 -0.17833466313E+02 -0.20290575735E+02  0.49951307378E+02  0.00000000000E+00 0.  1.
         11    1    3    3    0    0 -0.46280706183E+02  0.91826289218E+00 -0.41557596155E+02  0.62207561998E+02  0.00000000000E+00 0. -1.
         21    1    1    2  502  501 -0.52638143136E+01  0.21426974445E+02 -0.14688091744E+02  0.26505905268E+02  0.00000000000E+00 0.  1.
<scales pt_clust_5="13000.00000" pt_clust_6="13000.00000" pt_clust_7="13000.00000" pt_clust_8="13000.00000" pt_clust_9="22.06407"></scales>
<clustering>
<clus scale="   22.064">  2  9  1 -1</clus>
<clus scale="   91.924">  7  8 -1 -1</clus>
<clus scale="   92.302">  2  7  1 -1</clus>
<clus scale="   98.873">  5  6 -1 -1</clus>
<clus scale="   99.225">  1  5  2 -1</clus>
</clustering>
</event>
<event>
 9    1  0.2802611E-005  0.1199875E+03  0.7546771E-02  0.1248217E+00
         -2   -1    0    0    0  501 -0.00000000000E+00  0.00000000000E+00  0.10981598269E+03  0.10981598269E+03  0.00000000000E+00 0.  1.
          1   -1    0    0  502    0  0.00000000000E+00 -0.00000000000E+00 -0.55365764723E+03  0.55365764723E+03  0.00000000000E+00 0. -1.
         23    2    1    2    0    0  0.28178297705E+02  0.67762463205E+02  0.63313697866E+02  0.13596261279E+03  0.95349042245E+02 0.  0.
        -24    2    1    2    0    0  0.34505734031E+01 -0.72469831469E+02 -0.44069267935E+03  0.45375579330E+03  0.80128018742E+02 0.  0.
         11    1    4    4    0    0 -0.37399363315E+02 -0.45996533654E+02 -0.25315349860E+03  0.26000209102E+03  0.00000000000E+00 0. -1.
        -12    1    4    4    0    0  0.40849936718E+02 -0.26473297815E+02 -0.18753918076E+03  0.19375370228E+03  0.00000000000E+00 0.  1.
        -11    1    3    3    0    0  0.36609558682E+02  0.21092581082E+02  0.75924768320E+02  0.86889166229E+02  0.00000000000E+00 0.  1.
         11    1    3    3    0    0 -0.84312609768E+01  0.46669882123E+02 -0.12611070454E+02  0.49073446557E+02  0.00000000000E+00 0. -1.
         21    1    1    2  502  501 -0.31628871109E+02  0.47073682639E+01 -0.66462683059E+02  0.73755223835E+02  0.00000000000E+00 0.  1.
<scales pt_clust_5="13000.00000" pt_clust_6="13000.00000" pt_clust_7="13000.00000" pt_clust_8="13000.00000" pt_clust_9="31.97725"></scales>
<clustering>
<clus scale="   31.977">  2  9  1 -1</clus>
<clus scale="   80.128">  5  6 -1 -1</clus>
<clus scale="   95.349">  7  8 -1 -1</clus>
<clus scale="  108.287">  2  5  1 -1</clus>
<clus scale="   31.977">  2  5  1 -1</clus>
</clustering>
</event>
<event>
 9    1  0.2802611E-005  0.8642640E+02  0.7546771E-02  0.1314169E+00
          1   -1    0    0  502    0  0.00000000000E+00  0.00000000000E+00  0.17978425307E+03  0.17978425307E+03  0.00000000000E+00 0. -1.
         -2   -1    0    0    0  501 -0.00000000000E+00 -0.00000000000E+00 -0.20170613411E+03  0.20170613411E+03  0.00000000000E+00 0.  1.
        -24    2    1    2    0    0  0.20923279144E+02  0.18964896858E+02 -0.13575001537E+03  0.16035645257E+03  0.80552307743E+02 0.  0.
         23    2    1    2    0    0  0.97454469736E+01 -0.85828377687E+02  0.78005282970E+02  0.13931356728E+03  0.76563448884E+02 0.  0.
         11    1    3    3    0    0 -0.21746133395E+02  0.11945531379E+00 -0.97899618508E+02  0.10028581102E+03  0.00000000000E+00 0. -1.
        -12    1    3    3    0    0  0.42669412538E+02  0.18845441544E+02 -0.37850396866E+02  0.60070641550E+02  0.00000000000E+00 0.  1.
        -13    1    4    4    0    0  0.35666918032E+02 -0.61549930764E+02  0.75462639424E+02  0.10370695718E+03  0.00000000000E+00 0. -1.
         13    1    4    4    0    0 -0.25921471058E+02 -0.24278446923E+02  0.25426435458E+01  0.35606610103E+02  0.00000000000E+00 0.  1.
         21    1    1    2  502  501 -0.30668726117E+02  0.66863480829E+02  0.35822851359E+02  0.81820367328E+02  0.00000000000E+00 0. -1.
<scales pt_clust_5="13000.00000" pt_clust_6="13000.00000" pt_clust_7="13000.00000" pt_clust_8="13000.00000" pt_clust_9="73.56151"></scales>
<clustering>
<clus scale="   73.562">  1  9  2 -1</clus>
<clus scale="   76.563">  7  8 -1 -1</clus>
<clus scale="   80.552">  5  6 -1 -1</clus>
<clus scale="   82.721">  1  7  2 -1</clus>
<clus scale="   73.562">  1  5  2 -1</clus>
</clustering>
</event>
<event>
 9    1  0.2802611E-005  0.1519714E+03  0.7546771E-02  0.1199942E+00
          1   -1    0    0  502    0  0.00000000000E+00  0.00000000000E+00  0.77399255659E+03  0.77399255659E+03  0.00000000000E+00 0. -1.
         -2   -1    0    0    0  501 -0.00000000000E+00 -0.00000000000E+00 -0.44522724842E+02  0.44522724842E+02  0.00000000000E+00 0.  1.
        -24    2    1    2    0    0 -0.82479586902E+02 -0.58504365616E+02  0.16132340047E+03  0.20724542151E+03  0.81852196960E+02 0.  0.
         23    2    1    2    0    0  0.11228003737E+03  0.66636324545E+02  0.55523889453E+03  0.57779150709E+03  0.92225750867E+02 0.  0.
         11    1    3    3    0    0 -0.76835858693E+02 -0.63065804346E+02  0.16938530325E+03  0.19639864006E+03  0.00000000000E+00 0. -1.
        -12    1    3    3    0    0 -0.56437282090E+01  0.45614387296E+01 -0.80619027846E+01  0.10846781453E+02  0.00000000000E+00 0.  1.
        -11    1    4    4    0    0  0.13547434328E+02  0.32342271131E+02  0.45481315605E+02  0.57429135009E+02  0.00000000000E+00 0.  1.
         11    1    4    4    0    0  0.98732603037E+02  0.34294053414E+02  0.50975757892E+03  0.52036237208E+03  0.00000000000E+00 0. -1.
         21    1    1    2  502  501 -0.29800450464E+02 -0.81319589293E+01  0.12907536759E+02  0.33478352843E+02  0.00000000000E+00 0.  1.
<scales pt_clust_5="13000.00000" pt_clust_6="13000.00000" pt_clust_7="13000.00000" pt_clust_8="13000.00000" pt_clust_9="30.89006"></scales>
<clustering>
<clus scale="   30.890">  2  9  1 -1</clus>
<clus scale="   81.852">  5  6 -1 -1</clus>
<clus scale="   92.226">  7  8 -1 -1</clus>
<clus scale="  145.909">  2  5  1 -1</clus>
<clus scale="  151.971">  1  5  2 -1</clus>
</clustering>
</event>
<event>
 9    1  0.2802611E-005  0.1383874E+03  0.7546771E-02  0.1217722E+00
         -2   -1    0    0    0  501 -0.00000000000E+00  0.00000000000E+00  0.10702643319E+03  0.10702643319E+03  0.00000000000E+00 0.  1.
          1   -1    0    0  502    0  0.00000000000E+00 -0.00000000000E+00 -0.29075469197E+03  0.29075469197E+03  0.00000000000E+00 0. -1.
        -24    2    1    2    0    0 -0.28487180355E+02  0.84583495234E+02  0.10456098940E+02  0.12026528559E+03  0.79928229065E+02 0.  0.
         23    2    1    2    0    0  0.31205769401E+02 -0.10605727019E+03 -0.20777130478E+03  0.25195964919E+03  0.89960019606E+02 0.  0.
         13    1    3    3    0    0  0.12695991857E+02  0.66073200890E+02 -0.14281565676E+02  0.68780950875E+02  0.00000000000E+00 0. -1.
        -14    1    3    3    0    0 -0.41183172211E+02  0.18510294344E+02  0.24737664615E+02  0.51484334711E+02  0.00000000000E+00 0.  1.
        -11    1    4    4    0    0 -0.58469733845E+01 -0.96692224084E+02 -0.10778307226E+03  0.14491640335E+03  0.00000000000E+00 0.  1.
         11    1    4    4    0    0  0.37052742785E+02 -0.93650461033E+01 -0.99988232518E+02  0.10704324583E+03  0.00000000000E+00 0. -1.
         21    1    1    2  502  501 -0.27185890463E+01  0.21473774953E+02  0.13586947052E+02  0.25556190392E+02  0.00000000000E+00 0. -1.
<scales pt_clust_5="13000.00000" pt_clust_6="13000.00000" pt_clust_7="13000.00000" pt_clust_8="13000.00000" pt_clust_9="21.64518"></scales>
<clustering>
<clus scale="   21.645">  1  9  2 -1</clus>
<clus scale="   79.928">  5  6 -1 -1</clus>
<clus scale="   89.960">  7  8 -1 -1</clus>
<clus scale="  132.086">  1  5  2 -1</clus>
<clus scale="  138.387">  2  5  1 -1</clus>
</clustering>
</event>
<event>
 9    1  0.2802611E-005  0.1005265E+03  0.7546771E-02  0.1285476E+00
         -2   -1    0    0    0  501 -0.00000000000E+00  0.00000000000E+00  0.72012575569E+03  0.72012575569E+03  0.00000000000E+00 0.  1.
          1   -1    0    0  502    0  0.00000000000E+00 -0.00000000000E+00 -0.14654175872E+03  0.14654175872E+03  0.00000000000E+00 0. -1.
        -24    2    1    2    0    0 -0.84616635229E+02 -0.36539175596E+02  0.50707352000E+03  0.52131541978E+03  0.78429113884E+02 0.  0.
         23    2    1    2    0    0  0.35091568415E+02  0.20860804136E+02 -0.11749179324E+03  0.15415748431E+03  0.91069298705E+02 0.  0.
         13    1    3    3    0    0 -0.88714411913E+01 -0.28590537556E+02  0.52747502073E+02  0.60649981711E+02  0.00000000000E+00 0. -1.
        -14    1    3    3    0    0 -0.75745194038E+02 -0.79486380397E+01  0.45432601792E+03  0.46066543807E+03  0.00000000000E+00 0.  1.
        -11    1    4    4    0    0 -0.15764876215E+02  0.36299701922E+02 -0.79566845300E+02  0.88865530734E+02  0.00000000000E+00 0.  1.
         11    1    4    4    0    0  0.50856444629E+02 -0.15438897786E+02 -0.37924947937E+02  0.65291953572E+02  0.00000000000E+00 0. -1.
         21    1    1    2  502  501  0.49525066815E+02  0.15678371459E+02  0.18400227021E+03  0.19119461033E+03  0.00000000000E+00 0. -1.
<scales pt_clust_5="13000.00000" pt_clust_6="13000.00000" pt_clust_7="13000.00000" pt_clust_8="13000.00000" pt_clust_9="51.94751"></scales>
<clustering>
<clus scale="   51.948">  1  9  2 -1</clus>
<clus scale="   78.429">  5  6 -1 -1</clus>
<clus scale="   89.236">  1  5  2 -1</clus>
<clus scale="   91.069">  7  8 -1 -1</clus>
<clus scale="  100.527">  2  5  1 -1</clus>
</clustering>
</event>
<event>
 9    1  0.2802611E-005  0.9816574E+02  0.7546771E-02  0.1288247E+00
         -2   -1    0    0    0  501 -0.00000000000E+00  0.00000000000E+00  0.14438005787E+03  0.14438005787E+03  0.00000000000E+00 0.  1.
          1   -1    0    0  502    0  0.00000000000E+00 -0.00000000000E+00 -0.34953621101E+03  0.34953621101E+03  0.00000000000E+00 0. -1.
         23    2    1    2    0    0  0.16843602501E+02  0.27025830086E+01  0.34798979491E+02  0.98444736557E+02  0.90495227951E+02 0.  0.
        -24    2    1    2    0    0 -0.39337206949E+02 -0.80185806956E+01 -0.30915507214E+03  0.32251364241E+03  0.82622499482E+02 0.  0.
         11    1    4    4    0    0 -0.55785391065E+02 -0.22293593518E+02 -0.27852491058E+03  0.28493006156E+03  0.00000000000E+00 0. -1.
        -12    1    4    4    0    0  0.16448184116E+02  0.14275012822E+02 -0.30630161559E+02  0.37583580842E+02  0.00000000000E+00 0.  1.
        -13    1    3    3    0    0  0.47565341750E+02 -0.22139568883E+02  0.17413203346E+02  0.55279669834E+02  0.00000000000E+00 0.  1.
         13    1    3    3    0    0 -0.30721739249E+02  0.24842151891E+02  0.17385776145E+02  0.43165066723E+02  0.00000000000E+00 0. -1.
         21    1    1    2  502  501  0.22493604448E+02  0.53159976870E+01  0.69199939507E+02  0.72957889911E+02  0.00000000000E+00 0.  1.
<scales pt_clust_5="13000.00000" pt_clust_6="13000.00000" pt_clust_7="13000.00000" pt_clust_8="13000.00000" pt_clust_9="23.11324"></scales>
<clustering>
<clus scale="   23.113">  1  9  2 -1</clus>
<clus scale="   82.622">  5  6 -1 -1</clus>
<clus scale="   90.495">  7  8 -1 -1</clus>
<clus scale="   90.959">  2  5  1 -1</clus>
<clus scale="   90.959">  2  5  1 -1</clus>
</clustering>
</event>
<event>
 9    1  0.2802611E-005  0.2104569E+03  0.7546771E-02  0.1142025E+00
         -2   -1    0    0    0  501 -0.00000000000E+00  0.00000000000E+00  0.62992026275E+03  0.62992026275E+03  0.00000000000E+00 0.  1.
          1   -1    0    0  502    0  0.00000000000E+00 -0.00000000000E+00 -0.39904635698E+03  0.39904635698E+03  0.00000000000E+00 0. -1.
         23    2    1    2    0    0  0.14021422236E+03 -0.19968196997E+03  0.48381632790E+03  0.54932942241E+03  0.90286532242E+02 0.  0.
        -24    2    1    2    0    0 -0.10095037444E+03  0.15751245228E+03 -0.32737785196E+03  0.38550669648E+03  0.80237175615E+02 0.  0.
         13    1    4    4    0    0 -0.11482503177E+03  0.13679792626E+03 -0.28950617276E+03  0.34016508435E+03  0.00000000000E+00 0. -1.
        -14    1    4    4    0    0  0.13874657326E+02  0.20714526021E+02 -0.37871679206E+02  0.45341612125E+02  0.00000000000E+00 0.  1.
        -11    1    3    3    0    0  0.19431470131E+02 -0.10795296428E+02  0.85166130538E+01  0.23804477611E+02  0.00000000000E+00 0. -1.
         11    1    3    3    0    0  0.12078275223E+03 -0.18888667354E+03  0.47529971484E+03  0.52552494480E+03  0.00000000000E+00 0.  1.
         21    1    1    2  502  501 -0.39263847918E+02  0.42169517686E+02  0.74435429834E+02  0.94130500847E+02  0.00000000000E+00 0.  1.
<scales pt_clust_5="13000.00000" pt_clust_6="13000.00000" pt_clust_7="13000.00000" pt_clust_8="13000.00000" pt_clust_9="57.61873"></scales>
<clustering>
<clus scale="   57.619">  1  9  2 -1</clus>
<clus scale="   80.237">  5  6 -1 -1</clus>
<clus scale="   90.287">  7  8 -1 -1</clus>
<clus scale="  206.345">  2  5  1 -1</clus>
<clus scale="  206.345">  2  5  1 -1</clus>
</clustering>
</event>
<event>
 9    1  0.2802611E-005  0.9610339E+02  0.7546771E-02  0.1297680E+00
          1   -1    0    0  502    0  0.00000000000E+00  0.00000000000E+00  0.17394214974E+03  0.17394214974E+03  0.00000000000E+00 0. -1.
         -2   -1    0    0    0  501 -0.00000000000E+00 -0.00000000000E+00 -0.90969153138E+02  0.90969153138E+02  0.00000000000E+00 0.  1.
        -24    2    1    2    0    0  0.46068265514E+01 -0.10591729451E+02 -0.27757500230E+02  0.82717627021E+02  0.77060491936E+02 0.  0.
         23    2    1    2    0    0 -0.30098773433E+02 -0.19715454450E+02  0.10054056178E+03  0.14130113952E+03  0.92536328863E+02 0.  0.
         11    1    3    3    0    0 -0.78190798251E+01 -0.42715012343E+02 -0.13952572324E+02  0.45611232862E+02  0.00000000000E+00 0. -1.
        -12    1    3    3    0    0  0.12425906376E+02  0.32123282892E+02 -0.13804927906E+02  0.37106394159E+02  0.00000000000E+00 0.  1.
        -11    1    4    4    0    0 -0.59775177313E+02  0.57257351045E+01  0.64633530725E+02  0.88223291479E+02  0.00000000000E+00 0.  1.
         11    1    4    4    0    0  0.29676403880E+02 -0.25441189555E+02  0.35907031059E+02  0.53077848041E+02  0.00000000000E+00 0. -1.
         21    1    1    2  502  501  0.25491946882E+02  0.30307183901E+02  0.10189935049E+02  0.40892536338E+02  0.00000000000E+00 0.  1.
<scales pt_clust_5="13000.00000" pt_clust_6="13000.00000" pt_clust_7="13000.00000" pt_clust_8="13000.00000" pt_clust_9="39.60259"></scales>
<clustering>
<clus scale="   39.603">  2  9  1 -1</clus>
<clus scale="   77.060">  5  6 -1 -1</clus>
<clus scale="   81.309">  2  5  1 -1</clus>
<clus scale="   92.536">  7  8 -1 -1</clus>
<clus scale="   96.103">  1  5  2 -1</clus>
</clustering>
</event>
<event>
 9    1  0.2802611E-005  0.1241386E+03  0.7546771E-02  0.1240270E+00
          1   -1    0    0  502    0  0.00000000000E+00  0.00000000000E+00  0.87990171971E+03  0.87990171971E+03  0.00000000000E+00 0. -1.
         -2   -1    0    0    0  501 -0.00000000000E+00 -0.00000000000E+00 -0.24882458357E+02  0.24882458357E+02  0.00000000000E+00 0.  1.
        -24    2    1    2    0    0  0.57231911978E+02  0.35947308540E+02  0.15784697910E+03  0.18872669845E+03  0.78322392432E+02 0.  0.
         23    2    1    2    0    0 -0.75872681051E+02 -0.49297093976E+02  0.65966576529E+03  0.67209802265E+03  0.91487501561E+02 0.  0.
         13    1    3    3    0    0  0.74381552286E+02  0.14576109391E+02  0.12158574054E+03  0.14327655282E+03  0.00000000000E+00 0. -1.
        -14    1    3    3    0    0 -0.17149640308E+02  0.21371199148E+02  0.36261238568E+02  0.45450145635E+02  0.00000000000E+00 0.  1.
        -13    1    4    4    0    0 -0.32618279064E+02  0.25971271702E+02  0.19831288237E+03  0.20264860818E+03  0.00000000000E+00 0.  1.
         13    1    4    4    0    0 -0.43254401987E+02 -0.75268365678E+02  0.46135288292E+03  0.46944941447E+03  0.00000000000E+00 0. -1.
         21    1    1    2  502  501  0.18640769073E+02  0.13349785436E+02  0.37506516954E+02  0.43959456967E+02  0.00000000000E+00 0. -1.
<scales pt_clust_5="13000.00000" pt_clust_6="13000.00000" pt_clust_7="13000.00000" pt_clust_8="13000.00000" pt_clust_9="22.92804"></scales>
<clustering>
<clus scale="   22.928">  2  9  1 -1</clus>
<clus scale="   78.322">  5  6 -1 -1</clus>
<clus scale="   91.488">  7  8 -1 -1</clus>
<clus scale="  114.782">  2  5  1 -1</clus>
<clus scale="  124.139">  1  5  2 -1</clus>
</clustering>
</event>
<event>
 9    1  0.2802611E-005  0.1036426E+03  0.7546771E-02  0.1279093E+00
          1   -1    0    0  502    0  0.00000000000E+00  0.00000000000E+00  0.32826071544E+03  0.32826071544E+03  0.00000000000E+00 0. -1.
         -2   -1    0    0    0  501 -0.00000000000E+00 -0.00000000000E+00 -0.38212969084E+02  0.38212969084E+02  0.00000000000E+00 0.  1.
        -24    2    1    2    0    0  0.47307403988E+02 -0.17361557755E+00  0.81909602983E+02  0.12573485892E+03  0.82837497981E+02 0.  0.
         23    2    1    2    0    0 -0.26091751985E+02  0.39661819492E+01  0.17543427548E+03  0.20157212515E+03  0.95695488412E+02 0.  0.
         13    1    3    3    0    0 -0.22976750954E+01  0.23442653427E+02  0.63604002265E+02  0.67825558713E+02  0.00000000000E+00 0. -1.
        -14    1    3    3    0    0  0.49605079083E+02 -0.23616269005E+02  0.18305600718E+02  0.57909300205E+02  0.00000000000E+00 0.  1.
        -13    1    4    4    0    0  0.37433438944E+01 -0.37862687360E+02  0.12046153428E+03  0.12632726135E+03  0.00000000000E+00 0. -1.
         13    1    4    4    0    0 -0.29835095879E+02  0.41828869309E+02  0.54972741203E+02  0.75244863805E+02  0.00000000000E+00 0.  1.
         21    1    1    2  502  501 -0.21215652004E+02 -0.37925663717E+01  0.32703867887E+02  0.39166700453E+02  0.00000000000E+00 0. -1.
<scales pt_clust_5="13000.00000" pt_clust_6="13000.00000" pt_clust_7="13000.00000" pt_clust_8="13000.00000" pt_clust_9="21.55197"></scales>
<clustering>
<clus scale="   21.552">  1  9  2 -1</clus>
<clus scale="   82.837">  5  6 -1 -1</clus>
<clus scale="   91.903">  2  5  1 -1</clus>
<clus scale="   95.695">  7  8 -1 -1</clus>
<clus scale="   21.552">  1  5  2 -1</clus>
</clustering>
</event>
<event>
 9    1  0.2802611E-005  0.1197618E+03  0.7546771E-02  0.1246474E+00
         -2   -1    0    0    0  501 -0.00000000000E+00  0.00000000000E+00  0.92675546251E+02  0.92675546251E+02  0.00000000000E+00 0.  1.
          1   -1    0    0  502    0  0.00000000000E+00 -0.00000000000E+00 -0.26605903435E+03  0.26605903435E+03  0.00000000000E+00 0. -1.
        -24    2    1    2    0    0 -0.16701528273E+02  0.72553452518E+02 -0.40367524437E+02  0.11721953801E+03  0.81042819201E+02 0.  0.
         23    2    1    2    0    0 -0.46079942739E+02 -0.78159800314E+02 -0.12311050249E+03  0.17771016504E+03  0.90511830315E+02 0.  0.
         11    1    3    3    0    0 -0.47420961766E+02  0.48114959368E+02 -0.11581520942E+02  0.68541436789E+02  0.00000000000E+00 0. -1.
        -12    1    3    3    0    0  0.30719433493E+02  0.24438493150E+02 -0.28786003495E+02  0.48678101224E+02  0.00000000000E+00 0.  1.
        -13    1    4    4    0    0  0.13878729835E+02 -0.16154058451E+02  0.62816037159E+01  0.22204307950E+02  0.00000000000E+00 0.  1.
         13    1    4    4    0    0 -0.59958672574E+02 -0.62005741863E+02 -0.12939210621E+03  0.15550585709E+03  0.00000000000E+00 0. -1.
         21    1    1    2  502  501  0.62781471011E+02  0.56063477966E+01 -0.99054611702E+01  0.63804877548E+02  0.00000000000E+00 0.  1.
<scales pt_clust_5="13000.00000" pt_clust_6="13000.00000" pt_clust_7="13000.00000" pt_clust_8="13000.00000" pt_clust_9="63.03130"></scales>
<clustering>
<clus scale="   63.031">  1  9  2 -1</clus>
<clus scale="   81.043">  5  6 -1 -1</clus>
<clus scale="   90.512">  7  8 -1 -1</clus>
<clus scale="  112.776">  1  5  2 -1</clus>
<clus scale="  119.762">  2  5  1 -1</clus>
</clustering>
</event>
<event>
 9    1  0.2802611E-005  0.1608747E+03  0.7546771E-02  0.1217081E+00
         -2   -1    0    0    0  501 -0.00000000000E+00  0.00000000000E+00  0.81220460487E+02  0.81220460487E+02  0.00000000000E+00 0.  1.
          1   -1    0    0  502    0  0.00000000000E+00 -0.00000000000E+00 -0.88485361124E+03  0.88485361124E+03  0.00000000000E+00 0. -1.
         23    2    1    2    0    0 -0.10748775225E+03  0.94457997603E+02 -0.61991787931E+03  0.64265998343E+03  0.90762035092E+02 0.  0.
        -24    2    1    2    0    0  0.39851139039E+02  0.19310903697E+02 -0.17023169635E+03  0.19037318803E+03  0.72815492799E+02 0.  0.
         13    1    4    4    0    0  0.33938423405E+02  0.45128695308E+02 -0.93824062894E+02  0.10950511633E+03  0.00000000000E+00 0. -1.
        -14    1    4    4    0    0  0.59127156341E+01 -0.25817791610E+02 -0.76407633458E+02  0.80868071700E+02  0.00000000000E+00 0.  1.
        -11    1    3    3    0    0 -0.83515175155E+02  0.38663951730E+02 -0.49826352588E+03  0.50669145135E+03  0.00000000000E+00 0. -1.
         11    1    3    3    0    0 -0.23972577099E+02  0.55794045874E+02 -0.12165435343E+03  0.13596853208E+03  0.00000000000E+00 0.  1.
         21    1    1    2  502  501  0.67636613215E+02 -0.11376890130E+03 -0.13483575097E+02  0.13304090028E+03  0.00000000000E+00 0.  1.
<scales pt_clust_5="13000.00000" pt_clust_6="13000.00000" pt_clust_7="13000.00000" pt_clust_8="13000.00000" pt_clust_9="132.82670"></scales>
<clustering>
<clus scale="   72.815">  5  6 -1 -1</clus>
<clus scale="   85.224">  2  5  1 -1</clus>
<clus scale="   90.762">  7  8 -1 -1</clus>
<clus scale="  132.827">  1  9  2 -1</clus>
<clus scale="   85.224">  2  5  1 -1</clus>
</clustering>
</event>
<event>
 9    1  0.2802611E-005  0.1563687E+03  0.7546771E-02  0.1193910E+00
          1   -1    0    0  502    0  0.00000000000E+00  0.00000000000E+00  0.80027065634E+02  0.80027065634E+02  0.00000000000E+00 0. -1.
         -2   -1    0    0    0  501 -0.00000000000E+00 -0.00000000000E+00 -0.44063349018E+03  0.44063349018E+03  0.00000000000E+00 0.  1.
         23    2    1    2    0    0  0.83960563530E+02 -0.12140891713E+03 -0.16485819461E+03  0.23901479875E+03  0.90334646191E+02 0.  0.
        -24    2    1    2    0    0 -0.48981580182E+02  0.10469415896E+03 -0.89642556186E+02  0.16867971607E+03  0.84005932027E+02 0.  0.
         13    1    4    4    0    0  0.75744466447E+01  0.78550072141E+02 -0.37210345640E+02  0.87247326022E+02  0.00000000000E+00 0. -1.
        -14    1    4    4    0    0 -0.56556026827E+02  0.26144086824E+02 -0.52432210547E+02  0.81432390049E+02  0.00000000000E+00 0.  1.
        -11    1    3    3    0    0  0.74159420437E+01 -0.30643271937E+02 -0.97577249900E+02  0.10254426366E+03  0.00000000000E+00 0.  1.
         11    1    3    3    0    0  0.76544621487E+02 -0.90765645195E+02 -0.67280944714E+02  0.13647053509E+03  0.00000000000E+00 0. -1.
         21    1    1    2  502  501 -0.34978983348E+02  0.16714758167E+02 -0.10610567375E+03  0.11296604099E+03  0.00000000000E+00 0. -1.
<scales pt_clust_5="13000.00000" pt_clust_6="13000.00000" pt_clust_7="13000.00000" pt_clust_8="13000.00000" pt_clust_9="38.76741"></scales>
<clustering>
<clus scale="   38.767">  2  9  1 -1</clus>
<clus scale="   84.006">  5  6 -1 -1</clus>
<clus scale="   90.335">  7  8 -1 -1</clus>
<clus scale="  152.800">  1  5  2 -1</clus>
<clus scale="  152.800">  1  5  2 -1</clus>
</clustering>
</event>
<event>
 9    1  0.2802611E-005  0.9483502E+02  0.7546771E-02  0.1295843E+00
         -4   -1    0    0    0  501 -0.00000000000E+00  0.00000000000E+00  0.65386683347E+02  0.65386683347E+02  0.00000000000E+00 0.  1.
          3   -1    0    0  502    0  0.00000000000E+00 -0.00000000000E+00 -0.42504433426E+03  0.42504433426E+03  0.00000000000E+00 0. -1.
         23    2    1    2    0    0  0.29458126698E+02 -0.43894174412E+02 -0.46590215591E+02  0.11442469700E+03  0.90154774242E+02 0.  0.
        -24    2    1    2    0    0 -0.75014447953E+01  0.24762263741E+02 -0.33080561693E+03  0.34190692218E+03  0.82453295051E+02 0.  0.
         11    1    4    4    0    0  0.25093090702E+02  0.39181914003E+02 -0.23773041940E+03  0.24224086752E+03  0.00000000000E+00 0. -1.
        -12    1    4    4    0    0 -0.32594535497E+02 -0.14419650263E+02 -0.93075197524E+02  0.99666054663E+02  0.00000000000E+00 0.  1.
        -11    1    3    3    0    0  0.31113647410E+02 -0.66860379064E+02 -0.52654365863E+02  0.90613749443E+02  0.00000000000E+00 0.  1.
         11    1    3    3    0    0 -0.16555207122E+01  0.22966204652E+02  0.60641502720E+01  0.23810947555E+02  0.00000000000E+00 0. -1.
         21    1    1    2  502  501 -0.21956681902E+02  0.19131910671E+02  0.17738181609E+02  0.34099398424E+02  0.00000000000E+00 0.  1.
<scales pt_clust_5="13000.00000" pt_clust_6="13000.00000" pt_clust_7="13000.00000" pt_clust_8="13000.00000" pt_clust_9="29.12260"></scales>
<clustering>
<clus scale="   29.123">  1  9  2 -1</clus>
<clus scale="   82.453">  5  6 -1 -1</clus>
<clus scale="   87.546">  2  5  1 -1</clus>
<clus scale="   90.155">  7  8 -1 -1</clus>
<clus scale="   87.546">  2  5  1 -1</clus>
</clustering>
</event>
<event>
 9    1  0.2802611E-005  0.9444563E+02  0.7546771E-02  0.1297445E+00
         -2   -1    0    0    0  501 -0.00000000000E+00  0.00000000000E+00  0.63417346392E+02  0.63417346392E+02  0.00000000000E+00 0.  1.
          1   -1    0    0  502    0  0.00000000000E+00 -0.00000000000E+00 -0.52590180582E+03  0.52590180582E+03  0.00000000000E+00 0. -1.
         23    2    1    2    0    0  0.58726822933E+00  0.96830149415E+01 -0.42639397701E+02  0.10184063477E+03  0.91974403998E+02 0.  0.
        -24    2    1    2    0    0 -0.21106420530E+02 -0.10909337142E+02 -0.44592913341E+03  0.45426830407E+03  0.83321098376E+02 0.  0.
         13    1    4    4    0    0 -0.16049283660E+02 -0.47220034716E+02 -0.24570359174E+03  0.25071411244E+03  0.00000000000E+00 0. -1.
        -14    1    4    4    0    0 -0.50571368699E+01  0.36310697574E+02 -0.20022554167E+03  0.20355419163E+03  0.00000000000E+00 0.  1.
        -13    1    3    3    0    0  0.42621230611E+02 -0.79102971649E+01 -0.34831736758E+02  0.55609279672E+02  0.00000000000E+00 0. -1.
         13    1    3    3    0    0 -0.42033962382E+02  0.17593312106E+02 -0.78076609434E+01  0.46231355094E+02  0.00000000000E+00 0.  1.
         21    1    1    2  502  501  0.20519152301E+02  0.12263222010E+01  0.26084071680E+02  0.33210213379E+02  0.00000000000E+00 0.  1.
<scales pt_clust_5="13000.00000" pt_clust_6="13000.00000" pt_clust_7="13000.00000" pt_clust_8="13000.00000" pt_clust_9="20.55577"></scales>
<clustering>
<clus scale="   20.556">  1  9  2 -1</clus>
<clus scale="   83.321">  5  6 -1 -1</clus>
<clus scale="   86.041">  2  5  1 -1</clus>
<clus scale="   91.974">  7  8 -1 -1</clus>
<clus scale="   86.041">  2  5  1 -1</clus>
</clustering>
</event>
<event>
 9    1  0.2802611E-005  0.9493927E+02  0.7546771E-02  0.1297074E+00
         -2   -1    0    0    0  501 -0.00000000000E+00  0.00000000000E+00  0.10806033582E+03  0.10806033582E+03  0.00000000000E+00 0.  1.
          1   -1    0    0  502    0  0.00000000000E+00 -0.00000000000E+00 -0.22108419515E+03  0.22108419515E+03  0.00000000000E+00 0. -1.
        -24    2    1    2    0    0  0.21486204943E+02  0.29910076938E+02  0.24600036015E+02  0.91599921951E+02  0.80181757427E+02 0.  0.
         23    2    1    2    0    0  0.43517648519E+02  0.30434060394E+01 -0.13005533548E+03  0.16427308587E+03  0.90378141170E+02 0.  0.
         13    1    3    3    0    0 -0.22080397122E+02 -0.13158470694E+02  0.14499764373E+02  0.29511564766E+02  0.00000000000E+00 0. -1.
        -14    1    3    3    0    0  0.43566602065E+02  0.43068547632E+02  0.10100271642E+02  0.62088357185E+02  0.00000000000E+00 0.  1.
        -11    1    4    4    0    0  0.64513611689E+02 -0.12127576006E+02 -0.57618529501E+02  0.87344027471E+02  0.00000000000E+00 0.  1.
         11    1    4    4    0    0 -0.20995963170E+02  0.15170982045E+02 -0.72436805982E+02  0.76929058401E+02  0.00000000000E+00 0. -1.
         21    1    1    2  502  501 -0.65003853462E+02 -0.32953482978E+02 -0.75685598607E+01  0.73271523142E+02  0.00000000000E+00 0. -1.
<scales pt_clust_5="13000.00000" pt_clust_6="13000.00000" pt_clust_7="13000.00000" pt_clust_8="13000.00000" pt_clust_9="72.87958"></scales>
<clustering>
<clus scale="   72.880">  1  9  2 -1</clus>
<clus scale="   80.182">  5  6 -1 -1</clus>
<clus scale="   85.290">  1  5  2 -1</clus>
<clus scale="   90.378">  7  8 -1 -1</clus>
<clus scale="   94.939">  2  5  1 -1</clus>
</clustering>
</event>
<event>
 9    1  0.2802611E-005  0.1161597E+03  0.7546771E-02  0.1253437E+00
          1   -1    0    0  502    0  0.00000000000E+00  0.00000000000E+00  0.73438967070E+03  0.73438967070E+03  0.00000000000E+00 0. -1.
         -2   -1    0    0    0  501 -0.00000000000E+00 -0.00000000000E+00 -0.43858115503E+02  0.43858115503E+02  0.00000000000E+00 0.  1.
         23    2    1    2    0    0 -0.46841549238E+02 -0.50634435226E+01  0.57692220272E+02  0.11812531164E+03  0.91681120060E+02 0.  0.
        -24    2    1    2    0    0  0.66298268629E+02  0.37052129770E+02  0.60061149341E+03  0.61072132330E+03  0.80486321639E+02 0.  0.
         11    1    4    4    0    0  0.69596391819E+02 -0.36254262135E+01  0.39448239848E+03  0.40059101860E+03  0.00000000000E+00 0. -1.
        -12    1    4    4    0    0 -0.32981231903E+01  0.40677555983E+02  0.20612909493E+03  0.21013030470E+03  0.00000000000E+00 0.  1.
        -11    1    3    3    0    0  0.26815470455E+02 -0.71184760474E+01  0.67767078315E+01  0.28559865651E+02  0.00000000000E+00 0. -1.
         11    1    3    3    0    0 -0.73657019692E+02  0.20550325248E+01  0.50915512440E+02  0.89565445992E+02  0.00000000000E+00 0.  1.
         21    1    1    2  502  501 -0.19456719391E+02 -0.31988686247E+02  0.32227841516E+02  0.49401151263E+02  0.00000000000E+00 0.  1.
<scales pt_clust_5="13000.00000" pt_clust_6="13000.00000" pt_clust_7="13000.00000" pt_clust_8="13000.00000" pt_clust_9="37.44115"></scales>
<clustering>
<clus scale="   37.441">  2  9  1 -1</clus>
<clus scale="   80.486">  5  6 -1 -1</clus>
<clus scale="   91.681">  7  8 -1 -1</clus>
<clus scale="  107.544">  1  5  2 -1</clus>
<clus scale="  107.544">  1  5  2 -1</clus>
</clustering>
</event>
<event>
 9    1  0.2802611E-005  0.9954828E+02  0.7546771E-02  0.1285486E+00
         -2   -1    0    0    0  501 -0.00000000000E+00  0.00000000000E+00  0.48288513621E+02  0.48288513621E+02  0.00000000000E+00 0.  1.
          1   -1    0    0  502    0  0.00000000000E+00 -0.00000000000E+00 -0.30056814468E+03  0.30056814468E+03  0.00000000000E+00 0. -1.
        -24    2    1    2    0    0 -0.52786574488E+01  0.40161805376E+02 -0.54665176970E+02  0.10541457502E+03  0.80517800629E+02 0.  0.
         23    2    1    2    0    0  0.39488736424E+02 -0.31965305867E+02 -0.17058680764E+03  0.19907987210E+03  0.89172840341E+02 0.  0.
         11    1    3    3    0    0 -0.15759743659E+02  0.40677755915E+02 -0.72563360999E+02  0.84666939864E+02  0.00000000000E+00 0. -1.
        -12    1    3    3    0    0  0.10481086210E+02 -0.51595053915E+00  0.17898184028E+02  0.20747635157E+02  0.00000000000E+00 0.  1.
        -13    1    4    4    0    0  0.59318359258E+02 -0.47122499734E+02 -0.11009957651E+03  0.13364548056E+03  0.00000000000E+00 0.  1.
         13    1    4    4    0    0 -0.19829622834E+02  0.15157193867E+02 -0.60487231128E+02  0.65434391548E+02  0.00000000000E+00 0. -1.
         21    1    1    2  502  501 -0.34210078975E+02 -0.81964995095E+01 -0.27027646454E+02  0.44362211177E+02  0.00000000000E+00 0. -1.
<scales pt_clust_5="13000.00000" pt_clust_6="13000.00000" pt_clust_7="13000.00000" pt_clust_8="13000.00000" pt_clust_9="35.17829"></scales>
<clustering>
<clus scale="   35.178">  1  9  2 -1</clus>
<clus scale="   80.518">  5  6 -1 -1</clus>
<clus scale="   89.173">  7  8 -1 -1</clus>
<clus scale="   91.876">  1  5  2 -1</clus>
<clus scale="   99.548">  2  5  1 -1</clus>
</clustering>
</event>
<event>
 9    1  0.2802611E-005  0.1080860E+03  0.7546771E-02  0.1267776E+00
          1   -1    0    0  502    0  0.00000000000E+00  0.00000000000E+00  0.70232998917E+03  0.70232998917E+03  0.00000000000E+00 0. -1.
         -2   -1    0    0    0  501 -0.00000000000E+00 -0.00000000000E+00 -0.26920194946E+02  0.26920194946E+02  0.00000000000E+00 0.  1.
         23    2    1    2    0    0  0.60399239794E+02 -0.34242858229E+01  0.15211268742E+03  0.18774398154E+03  0.91922462050E+02 0.  0.
        -24    2    1    2    0    0 -0.54254729288E+02 -0.16188977933E+02  0.50172495801E+03  0.51171035172E+03  0.83149816059E+02 0.  0.
         13    1    4    4    0    0 -0.36517725607E+02 -0.48609118255E+02  0.36731807669E+03  0.37231567268E+03  0.00000000000E+00 0. -1.
        -14    1    4    4    0    0 -0.17737003681E+02  0.32420140322E+02  0.13440688132E+03  0.13939467904E+03  0.00000000000E+00 0.  1.
        -13    1    3    3    0    0  0.25516209460E+02  0.33278480042E+02  0.12159581645E+03  0.12862377991E+03  0.00000000000E+00 0. -1.
         13    1    3    3    0    0  0.34883030334E+02 -0.36702765865E+02  0.30516870970E+02  0.59120201634E+02  0.00000000000E+00 0.  1.
         21    1    1    2  502  501 -0.61445105060E+01  0.19613263756E+02  0.21572148785E+02  0.29795850847E+02  0.00000000000E+00 0.  1.
<scales pt_clust_5="13000.00000" pt_clust_6="13000.00000" pt_clust_7="13000.00000" pt_clust_8="13000.00000" pt_clust_9="20.55323"></scales>
<clustering>
<clus scale="   20.553">  2  9  1 -1</clus>
<clus scale="   83.150">  5  6 -1 -1</clus>
<clus scale="   91.922">  7  8 -1 -1</clus>
<clus scale="  100.731">  1  5  2 -1</clus>
<clus scale="  100.731">  1  5  2 -1</clus>
</clustering>
</event>
<event>
 9    1  0.2802611E-005  0.1019704E+03  0.7546771E-02  0.1281577E+00
          1   -1    0    0  502    0  0.00000000000E+00  0.00000000000E+00  0.54822195849E+03  0.54822195849E+03  0.00000000000E+00 0. -1.
         -2   -1    0    0    0  501 -0.00000000000E+00 -0.00000000000E+00 -0.10476539045E+03  0.10476539045E+03  0.00000000000E+00 0.  1.
         23    2    1    2    0    0 -0.34206118211E+02  0.19156591854E+02 -0.38956620893E+01  0.96620479031E+02  0.88223053963E+02 0.  0.
        -24    2    1    2    0    0  0.51821061928E+02  0.10967869112E+02  0.49141891224E+03  0.50015617819E+03  0.76537171793E+02 0.  0.
         13    1    4    4    0    0  0.67044048083E+02  0.24304580570E+02  0.34061764553E+03  0.34800286991E+03  0.00000000000E+00 0. -1.
        -14    1    4    4    0    0 -0.15222986155E+02 -0.13336711459E+02  0.15080126671E+03  0.15215330828E+03  0.00000000000E+00 0.  1.
        -11    1    3    3    0    0 -0.11041282693E+02  0.43057480234E+02 -0.30585357186E+02  0.53956654843E+02  0.00000000000E+00 0.  1.
         11    1    3    3    0    0 -0.23164835518E+02 -0.23900888380E+02  0.26689695097E+02  0.42663824187E+02  0.00000000000E+00 0. -1.
         21    1    1    2  502  501 -0.17614943717E+02 -0.30124460966E+02 -0.44066682114E+02  0.56210691715E+02  0.00000000000E+00 0.  1.
<scales pt_clust_5="13000.00000" pt_clust_6="13000.00000" pt_clust_7="13000.00000" pt_clust_8="13000.00000" pt_clust_9="34.89655"></scales>
<clustering>
<clus scale="   34.897">  2  9  1 -1</clus>
<clus scale="   76.537">  5  6 -1 -1</clus>
<clus scale="   88.223">  7  8 -1 -1</clus>
<clus scale="   92.047">  1  5  2 -1</clus>
<clus scale="   92.047">  1  5  2 -1</clus>
</clustering>
</event>
<event>
 9    1  0.2802611E-005  0.1347252E+03  0.7546771E-02  0.1221719E+00
         -2   -1    0    0    0  501 -0.00000000000E+00  0.00000000000E+00  0.12758742535E+03  0.12758742535E+03  0.00000000000E+00 0.  1.
          1   -1    0    0  502    0  0.00000000000E+00 -0.00000000000E+00 -0.22607513199E+03  0.22607513199E+03  0.00000000000E+00 0. -1.
        -24    2    1    2    0    0  0.88463413750E+02 -0.40388305885E+02  0.21607145550E+02  0.12598048025E+03  0.77118232870E+02 0.  0.
         23    2    1    2    0    0 -0.10740923532E+03  0.26931676634E+02 -0.14038494931E+03  0.19683222998E+03  0.82297835504E+02 0.  0.
         11    1    3    3    0    0  0.78076728868E+01 -0.39220628236E+02  0.21314321468E+02  0.45315755922E+02  0.00000000000E+00 0. -1.
        -12    1    3    3    0    0  0.80655740863E+02 -0.11676776495E+01  0.29282408207E+00  0.80664724330E+02  0.00000000000E+00 0.  1.
        -11    1    4    4    0    0 -0.47510666158E+02 -0.19113968998E+02 -0.20574605709E+02  0.55189868724E+02  0.00000000000E+00 0.  1.
         11    1    4    4    0    0 -0.59898569162E+02  0.46045645632E+02 -0.11981034360E+03  0.14164236126E+03  0.00000000000E+00 0. -1.
         21    1    1    2  502  501  0.18945821570E+02  0.13456629251E+02  0.20290097117E+02  0.30849847112E+02  0.00000000000E+00 0.  1.
<scales pt_clust_5="13000.00000" pt_clust_6="13000.00000" pt_clust_7="13000.00000" pt_clust_8="13000.00000" pt_clust_9="23.23844"></scales>
<clustering>
<clus scale="   23.238">  1  9  2 -1</clus>
<clus scale="   77.118">  5  6 -1 -1</clus>
<clus scale="   82.298">  7  8 -1 -1</clus>
<clus scale="  131.625">  1  5  2 -1</clus>
<clus scale="  134.725">  2  5  1 -1</clus>
</clustering>
</event>
<event>
 9    1  0.2802611E-005  0.3132207E+03  0.7546771E-02  0.1078865E+00
          1   -1    0    0  502    0  0.00000000000E+00  0.00000000000E+00  0.20795699729E+04  0.20795699729E+04  0.00000000000E+00 0. -1.
         -2   -1    0    0    0  501 -0.00000000000E+00 -0.00000000000E+00 -0.16768441207E+03  0.16768441207E+03  0.00000000000E+00 0.  1.
        -24    2    1    2    0    0 -0.17627250500E+03 -0.14535623548E+02  0.11906449670E+03  0.23216262787E+03  0.91868661884E+02 0.  0.
         23    2    1    2    0    0  0.33504886873E+03 -0.17486416894E+02  0.18182361436E+04  0.18511366687E+04  0.90336996613E+02 0.  0.
         11    1    3    3    0    0 -0.33661460468E+02 -0.26702915075E+02 -0.43322230442E+01  0.43184577697E+02  0.00000000000E+00 0. -1.
        -12    1    3    3    0    0 -0.14261104453E+03  0.12167291527E+02  0.12339671974E+03  0.18897805018E+03  0.00000000000E+00 0.  1.
        -13    1    4    4    0    0  0.30103233674E+02 -0.26014231470E+02  0.14718315419E+03  0.15246581844E+03  0.00000000000E+00 0.  1.
         13    1    4    4    0    0  0.30494563506E+03  0.85278145762E+01  0.16710529894E+04  0.16986708502E+04  0.00000000000E+00 0. -1.
         21    1    1    2  502  501 -0.15877636373E+03  0.32022040441E+02 -0.25415079478E+02  0.16395508842E+03  0.00000000000E+00 0.  1.
<scales pt_clust_5="13000.00000" pt_clust_6="13000.00000" pt_clust_7="13000.00000" pt_clust_8="13000.00000" pt_clust_9="161.97328"></scales>
<clustering>
<clus scale="   90.337">  7  8 -1 -1</clus>
<clus scale="   91.869">  5  6 -1 -1</clus>
<clus scale="  161.973">  2  9  1 -1</clus>
<clus scale="  312.775">  1  7  2 -1</clus>
<clus scale="  312.775">  1  5  2 -1</clus>
</clustering>
</event>
<event>
 9    1  0.2802611E-005  0.1984791E+03  0.7546771E-02  0.1151996E+00
         -2   -1    0    0    0  501 -0.00000000000E+00  0.00000000000E+00  0.11495241701E+04  0.11495241701E+04  0.00000000000E+00 0.  1.
          1   -1    0    0  502    0  0.00000000000E+00 -0.00000000000E+00 -0.45333046438E+02  0.45333046438E+02  0.00000000000E+00 0. -1.
         23    2    1    2    0    0  0.33710540406E+02  0.18142789423E+03  0.82137122735E+03  0.84658211092E+03  0.89432075236E+02 0.  0.
        -24    2    1    2    0    0 -0.30585667860E+02 -0.15718244524E+03  0.24286884527E+03  0.30143822800E+03  0.78980536365E+02 0.  0.
         11    1    4    4    0    0  0.14793785155E+02 -0.81240688147E+02  0.74381631317E+02  0.11113744899E+03  0.00000000000E+00 0. -1.
        -12    1    4    4    0    0 -0.45379453015E+02 -0.75941757097E+02  0.16848721395E+03  0.19030077901E+03  0.00000000000E+00 0.  1.
        -13    1    3    3    0    0 -0.92608917109E+01  0.10586386424E+03  0.58844846065E+03  0.59796698296E+03  0.00000000000E+00 0.  1.
         13    1    3    3    0    0  0.42971432116E+02  0.75564029994E+02  0.23292276670E+03  0.24861512796E+03  0.00000000000E+00 0. -1.
         21    1    1    2  502  501 -0.31248725454E+01 -0.24245448989E+02  0.39951051033E+02  0.46836877605E+02  0.00000000000E+00 0.  1.
<scales pt_clust_5="13000.00000" pt_clust_6="13000.00000" pt_clust_7="13000.00000" pt_clust_8="13000.00000" pt_clust_9="24.44599"></scales>
<clustering>
<clus scale="   24.446">  2  9  1 -1</clus>
<clus scale="   78.981">  5  6 -1 -1</clus>
<clus scale="   89.432">  7  8 -1 -1</clus>
<clus scale="  193.994">  2  5  1 -1</clus>
<clus scale="   24.446">  2  5  1 -1</clus>
</clustering>
</event>
<event>
 9    1  0.2802611E-005  0.1140825E+03  0.7546771E-02  0.1257395E+00
         -4   -1    0    0    0  501 -0.00000000000E+00  0.00000000000E+00  0.15064810851E+03  0.15064810851E+03  0.00000000000E+00 0.  1.
          3   -1    0    0  502    0  0.00000000000E+00 -0.00000000000E+00 -0.17679254033E+03  0.17679254033E+03  0.00000000000E+00 0. -1.
         23    2    1    2    0    0 -0.35646413578E+02  0.56907574504E+02  0.56615740453E+02  0.12738803926E+03  0.92267175324E+02 0.  0.
        -24    2    1    2    0    0  0.10299104005E+02 -0.67306978118E+02 -0.11606892056E+03  0.15692365863E+03  0.80726324527E+02 0.  0.
         11    1    4    4    0    0  0.22680739573E+02 -0.14261384032E+02 -0.94689493051E+02  0.98406824541E+02  0.00000000000E+00 0. -1.
        -12    1    4    4    0    0 -0.12381635568E+02 -0.53045594086E+02 -0.21379427508E+02  0.58516834089E+02  0.00000000000E+00 0.  1.
        -13    1    3    3    0    0  0.62158611977E+01  0.62171726936E+02  0.79600945872E+01  0.62986694360E+02  0.00000000000E+00 0.  1.
         13    1    3    3    0    0 -0.41862274775E+02 -0.52641524315E+01  0.48655645865E+02  0.64401344899E+02  0.00000000000E+00 0. -1.
         21    1    1    2  502  501  0.25347309572E+02  0.10399403613E+02  0.33308748279E+02  0.43128950949E+02  0.00000000000E+00 0.  1.
<scales pt_clust_5="13000.00000" pt_clust_6="13000.00000" pt_clust_7="13000.00000" pt_clust_8="13000.00000" pt_clust_9="27.39770"></scales>
<clustering>
<clus scale="   27.398">  1  9  2 -1</clus>
<clus scale="   80.726">  5  6 -1 -1</clus>
<clus scale="   92.267">  7  8 -1 -1</clus>
<clus scale="  104.968">  2  5  1 -1</clus>
<clus scale="  104.968">  2  5  1 -1</clus>
</clustering>
</event>
<event>
 9    1  0.2802611E-005  0.9759810E+02  0.7546771E-02  0.1307855E+00
         -2   -1    0    0    0  501 -0.00000000000E+00  0.00000000000E+00  0.10847352395E+03  0.10847352395E+03  0.00000000000E+00 0.  1.
          1   -1    0    0  502    0  0.00000000000E+00 -0.00000000000E+00 -0.43591556700E+03  0.43591556700E+03  0.00000000000E+00 0. -1.
        -24    2    1    2    0    0  0.45000326549E+02  0.45812365837E+02  0.18329352651E+02  0.85208087826E+02  0.52921175433E+02 0.  0.
         23    2    1    2    0    0 -0.34940891594E+02 -0.27881028912E+01 -0.38686698142E+03  0.39883925472E+03  0.90432573598E+02 0.  0.
         11    1    3    3    0    0  0.17892951662E+02 -0.98158348579E+01 -0.83936467267E+00  0.20425789243E+02  0.00000000000E+00 0. -1.
        -12    1    3    3    0    0  0.27107374887E+02  0.55628200695E+02  0.19168717324E+02  0.64782298583E+02  0.00000000000E+00 0.  1.
        -13    1    4    4    0    0  0.21662811314E+02 -0.20463350563E+02 -0.64336630969E+02  0.70902949126E+02  0.00000000000E+00 0.  1.
         13    1    4    4    0    0 -0.56603702907E+02  0.17675247672E+02 -0.32253035045E+03  0.32793630560E+03  0.00000000000E+00 0. -1.
         21    1    1    2  502  501 -0.10059434955E+02 -0.43024262946E+02  0.41095585727E+02  0.60341748400E+02  0.00000000000E+00 0. -1.
<scales pt_clust_5="13000.00000" pt_clust_6="13000.00000" pt_clust_7="13000.00000" pt_clust_8="13000.00000" pt_clust_9="44.18461"></scales>
<clustering>
<clus scale="   44.185">  1  9  2 -1</clus>
<clus scale="   52.921">  5  6 -1 -1</clus>
<clus scale="   64.405">  1  5  2 -1</clus>
<clus scale="   90.433">  7  8 -1 -1</clus>
<clus scale="   97.598">  2  5  1 -1</clus>
</clustering>
</event>
<event>
 9    1  0.2802611E-005  0.9881176E+02  0.7546771E-02  0.1290516E+00
          1   -1    0    0  502    0  0.00000000000E+00  0.00000000000E+00  0.34833035277E+03  0.34833035277E+03  0.00000000000E+00 0. -1.
         -2   -1    0    0    0  501 -0.00000000000E+00 -0.00000000000E+00 -0.52507369941E+02  0.52507369941E+02  0.00000000000E+00 0.  1.
         23    2    1    2    0    0  0.36680547332E+02  0.29448406438E+00  0.16076388315E+03  0.19002831860E+03  0.94446738810E+02 0.  0.
        -24    2    1    2    0    0 -0.17696820790E+02  0.23367484801E+02  0.15319102929E+03  0.17546767926E+03  0.80387798809E+02 0.  0.
         11    1    4    4    0    0 -0.29946119249E+02 -0.19677698216E+02  0.98402830265E+02  0.10472391737E+03  0.00000000000E+00 0. -1.
        -12    1    4    4    0    0  0.12249298459E+02  0.43045183017E+02  0.54788199024E+02  0.70743761888E+02  0.00000000000E+00 0.  1.
        -11    1    3    3    0    0  0.58442797483E+02  0.28815379470E+02  0.11035809236E+03  0.12815925726E+03  0.00000000000E+00 0. -1.
         11    1    3    3    0    0 -0.21762250151E+02 -0.28520895406E+02  0.50405790788E+02  0.61869061342E+02  0.00000000000E+00 0.  1.
         21    1    1    2  502  501 -0.18983726542E+02 -0.23661968866E+02 -0.18131929610E+02  0.35341724850E+02  0.00000000000E+00 0. -1.
<scales pt_clust_5="13000.00000" pt_clust_6="13000.00000" pt_clust_7="13000.00000" pt_clust_8="13000.00000" pt_clust_9="30.33596"></scales>
<clustering>
<clus scale="   30.336">  2  9  1 -1</clus>
<clus scale="   80.388">  5  6 -1 -1</clus>
<clus scale="   85.474">  1  5  2 -1</clus>
<clus scale="   94.447">  7  8 -1 -1</clus>
<clus scale="   85.474">  1  5  2 -1</clus>
</clustering>
</event>
<event>
 9    1  0.2802611E-005  0.1502266E+03  0.7546771E-02  0.1202061E+00
          1   -1    0    0  502    0  0.00000000000E+00  0.00000000000E+00  0.30456518097E+03  0.30456518097E+03  0.00000000000E+00 0. -1.
         -2   -1    0    0    0  501 -0.00000000000E+00 -0.00000000000E+00 -0.60027353130E+03  0.60027353130E+03  0.00000000000E+00 0.  1.
         23    2    1    2    0    0  0.18972719600E+02  0.18229547858E+03 -0.37129397445E+03  0.42366891840E+03  0.89691311446E+02 0.  0.
        -24    2    1    2    0    0  0.18689170361E+02 -0.11635345265E+03  0.25190306940E+03  0.28919424791E+03  0.79314220814E+02 0.  0.
         11    1    4    4    0    0  0.40832691575E+02 -0.10964014724E+03  0.22580930404E+03  0.25431891865E+03  0.00000000000E+00 0. -1.
        -12    1    4    4    0    0 -0.22143521214E+02 -0.67133054040E+01  0.26093765351E+02  0.34875329266E+02  0.00000000000E+00 0.  1.
        -13    1    3    3    0    0  0.67868086561E+01  0.56307348124E+02 -0.21601672156E+03  0.22333786562E+03  0.00000000000E+00 0.  1.
         13    1    3    3    0    0  0.12185910944E+02  0.12598813046E+03 -0.15527725289E+03  0.20033105278E+03  0.00000000000E+00 0. -1.
         21    1    1    2  502  501 -0.37661889961E+02 -0.65942025935E+02 -0.17631744528E+03  0.19197554597E+03  0.00000000000E+00 0.  1.
<scales pt_clust_5="13000.00000" pt_clust_6="13000.00000" pt_clust_7="13000.00000" pt_clust_8="13000.00000" pt_clust_9="75.93924"></scales>
<clustering>
<clus scale="   75.939">  2  9  1 -1</clus>
<clus scale="   79.314">  5  6 -1 -1</clus>
<clus scale="   89.691">  7  8 -1 -1</clus>
<clus scale="  144.271">  1  5  2 -1</clus>
<clus scale="  144.271">  1  5  2 -1</clus>
</clustering>
</event>
<event>
 9    1  0.2802611E-005  0.1709697E+03  0.7546771E-02  0.1177650E+00
          3   -1    0    0  502    0  0.00000000000E+00  0.00000000000E+00  0.67840398618E+02  0.67840398618E+02  0.00000000000E+00 0. -1.
         -4   -1    0    0    0  501 -0.00000000000E+00 -0.00000000000E+00 -0.75509625165E+03  0.75509625165E+03  0.00000000000E+00 0.  1.
        -24    2    1    2    0    0  0.10161028128E+03 -0.64654380785E+02 -0.45404825128E+03  0.47661640115E+03  0.80613529519E+02 0.  0.
         23    2    1    2    0    0 -0.12160768271E+03  0.97627081156E+02 -0.93760063972E+02  0.20163883764E+03  0.86878051186E+02 0.  0.
         11    1    3    3    0    0  0.71942796060E+01 -0.43612225033E+02 -0.95235129010E+02  0.10499292180E+03  0.00000000000E+00 0. -1.
        -12    1    3    3    0    0  0.94416001674E+02 -0.21042155753E+02 -0.35881312227E+03  0.37162347935E+03  0.00000000000E+00 0.  1.
        -11    1    4    4    0    0  0.51961818161E+01  0.22976006425E+02  0.54411370525E+01  0.24176499935E+02  0.00000000000E+00 0.  1.
         11    1    4    4    0    0 -0.12680386453E+03  0.74651074731E+02 -0.99201201024E+02  0.17746233770E+03  0.00000000000E+00 0. -1.
         21    1    1    2  502  501  0.19997401433E+02 -0.32972700370E+02 -0.13944753778E+03  0.14468141148E+03  0.00000000000E+00 0.  1.
<scales pt_clust_5="13000.00000" pt_clust_6="13000.00000" pt_clust_7="13000.00000" pt_clust_8="13000.00000" pt_clust_9="38.56287"></scales>
<clustering>
<clus scale="   38.563">  2  9  1 -1</clus>
<clus scale="   80.614">  5  6 -1 -1</clus>
<clus scale="   86.878">  7  8 -1 -1</clus>
<clus scale="  167.873">  2  5  1 -1</clus>
<clus scale="  170.970">  1  5  2 -1</clus>
</clustering>
</event>
<event>
 9    1  0.2802611E-005  0.1372627E+03  0.7546771E-02  0.1221083E+00
         -2   -1    0    0    0  501 -0.00000000000E+00  0.00000000000E+00  0.84995096649E+02  0.84995096649E+02  0.00000000000E+00 0.  1.
          1   -1    0    0  502    0  0.00000000000E+00 -0.00000000000E+00 -0.69907598519E+03  0.69907598519E+03  0.00000000000E+00 0. -1.
         23    2    1    2    0    0 -0.85179294811E+02 -0.53910265966E+02 -0.19408594790E+02  0.13751807803E+03  0.91502454572E+02 0.  0.
        -24    2    1    2    0    0  0.51920827378E+02  0.68171619733E+02 -0.59489238605E+03  0.61036515629E+03  0.10632747048E+03 0.  0.
         13    1    4    4    0    0  0.30974305111E+02  0.93155815199E+02 -0.51131171485E+03  0.52065063452E+03  0.00000000000E+00 0. -1.
        -14    1    4    4    0    0  0.20946522267E+02 -0.24984195467E+02 -0.83580671198E+02  0.89714521769E+02  0.00000000000E+00 0.  1.
        -13    1    3    3    0    0 -0.30214957410E+02 -0.55478147090E+02 -0.44302497035E+02  0.77158795347E+02  0.00000000000E+00 0. -1.
         13    1    3    3    0    0 -0.54964337401E+02  0.15678811247E+01  0.24893902245E+02  0.60359282684E+02  0.00000000000E+00 0.  1.
         21    1    1    2  502  501  0.33258467433E+02 -0.14261353767E+02  0.22009230102E+00  0.36187847517E+02  0.00000000000E+00 0.  1.
<scales pt_clust_5="13000.00000" pt_clust_6="13000.00000" pt_clust_7="13000.00000" pt_clust_8="13000.00000" pt_clust_9="36.18718"></scales>
<clustering>
<clus scale="   36.187">  1  9  2 -1</clus>
<clus scale="   91.502">  7  8 -1 -1</clus>
<clus scale="  106.327">  5  6 -1 -1</clus>
<clus scale="  126.128">  1  7  2 -1</clus>
<clus scale="  137.263">  2  5  1 -1</clus>
</clustering>
</event>
<event>
 9    1  0.2802611E-005  0.9608834E+02  0.7546771E-02  0.1296321E+00
         -2   -1    0    0    0  501 -0.00000000000E+00  0.00000000000E+00  0.23604354167E+03  0.23604354167E+03  0.00000000000E+00 0.  1.
          1   -1    0    0  502    0  0.00000000000E+00 -0.00000000000E+00 -0.20112772536E+03  0.20112772536E+03  0.00000000000E+00 0. -1.
        -24    2    1    2    0    0  0.32269117277E+02 -0.75306988740E+01  0.17373374185E+03  0.19335143718E+03  0.78123990217E+02 0.  0.
         23    2    1    2    0    0 -0.25467564167E+02 -0.15035583837E+02 -0.17555168542E+03  0.20017504374E+03  0.91525888558E+02 0.  0.
         13    1    3    3    0    0  0.22487605119E+01 -0.26044821437E+02  0.13772236292E+02  0.29547658791E+02  0.00000000000E+00 0. -1.
        -14    1    3    3    0    0  0.30020356765E+02  0.18514122563E+02  0.15996150556E+03  0.16380377839E+03  0.00000000000E+00 0.  1.
        -13    1    4    4    0    0 -0.19056946389E+02 -0.51006319758E+02 -0.71349829370E+02  0.89753050155E+02  0.00000000000E+00 0.  1.
         13    1    4    4    0    0 -0.64106177782E+01  0.35970735921E+02 -0.10420185605E+03  0.11042199358E+03  0.00000000000E+00 0. -1.
         21    1    1    2  502  501 -0.68015531101E+01  0.22566282711E+02  0.36733759877E+02  0.43644786112E+02  0.00000000000E+00 0. -1.
<scales pt_clust_5="13000.00000" pt_clust_6="13000.00000" pt_clust_7="13000.00000" pt_clust_8="13000.00000" pt_clust_9="23.56901"></scales>
<clustering>
<clus scale="   23.569">  1  9  2 -1</clus>
<clus scale="   78.124">  5  6 -1 -1</clus>
<clus scale="   83.423">  1  5  2 -1</clus>
<clus scale="   91.526">  7  8 -1 -1</clus>
<clus scale="   96.088">  2  5  1 -1</clus>
</clustering>
</event>
<event>
 9    1  0.2802611E-005  0.1504030E+03  0.7546771E-02  0.1202138E+00
          1   -1    0    0  502    0  0.00000000000E+00  0.00000000000E+00  0.33754656439E+03  0.33754656439E+03  0.00000000000E+00 0. -1.
         -2   -1    0    0    0  501 -0.00000000000E+00 -0.00000000000E+00 -0.12205712447E+03  0.12205712447E+03  0.00000000000E+00 0.  1.
         23    2    1    2    0    0  0.11765122615E+03  0.92734506888E+02  0.14822299329E+03  0.23002393926E+03  0.92192500287E+02 0.  0.
        -24    2    1    2    0    0 -0.96828004766E+02 -0.19286528250E+02  0.82458320720E+02  0.15174013788E+03  0.80486409476E+02 0.  0.
         13    1    4    4    0    0 -0.21046277336E+02  0.11835688001E+02 -0.11783870746E+02  0.26867990434E+02  0.00000000000E+00 0. -1.
        -14    1    4    4    0    0 -0.75781727429E+02 -0.31122216252E+02  0.94242191467E+02  0.12487214745E+03  0.00000000000E+00 0.  1.
        -13    1    3    3    0    0  0.58938144615E+02  0.99418611774E+01  0.13379279259E+02  0.61249902921E+02  0.00000000000E+00 0.  1.
         13    1    3    3    0    0  0.58713081530E+02  0.82792645711E+02  0.13484371403E+03  0.16877403633E+03  0.00000000000E+00 0. -1.
         21    1    1    2  502  501 -0.20823221379E+02 -0.73447978637E+02 -0.15191874083E+02  0.77839611720E+02  0.00000000000E+00 0.  1.
<scales pt_clust_5="13000.00000" pt_clust_6="13000.00000" pt_clust_7="13000.00000" pt_clust_8="13000.00000" pt_clust_9="76.34273"></scales>
<clustering>
<clus scale="   76.343">  2  9  1 -1</clus>
<clus scale="   80.486">  5  6 -1 -1</clus>
<clus scale="   92.193">  7  8 -1 -1</clus>
<clus scale="  143.526">  1  5  2 -1</clus>
<clus scale="  143.526">  1  5  2 -1</clus>
</clustering>
</event>
<event>
 9    1  0.2802611E-005  0.1641733E+03  0.7546771E-02  0.1186524E+00
          1   -1    0    0  502    0  0.00000000000E+00  0.00000000000E+00  0.11793884291E+03  0.11793884291E+03  0.00000000000E+00 0. -1.
         -2   -1    0    0    0  501 -0.00000000000E+00 -0.00000000000E+00 -0.42229162697E+03  0.42229162697E+03  0.00000000000E+00 0.  1.
        -24    2    1    2    0    0  0.70355951474E+02 -0.84198396536E+02 -0.17925968070E+03  0.22511491693E+03  0.80643430087E+02 0.  0.
         23    2    1    2    0    0 -0.84054960807E+02  0.11443052849E+03  0.13912689542E+02  0.17220209969E+03  0.96438674394E+02 0.  0.
         11    1    3    3    0    0  0.60041903229E+02 -0.21587705681E+02 -0.49794503253E+02  0.80935478835E+02  0.00000000000E+00 0. -1.
        -12    1    3    3    0    0  0.10314048244E+02 -0.62610690855E+02 -0.12946517744E+03  0.14417943810E+03  0.00000000000E+00 0.  1.
        -11    1    4    4    0    0 -0.24232975729E+02 -0.13570030714E+02 -0.87211758421E+01  0.29110852862E+02  0.00000000000E+00 0.  1.
         11    1    4    4    0    0 -0.59821985078E+02  0.12800055920E+03  0.22633865384E+02  0.14309124682E+03  0.00000000000E+00 0. -1.
         21    1    1    2  502  501  0.13699009334E+02 -0.30232131955E+02 -0.13900579291E+03  0.14291345326E+03  0.00000000000E+00 0. -1.
<scales pt_clust_5="13000.00000" pt_clust_6="13000.00000" pt_clust_7="13000.00000" pt_clust_8="13000.00000" pt_clust_9="33.19103"></scales>
<clustering>
<clus scale="   33.191">  2  9  1 -1</clus>
<clus scale="   80.643">  5  6 -1 -1</clus>
<clus scale="   96.439">  7  8 -1 -1</clus>
<clus scale="  155.421">  2  5  1 -1</clus>
<clus scale="  164.173">  1  5  2 -1</clus>
</clustering>
</event>
<event>
 9    1  0.2802611E-005  0.1437040E+03  0.7546771E-02  0.1210959E+00
          1   -1    0    0  502    0  0.00000000000E+00  0.00000000000E+00  0.81215468799E+03  0.81215468799E+03  0.00000000000E+00 0. -1.
         -2   -1    0    0    0  501 -0.00000000000E+00 -0.00000000000E+00 -0.40495404776E+02  0.40495404776E+02  0.00000000000E+00 0.  1.
         23    2    1    2    0    0  0.74450879282E+02 -0.57944505536E+02  0.14997395616E+03  0.19987451814E+03  0.92504790825E+02 0.  0.
        -24    2    1    2    0    0 -0.99912306424E+02  0.57388431076E+02  0.60771702226E+03  0.62372893920E+03  0.80261506688E+02 0.  0.
         11    1    4    4    0    0 -0.39032433161E+02  0.62941945735E+02  0.24687119794E+03  0.25774135823E+03  0.00000000000E+00 0. -1.
        -12    1    4    4    0    0 -0.60879873263E+02 -0.55535146592E+01  0.36084582432E+03  0.36598758097E+03  0.00000000000E+00 0.  1.
        -11    1    3    3    0    0  0.23106766103E+02 -0.64864162461E+02  0.12419743434E+03  0.14200804522E+03  0.00000000000E+00 0. -1.
         11    1    3    3    0    0  0.51344113180E+02  0.69196569257E+01  0.25776521824E+02  0.57866472914E+02  0.00000000000E+00 0.  1.
         21    1    1    2  502  501  0.25461427142E+02  0.55607445962E+00  0.13968304790E+02  0.29046635427E+02  0.00000000000E+00 0.  1.
<scales pt_clust_5="13000.00000" pt_clust_6="13000.00000" pt_clust_7="13000.00000" pt_clust_8="13000.00000" pt_clust_9="25.46750"></scales>
<clustering>
<clus scale="   25.467">  2  9  1 -1</clus>
<clus scale="   80.262">  5  6 -1 -1</clus>
<clus scale="   92.505">  7  8 -1 -1</clus>
<clus scale="  136.146">  1  5  2 -1</clus>
<clus scale="  136.146">  1  5  2 -1</clus>
</clustering>
</event>
<event>
 9    1  0.2802611E-005  0.1393667E+03  0.7546771E-02  0.1216487E+00
          3   -1    0    0  502    0  0.00000000000E+00  0.00000000000E+00  0.15548054510E+03  0.15548054510E+03  0.00000000000E+00 0. -1.
         -4   -1    0    0    0  501 -0.00000000000E+00 -0.00000000000E+00 -0.23682667038E+03  0.23682667038E+03  0.00000000000E+00 0.  1.
         23    2    1    2    0    0  0.33394629932E+02 -0.77376920852E+02 -0.62777211752E+02  0.13904159969E+03  0.91045037970E+02 0.  0.
        -24    2    1    2    0    0 -0.73749245169E+02  0.89473714027E+02  0.68220801386E+02  0.15679136020E+03  0.80529225919E+02 0.  0.
         11    1    4    4    0    0 -0.98833888871E+00  0.50346582907E+02  0.52403846918E+02  0.72676807827E+02  0.00000000000E+00 0. -1.
        -12    1    4    4    0    0 -0.72760906280E+02  0.39127131120E+02  0.15816954469E+02  0.84114552374E+02  0.00000000000E+00 0.  1.
        -11    1    3    3    0    0 -0.83866081447E+01 -0.23679549577E+02 -0.66313750212E+02  0.70912408869E+02  0.00000000000E+00 0.  1.
         11    1    3    3    0    0  0.41781238077E+02 -0.53697371275E+02  0.35365384605E+01  0.68129190817E+02  0.00000000000E+00 0. -1.
         21    1    1    2  502  501  0.40354615237E+02 -0.12096793175E+02 -0.86789714921E+02  0.96474255593E+02  0.00000000000E+00 0.  1.
<scales pt_clust_5="13000.00000" pt_clust_6="13000.00000" pt_clust_7="13000.00000" pt_clust_8="13000.00000" pt_clust_9="42.12870"></scales>
<clustering>
<clus scale="   42.129">  2  9  1 -1</clus>
<clus scale="   80.529">  5  6 -1 -1</clus>
<clus scale="   91.045">  7  8 -1 -1</clus>
<clus scale="  132.736">  1  5  2 -1</clus>
<clus scale="  132.736">  1  5  2 -1</clus>
</clustering>
</event>
<event>
 9    1  0.2802611E-005  0.1186155E+03  0.7546771E-02  0.1247996E+00
         -2   -1    0    0    0  501 -0.00000000000E+00  0.00000000000E+00  0.69850287184E+02  0.69850287184E+02  0.00000000000E+00 0.  1.
          1   -1    0    0  502    0  0.00000000000E+00 -0.00000000000E+00 -0.54344620942E+03  0.54344620942E+03  0.00000000000E+00 0. -1.
        -24    2    1    2    0    0  0.45215533702E+02 -0.47747207965E+01  0.48954594875E+01  0.92492470208E+02  0.80396822543E+02 0.  0.
         23    2    1    2    0    0 -0.84269305368E+02  0.15462205117E+01 -0.46263273016E+03  0.47852971830E+03  0.88645031768E+02 0.  0.
         13    1    3    3    0    0  0.15812609291E+02 -0.41294845540E+02 -0.52270715608E+01  0.44526679169E+02  0.00000000000E+00 0. -1.
        -14    1    3    3    0    0  0.29402924411E+02  0.36520124743E+02  0.10122531048E+02  0.47965791039E+02  0.00000000000E+00 0.  1.
        -13    1    4    4    0    0 -0.58595412719E+02 -0.36613209878E+02 -0.19282918316E+03  0.20483418515E+03  0.00000000000E+00 0.  1.
         13    1    4    4    0    0 -0.25673892649E+02  0.38159430389E+02 -0.26980354700E+03  0.27369553315E+03  0.00000000000E+00 0. -1.
         21    1    1    2  502  501  0.39053771665E+02  0.32285002848E+01 -0.15858651563E+02  0.42274308093E+02  0.00000000000E+00 0.  1.
<scales pt_clust_5="13000.00000" pt_clust_6="13000.00000" pt_clust_7="13000.00000" pt_clust_8="13000.00000" pt_clust_9="39.18699"></scales>
<clustering>
<clus scale="   39.187">  1  9  2 -1</clus>
<clus scale="   80.397">  5  6 -1 -1</clus>
<clus scale="   88.645">  7  8 -1 -1</clus>
<clus scale="  112.585">  1  5  2 -1</clus>
<clus scale="  118.616">  2  5  1 -1</clus>
</clustering>
</event>
<event>
 9    1  0.2802611E-005  0.9487694E+02  0.7546771E-02  0.1299422E+00
         -2   -1    0    0    0  501 -0.00000000000E+00  0.00000000000E+00  0.56216118346E+03  0.56216118346E+03  0.00000000000E+00 0.  1.
          1   -1    0    0  502    0  0.00000000000E+00 -0.00000000000E+00 -0.30656983951E+02  0.30656983951E+02  0.00000000000E+00 0. -1.
        -24    2    1    2    0    0  0.54009749336E+01  0.18503154684E+02  0.35453139131E+03  0.36331821195E+03  0.77045950228E+02 0.  0.
         23    2    1    2    0    0 -0.26332046672E+02 -0.15948682652E+02  0.65627188674E+02  0.11617527995E+03  0.90785630023E+02 0.  0.
         11    1    3    3    0    0  0.23578379723E+02 -0.22195049234E+02  0.19528224410E+03  0.19794876878E+03  0.00000000000E+00 0. -1.
        -12    1    3    3    0    0 -0.18177404789E+02  0.40698203919E+02  0.15924914722E+03  0.16536944317E+03  0.00000000000E+00 0.  1.
        -11    1    4    4    0    0 -0.83650881879E+01  0.37846416427E+02  0.31815657186E+02  0.50145408353E+02  0.00000000000E+00 0.  1.
         11    1    4    4    0    0 -0.17966958484E+02 -0.53795099078E+02  0.33811531488E+02  0.66029871600E+02  0.00000000000E+00 0. -1.
         21    1    1    2  502  501  0.20931071738E+02 -0.25544720327E+01  0.11134561953E+03  0.11332467551E+03  0.00000000000E+00 0. -1.
<scales pt_clust_5="13000.00000" pt_clust_6="13000.00000" pt_clust_7="13000.00000" pt_clust_8="13000.00000" pt_clust_9="21.08637"></scales>
<clustering>
<clus scale="   21.086">  1  9  2 -1</clus>
<clus scale="   77.046">  5  6 -1 -1</clus>
<clus scale="   81.827">  1  5  2 -1</clus>
<clus scale="   90.786">  7  8 -1 -1</clus>
<clus scale="   94.877">  2  5  1 -1</clus>
</clustering>
</event>
<event>
 9    1  0.2802611E-005  0.1012351E+03  0.7546771E-02  0.1283176E+00
         -2   -1    0    0    0  501 -0.00000000000E+00  0.00000000000E+00  0.18116320615E+03  0.18116320615E+03  0.00000000000E+00 0.  1.
          1   -1    0    0  502    0  0.00000000000E+00 -0.00000000000E+00 -0.63849269933E+03  0.63849269933E+03  0.00000000000E+00 0. -1.
        -24    2    1    2    0    0  0.88672907635E+01  0.78998562775E+01 -0.88894075596E+02  0.12080446742E+03  0.80935320453E+02 0.  0.
         23    2    1    2    0    0 -0.44437797191E+02 -0.27428026383E+02 -0.52579808177E+03  0.53634107398E+03  0.92038635358E+02 0.  0.
         11    1    3    3    0    0  0.10073427148E+02 -0.31362716735E+02 -0.13126741344E+02  0.35459910798E+02  0.00000000000E+00 0. -1.
        -12    1    3    3    0    0 -0.12061363841E+01  0.39262573013E+02 -0.75767334252E+02  0.85344556617E+02  0.00000000000E+00 0.  1.
        -13    1    4    4    0    0 -0.71436558603E+02 -0.31234832807E+02 -0.41295299149E+03  0.42024870002E+03  0.00000000000E+00 0. -1.
         13    1    4    4    0    0  0.26998761412E+02  0.38068064241E+01 -0.11284509027E+03  0.11609237396E+03  0.00000000000E+00 0.  1.
         21    1    1    2  502  501  0.35570506428E+02  0.19528170106E+02  0.15736266418E+03  0.16251036408E+03  0.00000000000E+00 0.  1.
<scales pt_clust_5="13000.00000" pt_clust_6="13000.00000" pt_clust_7="13000.00000" pt_clust_8="13000.00000" pt_clust_9="40.57845"></scales>
<clustering>
<clus scale="   40.578">  1  9  2 -1</clus>
<clus scale="   80.935">  5  6 -1 -1</clus>
<clus scale="   91.258">  1  5  2 -1</clus>
<clus scale="   92.039">  7  8 -1 -1</clus>
<clus scale="  101.235">  2  5  1 -1</clus>
</clustering>
</event>
<event>
 9    1  0.2802611E-005  0.1231145E+03  0.7546771E-02  0.1240699E+00
          3   -1    0    0  502    0  0.00000000000E+00  0.00000000000E+00  0.31450119079E+02  0.31450119079E+02  0.00000000000E+00 0. -1.
         -4   -1    0    0    0  501 -0.00000000000E+00 -0.00000000000E+00 -0.77622856730E+03  0.77622856730E+03  0.00000000000E+00 0.  1.
        -24    2    1    2    0    0 -0.59323914931E+02  0.77036593509E+02 -0.52715993623E+03  0.54228388875E+03  0.81977155386E+02 0.  0.
         23    2    1    2    0    0  0.30170352613E+02 -0.46541565972E+02 -0.17846415646E+03  0.20783664914E+03  0.90940915140E+02 0.  0.
         13    1    3    3    0    0 -0.84939884619E+01  0.72808549980E+02 -0.25235695690E+03  0.26278749302E+03  0.00000000000E+00 0. -1.
        -14    1    3    3    0    0 -0.50829926469E+02  0.42280435287E+01 -0.27480297933E+03  0.27949639573E+03  0.00000000000E+00 0.  1.
        -11    1    4    4    0    0 -0.11891419538E+02 -0.49679480796E+02 -0.14579718848E+03  0.15448714134E+03  0.00000000000E+00 0.  1.
         11    1    4    4    0    0  0.42061772151E+02  0.31379148237E+01 -0.32666967979E+02  0.53349507803E+02  0.00000000000E+00 0. -1.
         21    1    1    2  502  501  0.29153562319E+02 -0.30495027537E+02 -0.39154355531E+02  0.57558148489E+02  0.00000000000E+00 0. -1.
<scales pt_clust_5="13000.00000" pt_clust_6="13000.00000" pt_clust_7="13000.00000" pt_clust_8="13000.00000" pt_clust_9="42.18859"></scales>
<clustering>
<clus scale="   42.189">  1  9  2 -1</clus>
<clus scale="   81.977">  5  6 -1 -1</clus>
<clus scale="   90.941">  7  8 -1 -1</clus>
<clus scale="  116.650">  2  5  1 -1</clus>
<clus scale="   42.189">  1  5  2 -1</clus>
</clustering>
</event>
<event>
 9    1  0.2802611E-005  0.1189099E+03  0.7546771E-02  0.1245134E+00
          1   -1    0    0  502    0  0.00000000000E+00  0.00000000000E+00  0.46769275848E+03  0.46769275848E+03  0.00000000000E+00 0. -1.
         -2   -1    0    0    0  501 -0.00000000000E+00 -0.00000000000E+00 -0.10278239543E+03  0.10278239543E+03  0.00000000000E+00 0.  1.
         23    2    1    2    0    0 -0.69686663634E+02  0.94574455090E+02  0.48644137207E+01  0.14978156235E+03  0.92791676653E+02 0.  0.
        -24    2    1    2    0    0  0.32109820071E+02 -0.61109022466E+02  0.35123265253E+03  0.36960906793E+03  0.92093070981E+02 0.  0.
         11    1    4    4    0    0  0.17172100302E+01 -0.55016958770E+02  0.32308027213E+03  0.32773568131E+03  0.00000000000E+00 0. -1.
        -12    1    4    4    0    0  0.30392610040E+02 -0.60920636967E+01  0.28152380397E+02  0.41873386621E+02  0.00000000000E+00 0.  1.
        -11    1    3    3    0    0 -0.35017168393E+02 -0.96919187164E+01 -0.12736898068E+02  0.38501479752E+02  0.00000000000E+00 0. -1.
         11    1    3    3    0    0 -0.34669495241E+02  0.10426637381E+03  0.17601311789E+02  0.11128008260E+03  0.00000000000E+00 0.  1.
         21    1    1    2  502  501  0.37576843564E+02 -0.33465432624E+02  0.88132968020E+01  0.51084523619E+02  0.00000000000E+00 0. -1.
<scales pt_clust_5="13000.00000" pt_clust_6="13000.00000" pt_clust_7="13000.00000" pt_clust_8="13000.00000" pt_clust_9="50.31853"></scales>
<clustering>
<clus scale="   50.319">  2  9  1 -1</clus>
<clus scale="   92.093">  5  6 -1 -1</clus>
<clus scale="   92.792">  7  8 -1 -1</clus>
<clus scale="  118.366">  1  5  2 -1</clus>
<clus scale="  118.366">  1  5  2 -1</clus>
</clustering>
</event>
<event>
 9    1  0.2802611E-005  0.1084027E+03  0.7546771E-02  0.1267730E+00
         -2   -1    0    0    0  501 -0.00000000000E+00  0.00000000000E+00  0.55168472558E+02  0.55168472558E+02  0.00000000000E+00 0.  1.
          1   -1    0    0  502    0  0.00000000000E+00 -0.00000000000E+00 -0.57084296192E+03  0.57084296192E+03  0.00000000000E+00 0. -1.
        -24    2    1    2    0    0 -0.98066120666E+02  0.17106660086E+02 -0.69060269438E+02  0.14599539074E+03  0.81459999143E+02 0.  0.
         23    2    1    2    0    0  0.44929968752E+02 -0.23974026088E+02 -0.38175092181E+03  0.39588603245E+03  0.91643485167E+02 0.  0.
         13    1    3    3    0    0  0.16297207049E+01 -0.20873835507E+02 -0.18482646667E+02  0.27928143980E+02  0.00000000000E+00 0. -1.
        -14    1    3    3    0    0 -0.99695841371E+02  0.37980495593E+02 -0.50577622771E+02  0.11806724676E+03  0.00000000000E+00 0.  1.
        -13    1    4    4    0    0  0.90879007389E+01 -0.55764338527E+02 -0.18852816592E+03  0.19681239986E+03  0.00000000000E+00 0. -1.
         13    1    4    4    0    0  0.35842068013E+02  0.31790312439E+02 -0.19322275588E+03  0.19907363260E+03  0.00000000000E+00 0.  1.
         21    1    1    2  502  501  0.53136151915E+02  0.68673660023E+01 -0.64863298117E+02  0.84130011284E+02  0.00000000000E+00 0. -1.
<scales pt_clust_5="13000.00000" pt_clust_6="13000.00000" pt_clust_7="13000.00000" pt_clust_8="13000.00000" pt_clust_9="53.57809"></scales>
<clustering>
<clus scale="   53.578">  1  9  2 -1</clus>
<clus scale="   81.460">  5  6 -1 -1</clus>
<clus scale="   91.643">  7  8 -1 -1</clus>
<clus scale="   99.942">  1  5  2 -1</clus>
<clus scale="  108.403">  2  5  1 -1</clus>
</clustering>
</event>
<event>
 9    1  0.2802611E-005  0.9061247E+02  0.7546771E-02  0.1307102E+00
         -2   -1    0    0    0  501 -0.00000000000E+00  0.00000000000E+00  0.93342858793E+02  0.93342858793E+02  0.00000000000E+00 0.  1.
          1   -1    0    0  502    0  0.00000000000E+00 -0.00000000000E+00 -0.25401864976E+03  0.25401864976E+03  0.00000000000E+00 0. -1.
         23    2    1    2    0    0 -0.51270487798E+01  0.11322455255E+02  0.12123550676E+02  0.91017428379E+02  0.89345996920E+02 0.  0.
        -24    2    1    2    0    0 -0.17372163657E+02 -0.36728543735E+01 -0.20237522324E+03  0.21840381493E+03  0.80182376269E+02 0.  0.
         11    1    4    4    0    0 -0.26412308687E+02 -0.38158183303E+02 -0.11006466420E+03  0.11944826206E+03  0.00000000000E+00 0. -1.
        -12    1    4    4    0    0  0.90401450299E+01  0.34485328929E+02 -0.92310559040E+02  0.98955552870E+02  0.00000000000E+00 0.  1.
        -11    1    3    3    0    0  0.34103690112E+02 -0.91852761301E+01 -0.15785872703E+02  0.38686234681E+02  0.00000000000E+00 0.  1.
         11    1    3    3    0    0 -0.39230738892E+02  0.20507731385E+02  0.27909423378E+02  0.52331193698E+02  0.00000000000E+00 0. -1.
         21    1    1    2  502  501  0.22499212436E+02 -0.76496008818E+01  0.29575881604E+02  0.37940265241E+02  0.00000000000E+00 0. -1.
<scales pt_clust_5="13000.00000" pt_clust_6="13000.00000" pt_clust_7="13000.00000" pt_clust_8="13000.00000" pt_clust_9="23.76407"></scales>
<clustering>
<clus scale="   23.764">  1  9  2 -1</clus>
<clus scale="   80.182">  5  6 -1 -1</clus>
<clus scale="   81.591">  2  5  1 -1</clus>
<clus scale="   89.346">  7  8 -1 -1</clus>
<clus scale="   81.591">  2  5  1 -1</clus>
</clustering>
</event>
<event>
 9    1  0.2802611E-005  0.9813637E+02  0.7546771E-02  0.1286676E+00
         -2   -1    0    0    0  501 -0.00000000000E+00  0.00000000000E+00  0.30709086075E+03  0.30709086075E+03  0.00000000000E+00 0.  1.
          1   -1    0    0  502    0  0.00000000000E+00 -0.00000000000E+00 -0.16881884661E+03  0.16881884661E+03  0.00000000000E+00 0. -1.
        -24    2    1    2    0    0  0.40457029855E+02  0.67060644832E+01  0.15307259377E+03  0.17893390300E+03  0.83092599627E+02 0.  0.
         23    2    1    2    0    0 -0.41846662731E+02  0.13925703998E+02 -0.13941561495E+03  0.17065673225E+03  0.87988284207E+02 0.  0.
         11    1    3    3    0    0  0.44675304142E+02  0.36193511125E+02  0.12675468129E+03  0.13918549592E+03  0.00000000000E+00 0. -1.
        -12    1    3    3    0    0 -0.42182742866E+01 -0.29487446641E+02  0.26317912487E+02  0.39748407076E+02  0.00000000000E+00 0.  1.
        -13    1    4    4    0    0 -0.29322147246E+02 -0.21934717933E+02 -0.13322875419E+02  0.38966898508E+02  0.00000000000E+00 0.  1.
         13    1    4    4    0    0 -0.12524515485E+02  0.35860421930E+02 -0.12609273953E+03  0.13168983375E+03  0.00000000000E+00 0. -1.
         21    1    1    2  502  501  0.13896328757E+01 -0.20631768481E+02  0.12461503531E+03  0.12631907210E+03  0.00000000000E+00 0. -1.
<scales pt_clust_5="13000.00000" pt_clust_6="13000.00000" pt_clust_7="13000.00000" pt_clust_8="13000.00000" pt_clust_9="20.67851"></scales>
<clustering>
<clus scale="   20.679">  1  9  2 -1</clus>
<clus scale="   83.093">  5  6 -1 -1</clus>
<clus scale="   87.988">  7  8 -1 -1</clus>
<clus scale="   93.772">  1  5  2 -1</clus>
<clus scale="   98.136">  2  5  1 -1</clus>
</clustering>
</event>
<event>
 9    1  0.2802611E-005  0.9534215E+02  0.7546771E-02  0.1298870E+00
         -2   -1    0    0    0  501 -0.00000000000E+00  0.00000000000E+00  0.10665972587E+03  0.10665972587E+03  0.00000000000E+00 0.  1.
          1   -1    0    0  502    0  0.00000000000E+00 -0.00000000000E+00 -0.14342900642E+03  0.14342900642E+03  0.00000000000E+00 0. -1.
        -24    2    1    2    0    0 -0.23328662100E+02 -0.26693159461E+02  0.38189048278E+02  0.96241729691E+02  0.80915486084E+02 0.  0.
         23    2    1    2    0    0 -0.15040975610E+01  0.13070250688E+01 -0.70151043777E+02  0.11801082310E+03  0.94875786171E+02 0.  0.
         13    1    3    3    0    0 -0.14756004174E+02  0.15869483357E+02 -0.15903824311E+02  0.26879579404E+02  0.00000000000E+00 0. -1.
        -14    1    3    3    0    0 -0.85726579262E+01 -0.42562642818E+02  0.54092872589E+02  0.69362150287E+02  0.00000000000E+00 0.  1.
        -11    1    4    4    0    0 -0.67556525152E+01 -0.43488014536E+02 -0.54982241735E+02  0.70426508897E+02  0.00000000000E+00 0.  1.
         11    1    4    4    0    0  0.52515549542E+01  0.44795039605E+02 -0.15168802042E+02  0.47584314202E+02  0.00000000000E+00 0. -1.
         21    1    1    2  502  501  0.24832759661E+02  0.25386134392E+02 -0.48072850429E+01  0.35836179502E+02  0.00000000000E+00 0.  1.
<scales pt_clust_5="13000.00000" pt_clust_6="13000.00000" pt_clust_7="13000.00000" pt_clust_8="13000.00000" pt_clust_9="35.51228"></scales>
<clustering>
<clus scale="   35.512">  1  9  2 -1</clus>
<clus scale="   80.915">  5  6 -1 -1</clus>
<clus scale="   81.462">  1  5  2 -1</clus>
<clus scale="   94.876">  7  8 -1 -1</clus>
<clus scale="   95.342">  2  5  1 -1</clus>
</clustering>
</event>
<event>
 9    1  0.2802611E-005  0.1067747E+03  0.7546771E-02  0.1272325E+00
          3   -1    0    0  502    0  0.00000000000E+00  0.00000000000E+00  0.17530537225E+03  0.17530537225E+03  0.00000000000E+00 0. -1.
         -4   -1    0    0    0  501 -0.00000000000E+00 -0.00000000000E+00 -0.16195956549E+03  0.16195956549E+03  0.00000000000E+00 0.  1.
        -24    2    1    2    0    0  0.13410703076E+02 -0.48088990109E+02 -0.80810646076E+02  0.12494094723E+03  0.81163303580E+02 0.  0.
         23    2    1    2    0    0 -0.36318046507E+02  0.36972202657E+02  0.12986231920E+03  0.16846925030E+03  0.93977242331E+02 0.  0.
         13    1    3    3    0    0  0.18617923251E+01  0.23043030438E+02 -0.17136903086E+02  0.28777091059E+02  0.00000000000E+00 0. -1.
        -14    1    3    3    0    0  0.11548910751E+02 -0.71132020547E+02 -0.63673742990E+02  0.96163856168E+02  0.00000000000E+00 0.  1.
        -11    1    4    4    0    0 -0.66393640138E+02  0.12175300519E+02  0.71912949463E+02  0.98629740413E+02  0.00000000000E+00 0.  1.
         11    1    4    4    0    0  0.30075593630E+02  0.24796902138E+02  0.57949369741E+02  0.69839509887E+02  0.00000000000E+00 0. -1.
         21    1    1    2  502  501  0.22907343431E+02  0.11116787452E+02 -0.35705866368E+02  0.43854740216E+02  0.00000000000E+00 0.  1.
<scales pt_clust_5="13000.00000" pt_clust_6="13000.00000" pt_clust_7="13000.00000" pt_clust_8="13000.00000" pt_clust_9="25.46231"></scales>
<clustering>
<clus scale="   25.462">  2  9  1 -1</clus>
<clus scale="   81.163">  5  6 -1 -1</clus>
<clus scale="   93.977">  7  8 -1 -1</clus>
<clus scale="   95.690">  2  5  1 -1</clus>
<clus scale="  106.775">  1  5  2 -1</clus>
</clustering>
</event>
<event>
 9    1  0.2802611E-005  0.9804979E+02  0.7546771E-02  0.1289178E+00
          1   -1    0    0  502    0  0.00000000000E+00  0.00000000000E+00  0.33044464665E+03  0.33044464665E+03  0.00000000000E+00 0. -1.
         -2   -1    0    0    0  501 -0.00000000000E+00 -0.00000000000E+00 -0.71464176176E+02  0.71464176176E+02  0.00000000000E+00 0.  1.
        -24    2    1    2    0    0  0.19919571280E+02  0.51855893841E+02  0.87292494415E+02  0.13247510286E+03  0.82727566448E+02 0.  0.
         23    2    1    2    0    0 -0.14894226892E+02 -0.20506265246E+02  0.20340257842E+03  0.22455756480E+03  0.91712300651E+02 0.  0.
         11    1    3    3    0    0  0.45267265251E+02  0.54996138892E+02  0.77121544532E+02  0.10498301399E+03  0.00000000000E+00 0. -1.
        -12    1    3    3    0    0 -0.25347693971E+02 -0.31402450507E+01  0.10170949883E+02  0.27492088865E+02  0.00000000000E+00 0.  1.
        -11    1    4    4    0    0 -0.96001336221E+01 -0.51505269285E+02  0.17321680305E+03  0.18096689252E+03  0.00000000000E+00 0.  1.
         11    1    4    4    0    0 -0.52940932702E+01  0.30999004038E+02  0.30185775373E+02  0.43590672280E+02  0.00000000000E+00 0. -1.
         21    1    1    2  502  501 -0.50253443875E+01 -0.31349628595E+02 -0.31714602365E+02  0.44876155165E+02  0.00000000000E+00 0.  1.
<scales pt_clust_5="13000.00000" pt_clust_6="13000.00000" pt_clust_7="13000.00000" pt_clust_8="13000.00000" pt_clust_9="31.74986"></scales>
<clustering>
<clus scale="   31.750">  2  9  1 -1</clus>
<clus scale="   82.728">  5  6 -1 -1</clus>
<clus scale="   89.702">  2  5  1 -1</clus>
<clus scale="   91.712">  7  8 -1 -1</clus>
<clus scale="   98.050">  1  5  2 -1</clus>
</clustering>
</event>
<event>
 9    1  0.2802611E-005  0.1689336E+03  0.7546771E-02  0.1180119E+00
          1   -1    0    0  502    0  0.00000000000E+00  0.00000000000E+00  0.18206598124E+03  0.18206598124E+03  0.00000000000E+00 0. -1.
         -2   -1    0    0    0  501 -0.00000000000E+00 -0.00000000000E+00 -0.39746853585E+03  0.39746853585E+03  0.00000000000E+00 0.  1.
        -24    2    1    2    0    0 -0.54163682767E+02  0.14440161979E+03 -0.23968832311E+03  0.29614168805E+03  0.80398226588E+02 0.  0.
         23    2    1    2    0    0  0.78420581475E+02 -0.11879529645E+03  0.10314655896E+03  0.19700356348E+03  0.88933016040E+02 0.  0.
         11    1    3    3    0    0 -0.23241614802E+02  0.11107313630E+03 -0.10734174204E+03  0.15620391753E+03  0.00000000000E+00 0. -1.
        -12    1    3    3    0    0 -0.30922067964E+02  0.33328483488E+02 -0.13234658107E+03  0.13993777053E+03  0.00000000000E+00 0.  1.
        -13    1    4    4    0    0  0.94896573546E+02 -0.10242242165E+03  0.10344868804E+03  0.17377382767E+03  0.00000000000E+00 0. -1.
         13    1    4    4    0    0 -0.16475992071E+02 -0.16372874795E+02 -0.30212907327E+00  0.23229735809E+02  0.00000000000E+00 0.  1.
         21    1    1    2  502  501 -0.24256898709E+02 -0.25606323343E+02 -0.78860790464E+02  0.86389265553E+02  0.00000000000E+00 0.  1.
<scales pt_clust_5="13000.00000" pt_clust_6="13000.00000" pt_clust_7="13000.00000" pt_clust_8="13000.00000" pt_clust_9="35.27153"></scales>
<clustering>
<clus scale="   35.272">  2  9  1 -1</clus>
<clus scale="   80.398">  5  6 -1 -1</clus>
<clus scale="   88.933">  7  8 -1 -1</clus>
<clus scale="  164.601">  2  5  1 -1</clus>
<clus scale="  168.934">  1  5  2 -1</clus>
</clustering>
</event>
<event>
 9    1  0.2802611E-005  0.1012908E+03  0.7546771E-02  0.1279926E+00
          1   -1    0    0  502    0  0.00000000000E+00  0.00000000000E+00  0.13565425574E+03  0.13565425574E+03  0.00000000000E+00 0. -1.
         -2   -1    0    0    0  501 -0.00000000000E+00 -0.00000000000E+00 -0.20443122492E+03  0.20443122492E+03  0.00000000000E+00 0.  1.
        -24    2    1    2    0    0 -0.56375103166E+02 -0.82879391836E+01 -0.11693440971E+03  0.15417002015E+03  0.82752019587E+02 0.  0.
         23    2    1    2    0    0  0.48627501831E+02 -0.11155653605E+02  0.92440360186E+02  0.13693530534E+03  0.87846315320E+02 0.  0.
         13    1    3    3    0    0 -0.27261687510E+02 -0.19199643431E+02 -0.17763870293E+00  0.33344526826E+02  0.00000000000E+00 0. -1.
        -14    1    3    3    0    0 -0.29113415656E+02  0.10911704247E+02 -0.11675677101E+03  0.12082549332E+03  0.00000000000E+00 0.  1.
        -11    1    4    4    0    0  0.66825030740E+02  0.94105432285E+01  0.41950577926E+02  0.79460644633E+02  0.00000000000E+00 0. -1.
         11    1    4    4    0    0 -0.18197528909E+02 -0.20566196833E+02  0.50489782260E+02  0.57474660706E+02  0.00000000000E+00 0.  1.
         21    1    1    2  502  501  0.77476013347E+01  0.19443592788E+02 -0.44282919655E+02  0.48980155167E+02  0.00000000000E+00 0. -1.
<scales pt_clust_5="13000.00000" pt_clust_6="13000.00000" pt_clust_7="13000.00000" pt_clust_8="13000.00000" pt_clust_9="20.93033"></scales>
<clustering>
<clus scale="   20.930">  2  9  1 -1</clus>
<clus scale="   82.752">  5  6 -1 -1</clus>
<clus scale="   87.846">  7  8 -1 -1</clus>
<clus scale="   96.906">  2  5  1 -1</clus>
<clus scale="  101.291">  1  5  2 -1</clus>
</clustering>
</event>
<event>
 9    1  0.2802611E-005  0.9752153E+02  0.7546771E-02  0.1291716E+00
         -4   -1    0    0    0  501 -0.00000000000E+00  0.00000000000E+00  0.11501897297E+04  0.11501897297E+04  0.00000000000E+00 0.  1.
          3   -1    0    0  502    0  0.00000000000E+00 -0.00000000000E+00 -0.44052104250E+02  0.44052104250E+02  0.00000000000E+00 0. -1.
        -24    2    1    2    0    0 -0.81400076190E+02 -0.20720019058E+02  0.62960733684E+03  0.64002742510E+03  0.78577443861E+02 0.  0.
         23    2    1    2    0    0  0.32315809897E+02 -0.86595411695E+01  0.25375106051E+02  0.99446971023E+02  0.90147128718E+02 0.  0.
         13    1    3    3    0    0 -0.61194308676E+02 -0.58994586138E+01  0.18983310359E+03  0.19953985628E+03  0.00000000000E+00 0. -1.
        -14    1    3    3    0    0 -0.20205767514E+02 -0.14820560444E+02  0.43977423325E+03  0.44048756882E+03  0.00000000000E+00 0.  1.
        -11    1    4    4    0    0 -0.62064252596E+01 -0.24983654764E+02  0.46066759573E+02  0.52771669079E+02  0.00000000000E+00 0.  1.
         11    1    4    4    0    0  0.38522235157E+02  0.16324113595E+02 -0.20691653522E+02  0.46675301944E+02  0.00000000000E+00 0. -1.
         21    1    1    2  502  501  0.49084266293E+02  0.29379560227E+02  0.45115518259E+03  0.45476743785E+03  0.00000000000E+00 0. -1.
<scales pt_clust_5="13000.00000" pt_clust_6="13000.00000" pt_clust_7="13000.00000" pt_clust_8="13000.00000" pt_clust_9="57.20510"></scales>
<clustering>
<clus scale="   57.205">  1  9  2 -1</clus>
<clus scale="   78.577">  5  6 -1 -1</clus>
<clus scale="   86.939">  1  5  2 -1</clus>
<clus scale="   90.147">  7  8 -1 -1</clus>
<clus scale="   97.522">  2  5  1 -1</clus>
</clustering>
</event>
<event>
 9    1  0.2802611E-005  0.1000754E+03  0.7546771E-02  0.1287039E+00
          1   -1    0    0  502    0  0.00000000000E+00  0.00000000000E+00  0.17955995644E+03  0.17955995644E+03  0.00000000000E+00 0. -1.
         -2   -1    0    0    0  501 -0.00000000000E+00 -0.00000000000E+00 -0.17145652020E+03  0.17145652020E+03  0.00000000000E+00 0.  1.
         23    2    1    2    0    0 -0.40981257934E+02 -0.64652788448E+02 -0.62062494813E+02  0.13453770577E+03  0.91592545853E+02 0.  0.
        -24    2    1    2    0    0  0.25703740315E+02  0.24582780935E+02  0.12205490376E+03  0.14916255042E+03  0.78019686813E+02 0.  0.
         13    1    4    4    0    0  0.19212090407E+02  0.44906124604E+02  0.11763841832E+03  0.12737527982E+03  0.00000000000E+00 0. -1.
        -14    1    4    4    0    0  0.64916499073E+01 -0.20323343669E+02  0.44164854413E+01  0.21787270597E+02  0.00000000000E+00 0.  1.
        -11    1    3    3    0    0  0.17381632663E+02 -0.38974116877E+02  0.38296201578E+01  0.42845874141E+02  0.00000000000E+00 0. -1.
         11    1    3    3    0    0 -0.58362890597E+02 -0.25678671572E+02 -0.65892114970E+02  0.91691831631E+02  0.00000000000E+00 0.  1.
         21    1    1    2  502  501  0.15277517620E+02  0.40070007513E+02 -0.51888972708E+02  0.67316220448E+02  0.00000000000E+00 0. -1.
<scales pt_clust_5="13000.00000" pt_clust_6="13000.00000" pt_clust_7="13000.00000" pt_clust_8="13000.00000" pt_clust_9="42.88366"></scales>
<clustering>
<clus scale="   42.884">  2  9  1 -1</clus>
<clus scale="   78.020">  5  6 -1 -1</clus>
<clus scale="   87.823">  1  5  2 -1</clus>
<clus scale="   91.593">  7  8 -1 -1</clus>
<clus scale="   87.823">  1  5  2 -1</clus>
</clustering>
</event>
<event>
 9    1  0.2802611E-005  0.9323695E+02  0.7546771E-02  0.1299043E+00
          1   -1    0    0  502    0  0.00000000000E+00  0.00000000000E+00  0.43377177291E+03  0.43377177291E+03  0.00000000000E+00 0. -1.
         -2   -1    0    0    0  501 -0.00000000000E+00 -0.00000000000E+00 -0.57800610404E+02  0.57800610404E+02  0.00000000000E+00 0.  1.
        -24    2    1    2    0    0  0.49656170444E+00  0.26472194746E+02  0.57459830526E+02  0.10685829187E+03  0.86116425543E+02 0.  0.
         23    2    1    2    0    0 -0.90053277414E+01 -0.37680290733E+01  0.33987878485E+03  0.35239619732E+03  0.92575361339E+02 0.  0.
         11    1    3    3    0    0 -0.40184318005E+02  0.12195103459E+02  0.10864182167E+02  0.43376611394E+02  0.00000000000E+00 0. -1.
        -12    1    3    3    0    0  0.40680879710E+02  0.14277091287E+02  0.46595648359E+02  0.63481680472E+02  0.00000000000E+00 0.  1.
        -11    1    4    4    0    0  0.39455755065E+02  0.11736646857E+02  0.17856203048E+03  0.18324547530E+03  0.00000000000E+00 0.  1.
         11    1    4    4    0    0 -0.48461082807E+02 -0.15504675930E+02  0.16131675436E+03  0.16915072202E+03  0.00000000000E+00 0. -1.
         21    1    1    2  502  501  0.85087660369E+01 -0.22704165673E+02 -0.21367452870E+02  0.32317894123E+02  0.00000000000E+00 0.  1.
<scales pt_clust_5="13000.00000" pt_clust_6="13000.00000" pt_clust_7="13000.00000" pt_clust_8="13000.00000" pt_clust_9="24.24620"></scales>
<clustering>
<clus scale="   24.246">  2  9  1 -1</clus>
<clus scale="   86.116">  5  6 -1 -1</clus>
<clus scale="   86.827">  2  5  1 -1</clus>
<clus scale="   92.575">  7  8 -1 -1</clus>
<clus scale="   93.237">  1  5  2 -1</clus>
</clustering>
</event>
<event>
 9    1  0.2802611E-005  0.1053691E+03  0.7546771E-02  0.1273755E+00
         -2   -1    0    0    0  501 -0.00000000000E+00  0.00000000000E+00  0.42906807274E+02  0.42906807274E+02  0.00000000000E+00 0.  1.
          1   -1    0    0  502    0  0.00000000000E+00 -0.00000000000E+00 -0.58309059299E+03  0.58309059299E+03  0.00000000000E+00 0. -1.
        -24    2    1    2    0    0 -0.32251406480E+02  0.42434465561E+02 -0.38177001394E+02  0.10323706860E+03  0.79746923520E+02 0.  0.
         23    2    1    2    0    0  0.50377750028E+02 -0.24833406168E+02 -0.47092523707E+03  0.48270506731E+03  0.89883187220E+02 0.  0.
         11    1    3    3    0    0 -0.73127791512E+01  0.52608258264E+02 -0.50795720977E+02  0.73493610920E+02  0.00000000000E+00 0. -1.
        -12    1    3    3    0    0 -0.24938627329E+02 -0.10173792703E+02  0.12618719583E+02  0.29743457683E+02  0.00000000000E+00 0.  1.
        -13    1    4    4    0    0 -0.25444751387E+02 -0.45377371408E+01 -0.83502156512E+02  0.87410734888E+02  0.00000000000E+00 0.  1.
         13    1    4    4    0    0  0.75822501415E+02 -0.20295669028E+02 -0.38742308055E+03  0.39529433242E+03  0.00000000000E+00 0. -1.
         21    1    1    2  502  501 -0.18126343548E+02 -0.17601059393E+02 -0.31081547257E+02  0.40055264349E+02  0.00000000000E+00 0.  1.
<scales pt_clust_5="13000.00000" pt_clust_6="13000.00000" pt_clust_7="13000.00000" pt_clust_8="13000.00000" pt_clust_9="25.26582"></scales>
<clustering>
<clus scale="   25.266">  1  9  2 -1</clus>
<clus scale="   79.747">  5  6 -1 -1</clus>
<clus scale="   89.883">  7  8 -1 -1</clus>
<clus scale="   96.867">  1  5  2 -1</clus>
<clus scale="  105.369">  2  5  1 -1</clus>
</clustering>
</event>
<event>
 9    1  0.2802611E-005  0.1095125E+03  0.7546771E-02  0.1264563E+00
          1   -1    0    0  502    0  0.00000000000E+00  0.00000000000E+00  0.23352296742E+03  0.23352296742E+03  0.00000000000E+00 0. -1.
         -2   -1    0    0    0  501 -0.00000000000E+00 -0.00000000000E+00 -0.13543414793E+03  0.13543414793E+03  0.00000000000E+00 0.  1.
        -24    2    1    2    0    0 -0.46000271499E+02  0.42505732569E+02 -0.85390525837E+02  0.13576411301E+03  0.84956401762E+02 0.  0.
         23    2    1    2    0    0  0.23092619149E+02 -0.15849517933E+02  0.16986571674E+03  0.19550155505E+03  0.92639192712E+02 0.  0.
         13    1    3    3    0    0 -0.64671871843E+02  0.11402744505E+02 -0.71064681530E+02  0.96760852367E+02  0.00000000000E+00 0. -1.
        -14    1    3    3    0    0  0.18671600344E+02  0.31102988065E+02 -0.14325844307E+02  0.39003260647E+02  0.00000000000E+00 0.  1.
        -11    1    4    4    0    0 -0.23281979973E+02  0.23406736353E+02  0.38176187471E+02  0.50471251103E+02  0.00000000000E+00 0.  1.
         11    1    4    4    0    0  0.46374599122E+02 -0.39256254286E+02  0.13168952927E+03  0.14503030394E+03  0.00000000000E+00 0. -1.
         21    1    1    2  502  501  0.22907652350E+02 -0.26656214636E+02  0.13613628594E+02  0.37691447284E+02  0.00000000000E+00 0. -1.
<scales pt_clust_5="13000.00000" pt_clust_6="13000.00000" pt_clust_7="13000.00000" pt_clust_8="13000.00000" pt_clust_9="35.14704"></scales>
<clustering>
<clus scale="   35.147">  1  9  2 -1</clus>
<clus scale="   84.956">  5  6 -1 -1</clus>
<clus scale="   92.639">  7  8 -1 -1</clus>
<clus scale="  103.095">  2  5  1 -1</clus>
<clus scale="   35.147">  1  5  2 -1</clus>
</clustering>
</event>
<event>
 9    1  0.2802611E-005  0.1162620E+03  0.7546771E-02  0.1252658E+00
          1   -1    0    0  502    0  0.00000000000E+00  0.00000000000E+00  0.27329756165E+03  0.27329756165E+03  0.00000000000E+00 0. -1.
         -2   -1    0    0    0  501 -0.00000000000E+00 -0.00000000000E+00 -0.12898811462E+03  0.12898811462E+03  0.00000000000E+00 0.  1.
         23    2    1    2    0    0 -0.18901922760E+02  0.45995267623E+02 -0.21062016993E+01  0.10908253795E+03  0.97065527721E+02 0.  0.
        -24    2    1    2    0    0  0.40805934865E+02 -0.54387629245E+02  0.20323584881E+03  0.23173157890E+03  0.88156541917E+02 0.  0.
         11    1    4    4    0    0  0.77641757869E+01  0.24343972462E+02  0.55428634331E+02  0.61034784546E+02  0.00000000000E+00 0. -1.
        -12    1    4    4    0    0  0.33041759078E+02 -0.78731601707E+02  0.14780721448E+03  0.17069679436E+03  0.00000000000E+00 0.  1.
        -11    1    3    3    0    0 -0.50378294992E+02  0.28112508069E+01 -0.17609148295E+02  0.53441162422E+02  0.00000000000E+00 0.  1.
         11    1    3    3    0    0  0.31476372231E+02  0.43184016816E+02  0.15502946596E+02  0.55641375526E+02  0.00000000000E+00 0. -1.
         21    1    1    2  502  501 -0.21904012105E+02  0.83923616216E+01 -0.56820200089E+02  0.61471559424E+02  0.00000000000E+00 0. -1.
<scales pt_clust_5="13000.00000" pt_clust_6="13000.00000" pt_clust_7="13000.00000" pt_clust_8="13000.00000" pt_clust_9="23.45672"></scales>
<clustering>
<clus scale="   23.457">  2  9  1 -1</clus>
<clus scale="   88.157">  5  6 -1 -1</clus>
<clus scale="   97.066">  7  8 -1 -1</clus>
<clus scale="  108.934">  1  5  2 -1</clus>
<clus scale="  108.934">  1  5  2 -1</clus>
</clustering>
</event>
<event>
 9    1  0.2802611E-005  0.1305327E+03  0.7546771E-02  0.1230682E+00
         -4   -1    0    0    0  501 -0.00000000000E+00  0.00000000000E+00  0.14371915754E+03  0.14371915754E+03  0.00000000000E+00 0.  1.
          3   -1    0    0  502    0  0.00000000000E+00 -0.00000000000E+00 -0.15746720754E+03  0.15746720754E+03  0.00000000000E+00 0. -1.
        -24    2    1    2    0    0 -0.74164685457E+02  0.44174321511E+02  0.39582753844E+02  0.12391856801E+03  0.79606820342E+02 0.  0.
         23    2    1    2    0    0  0.68827576845E+02 -0.73992494929E+02 -0.48069493896E+02  0.14652223517E+03  0.94583109034E+02 0.  0.
         11    1    3    3    0    0 -0.21643266543E+02 -0.23310154040E+02  0.84306822600E+01  0.32907000340E+02  0.00000000000E+00 0. -1.
        -12    1    3    3    0    0 -0.52521418914E+02  0.67484475551E+02  0.31152071584E+02  0.91011567666E+02  0.00000000000E+00 0.  1.
        -13    1    4    4    0    0  0.89593113840E+02 -0.66806761980E+02 -0.24722130904E+02  0.11446070614E+03  0.00000000000E+00 0. -1.
         13    1    4    4    0    0 -0.20765536996E+02 -0.71857329482E+01 -0.23347362992E+02  0.32061529024E+02  0.00000000000E+00 0.  1.
         21    1    1    2  502  501  0.53371086122E+01  0.29818173418E+02 -0.52613099479E+01  0.30745561902E+02  0.00000000000E+00 0. -1.
<scales pt_clust_5="13000.00000" pt_clust_6="13000.00000" pt_clust_7="13000.00000" pt_clust_8="13000.00000" pt_clust_9="30.29205"></scales>
<clustering>
<clus scale="   30.292">  2  9  1 -1</clus>
<clus scale="   79.607">  5  6 -1 -1</clus>
<clus scale="   94.583">  7  8 -1 -1</clus>
<clus scale="  120.125">  1  5  2 -1</clus>
<clus scale="   30.292">  2  5  1 -1</clus>
</clustering>
</event>
<event>
 9    1  0.2802611E-005  0.1620523E+03  0.7546771E-02  0.1186725E+00
         -2   -1    0    0    0  501 -0.00000000000E+00  0.00000000000E+00  0.12614612379E+03  0.12614612379E+03  0.00000000000E+00 0.  1.
          1   -1    0    0  502    0  0.00000000000E+00 -0.00000000000E+00 -0.33570266608E+03  0.33570266608E+03  0.00000000000E+00 0. -1.
        -24    2    1    2    0    0  0.79936894636E+01 -0.13702240968E+03  0.27469578739E+02  0.16585002579E+03  0.88952872201E+02 0.  0.
         23    2    1    2    0    0  0.81385646497E+01  0.12313878504E+03 -0.22248444832E+03  0.27022154738E+03  0.91054699534E+02 0.  0.
         13    1    3    3    0    0 -0.20269044156E+02 -0.49633431550E+01 -0.13342157504E+02  0.24768570672E+02  0.00000000000E+00 0. -1.
        -14    1    3    3    0    0  0.28262733620E+02 -0.13205906653E+03  0.40811736243E+02  0.14108145512E+03  0.00000000000E+00 0.  1.
        -13    1    4    4    0    0  0.61793592883E+01  0.28541418816E+02 -0.82718175729E+00  0.29214402251E+02  0.00000000000E+00 0.  1.
         13    1    4    4    0    0  0.19592053614E+01  0.94597366229E+02 -0.22165726656E+03  0.24100714513E+03  0.00000000000E+00 0. -1.
         21    1    1    2  502  501 -0.16132254113E+02  0.13883624637E+02 -0.14541672714E+02  0.25777216707E+02  0.00000000000E+00 0.  1.
<scales pt_clust_5="13000.00000" pt_clust_6="13000.00000" pt_clust_7="13000.00000" pt_clust_8="13000.00000" pt_clust_9="21.28391"></scales>
<clustering>
<clus scale="   21.284">  2  9  1 -1</clus>
<clus scale="   88.953">  5  6 -1 -1</clus>
<clus scale="   91.055">  7  8 -1 -1</clus>
<clus scale="  160.881">  1  5  2 -1</clus>
<clus scale="   21.284">  2  5  1 -1</clus>
</clustering>
</event>
<event>
 9    1  0.2802611E-005  0.9122524E+02  0.7546771E-02  0.1305805E+00
         -2   -1    0    0    0  501 -0.00000000000E+00  0.00000000000E+00  0.46043999442E+03  0.46043999442E+03  0.00000000000E+00 0.  1.
          1   -1    0    0  502    0  0.00000000000E+00 -0.00000000000E+00 -0.39671003624E+02  0.39671003624E+02  0.00000000000E+00 0. -1.
        -24    2    1    2    0    0 -0.14998096667E+02  0.15106323686E+02  0.18007396527E+03  0.19882380685E+03  0.81554455931E+02 0.  0.
         23    2    1    2    0    0  0.15337349565E+01  0.12606969461E+02  0.43330650423E+02  0.10153231087E+03  0.90939413147E+02 0.  0.
         11    1    3    3    0    0 -0.27113462514E+02  0.11205741704E+02  0.14435356217E+02  0.32696911257E+02  0.00000000000E+00 0. -1.
        -12    1    3    3    0    0  0.12115365847E+02  0.39005819821E+01  0.16563860905E+03  0.16612689559E+03  0.00000000000E+00 0.  1.
        -13    1    4    4    0    0  0.35351773075E+02  0.24494783833E+02  0.49046697452E+02  0.65232820156E+02  0.00000000000E+00 0. -1.
         13    1    4    4    0    0 -0.33818038119E+02 -0.11887814372E+02 -0.57160470286E+01  0.36299490718E+02  0.00000000000E+00 0.  1.
         21    1    1    2  502  501  0.13464361711E+02 -0.27713293147E+02  0.19736437510E+03  0.19975488032E+03  0.00000000000E+00 0.  1.
<scales pt_clust_5="13000.00000" pt_clust_6="13000.00000" pt_clust_7="13000.00000" pt_clust_8="13000.00000" pt_clust_9="30.81097"></scales>
<clustering>
<clus scale="   30.811">  1  9  2 -1</clus>
<clus scale="   81.554">  5  6 -1 -1</clus>
<clus scale="   81.873">  1  5  2 -1</clus>
<clus scale="   90.939">  7  8 -1 -1</clus>
<clus scale="   91.225">  2  5  1 -1</clus>
</clustering>
</event>
<event>
 9    1  0.2802611E-005  0.2095246E+03  0.7546771E-02  0.1142160E+00
         -2   -1    0    0    0  501 -0.00000000000E+00  0.00000000000E+00  0.79351329264E+02  0.79351329264E+02  0.00000000000E+00 0.  1.
          1   -1    0    0  502    0  0.00000000000E+00 -0.00000000000E+00 -0.97094756740E+03  0.97094756740E+03  0.00000000000E+00 0. -1.
         23    2    1    2    0    0 -0.12057319071E+03  0.11314568377E+03 -0.24778230121E+03  0.31135390444E+03  0.90583359091E+02 0.  0.
        -24    2    1    2    0    0  0.12857887678E+03 -0.15701274824E+03 -0.65634876594E+03  0.69262510133E+03  0.88035775502E+02 0.  0.
         13    1    4    4    0    0  0.11923727829E+03 -0.13916359466E+03 -0.64263561651E+03  0.66825486921E+03  0.00000000000E+00 0. -1.
        -14    1    4    4    0    0  0.93415984937E+01 -0.17849153584E+02 -0.13713149426E+02  0.24370232114E+02  0.00000000000E+00 0.  1.
        -11    1    3    3    0    0 -0.85177269185E+02  0.11584346270E+03 -0.23098307066E+03  0.27208096950E+03  0.00000000000E+00 0. -1.
         11    1    3    3    0    0 -0.35395921520E+02 -0.26977789259E+01 -0.16799230552E+02  0.39272934937E+02  0.00000000000E+00 0.  1.
         21    1    1    2  502  501 -0.80056860768E+01  0.43867064471E+02  0.12534829010E+02  0.46319890902E+02  0.00000000000E+00 0. -1.
<scales pt_clust_5="13000.00000" pt_clust_6="13000.00000" pt_clust_7="13000.00000" pt_clust_8="13000.00000" pt_clust_9="44.59160"></scales>
<clustering>
<clus scale="   44.592">  1  9  2 -1</clus>
<clus scale="   88.036">  5  6 -1 -1</clus>
<clus scale="   90.583">  7  8 -1 -1</clus>
<clus scale="  208.436">  2  5  1 -1</clus>
<clus scale="  208.436">  2  5  1 -1</clus>
</clustering>
</event>
<event>
 9    1  0.2802611E-005  0.1372354E+03  0.7546771E-02  0.1222530E+00
         -2   -1    0    0    0  501 -0.00000000000E+00  0.00000000000E+00  0.15751367155E+03  0.15751367155E+03  0.00000000000E+00 0.  1.
          1   -1    0    0  502    0  0.00000000000E+00 -0.00000000000E+00 -0.20992769479E+03  0.20992769479E+03  0.00000000000E+00 0. -1.
        -24    2    1    2    0    0 -0.93652722373E+02 -0.71693387388E+02  0.60839586016E+02  0.14917100825E+03  0.68115785793E+02 0.  0.
         23    2    1    2    0    0  0.60439326844E+02  0.77126510761E+02 -0.12402299544E+03  0.18293442523E+03  0.92097175013E+02 0.  0.
         11    1    3    3    0    0 -0.62656239933E+02 -0.22255308553E+02  0.23219337022E+01  0.66531906161E+02  0.00000000000E+00 0. -1.
        -12    1    3    3    0    0 -0.30996482440E+02 -0.49438078835E+02  0.58517652314E+02  0.82639102094E+02  0.00000000000E+00 0.  1.
        -13    1    4    4    0    0  0.80770061348E+02  0.76452201758E+02 -0.89039787800E+02  0.14246692871E+03  0.00000000000E+00 0.  1.
         13    1    4    4    0    0 -0.20330734505E+02  0.67430900298E+00 -0.34983207640E+02  0.40467496524E+02  0.00000000000E+00 0. -1.
         21    1    1    2  502  501  0.33213395529E+02 -0.54331233725E+01  0.10769386185E+02  0.35335932858E+02  0.00000000000E+00 0.  1.
<scales pt_clust_5="13000.00000" pt_clust_6="13000.00000" pt_clust_7="13000.00000" pt_clust_8="13000.00000" pt_clust_9="33.65484"></scales>
<clustering>
<clus scale="   33.655">  1  9  2 -1</clus>
<clus scale="   68.116">  5  6 -1 -1</clus>
<clus scale="   92.097">  7  8 -1 -1</clus>
<clus scale="  122.440">  1  5  2 -1</clus>
<clus scale="  137.235">  2  5  1 -1</clus>
</clustering>
</event>
<event>
 9    1  0.2802611E-005  0.1084302E+03  0.7546771E-02  0.1268971E+00
         -2   -1    0    0    0  501 -0.00000000000E+00  0.00000000000E+00  0.16775354007E+03  0.16775354007E+03  0.00000000000E+00 0.  1.
          1   -1    0    0  502    0  0.00000000000E+00 -0.00000000000E+00 -0.35129700999E+03  0.35129700999E+03  0.00000000000E+00 0. -1.
        -24    2    1    2    0    0 -0.22775294530E+02  0.40880706532E+01  0.13090238059E+03  0.15529889364E+03  0.80292507484E+02 0.  0.
         23    2    1    2    0    0  0.54347733736E+02 -0.18531726983E+02 -0.30996059281E+03  0.32874371929E+03  0.93272519040E+02 0.  0.
         13    1    3    3    0    0 -0.19356425544E+02  0.22922858742E+02  0.81865569599E+01  0.31099009270E+02  0.00000000000E+00 0. -1.
        -14    1    3    3    0    0 -0.34188689864E+01 -0.18834788089E+02  0.12271582363E+03  0.12419988437E+03  0.00000000000E+00 0.  1.
        -11    1    4    4    0    0 -0.86116837999E+01 -0.39920547559E+02 -0.87556149815E+02  0.96612062320E+02  0.00000000000E+00 0.  1.
         11    1    4    4    0    0  0.62959417536E+02  0.21388820576E+02 -0.22240444299E+03  0.23213165697E+03  0.00000000000E+00 0. -1.
         21    1    1    2  502  501 -0.31572439206E+02  0.14443656330E+02 -0.44852576986E+01  0.35007937131E+02  0.00000000000E+00 0.  1.
<scales pt_clust_5="13000.00000" pt_clust_6="13000.00000" pt_clust_7="13000.00000" pt_clust_8="13000.00000" pt_clust_9="34.71942"></scales>
<clustering>
<clus scale="   34.719">  1  9  2 -1</clus>
<clus scale="   80.293">  5  6 -1 -1</clus>
<clus scale="   93.273">  7  8 -1 -1</clus>
<clus scale="   97.490">  1  5  2 -1</clus>
<clus scale="  108.430">  2  5  1 -1</clus>
</clustering>
</event>
<event>
 9    1  0.2802611E-005  0.9650750E+02  0.7546771E-02  0.1293179E+00
         -2   -1    0    0    0  501 -0.00000000000E+00  0.00000000000E+00  0.14520594398E+03  0.14520594398E+03  0.00000000000E+00 0.  1.
          1   -1    0    0  502    0  0.00000000000E+00 -0.00000000000E+00 -0.17318679524E+03  0.17318679524E+03  0.00000000000E+00 0. -1.
         23    2    1    2    0    0 -0.32951915646E+02  0.21432227903E+02  0.57635751560E+01  0.98994678253E+02  0.90672809519E+02 0.  0.
        -24    2    1    2    0    0 -0.61203211772E+02 -0.15552894342E+02 -0.63335362103E+02  0.12052754940E+03  0.80794779648E+02 0.  0.
         11    1    4    4    0    0 -0.45410786784E+02  0.29525972555E+02 -0.27058172906E+02  0.60548058042E+02  0.00000000000E+00 0. -1.
        -12    1    4    4    0    0 -0.15792424988E+02 -0.45078866897E+02 -0.36277189198E+02  0.59979491360E+02  0.00000000000E+00 0.  1.
        -11    1    3    3    0    0 -0.58601171071E+02  0.10415963654E+02  0.25556867574E+02  0.64774555421E+02  0.00000000000E+00 0.  1.
         11    1    3    3    0    0  0.25649255425E+02  0.11016264249E+02 -0.19793292418E+02  0.34220122832E+02  0.00000000000E+00 0. -1.
         21    1    1    2  502  501  0.94155127418E+02 -0.58793335613E+01  0.29590935689E+02  0.98870511565E+02  0.00000000000E+00 0.  1.
<scales pt_clust_5="13000.00000" pt_clust_6="13000.00000" pt_clust_7="13000.00000" pt_clust_8="13000.00000" pt_clust_9="94.33851"></scales>
<clustering>
<clus scale="   80.795">  5  6 -1 -1</clus>
<clus scale="   90.673">  7  8 -1 -1</clus>
<clus scale="   94.339">  1  9  2 -1</clus>
<clus scale="   87.292">  2  5  1 -1</clus>
<clus scale="   87.292">  2  5  1 -1</clus>
</clustering>
</event>
<event>
 9    1  0.2802611E-005  0.1159319E+03  0.7546771E-02  0.1253219E+00
          1   -1    0    0  502    0  0.00000000000E+00  0.00000000000E+00  0.54069073378E+02  0.54069073378E+02  0.00000000000E+00 0. -1.
         -2   -1    0    0    0  501 -0.00000000000E+00 -0.00000000000E+00 -0.43823283226E+03  0.43823283226E+03  0.00000000000E+00 0.  1.
         23    2    1    2    0    0  0.34501824162E+02 -0.88494302025E+02 -0.21491571856E+03  0.25211857901E+03  0.91396906067E+02 0.  0.
        -24    2    1    2    0    0  0.10158943931E+02  0.64477163181E+02 -0.62501011605E+02  0.12200407589E+03  0.81964073640E+02 0.  0.
         13    1    4    4    0    0  0.44702899609E+02  0.38862101122E+02 -0.49163925748E+02  0.76978592687E+02  0.00000000000E+00 0. -1.
        -14    1    4    4    0    0 -0.34543955678E+02  0.25615062059E+02 -0.13337085857E+02  0.45025483199E+02  0.00000000000E+00 0.  1.
        -13    1    3    3    0    0  0.82352359657E+01 -0.10115077012E+03 -0.15187502123E+03  0.18266176250E+03  0.00000000000E+00 0.  1.
         13    1    3    3    0    0  0.26266588196E+02  0.12656468094E+02 -0.63040697328E+02  0.69456816510E+02  0.00000000000E+00 0. -1.
         21    1    1    2  502  501 -0.44660768093E+02  0.24017138844E+02 -0.10674702872E+03  0.11817925074E+03  0.00000000000E+00 0. -1.
<scales pt_clust_5="13000.00000" pt_clust_6="13000.00000" pt_clust_7="13000.00000" pt_clust_8="13000.00000" pt_clust_9="50.70904"></scales>
<clustering>
<clus scale="   50.709">  2  9  1 -1</clus>
<clus scale="   81.964">  5  6 -1 -1</clus>
<clus scale="   91.397">  7  8 -1 -1</clus>
<clus scale="  108.650">  1  5  2 -1</clus>
<clus scale="  108.650">  1  5  2 -1</clus>
</clustering>
</event>
<event>
 9    1  0.2802611E-005  0.1398389E+03  0.7546771E-02  0.1229633E+00
         -2   -1    0    0    0  501 -0.00000000000E+00  0.00000000000E+00  0.56486378039E+03  0.56486378039E+03  0.00000000000E+00 0.  1.
          1   -1    0    0  502    0  0.00000000000E+00 -0.00000000000E+00 -0.28393999863E+03  0.28393999863E+03  0.00000000000E+00 0. -1.
         23    2    1    2    0    0 -0.35515051480E+02 -0.91208233759E+02  0.37701703751E+03  0.40036737957E+03  0.92584724782E+02 0.  0.
        -24    2    1    2    0    0 -0.59371374657E+02  0.54917360349E+01 -0.23759324240E+03  0.25771933658E+03  0.80084881984E+02 0.  0.
         13    1    4    4    0    0 -0.55545086805E+02  0.79565922187E+01 -0.24371492145E+03  0.25009103736E+03  0.00000000000E+00 0. -1.
        -14    1    4    4    0    0 -0.38262878528E+01 -0.24648561837E+01  0.61216790507E+01  0.76282992298E+01  0.00000000000E+00 0.  1.
        -11    1    3    3    0    0 -0.64044804970E+02 -0.38314599102E+02  0.20774220038E+03  0.22074095081E+03  0.00000000000E+00 0. -1.
         11    1    3    3    0    0  0.28529753490E+02 -0.52893634657E+02  0.16927483713E+03  0.17962642875E+03  0.00000000000E+00 0.  1.
         21    1    1    2  502  501  0.94886426137E+02  0.85716497724E+02  0.14149998664E+03  0.19071706286E+03  0.00000000000E+00 0.  1.
<scales pt_clust_5="13000.00000" pt_clust_6="13000.00000" pt_clust_7="13000.00000" pt_clust_8="13000.00000" pt_clust_9="104.79970"></scales>
<clustering>
<clus scale="   80.085">  5  6 -1 -1</clus>
<clus scale="   92.585">  7  8 -1 -1</clus>
<clus scale="   99.843">  2  5  1 -1</clus>
<clus scale="  104.800">  2  9  1 -1</clus>
<clus scale="   99.843">  2  5  1 -1</clus>
</clustering>
</event>
<event>
 9    1  0.2802611E-005  0.2271640E+03  0.7546771E-02  0.1129601E+00
         -4   -1    0    0    0  501 -0.00000000000E+00  0.00000000000E+00  0.17072229945E+04  0.17072229945E+04  0.00000000000E+00 0.  1.
          3   -1    0    0  502    0  0.00000000000E+00 -0.00000000000E+00 -0.42102577628E+02  0.42102577628E+02  0.00000000000E+00 0. -1.
        -24    2    1    2    0    0  0.81288789061E+02  0.17165643341E+03  0.11512519971E+04  0.11696286543E+04  0.81093956215E+02 0.  0.
         23    2    1    2    0    0 -0.87097236054E+02 -0.19404299419E+03  0.39391302991E+03  0.45753230875E+03  0.94497228991E+02 0.  0.
         11    1    3    3    0    0  0.44440929717E+02  0.17803727848E+02  0.23648832722E+03  0.24128551111E+03  0.00000000000E+00 0. -1.
        -12    1    3    3    0    0  0.36847859344E+02  0.15385270556E+03  0.91476366992E+03  0.92834314321E+03  0.00000000000E+00 0.  1.
        -11    1    4    4    0    0 -0.13020415107E+02 -0.73030398141E+02  0.22511886131E+03  0.23702631073E+03  0.00000000000E+00 0.  1.
         11    1    4    4    0    0 -0.74076820947E+02 -0.12101259605E+03  0.16879416860E+03  0.22050599801E+03  0.00000000000E+00 0. -1.
         21    1    1    2  502  501  0.58084469933E+01  0.22386560787E+02  0.11995538987E+03  0.12216460911E+03  0.00000000000E+00 0.  1.
<scales pt_clust_5="13000.00000" pt_clust_6="13000.00000" pt_clust_7="13000.00000" pt_clust_8="13000.00000" pt_clust_9="23.12782"></scales>
<clustering>
<clus scale="   23.128">  1  9  2 -1</clus>
<clus scale="   81.094">  5  6 -1 -1</clus>
<clus scale="   94.497">  7  8 -1 -1</clus>
<clus scale="  221.923">  1  5  2 -1</clus>
<clus scale="  227.164">  2  5  1 -1</clus>
</clustering>
</event>
<event>
 9    1  0.2802611E-005  0.1178375E+03  0.7546771E-02  0.1250033E+00
          1   -1    0    0  502    0  0.00000000000E+00  0.00000000000E+00  0.49827568101E+03  0.49827568101E+03  0.00000000000E+00 0. -1.
         -2   -1    0    0    0  501 -0.00000000000E+00 -0.00000000000E+00 -0.38597123516E+02  0.38597123516E+02  0.00000000000E+00 0.  1.
        -24    2    1    2    0    0  0.75746551357E+02 -0.77045752084E+01  0.13645062247E+03  0.17633384184E+03  0.81718730316E+02 0.  0.
         23    2    1    2    0    0 -0.72493441466E+02 -0.15471220385E+02  0.31394951787E+03  0.33536379138E+03  0.91705589164E+02 0.  0.
         13    1    3    3    0    0  0.53878975872E+02  0.25498488726E+01  0.14169860640E+03  0.15161774575E+03  0.00000000000E+00 0. -1.
        -14    1    3    3    0    0  0.21867575485E+02 -0.10254424081E+02 -0.52479839277E+01  0.24716096094E+02  0.00000000000E+00 0.  1.
        -13    1    4    4    0    0 -0.24728739669E+02 -0.31535309087E+02  0.39299169544E+02  0.56128522265E+02  0.00000000000E+00 0.  1.
         13    1    4    4    0    0 -0.47764701796E+02  0.16064088701E+02  0.27465034832E+03  0.27923526912E+03  0.00000000000E+00 0. -1.
         21    1    1    2  502  501 -0.32531098911E+01  0.23175795593E+02  0.92784171567E+01  0.25175171306E+02  0.00000000000E+00 0.  1.
<scales pt_clust_5="13000.00000" pt_clust_6="13000.00000" pt_clust_7="13000.00000" pt_clust_8="13000.00000" pt_clust_9="23.40300"></scales>
<clustering>
<clus scale="   23.403">  2  9  1 -1</clus>
<clus scale="   81.719">  5  6 -1 -1</clus>
<clus scale="   91.706">  7  8 -1 -1</clus>
<clus scale="  110.244">  2  5  1 -1</clus>
<clus scale="  117.837">  1  5  2 -1</clus>
</clustering>
</event>
<event>
 9    1  0.2802611E-005  0.1053977E+03  0.7546771E-02  0.1273753E+00
          1   -1    0    0  502    0  0.00000000000E+00  0.00000000000E+00  0.21576021754E+03  0.21576021754E+03  0.00000000000E+00 0. -1.
         -2   -1    0    0    0  501 -0.00000000000E+00 -0.00000000000E+00 -0.25507834479E+03  0.25507834479E+03  0.00000000000E+00 0.  1.
        -24    2    1    2    0    0  0.16286470274E+02 -0.11266029229E+02 -0.12656119765E+03  0.15215557501E+03  0.82106088246E+02 0.  0.
         23    2    1    2    0    0 -0.35977262505E+02  0.41007499595E+02  0.18549175692E+03  0.21415984748E+03  0.92093810582E+02 0.  0.
         11    1    3    3    0    0 -0.13171194540E+02  0.20382716510E+02 -0.96477184817E+02  0.99482574796E+02  0.00000000000E+00 0. -1.
        -12    1    3    3    0    0  0.29457664814E+02 -0.31648745739E+02 -0.30084012831E+02  0.52673000211E+02  0.00000000000E+00 0.  1.
        -11    1    4    4    0    0  0.25632043187E+02 -0.84380249260E+01  0.35009473105E+02  0.44202546417E+02  0.00000000000E+00 0.  1.
         11    1    4    4    0    0 -0.61609305692E+02  0.49445524521E+02  0.15048228381E+03  0.16995730106E+03  0.00000000000E+00 0. -1.
         21    1    1    2  502  501  0.19690792231E+02 -0.29741470366E+02 -0.98248686526E+02  0.10452313984E+03  0.00000000000E+00 0.  1.
<scales pt_clust_5="13000.00000" pt_clust_6="13000.00000" pt_clust_7="13000.00000" pt_clust_8="13000.00000" pt_clust_9="35.66907"></scales>
<clustering>
<clus scale="   35.669">  2  9  1 -1</clus>
<clus scale="   82.106">  5  6 -1 -1</clus>
<clus scale="   92.094">  7  8 -1 -1</clus>
<clus scale="   96.793">  2  5  1 -1</clus>
<clus scale="  105.398">  1  5  2 -1</clus>
</clustering>
</event>
<event>
 9    1  0.2802611E-005  0.9889748E+02  0.7546771E-02  0.1292970E+00
         -2   -1    0    0    0  501 -0.00000000000E+00  0.00000000000E+00  0.66278558705E+02  0.66278558705E+02  0.00000000000E+00 0.  1.
          1   -1    0    0  502    0  0.00000000000E+00 -0.00000000000E+00 -0.24538854741E+03  0.24538854741E+03  0.00000000000E+00 0. -1.
        -24    2    1    2    0    0 -0.64694245974E+01 -0.58995463212E+01  0.50919119534E+00  0.79767215590E+02  0.79283613098E+02 0.  0.
         23    2    1    2    0    0 -0.10994734443E+01 -0.27055775325E+02 -0.16838178815E+03  0.19626815725E+03  0.97136703416E+02 0.  0.
         11    1    3    3    0    0 -0.40944273040E+02  0.24440164175E+01 -0.11017675679E+02  0.42471118285E+02  0.00000000000E+00 0. -1.
        -12    1    3    3    0    0  0.34474848442E+02 -0.83435627387E+01  0.11526866875E+02  0.37296097306E+02  0.00000000000E+00 0.  1.
        -13    1    4    4    0    0  0.34301003301E+02 -0.46326395468E+02 -0.75265284547E+02  0.94802725712E+02  0.00000000000E+00 0.  1.
         13    1    4    4    0    0 -0.35400476745E+02  0.19270620142E+02 -0.93116503605E+02  0.10146543154E+03  0.00000000000E+00 0. -1.
         21    1    1    2  502  501  0.75688980417E+01  0.32955321646E+02 -0.11237391744E+02  0.35631733267E+02  0.00000000000E+00 0.  1.
<scales pt_clust_5="13000.00000" pt_clust_6="13000.00000" pt_clust_7="13000.00000" pt_clust_8="13000.00000" pt_clust_9="33.81333"></scales>
<clustering>
<clus scale="   33.813">  1  9  2 -1</clus>
<clus scale="   79.284">  5  6 -1 -1</clus>
<clus scale="   81.431">  1  5  2 -1</clus>
<clus scale="   97.137">  7  8 -1 -1</clus>
<clus scale="   98.897">  2  5  1 -1</clus>
</clustering>
</event>
<event>
 9    1  0.2802611E-005  0.1704358E+03  0.7546771E-02  0.1178682E+00
         -2   -1    0    0    0  501 -0.00000000000E+00  0.00000000000E+00  0.48351991862E+02  0.48351991862E+02  0.00000000000E+00 0.  1.
          1   -1    0    0  502    0  0.00000000000E+00 -0.00000000000E+00 -0.93700787572E+03  0.93700787572E+03  0.00000000000E+00 0. -1.
        -24    2    1    2    0    0  0.67501365761E+02  0.12899835900E+03 -0.25242264831E+03  0.30231314220E+03  0.80492431695E+02 0.  0.
         23    2    1    2    0    0 -0.36478297610E+02 -0.14079469298E+03 -0.62501877294E+03  0.64801319253E+03  0.90104491526E+02 0.  0.
         11    1    3    3    0    0  0.17888057800E+02  0.61724616262E+02 -0.18199993360E+03  0.19301265942E+03  0.00000000000E+00 0. -1.
        -12    1    3    3    0    0  0.49613307961E+02  0.67273742738E+02 -0.70422714712E+02  0.10930048278E+03  0.00000000000E+00 0.  1.
        -13    1    4    4    0    0 -0.18067692780E+01 -0.13162956345E+03 -0.42909156167E+03  0.44883089765E+03  0.00000000000E+00 0. -1.
         13    1    4    4    0    0 -0.34671528332E+02 -0.91651295321E+01 -0.19592721127E+03  0.19918229488E+03  0.00000000000E+00 0.  1.
         21    1    1    2  502  501 -0.31023068151E+02  0.11796333983E+02 -0.11214462606E+02  0.35033532857E+02  0.00000000000E+00 0.  1.
<scales pt_clust_5="13000.00000" pt_clust_6="13000.00000" pt_clust_7="13000.00000" pt_clust_8="13000.00000" pt_clust_9="33.19012"></scales>
<clustering>
<clus scale="   33.190">  1  9  2 -1</clus>
<clus scale="   80.492">  5  6 -1 -1</clus>
<clus scale="   90.104">  7  8 -1 -1</clus>
<clus scale="  165.555">  1  5  2 -1</clus>
<clus scale="  170.436">  2  5  1 -1</clus>
</clustering>
</event>
<event>
 9    1  0.2802611E-005  0.1053955E+03  0.7546771E-02  0.1280874E+00
          1   -1    0    0  502    0  0.00000000000E+00  0.00000000000E+00  0.26744540499E+03  0.26744540499E+03  0.00000000000E+00 0. -1.
         -2   -1    0    0    0  501 -0.00000000000E+00 -0.00000000000E+00 -0.95694449258E+02  0.95694449258E+02  0.00000000000E+00 0.  1.
         23    2    1    2    0    0 -0.21751373481E+02  0.99556866267E+00 -0.15851939725E+02  0.96995707424E+02  0.93181381512E+02 0.  0.
        -24    2    1    2    0    0  0.22274471424E+01 -0.57701880397E+02  0.18559726409E+03  0.20613738014E+03  0.68642599983E+02 0.  0.
         13    1    4    4    0    0 -0.27003836535E+02 -0.12459833744E+02  0.33562630910E+02  0.44843113608E+02  0.00000000000E+00 0. -1.
        -14    1    4    4    0    0  0.29231283677E+02 -0.45242046654E+02  0.15203463318E+03  0.16129426653E+03  0.00000000000E+00 0.  1.
        -13    1    3    3    0    0  0.24667066983E+02 -0.11806013007E+02  0.22519223270E+02  0.35425436530E+02  0.00000000000E+00 0. -1.
         13    1    3    3    0    0 -0.46418440464E+02  0.12801581670E+02 -0.38371162995E+02  0.61570270894E+02  0.00000000000E+00 0.  1.
         21    1    1    2  502  501  0.19523926339E+02  0.56706311735E+02  0.20056313665E+01  0.60006766680E+02  0.00000000000E+00 0.  1.
<scales pt_clust_5="13000.00000" pt_clust_6="13000.00000" pt_clust_7="13000.00000" pt_clust_8="13000.00000" pt_clust_9="59.97324"></scales>
<clustering>
<clus scale="   59.973">  2  9  1 -1</clus>
<clus scale="   68.643">  5  6 -1 -1</clus>
<clus scale="   84.482">  1  5  2 -1</clus>
<clus scale="   93.181">  7  8 -1 -1</clus>
<clus scale="   84.482">  1  5  2 -1</clus>
</clustering>
</event>
<event>
 9    1  0.2802611E-005  0.1070593E+03  0.7546771E-02  0.1269889E+00
          1   -1    0    0  502    0  0.00000000000E+00  0.00000000000E+00  0.14167509518E+03  0.14167509518E+03  0.00000000000E+00 0. -1.
         -2   -1    0    0    0  501 -0.00000000000E+00 -0.00000000000E+00 -0.11869107609E+03  0.11869107609E+03  0.00000000000E+00 0.  1.
        -24    2    1    2    0    0  0.50316764119E+02 -0.90362506329E+00 -0.34104265369E+02  0.10245455135E+03  0.82469636145E+02 0.  0.
         23    2    1    2    0    0 -0.53300989783E+02  0.26693831327E+02  0.69215561343E+02  0.12925658221E+03  0.91448969214E+02 0.  0.
         11    1    3    3    0    0  0.29611294396E+02 -0.17933984722E+01  0.25644641811E+02  0.39213424837E+02  0.00000000000E+00 0. -1.
        -12    1    3    3    0    0  0.20705469724E+02  0.88977340889E+00 -0.59748907179E+02  0.63241126511E+02  0.00000000000E+00 0.  1.
        -11    1    4    4    0    0 -0.26980430391E+02 -0.16092626586E+02 -0.12109051009E+02  0.33668165541E+02  0.00000000000E+00 0.  1.
         11    1    4    4    0    0 -0.26320559391E+02  0.42786457913E+02  0.81324612352E+02  0.95588416671E+02  0.00000000000E+00 0. -1.
         21    1    1    2  502  501  0.29842256632E+01 -0.25790206264E+02 -0.12127276886E+02  0.28655037718E+02  0.00000000000E+00 0.  1.
<scales pt_clust_5="13000.00000" pt_clust_6="13000.00000" pt_clust_7="13000.00000" pt_clust_8="13000.00000" pt_clust_9="25.96229"></scales>
<clustering>
<clus scale="   25.962">  2  9  1 -1</clus>
<clus scale="   82.470">  5  6 -1 -1</clus>
<clus scale="   91.449">  7  8 -1 -1</clus>
<clus scale="   99.499">  2  5  1 -1</clus>
<clus scale="  107.059">  1  5  2 -1</clus>
</clustering>
</event>
<event>
 9    1  0.2802611E-005  0.1065636E+03  0.7546771E-02  0.1271420E+00
         -2   -1    0    0    0  501 -0.00000000000E+00  0.00000000000E+00  0.21824206100E+03  0.21824206100E+03  0.00000000000E+00 0.  1.
          1   -1    0    0  502    0  0.00000000000E+00 -0.00000000000E+00 -0.89842116062E+02  0.89842116062E+02  0.00000000000E+00 0. -1.
         23    2    1    2    0    0  0.49440954403E+01 -0.50356338383E+02  0.96876436395E+02  0.14272999903E+03  0.91796534796E+02 0.  0.
        -24    2    1    2    0    0 -0.31196818020E+02  0.47381690440E+02 -0.25388212482E+02  0.10260867649E+03  0.81643818593E+02 0.  0.
         13    1    4    4    0    0 -0.23947801423E+02  0.66663092142E+02 -0.35977590102E+02  0.79447165062E+02  0.00000000000E+00 0. -1.
        -14    1    4    4    0    0 -0.72490165972E+01 -0.19281401702E+02  0.10589377619E+02  0.23161511427E+02  0.00000000000E+00 0.  1.
        -13    1    3    3    0    0 -0.23449514235E+02  0.18576203563E+02  0.33159616015E+02  0.44659995420E+02  0.00000000000E+00 0. -1.
         13    1    3    3    0    0  0.28393609675E+02 -0.68932541945E+02  0.63716820380E+02  0.98070003614E+02  0.00000000000E+00 0.  1.
         21    1    1    2  502  501  0.26252722580E+02  0.29746479426E+01  0.56911721020E+02  0.62745501534E+02  0.00000000000E+00 0.  1.
<scales pt_clust_5="13000.00000" pt_clust_6="13000.00000" pt_clust_7="13000.00000" pt_clust_8="13000.00000" pt_clust_9="26.42071"></scales>
<clustering>
<clus scale="   26.421">  1  9  2 -1</clus>
<clus scale="   81.644">  5  6 -1 -1</clus>
<clus scale="   91.797">  7  8 -1 -1</clus>
<clus scale="   97.954">  2  5  1 -1</clus>
<clus scale="   97.954">  2  5  1 -1</clus>
</clustering>
</event>
<event>
 9    1  0.2802611E-005  0.1108877E+03  0.7546771E-02  0.1264822E+00
          1   -1    0    0  502    0  0.00000000000E+00  0.00000000000E+00  0.74535013993E+02  0.74535013993E+02  0.00000000000E+00 0. -1.
         -2   -1    0    0    0  501 -0.00000000000E+00 -0.00000000000E+00 -0.20472624559E+03  0.20472624559E+03  0.00000000000E+00 0.  1.
        -24    2    1    2    0    0  0.48756344744E+02  0.61895732448E+02 -0.71726879336E+02  0.12997021606E+03  0.74426131136E+02 0.  0.
         23    2    1    2    0    0 -0.38916237986E+02 -0.40123892360E+02 -0.25966895113E+02  0.10895587967E+03  0.89848226225E+02 0.  0.
         11    1    3    3    0    0  0.46128727265E+02  0.28269182993E+01 -0.46893778411E+02  0.65839785843E+02  0.00000000000E+00 0. -1.
        -12    1    3    3    0    0  0.26276174785E+01  0.59068814149E+02 -0.24833100925E+02  0.64130430219E+02  0.00000000000E+00 0.  1.
        -11    1    4    4    0    0 -0.53291219584E+02 -0.30978608953E+01  0.11218243589E+02  0.54547225558E+02  0.00000000000E+00 0. -1.
         11    1    4    4    0    0  0.14374981598E+02 -0.37026031464E+02 -0.37185138702E+02  0.54408654112E+02  0.00000000000E+00 0.  1.
         21    1    1    2  502  501 -0.98401067581E+01 -0.21771840088E+02 -0.32497457150E+02  0.40335163853E+02  0.00000000000E+00 0.  1.
<scales pt_clust_5="13000.00000" pt_clust_6="13000.00000" pt_clust_7="13000.00000" pt_clust_8="13000.00000" pt_clust_9="23.89227"></scales>
<clustering>
<clus scale="   23.892">  2  9  1 -1</clus>
<clus scale="   74.426">  5  6 -1 -1</clus>
<clus scale="   89.848">  7  8 -1 -1</clus>
<clus scale="   98.806">  2  5  1 -1</clus>
<clus scale="  110.888">  1  5  2 -1</clus>
</clustering>
</event>
<event>
 9    1  0.2802611E-005  0.5133271E+03  0.7546771E-02  0.1010416E+00
          1   -1    0    0  502    0  0.00000000000E+00  0.00000000000E+00  0.36208278156E+03  0.36208278156E+03  0.00000000000E+00 0. -1.
         -2   -1    0    0    0  501 -0.00000000000E+00 -0.00000000000E+00 -0.93163646135E+03  0.93163646135E+03  0.00000000000E+00 0.  1.
        -24    2    1    2    0    0 -0.13746468942E+03  0.46989784072E+03 -0.30578193467E+03  0.58325482436E+03  0.83564807297E+02 0.  0.
         23    2    1    2    0    0  0.12589372861E+03 -0.50125618084E+03 -0.88279365621E+02  0.53181725823E+03  0.89046954017E+02 0.  0.
         13    1    3    3    0    0 -0.72771095243E+02  0.28897815696E+03 -0.23111457456E+03  0.37711795777E+03  0.00000000000E+00 0. -1.
        -14    1    3    3    0    0 -0.64693594177E+02  0.18091968376E+03 -0.74667360109E+02  0.20613686659E+03  0.00000000000E+00 0.  1.
        -13    1    4    4    0    0  0.32132518773E+02 -0.35700048692E+02  0.33758578895E+01  0.48149648554E+02  0.00000000000E+00 0.  1.
         13    1    4    4    0    0  0.93761209840E+02 -0.46555613215E+03 -0.91655223511E+02  0.48366760967E+03  0.00000000000E+00 0. -1.
         21    1    1    2  502  501  0.11570960807E+02  0.31358340118E+02 -0.17549237950E+03  0.17864716033E+03  0.00000000000E+00 0. -1.
<scales pt_clust_5="13000.00000" pt_clust_6="13000.00000" pt_clust_7="13000.00000" pt_clust_8="13000.00000" pt_clust_9="33.42503"></scales>
<clustering>
<clus scale="   33.425">  2  9  1 -1</clus>
<clus scale="   83.565">  5  6 -1 -1</clus>
<clus scale="   89.047">  7  8 -1 -1</clus>
<clus scale="  512.405">  2  5  1 -1</clus>
<clus scale="  513.327">  1  5  2 -1</clus>
</clustering>
</event>
<event>
 9    1  0.2802611E-005  0.9658260E+02  0.7546771E-02  0.1288361E+00
         -2   -1    0    0    0  501 -0.00000000000E+00  0.00000000000E+00  0.18264630942E+03  0.18264630942E+03  0.00000000000E+00 0.  1.
          1   -1    0    0  502    0  0.00000000000E+00 -0.00000000000E+00 -0.15924004189E+03  0.15924004189E+03  0.00000000000E+00 0. -1.
        -24    2    1    2    0    0 -0.64149128700E+01 -0.26239840135E+02  0.33633695893E+02  0.10034348842E+03  0.90597515702E+02 0.  0.
         23    2    1    2    0    0  0.29689962934E+02  0.13783936131E+02 -0.10488786859E+03  0.14327040265E+03  0.91942658781E+02 0.  0.
         13    1    3    3    0    0  0.18312612915E+02 -0.33556637263E+02 -0.18282864358E+02  0.42375261950E+02  0.00000000000E+00 0. -1.
        -14    1    3    3    0    0 -0.24727525785E+02  0.73167971281E+01  0.51916560251E+02  0.57968226469E+02  0.00000000000E+00 0.  1.
        -11    1    4    4    0    0  0.47548919600E+02  0.29273006398E+02 -0.10578077005E+03  0.11961346066E+03  0.00000000000E+00 0. -1.
         11    1    4    4    0    0 -0.17858956667E+02 -0.15489070267E+02  0.89290146735E+00  0.23656941983E+02  0.00000000000E+00 0.  1.
         21    1    1    2  502  501 -0.23275050064E+02  0.12455904004E+02  0.94660440223E+02  0.98272460248E+02  0.00000000000E+00 0. -1.
<scales pt_clust_5="13000.00000" pt_clust_6="13000.00000" pt_clust_7="13000.00000" pt_clust_8="13000.00000" pt_clust_9="26.39844"></scales>
<clustering>
<clus scale="   26.398">  1  9  2 -1</clus>
<clus scale="   90.598">  5  6 -1 -1</clus>
<clus scale="   91.943">  7  8 -1 -1</clus>
<clus scale="   95.303">  1  5  2 -1</clus>
<clus scale="   96.583">  2  5  1 -1</clus>
</clustering>
</event>
<event>
 9    1  0.2802611E-005  0.9862034E+02  0.7546771E-02  0.1286558E+00
         -4   -1    0    0    0  501 -0.00000000000E+00  0.00000000000E+00  0.13444099848E+03  0.13444099848E+03  0.00000000000E+00 0.  1.
          3   -1    0    0  502    0  0.00000000000E+00 -0.00000000000E+00 -0.17850803074E+03  0.17850803074E+03  0.00000000000E+00 0. -1.
         23    2    1    2    0    0 -0.30887492070E+02  0.29680003829E+02  0.74098673549E+02  0.12457181770E+03  0.90512897146E+02 0.  0.
        -24    2    1    2    0    0  0.11702700760E+02 -0.37511470432E+02 -0.13356485671E+03  0.16256012541E+03  0.83917577455E+02 0.  0.
         13    1    4    4    0    0  0.35982784061E+02 -0.51233152465E+02 -0.10741748928E+03  0.12433066260E+03  0.00000000000E+00 0. -1.
        -14    1    4    4    0    0 -0.24280083300E+02  0.13721682032E+02 -0.26147367431E+02  0.38229462806E+02  0.00000000000E+00 0.  1.
        -13    1    3    3    0    0  0.23101111910E+02 -0.90343914734E+01  0.46359796676E+02  0.52578630151E+02  0.00000000000E+00 0.  1.
         13    1    3    3    0    0 -0.53988603979E+02  0.38714395302E+02  0.27738876873E+02  0.71993187549E+02  0.00000000000E+00 0. -1.
         21    1    1    2  502  501  0.19184791309E+02  0.78314666031E+01  0.15399150902E+02  0.25817086110E+02  0.00000000000E+00 0. -1.
<scales pt_clust_5="13000.00000" pt_clust_6="13000.00000" pt_clust_7="13000.00000" pt_clust_8="13000.00000" pt_clust_9="20.72168"></scales>
<clustering>
<clus scale="   20.722">  1  9  2 -1</clus>
<clus scale="   83.918">  5  6 -1 -1</clus>
<clus scale="   90.513">  7  8 -1 -1</clus>
<clus scale="   92.604">  2  5  1 -1</clus>
<clus scale="   92.604">  2  5  1 -1</clus>
</clustering>
</event>
<event>
 9    1  0.2802611E-005  0.1021537E+03  0.7546771E-02  0.1281273E+00
         -2   -1    0    0    0  501 -0.00000000000E+00  0.00000000000E+00  0.58077151693E+02  0.58077151693E+02  0.00000000000E+00 0.  1.
          1   -1    0    0  502    0  0.00000000000E+00 -0.00000000000E+00 -0.30615860068E+03  0.30615860068E+03  0.00000000000E+00 0. -1.
         23    2    1    2    0    0 -0.34117062598E+02  0.26033200574E+02 -0.15116530525E+02  0.10275137072E+03  0.92128351751E+02 0.  0.
        -24    2    1    2    0    0  0.49917572368E+02 -0.13307291066E+02 -0.20983390685E+03  0.23071672689E+03  0.80815169215E+02 0.  0.
         11    1    4    4    0    0  0.46296933867E+02  0.22076240036E+01 -0.20972393928E+03  0.21478456741E+03  0.00000000000E+00 0. -1.
        -12    1    4    4    0    0  0.36206385011E+01 -0.15514915070E+02 -0.10996756777E+00  0.15932159479E+02  0.00000000000E+00 0.  1.
        -11    1    3    3    0    0 -0.61801535466E+02  0.32864501454E+02 -0.22084040186E+02  0.73397616261E+02  0.00000000000E+00 0.  1.
         11    1    3    3    0    0  0.27684472868E+02 -0.68313008795E+01  0.69675096609E+01  0.29353754455E+02  0.00000000000E+00 0. -1.
         21    1    1    2  502  501 -0.15800509770E+02 -0.12725909508E+02 -0.23131011611E+02  0.30767654768E+02  0.00000000000E+00 0. -1.
<scales pt_clust_5="13000.00000" pt_clust_6="13000.00000" pt_clust_7="13000.00000" pt_clust_8="13000.00000" pt_clust_9="20.28805"></scales>
<clustering>
<clus scale="   20.288">  2  9  1 -1</clus>
<clus scale="   80.815">  5  6 -1 -1</clus>
<clus scale="   92.081">  2  5  1 -1</clus>
<clus scale="   92.128">  7  8 -1 -1</clus>
<clus scale="   20.288">  2  5  1 -1</clus>
</clustering>
</event>
<event>
 9    1  0.2802611E-005  0.1015593E+03  0.7546771E-02  0.1295339E+00
          1   -1    0    0  502    0  0.00000000000E+00  0.00000000000E+00  0.84714815283E+02  0.84714815283E+02  0.00000000000E+00 0. -1.
         -2   -1    0    0    0  501 -0.00000000000E+00 -0.00000000000E+00 -0.17542229188E+03  0.17542229188E+03  0.00000000000E+00 0.  1.
        -24    2    1    2    0    0 -0.43041211078E+02 -0.18350195926E+02 -0.10446174760E+03  0.12780506459E+03  0.56855978412E+02 0.  0.
         23    2    1    2    0    0  0.29127270400E+02  0.33468641900E+02  0.30141289052E+02  0.10605087984E+03  0.91486304650E+02 0.  0.
         13    1    3    3    0    0 -0.23100583603E+02  0.19009584722E+02 -0.55663206100E+02  0.63193304925E+02  0.00000000000E+00 0. -1.
        -14    1    3    3    0    0 -0.19940627475E+02 -0.37359780648E+02 -0.48798541497E+02  0.64611759661E+02  0.00000000000E+00 0.  1.
        -13    1    4    4    0    0  0.41201705772E+02  0.10450276867E+02  0.55385718651E+02  0.69816664742E+02  0.00000000000E+00 0. -1.
         13    1    4    4    0    0 -0.12074435372E+02  0.23018365033E+02 -0.25244429599E+02  0.36234215103E+02  0.00000000000E+00 0.  1.
         21    1    1    2  502  501  0.13913940678E+02 -0.15118445974E+02 -0.16387018051E+02  0.26281162731E+02  0.00000000000E+00 0. -1.
<scales pt_clust_5="13000.00000" pt_clust_6="13000.00000" pt_clust_7="13000.00000" pt_clust_8="13000.00000" pt_clust_9="20.54666"></scales>
<clustering>
<clus scale="   20.547">  2  9  1 -1</clus>
<clus scale="   56.856">  5  6 -1 -1</clus>
<clus scale="   71.952">  2  5  1 -1</clus>
<clus scale="   91.486">  7  8 -1 -1</clus>
<clus scale="  101.559">  1  5  2 -1</clus>
</clustering>
</event>
<event>
 9    1  0.2802611E-005  0.1819376E+03  0.7546771E-02  0.1166834E+00
         -2   -1    0    0    0  501 -0.00000000000E+00  0.00000000000E+00  0.99002134738E+02  0.99002134738E+02  0.00000000000E+00 0.  1.
          1   -1    0    0  502    0  0.00000000000E+00 -0.00000000000E+00 -0.50501812768E+03  0.50501812768E+03  0.00000000000E+00 0. -1.
        -24    2    1    2    0    0 -0.15291337553E+03  0.17038193813E+01 -0.39995396039E+02  0.17852419094E+03  0.82981031750E+02 0.  0.
         23    2    1    2    0    0  0.17357911651E+03  0.25872167215E+01 -0.33196129279E+03  0.38542710546E+03  0.90660632754E+02 0.  0.
         11    1    3    3    0    0 -0.46315129392E+02  0.30004378541E+02 -0.40129806149E+02  0.68233095224E+02  0.00000000000E+00 0. -1.
        -12    1    3    3    0    0 -0.10659824614E+03 -0.28300559160E+02  0.13441010964E+00  0.11029109572E+03  0.00000000000E+00 0.  1.
        -13    1    4    4    0    0  0.12172959442E+03  0.14211802240E+02 -0.29837892328E+03  0.32256790191E+03  0.00000000000E+00 0. -1.
         13    1    4    4    0    0  0.51849522090E+02 -0.11624585518E+02 -0.33582369508E+02  0.62859203552E+02  0.00000000000E+00 0.  1.
         21    1    1    2  502  501 -0.20665740984E+02 -0.42910361028E+01 -0.34059304113E+02  0.40068966020E+02  0.00000000000E+00 0. -1.
<scales pt_clust_5="13000.00000" pt_clust_6="13000.00000" pt_clust_7="13000.00000" pt_clust_8="13000.00000" pt_clust_9="21.10654"></scales>
<clustering>
<clus scale="   21.107">  2  9  1 -1</clus>
<clus scale="   82.981">  5  6 -1 -1</clus>
<clus scale="   90.661">  7  8 -1 -1</clus>
<clus scale="  178.235">  1  5  2 -1</clus>
<clus scale="   21.107">  2  5  1 -1</clus>
</clustering>
</event>
<event>
 9    1  0.2802611E-005  0.1735809E+03  0.7546771E-02  0.1202806E+00
          1   -1    0    0  502    0  0.00000000000E+00  0.00000000000E+00  0.17597179053E+03  0.17597179053E+03  0.00000000000E+00 0. -1.
         -2   -1    0    0    0  501 -0.00000000000E+00 -0.00000000000E+00 -0.56995706943E+03  0.56995706943E+03  0.00000000000E+00 0.  1.
         23    2    1    2    0    0  0.51985576750E+02 -0.12519531396E+03 -0.28354131130E+02  0.16666177990E+03  0.92713673754E+02 0.  0.
        -24    2    1    2    0    0  0.32073872347E+02  0.19486513649E+01  0.72039326876E+02  0.11686987504E+03  0.86234404659E+02 0.  0.
         13    1    4    4    0    0 -0.11065204961E+02 -0.18228489225E+02  0.65395237081E+02  0.68784108725E+02  0.00000000000E+00 0. -1.
        -14    1    4    4    0    0  0.43139077308E+02  0.20177140590E+02  0.66440897950E+01  0.48085766320E+02  0.00000000000E+00 0.  1.
        -11    1    3    3    0    0 -0.11180921724E+02 -0.83047616347E+02 -0.34184189213E+02  0.90501261779E+02  0.00000000000E+00 0. -1.
         11    1    3    3    0    0  0.63166498474E+02 -0.42147697609E+02  0.58300580829E+01  0.76160518121E+02  0.00000000000E+00 0.  1.
         21    1    1    2  502  501 -0.84059449096E+02  0.12324666259E+03 -0.43767047465E+03  0.46239720502E+03  0.00000000000E+00 0.  1.
<scales pt_clust_5="13000.00000" pt_clust_6="13000.00000" pt_clust_7="13000.00000" pt_clust_8="13000.00000" pt_clust_9="146.74643"></scales>
<clustering>
<clus scale="   86.234">  5  6 -1 -1</clus>
<clus scale="   92.027">  1  5  2 -1</clus>
<clus scale="   92.714">  7  8 -1 -1</clus>
<clus scale="  146.746">  2  9  1 -1</clus>
<clus scale="   92.027">  1  5  2 -1</clus>
</clustering>
</event>
<event>
 9    1  0.2802611E-005  0.1026594E+03  0.7546771E-02  0.1280436E+00
          3   -1    0    0  502    0  0.00000000000E+00  0.00000000000E+00  0.41481198459E+03  0.41481198459E+03  0.00000000000E+00 0. -1.
         -4   -1    0    0    0  501 -0.00000000000E+00 -0.00000000000E+00 -0.36417778126E+02  0.36417778126E+02  0.00000000000E+00 0.  1.
         23    2    1    2    0    0 -0.20867237409E+02  0.22912343936E+02  0.16034229527E+03  0.18737675060E+03  0.91869352407E+02 0.  0.
        -24    2    1    2    0    0  0.45998913591E+02 -0.35334562432E+02  0.21376087048E+03  0.23549237583E+03  0.79990736801E+02 0.  0.
         11    1    4    4    0    0  0.28252978045E+02  0.95146074882E+01  0.16208800359E+03  0.16480679425E+03  0.00000000000E+00 0. -1.
        -12    1    4    4    0    0  0.17745935547E+02 -0.44849169920E+02  0.51672866890E+02  0.70685581582E+02  0.00000000000E+00 0.  1.
        -13    1    3    3    0    0  0.31139040675E+02  0.24564330686E+02  0.10069166235E+03  0.10822133368E+03  0.00000000000E+00 0. -1.
         13    1    3    3    0    0 -0.52006278084E+02 -0.16519867501E+01  0.59650632917E+02  0.79155416920E+02  0.00000000000E+00 0.  1.
         21    1    1    2  502  501 -0.25131676182E+02  0.12422218496E+02  0.42910407202E+01  0.28360636286E+02  0.00000000000E+00 0. -1.
<scales pt_clust_5="13000.00000" pt_clust_6="13000.00000" pt_clust_7="13000.00000" pt_clust_8="13000.00000" pt_clust_9="28.03413"></scales>
<clustering>
<clus scale="   28.034">  2  9  1 -1</clus>
<clus scale="   79.991">  5  6 -1 -1</clus>
<clus scale="   91.869">  7  8 -1 -1</clus>
<clus scale="   92.182">  1  5  2 -1</clus>
<clus scale="   92.182">  1  5  2 -1</clus>
</clustering>
</event>
<event>
 9    1  0.2802611E-005  0.2012312E+03  0.7546771E-02  0.1149730E+00
          1   -1    0    0  502    0  0.00000000000E+00  0.00000000000E+00  0.11387581398E+03  0.11387581398E+03  0.00000000000E+00 0. -1.
         -2   -1    0    0    0  501 -0.00000000000E+00 -0.00000000000E+00 -0.49875061864E+03  0.49875061864E+03  0.00000000000E+00 0.  1.
         23    2    1    2    0    0 -0.12621252403E+03  0.11038458224E+03 -0.22513733744E+03  0.29589301860E+03  0.93549454996E+02 0.  0.
        -24    2    1    2    0    0  0.17299733441E+03 -0.72951144934E+02 -0.87845041924E+02  0.22314601355E+03  0.82628352949E+02 0.  0.
         11    1    4    4    0    0  0.13098501969E+03 -0.88538588722E+02 -0.81551448369E+02  0.17789546314E+03  0.00000000000E+00 0. -1.
        -12    1    4    4    0    0  0.42012314720E+02  0.15587443788E+02 -0.62935935544E+01  0.45250550403E+02  0.00000000000E+00 0.  1.
        -11    1    3    3    0    0 -0.31755615036E+02  0.88341087862E+02 -0.94692699312E+02  0.13333894478E+03  0.00000000000E+00 0. -1.
         11    1    3    3    0    0 -0.94456908992E+02  0.22043494373E+02 -0.13044463812E+03  0.16255407382E+03  0.00000000000E+00 0.  1.
         21    1    1    2  502  501 -0.46784810383E+02 -0.37433437302E+02 -0.71892425299E+02  0.93587400467E+02  0.00000000000E+00 0.  1.
<scales pt_clust_5="13000.00000" pt_clust_6="13000.00000" pt_clust_7="13000.00000" pt_clust_8="13000.00000" pt_clust_9="59.91728"></scales>
<clustering>
<clus scale="   59.917">  2  9  1 -1</clus>
<clus scale="   82.628">  5  6 -1 -1</clus>
<clus scale="   93.549">  7  8 -1 -1</clus>
<clus scale="  196.392">  1  5  2 -1</clus>
<clus scale="  196.392">  1  5  2 -1</clus>
</clustering>
</event>
<event>
 9    1  0.2802611E-005  0.1031014E+03  0.7546771E-02  0.1277854E+00
          1   -1    0    0  502    0  0.00000000000E+00  0.00000000000E+00  0.72180496165E+02  0.72180496165E+02  0.00000000000E+00 0. -1.
         -2   -1    0    0    0  501 -0.00000000000E+00 -0.00000000000E+00 -0.20379926043E+03  0.20379926043E+03  0.00000000000E+00 0.  1.
         23    2    1    2    0    0  0.17841861937E+02  0.38321452044E+02 -0.80169851367E+02  0.12611344594E+03  0.87695669528E+02 0.  0.
        -24    2    1    2    0    0 -0.20943785761E+02 -0.70880891333E+02 -0.41401418383E+02  0.11565094621E+03  0.78729416338E+02 0.  0.
         13    1    4    4    0    0  0.23193947716E+02 -0.83709021780E+01 -0.29106560657E+02  0.38147386374E+02  0.00000000000E+00 0. -1.
        -14    1    4    4    0    0 -0.44137733477E+02 -0.62509989155E+02 -0.12294857727E+02  0.77503559835E+02  0.00000000000E+00 0.  1.
        -11    1    3    3    0    0  0.40297700031E+02  0.12054254668E+02 -0.81301089770E+02  0.91537297760E+02  0.00000000000E+00 0. -1.
         11    1    3    3    0    0 -0.22455838094E+02  0.26267197375E+02  0.11312384035E+01  0.34576148177E+02  0.00000000000E+00 0.  1.
         21    1    1    2  502  501  0.31019238240E+01  0.32559439289E+02 -0.10047494516E+02  0.34215364447E+02  0.00000000000E+00 0.  1.
<scales pt_clust_5="13000.00000" pt_clust_6="13000.00000" pt_clust_7="13000.00000" pt_clust_8="13000.00000" pt_clust_9="32.70687"></scales>
<clustering>
<clus scale="   32.707">  1  9  2 -1</clus>
<clus scale="   78.729">  5  6 -1 -1</clus>
<clus scale="   87.696">  7  8 -1 -1</clus>
<clus scale="   95.591">  1  5  2 -1</clus>
<clus scale="   32.707">  1  5  2 -1</clus>
</clustering>
</event>
<event>
 9    1  0.2802611E-005  0.9107125E+02  0.7546771E-02  0.1305623E+00
          1   -1    0    0  502    0  0.00000000000E+00  0.00000000000E+00  0.21198961065E+03  0.21198961065E+03  0.00000000000E+00 0. -1.
         -2   -1    0    0    0  501 -0.00000000000E+00 -0.00000000000E+00 -0.19920031405E+03  0.19920031405E+03  0.00000000000E+00 0.  1.
        -24    2    1    2    0    0  0.19754513451E+02  0.21362291363E+02 -0.85885031578E+02  0.12224826092E+03  0.81986647416E+02 0.  0.
         23    2    1    2    0    0 -0.61010239569E+01 -0.48123952922E+01  0.18171485930E+03  0.20317426529E+03  0.90548938949E+02 0.  0.
         13    1    3    3    0    0 -0.30130805692E+02  0.11569387964E+02 -0.51831988429E+02  0.61059571027E+02  0.00000000000E+00 0. -1.
        -14    1    3    3    0    0  0.49885319143E+02  0.97929033980E+01 -0.34053043149E+02  0.61188689891E+02  0.00000000000E+00 0.  1.
        -11    1    4    4    0    0  0.20337251644E+02 -0.32748677203E+02  0.36992029753E+02  0.53427426742E+02  0.00000000000E+00 0.  1.
         11    1    4    4    0    0 -0.26438275601E+02  0.27936281911E+02  0.14472282954E+03  0.14974683855E+03  0.00000000000E+00 0. -1.
         21    1    1    2  502  501 -0.13653489494E+02 -0.16549896070E+02 -0.83040531115E+02  0.85767398486E+02  0.00000000000E+00 0.  1.
<scales pt_clust_5="13000.00000" pt_clust_6="13000.00000" pt_clust_7="13000.00000" pt_clust_8="13000.00000" pt_clust_9="21.45500"></scales>
<clustering>
<clus scale="   21.455">  2  9  1 -1</clus>
<clus scale="   81.987">  5  6 -1 -1</clus>
<clus scale="   82.563">  2  5  1 -1</clus>
<clus scale="   90.549">  7  8 -1 -1</clus>
<clus scale="   91.071">  1  5  2 -1</clus>
</clustering>
</event>
<event>
 9    1  0.2802611E-005  0.1396722E+03  0.7546771E-02  0.1215576E+00
         -2   -1    0    0    0  501 -0.00000000000E+00  0.00000000000E+00  0.19316633489E+03  0.19316633489E+03  0.00000000000E+00 0.  1.
          1   -1    0    0  502    0  0.00000000000E+00 -0.00000000000E+00 -0.56870021701E+03  0.56870021701E+03  0.00000000000E+00 0. -1.
         23    2    1    2    0    0 -0.88387328454E+01  0.43388298435E+02  0.10845348254E+03  0.14768584848E+03  0.89934889369E+02 0.  0.
        -24    2    1    2    0    0  0.88988370272E+02 -0.68292755159E+02 -0.50823527782E+03  0.52681848254E+03  0.81558478876E+02 0.  0.
         11    1    4    4    0    0  0.54617214938E+02 -0.69213824751E+02 -0.45486662670E+03  0.46333275493E+03  0.00000000000E+00 0. -1.
        -12    1    4    4    0    0  0.34371155335E+02  0.92106959252E+00 -0.53368651117E+02  0.63485727611E+02  0.00000000000E+00 0.  1.
        -11    1    3    3    0    0 -0.28882706869E+01 -0.27205951057E+02  0.44539839075E+02  0.52271437184E+02  0.00000000000E+00 0. -1.
         11    1    3    3    0    0 -0.59504621585E+01  0.70594249492E+02  0.63913643464E+02  0.95414411292E+02  0.00000000000E+00 0.  1.
         21    1    1    2  502  501 -0.80149637427E+02  0.24904456724E+02  0.24247913159E+02  0.87362220879E+02  0.00000000000E+00 0.  1.
<scales pt_clust_5="13000.00000" pt_clust_6="13000.00000" pt_clust_7="13000.00000" pt_clust_8="13000.00000" pt_clust_9="83.92971"></scales>
<clustering>
<clus scale="   81.558">  5  6 -1 -1</clus>
<clus scale="   83.930">  1  9  2 -1</clus>
<clus scale="   89.935">  7  8 -1 -1</clus>
<clus scale="  134.432">  2  5  1 -1</clus>
<clus scale="  134.432">  2  5  1 -1</clus>
</clustering>
</event>
<event>
 9    1  0.2802611E-005  0.1297605E+03  0.7546771E-02  0.1230814E+00
          1   -1    0    0  502    0  0.00000000000E+00  0.00000000000E+00  0.27081410719E+03  0.27081410719E+03  0.00000000000E+00 0. -1.
         -2   -1    0    0    0  501 -0.00000000000E+00 -0.00000000000E+00 -0.12142505995E+03  0.12142505995E+03  0.00000000000E+00 0.  1.
        -24    2    1    2    0    0 -0.29570249341E+02  0.86259351464E+02  0.52582220005E+02  0.13279619589E+03  0.80962117202E+02 0.  0.
         23    2    1    2    0    0  0.94540917749E+02 -0.45251901581E+02  0.11450223035E+03  0.18060182722E+03  0.92306768524E+02 0.  0.
         11    1    3    3    0    0 -0.17685268274E+01  0.92890508647E+02  0.44968242915E+02  0.10321781413E+03  0.00000000000E+00 0. -1.
        -12    1    3    3    0    0 -0.27801722514E+02 -0.66311571829E+01  0.76139770901E+01  0.29578381759E+02  0.00000000000E+00 0.  1.
        -11    1    4    4    0    0  0.10982310451E+03 -0.29090088535E+02  0.77835875576E+02  0.13771627015E+03  0.00000000000E+00 0. -1.
         11    1    4    4    0    0 -0.15282186766E+02 -0.16161813045E+02  0.36666354777E+02  0.42885557078E+02  0.00000000000E+00 0.  1.
         21    1    1    2  502  501 -0.64970668407E+02 -0.41007449883E+02 -0.17695403120E+02  0.78841144022E+02  0.00000000000E+00 0.  1.
<scales pt_clust_5="13000.00000" pt_clust_6="13000.00000" pt_clust_7="13000.00000" pt_clust_8="13000.00000" pt_clust_9="76.82967"></scales>
<clustering>
<clus scale="   76.830">  2  9  1 -1</clus>
<clus scale="   80.962">  5  6 -1 -1</clus>
<clus scale="   92.307">  7  8 -1 -1</clus>
<clus scale="  121.951">  2  5  1 -1</clus>
<clus scale="  129.760">  1  5  2 -1</clus>
</clustering>
</event>
<event>
 9    1  0.2802611E-005  0.1385583E+03  0.7546771E-02  0.1216726E+00
          1   -1    0    0  502    0  0.00000000000E+00  0.00000000000E+00  0.61597385280E+02  0.61597385280E+02  0.00000000000E+00 0. -1.
         -2   -1    0    0    0  501 -0.00000000000E+00 -0.00000000000E+00 -0.46687740881E+03  0.46687740881E+03  0.00000000000E+00 0.  1.
        -24    2    1    2    0    0  0.35296042499E+02  0.10958960528E+03 -0.18814020515E+03  0.23762776726E+03  0.88399812087E+02 0.  0.
         23    2    1    2    0    0 -0.30032447298E+01 -0.94251983917E+02 -0.95884410031E+02  0.16443127833E+03  0.94611676095E+02 0.  0.
         13    1    3    3    0    0 -0.29310194368E+02  0.33015945827E+02 -0.46328860878E+02  0.63996121156E+02  0.00000000000E+00 0. -1.
        -14    1    3    3    0    0  0.64606236867E+02  0.76573659450E+02 -0.14181134427E+03  0.17363164610E+03  0.00000000000E+00 0.  1.
        -13    1    4    4    0    0  0.13317007631E+02 -0.81513107624E+02 -0.11131501049E+03  0.13861010413E+03  0.00000000000E+00 0.  1.
         13    1    4    4    0    0 -0.16320252360E+02 -0.12738876293E+02  0.15430600458E+02  0.25821174195E+02  0.00000000000E+00 0. -1.
         21    1    1    2  502  501 -0.32292797769E+02 -0.15337621361E+02 -0.12125540834E+03  0.12641574850E+03  0.00000000000E+00 0. -1.
<scales pt_clust_5="13000.00000" pt_clust_6="13000.00000" pt_clust_7="13000.00000" pt_clust_8="13000.00000" pt_clust_9="35.75007"></scales>
<clustering>
<clus scale="   35.750">  2  9  1 -1</clus>
<clus scale="   88.400">  5  6 -1 -1</clus>
<clus scale="   94.612">  7  8 -1 -1</clus>
<clus scale="  134.393">  2  5  1 -1</clus>
<clus scale="  138.558">  1  5  2 -1</clus>
</clustering>
</event>
<event>
 9    1  0.2802611E-005  0.2813686E+03  0.7546771E-02  0.1137678E+00
          1   -1    0    0  502    0  0.00000000000E+00  0.00000000000E+00  0.71725502486E+03  0.71725502486E+03  0.00000000000E+00 0. -1.
         -2   -1    0    0    0  501 -0.00000000000E+00 -0.00000000000E+00 -0.33970589391E+03  0.33970589391E+03  0.00000000000E+00 0.  1.
        -24    2    1    2    0    0  0.35481291995E+02  0.40069292847E+02  0.28065200673E+02  0.99918852776E+02  0.79571674234E+02 0.  0.
         23    2    1    2    0    0  0.26193811292E+03 -0.12805104225E+01  0.53614746234E+03  0.60376293235E+03  0.91991099617E+02 0.  0.
         13    1    3    3    0    0  0.51525870868E+02  0.53806497915E+02  0.18675724328E+02  0.76803888351E+02  0.00000000000E+00 0. -1.
        -14    1    3    3    0    0 -0.16044578874E+02 -0.13737205069E+02  0.93894763447E+01  0.23114964425E+02  0.00000000000E+00 0.  1.
        -11    1    4    4    0    0  0.93252683572E+02  0.41313878531E+02  0.23072009165E+03  0.25225911330E+03  0.00000000000E+00 0.  1.
         11    1    4    4    0    0  0.16868542934E+03 -0.42594388953E+02  0.30542737068E+03  0.35150381905E+03  0.00000000000E+00 0. -1.
         21    1    1    2  502  501 -0.29741940491E+03 -0.38788782424E+02 -0.18666353206E+03  0.35327913364E+03  0.00000000000E+00 0.  1.
<scales pt_clust_5="13000.00000" pt_clust_6="13000.00000" pt_clust_7="13000.00000" pt_clust_8="13000.00000" pt_clust_9="265.90585"></scales>
<clustering>
<clus scale="   79.572">  5  6 -1 -1</clus>
<clus scale="   91.991">  7  8 -1 -1</clus>
<clus scale="   95.896">  2  5  1 -1</clus>
<clus scale="  265.906">  2  9  1 -1</clus>
<clus scale="  281.369">  1  5  2 -1</clus>
</clustering>
</event>
<event>
 9    1  0.2802611E-005  0.1009769E+03  0.7546771E-02  0.1285251E+00
          1   -1    0    0  502    0  0.00000000000E+00  0.00000000000E+00  0.26825167543E+03  0.26825167543E+03  0.00000000000E+00 0. -1.
         -2   -1    0    0    0  501 -0.00000000000E+00 -0.00000000000E+00 -0.14861128174E+03  0.14861128174E+03  0.00000000000E+00 0.  1.
        -24    2    1    2    0    0  0.43868966729E+02 -0.41294006844E+02 -0.91925619699E+02  0.13616179071E+03  0.80374327055E+02 0.  0.
         23    2    1    2    0    0 -0.91564138301E+02 -0.24633079677E+01  0.17124349464E+03  0.20444215053E+03  0.63892089898E+02 0.  0.
         11    1    3    3    0    0  0.11348475503E+02  0.16854682577E+02  0.26329973526E+01  0.20489043317E+02  0.00000000000E+00 0. -1.
        -12    1    3    3    0    0  0.32520491227E+02 -0.58148689420E+02 -0.94558617052E+02  0.11567274739E+03  0.00000000000E+00 0.  1.
        -13    1    4    4    0    0 -0.75843233728E+02  0.17417736229E+02  0.15734384842E+03  0.17553535335E+03  0.00000000000E+00 0. -1.
         13    1    4    4    0    0 -0.15720904572E+02 -0.19881044196E+02  0.13899646213E+02  0.28906797189E+02  0.00000000000E+00 0.  1.
         21    1    1    2  502  501  0.47695171571E+02  0.43757314811E+02  0.40322518751E+02  0.76259015921E+02  0.00000000000E+00 0. -1.
<scales pt_clust_5="13000.00000" pt_clust_6="13000.00000" pt_clust_7="13000.00000" pt_clust_8="13000.00000" pt_clust_9="64.72659"></scales>
<clustering>
<clus scale="   63.892">  7  8 -1 -1</clus>
<clus scale="   64.727">  1  9  2 -1</clus>
<clus scale="   80.374">  5  6 -1 -1</clus>
<clus scale="   88.422">  1  7  2 -1</clus>
<clus scale="   64.727">  1  5  2 -1</clus>
</clustering>
</event>
<event>
 9    1  0.2802611E-005  0.1089743E+03  0.7546771E-02  0.1267467E+00
          1   -1    0    0  502    0  0.00000000000E+00  0.00000000000E+00  0.51718928270E+03  0.51718928270E+03  0.00000000000E+00 0. -1.
         -2   -1    0    0    0  501 -0.00000000000E+00 -0.00000000000E+00 -0.33538872842E+02  0.33538872842E+02  0.00000000000E+00 0.  1.
        -24    2    1    2    0    0 -0.28818782509E+02 -0.26193718568E+02  0.11689159881E+03  0.14832041198E+03  0.82575211905E+02 0.  0.
         23    2    1    2    0    0  0.54944855276E+02  0.31807406445E+02  0.35575336310E+03  0.37350782913E+03  0.94429840792E+02 0.  0.
         11    1    3    3    0    0 -0.42044236532E+02 -0.34544208527E+00  0.11099598081E+03  0.11869264894E+03  0.00000000000E+00 0. -1.
        -12    1    3    3    0    0  0.13225454024E+02 -0.25848276483E+02  0.58956179926E+01  0.29627763041E+02  0.00000000000E+00 0.  1.
        -13    1    4    4    0    0  0.11699988247E+02  0.51515365912E+02  0.97246779319E+02  0.11066914086E+03  0.00000000000E+00 0.  1.
         13    1    4    4    0    0  0.43244867029E+02 -0.19707959466E+02  0.25850658379E+03  0.26283868827E+03  0.00000000000E+00 0. -1.
         21    1    1    2  502  501 -0.26126072768E+02 -0.56136878770E+01  0.11005447948E+02  0.28899914436E+02  0.00000000000E+00 0. -1.
<scales pt_clust_5="13000.00000" pt_clust_6="13000.00000" pt_clust_7="13000.00000" pt_clust_8="13000.00000" pt_clust_9="26.72237"></scales>
<clustering>
<clus scale="   26.722">  2  9  1 -1</clus>
<clus scale="   82.575">  5  6 -1 -1</clus>
<clus scale="   94.430">  7  8 -1 -1</clus>
<clus scale="   98.879">  2  5  1 -1</clus>
<clus scale="  108.974">  1  5  2 -1</clus>
</clustering>
</event>
<event>
 9    1  0.2802611E-005  0.9506646E+02  0.7546771E-02  0.1296983E+00
         -4   -1    0    0    0  501 -0.00000000000E+00  0.00000000000E+00  0.79739720340E+02  0.79739720340E+02  0.00000000000E+00 0.  1.
          3   -1    0    0  502    0  0.00000000000E+00 -0.00000000000E+00 -0.18387979012E+03  0.18387979012E+03  0.00000000000E+00 0. -1.
        -24    2    1    2    0    0 -0.47171619659E+02 -0.84421295511E+01 -0.11988952219E+01  0.92315955855E+02  0.78894658267E+02 0.  0.
         23    2    1    2    0    0  0.21241713621E+02 -0.21863288123E+02 -0.86401812296E+02  0.12812567981E+03  0.89563959795E+02 0.  0.
         11    1    3    3    0    0 -0.13735268395E+02 -0.41067309266E+02  0.96299809126E+01  0.44361222037E+02  0.00000000000E+00 0. -1.
        -12    1    3    3    0    0 -0.33436351264E+02  0.32625179715E+02 -0.10828876134E+02  0.47954733819E+02  0.00000000000E+00 0.  1.
        -11    1    4    4    0    0 -0.85999806129E+01  0.23665735828E+02 -0.64868690323E+02  0.69584292071E+02  0.00000000000E+00 0. -1.
         11    1    4    4    0    0  0.29841694234E+02 -0.45529023951E+02 -0.21533121973E+02  0.58541387741E+02  0.00000000000E+00 0.  1.
         21    1    1    2  502  501  0.25929906038E+02  0.30305417674E+02 -0.16539362263E+02  0.43177874793E+02  0.00000000000E+00 0.  1.
<scales pt_clust_5="13000.00000" pt_clust_6="13000.00000" pt_clust_7="13000.00000" pt_clust_8="13000.00000" pt_clust_9="39.88456"></scales>
<clustering>
<clus scale="   39.885">  1  9  2 -1</clus>
<clus scale="   78.895">  5  6 -1 -1</clus>
<clus scale="   85.090">  1  5  2 -1</clus>
<clus scale="   89.564">  7  8 -1 -1</clus>
<clus scale="   95.066">  2  5  1 -1</clus>
</clustering>
</event>
<event>
 9    1  0.2802611E-005  0.1049920E+03  0.7546771E-02  0.1274145E+00
          1   -1    0    0  502    0  0.00000000000E+00  0.00000000000E+00  0.50039760737E+03  0.50039760737E+03  0.00000000000E+00 0. -1.
         -2   -1    0    0    0  501 -0.00000000000E+00 -0.00000000000E+00 -0.48471935228E+02  0.48471935228E+02  0.00000000000E+00 0.  1.
        -24    2    1    2    0    0 -0.59720283690E+02 -0.20202052981E+02  0.51163373270E+02  0.11403421798E+03  0.80071698353E+02 0.  0.
         23    2    1    2    0    0  0.59072532327E+01  0.52989252704E+02  0.27800439223E+03  0.29684856309E+03  0.89386077044E+02 0.  0.
         11    1    3    3    0    0 -0.26834823486E+02 -0.27090141235E+02  0.66844749349E+02  0.76955857601E+02  0.00000000000E+00 0. -1.
        -12    1    3    3    0    0 -0.32885460204E+02  0.68880882534E+01 -0.15681376079E+02  0.37078360378E+02  0.00000000000E+00 0.  1.
        -13    1    4    4    0    0 -0.13324274221E+02 -0.18505619404E+02  0.12268370436E+03  0.12478495722E+03  0.00000000000E+00 0. -1.
         13    1    4    4    0    0  0.19231527454E+02  0.71494872109E+02  0.15532068787E+03  0.17206360587E+03  0.00000000000E+00 0.  1.
         21    1    1    2  502  501  0.53813030457E+02 -0.32787199723E+02  0.12275790664E+03  0.13798676152E+03  0.00000000000E+00 0. -1.
<scales pt_clust_5="13000.00000" pt_clust_6="13000.00000" pt_clust_7="13000.00000" pt_clust_8="13000.00000" pt_clust_9="63.01462"></scales>
<clustering>
<clus scale="   63.015">  1  9  2 -1</clus>
<clus scale="   80.072">  5  6 -1 -1</clus>
<clus scale="   89.386">  7  8 -1 -1</clus>
<clus scale="   97.185">  2  5  1 -1</clus>
<clus scale="   63.015">  1  5  2 -1</clus>
</clustering>
</event>
<event>
 9    1  0.2802611E-005  0.9459367E+02  0.7546771E-02  0.1295560E+00
         -4   -1    0    0    0  501 -0.00000000000E+00  0.00000000000E+00  0.14793384702E+03  0.14793384702E+03  0.00000000000E+00 0.  1.
          3   -1    0    0  502    0  0.00000000000E+00 -0.00000000000E+00 -0.18194974599E+03  0.18194974599E+03  0.00000000000E+00 0. -1.
        -24    2    1    2    0    0 -0.32416485434E+01 -0.96287796112E+01  0.97046328649E+02  0.12855027314E+03  0.83689671637E+02 0.  0.
         23    2    1    2    0    0  0.30204586130E+02 -0.14429131496E+02 -0.13429354403E+03  0.16505351149E+03  0.89929910645E+02 0.  0.
         11    1    3    3    0    0  0.29613932613E+02  0.20187035644E+02  0.63544851693E+02  0.72955120380E+02  0.00000000000E+00 0. -1.
        -12    1    3    3    0    0 -0.32855581157E+02 -0.29815815255E+02  0.33501476956E+02  0.55595152763E+02  0.00000000000E+00 0.  1.
        -11    1    4    4    0    0  0.59431065779E+02  0.66085504806E+01 -0.88230655734E+02  0.10658505116E+03  0.00000000000E+00 0. -1.
         11    1    4    4    0    0 -0.29226479649E+02 -0.21037681976E+02 -0.46062888294E+02  0.58468460332E+02  0.00000000000E+00 0.  1.
         21    1    1    2  502  501 -0.26962937586E+02  0.24057911107E+02  0.32313164140E+01  0.36279808377E+02  0.00000000000E+00 0.  1.
<scales pt_clust_5="13000.00000" pt_clust_6="13000.00000" pt_clust_7="13000.00000" pt_clust_8="13000.00000" pt_clust_9="36.13562"></scales>
<clustering>
<clus scale="   36.136">  1  9  2 -1</clus>
<clus scale="   83.690">  5  6 -1 -1</clus>
<clus scale="   88.682">  1  5  2 -1</clus>
<clus scale="   89.930">  7  8 -1 -1</clus>
<clus scale="   94.594">  2  5  1 -1</clus>
</clustering>
</event>
<event>
 9    1  0.2802611E-005  0.9079216E+02  0.7546771E-02  0.1307306E+00
         -2   -1    0    0    0  501 -0.00000000000E+00  0.00000000000E+00  0.35187972697E+03  0.35187972697E+03  0.00000000000E+00 0.  1.
          1   -1    0    0  502    0  0.00000000000E+00 -0.00000000000E+00 -0.52397722217E+02  0.52397722217E+02  0.00000000000E+00 0. -1.
         23    2    1    2    0    0  0.17345965369E+02  0.21051325179E+02  0.23085530571E+03  0.24939809347E+03  0.90339338299E+02 0.  0.
        -24    2    1    2    0    0 -0.71748808666E+01  0.18473898002E+00 -0.17821749943E+01  0.80637649623E+02  0.80297829018E+02 0.  0.
         11    1    4    4    0    0  0.30290926714E+02 -0.21665826716E+02 -0.12316077742E+01  0.37262114086E+02  0.00000000000E+00 0. -1.
        -12    1    4    4    0    0 -0.37465807580E+02  0.21850565696E+02 -0.55056722006E+00  0.43375535537E+02  0.00000000000E+00 0.  1.
        -11    1    3    3    0    0  0.53775845072E+02  0.34757663624E+01  0.12866976905E+03  0.13949850154E+03  0.00000000000E+00 0. -1.
         11    1    3    3    0    0 -0.36429879703E+02  0.17575558817E+02  0.10218553666E+03  0.10989959193E+03  0.00000000000E+00 0.  1.
         21    1    1    2  502  501 -0.10171084502E+02 -0.21236064159E+02  0.70408874034E+02  0.74241706094E+02  0.00000000000E+00 0.  1.
<scales pt_clust_5="13000.00000" pt_clust_6="13000.00000" pt_clust_7="13000.00000" pt_clust_8="13000.00000" pt_clust_9="23.54615"></scales>
<clustering>
<clus scale="   23.546">  1  9  2 -1</clus>
<clus scale="   80.298">  5  6 -1 -1</clus>
<clus scale="   80.807">  2  5  1 -1</clus>
<clus scale="   90.339">  7  8 -1 -1</clus>
<clus scale="   80.807">  2  5  1 -1</clus>
</clustering>
</event>
<event>
 9    1  0.2802611E-005  0.1292268E+03  0.7546771E-02  0.1231280E+00
         -2   -1    0    0    0  501 -0.00000000000E+00  0.00000000000E+00  0.17161134461E+03  0.17161134461E+03  0.00000000000E+00 0.  1.
          1   -1    0    0  502    0  0.00000000000E+00 -0.00000000000E+00 -0.17584968874E+03  0.17584968874E+03  0.00000000000E+00 0. -1.
         23    2    1    2    0    0  0.53624738185E+02  0.10292942904E+02 -0.22050145530E+02  0.10861252240E+03  0.91262883395E+02 0.  0.
        -24    2    1    2    0    0 -0.13040655235E+03  0.19793830667E+02  0.21251888259E+02  0.15631067037E+03  0.81140115162E+02 0.  0.
         11    1    4    4    0    0 -0.62155116056E+02 -0.30578314432E+02  0.17271156740E+02  0.71390367842E+02  0.00000000000E+00 0. -1.
        -12    1    4    4    0    0 -0.68251436291E+02  0.50372145099E+02  0.39807315193E+01  0.84920302526E+02  0.00000000000E+00 0.  1.
        -11    1    3    3    0    0  0.18933404763E+02 -0.24526213692E+02  0.25572681978E+02  0.40174258394E+02  0.00000000000E+00 0.  1.
         11    1    3    3    0    0  0.34691333422E+02  0.34819156595E+02 -0.47622827508E+02  0.68438264008E+02  0.00000000000E+00 0. -1.
         21    1    1    2  502  501  0.76781814163E+02 -0.30086773571E+02 -0.34400868562E+01  0.82537840580E+02  0.00000000000E+00 0. -1.
<scales pt_clust_5="13000.00000" pt_clust_6="13000.00000" pt_clust_7="13000.00000" pt_clust_8="13000.00000" pt_clust_9="82.46612"></scales>
<clustering>
<clus scale="   81.140">  5  6 -1 -1</clus>
<clus scale="   82.466">  2  9  1 -1</clus>
<clus scale="   91.263">  7  8 -1 -1</clus>
<clus scale="  122.288">  2  5  1 -1</clus>
<clus scale="   82.466">  2  5  1 -1</clus>
</clustering>
</event>
<event>
 9    1  0.2802611E-005  0.2492546E+03  0.7546771E-02  0.1114385E+00
         -2   -1    0    0    0  501 -0.00000000000E+00  0.00000000000E+00  0.75433340596E+03  0.75433340596E+03  0.00000000000E+00 0.  1.
          1   -1    0    0  502    0  0.00000000000E+00 -0.00000000000E+00 -0.30691790450E+03  0.30691790450E+03  0.00000000000E+00 0. -1.
         23    2    1    2    0    0 -0.21400448313E+03 -0.91602957793E+01  0.50301796691E+03  0.55437831864E+03  0.91795508224E+02 0.  0.
        -24    2    1    2    0    0  0.34176241885E+03  0.22624434881E+02  0.28879901704E+02  0.35311785031E+03  0.80899638377E+02 0.  0.
         13    1    4    4    0    0  0.31349975558E+03  0.11889916918E+02  0.47957152851E+02  0.31736943044E+03  0.00000000000E+00 0. -1.
        -14    1    4    4    0    0  0.28262663274E+02  0.10734517963E+02 -0.19077251147E+02  0.35748419861E+02  0.00000000000E+00 0.  1.
        -13    1    3    3    0    0 -0.19279783166E+03 -0.28804476144E+02  0.36952215007E+03  0.41778860818E+03  0.00000000000E+00 0.  1.
         13    1    3    3    0    0 -0.21206651468E+02  0.19644180365E+02  0.13349581684E+03  0.13658971046E+03  0.00000000000E+00 0. -1.
         21    1    1    2  502  501 -0.12775793572E+03 -0.13464139102E+02 -0.84482367147E+02  0.15375514151E+03  0.00000000000E+00 0.  1.
<scales pt_clust_5="13000.00000" pt_clust_6="13000.00000" pt_clust_7="13000.00000" pt_clust_8="13000.00000" pt_clust_9="128.46546"></scales>
<clustering>
<clus scale="   80.900">  5  6 -1 -1</clus>
<clus scale="   91.796">  7  8 -1 -1</clus>
<clus scale="  128.465">  2  9  1 -1</clus>
<clus scale="  245.451">  2  5  1 -1</clus>
<clus scale="  128.465">  2  5  1 -1</clus>
</clustering>
</event>
<event>
 9    1  0.2802611E-005  0.1261365E+03  0.7546771E-02  0.1238665E+00
          1   -1    0    0  502    0  0.00000000000E+00  0.00000000000E+00  0.37529926409E+03  0.37529926409E+03  0.00000000000E+00 0. -1.
         -2   -1    0    0    0  501 -0.00000000000E+00 -0.00000000000E+00 -0.74108663589E+02  0.74108663589E+02  0.00000000000E+00 0.  1.
        -24    2    1    2    0    0  0.43513152494E+02 -0.33382953186E+02  0.10563947073E+02  0.12035559675E+03  0.10661170990E+03 0.  0.
         23    2    1    2    0    0 -0.36209811951E+02  0.60850878330E+02  0.27123181065E+03  0.29464323880E+03  0.90741187928E+02 0.  0.
         13    1    3    3    0    0 -0.30536810401E+02 -0.27280534385E+02 -0.12059476016E+02  0.42686711136E+02  0.00000000000E+00 0. -1.
        -14    1    3    3    0    0  0.74049962896E+02 -0.61024188010E+01  0.22623423090E+02  0.77668885613E+02  0.00000000000E+00 0.  1.
        -13    1    4    4    0    0  0.26640580134E+02  0.75279955647E+01  0.36161094254E+02  0.45541365425E+02  0.00000000000E+00 0.  1.
         13    1    4    4    0    0 -0.62850392085E+02  0.53322882766E+02  0.23507071639E+03  0.24910187337E+03  0.00000000000E+00 0. -1.
         21    1    1    2  502  501 -0.73033405430E+01 -0.27467925144E+02  0.19394842776E+02  0.34409092128E+02  0.00000000000E+00 0.  1.
<scales pt_clust_5="13000.00000" pt_clust_6="13000.00000" pt_clust_7="13000.00000" pt_clust_8="13000.00000" pt_clust_9="28.42227"></scales>
<clustering>
<clus scale="   28.422">  2  9  1 -1</clus>
<clus scale="   90.741">  7  8 -1 -1</clus>
<clus scale="  106.612">  5  6 -1 -1</clus>
<clus scale="  113.041">  1  7  2 -1</clus>
<clus scale="  113.041">  1  5  2 -1</clus>
</clustering>
</event>
<event>
 9    1  0.2802611E-005  0.1072170E+03  0.7546771E-02  0.1270530E+00
         -2   -1    0    0    0  501 -0.00000000000E+00  0.00000000000E+00  0.99444606772E+02  0.99444606772E+02  0.00000000000E+00 0.  1.
          1   -1    0    0  502    0  0.00000000000E+00 -0.00000000000E+00 -0.47403895403E+03  0.47403895403E+03  0.00000000000E+00 0. -1.
        -24    2    1    2    0    0 -0.27326411474E+02  0.66804441284E+02  0.28871621535E+02  0.11197859579E+03  0.80598196291E+02 0.  0.
         23    2    1    2    0    0  0.10811129702E+02 -0.52908422366E+02 -0.42065146438E+03  0.43391520003E+03  0.91752736472E+02 0.  0.
         11    1    3    3    0    0  0.20532179331E+02  0.45739286072E+02  0.32195565236E+02  0.59583614353E+02  0.00000000000E+00 0. -1.
        -12    1    3    3    0    0 -0.47858590804E+02  0.21065155211E+02 -0.33239437015E+01  0.52394981435E+02  0.00000000000E+00 0.  1.
        -13    1    4    4    0    0 -0.24343583886E+02 -0.63081842297E+02 -0.31276674318E+03  0.31999213201E+03  0.00000000000E+00 0. -1.
         13    1    4    4    0    0  0.35154713588E+02  0.10173419931E+02 -0.10788472119E+03  0.11392306802E+03  0.00000000000E+00 0.  1.
         21    1    1    2  502  501  0.16515281772E+02 -0.13896018917E+02  0.17185495581E+02  0.27589764989E+02  0.00000000000E+00 0.  1.
<scales pt_clust_5="13000.00000" pt_clust_6="13000.00000" pt_clust_7="13000.00000" pt_clust_8="13000.00000" pt_clust_9="21.58365"></scales>
<clustering>
<clus scale="   21.584">  1  9  2 -1</clus>
<clus scale="   80.598">  5  6 -1 -1</clus>
<clus scale="   91.753">  7  8 -1 -1</clus>
<clus scale="   97.842">  1  5  2 -1</clus>
<clus scale="  107.217">  2  5  1 -1</clus>
</clustering>
</event>
<event>
 9    1  0.2802611E-005  0.1647531E+03  0.7546771E-02  0.1186073E+00
          1   -1    0    0  502    0  0.00000000000E+00  0.00000000000E+00  0.83342217637E+03  0.83342217637E+03  0.00000000000E+00 0. -1.
         -2   -1    0    0    0  501 -0.00000000000E+00 -0.00000000000E+00 -0.67831559383E+02  0.67831559383E+02  0.00000000000E+00 0.  1.
        -24    2    1    2    0    0 -0.43681120638E+02 -0.11993737629E+03  0.17363688254E+03  0.22975363089E+03  0.79648913341E+02 0.  0.
         23    2    1    2    0    0  0.90287952637E+02  0.10468247981E+03  0.59867863888E+03  0.62200128675E+03  0.96742710846E+02 0.  0.
         13    1    3    3    0    0 -0.19743912150E+02 -0.30241737346E+02  0.11358595244E+03  0.11918956891E+03  0.00000000000E+00 0. -1.
        -14    1    3    3    0    0 -0.23937208488E+02 -0.89695638944E+02  0.60050930099E+02  0.11056406198E+03  0.00000000000E+00 0.  1.
        -13    1    4    4    0    0  0.10727320586E+03  0.82718402025E+02  0.54480981408E+03  0.56139790545E+03  0.00000000000E+00 0. -1.
         13    1    4    4    0    0 -0.16985253221E+02  0.21964077782E+02  0.53868824799E+02  0.60603381301E+02  0.00000000000E+00 0.  1.
         21    1    1    2  502  501 -0.46606831999E+02  0.15254896484E+02 -0.67249044235E+01  0.49498818119E+02  0.00000000000E+00 0.  1.
<scales pt_clust_5="13000.00000" pt_clust_6="13000.00000" pt_clust_7="13000.00000" pt_clust_8="13000.00000" pt_clust_9="49.03987"></scales>
<clustering>
<clus scale="   49.040">  2  9  1 -1</clus>
<clus scale="   79.649">  5  6 -1 -1</clus>
<clus scale="   96.743">  7  8 -1 -1</clus>
<clus scale="  155.333">  2  5  1 -1</clus>
<clus scale="  164.753">  1  5  2 -1</clus>
</clustering>
</event>
<event>
 9    1  0.2802611E-005  0.1020621E+03  0.7546771E-02  0.1281287E+00
          1   -1    0    0  502    0  0.00000000000E+00  0.00000000000E+00  0.15112904315E+03  0.15112904315E+03  0.00000000000E+00 0. -1.
         -2   -1    0    0    0  501 -0.00000000000E+00 -0.00000000000E+00 -0.17983306676E+03  0.17983306676E+03  0.00000000000E+00 0.  1.
         23    2    1    2    0    0  0.38119496279E+02  0.52156402876E+02 -0.55491887451E+02  0.12430772236E+03  0.90552050823E+02 0.  0.
        -24    2    1    2    0    0 -0.32383659298E+02 -0.29487964065E+02  0.96923572404E+02  0.13272350388E+03  0.79392116609E+02 0.  0.
         13    1    4    4    0    0 -0.26792572036E+02 -0.47163338328E+02  0.10015997987E+03  0.11390453883E+03  0.00000000000E+00 0. -1.
        -14    1    4    4    0    0 -0.55910872622E+01  0.17675374263E+02 -0.32364074674E+01  0.18818965046E+02  0.00000000000E+00 0.  1.
        -13    1    3    3    0    0  0.24730797636E+02 -0.46560431904E+01 -0.60697285635E+02  0.65707317503E+02  0.00000000000E+00 0.  1.
         13    1    3    3    0    0  0.13388698643E+02  0.56812446066E+02  0.52053981841E+01  0.58600404859E+02  0.00000000000E+00 0. -1.
         21    1    1    2  502  501 -0.57358369804E+01 -0.22668438810E+02 -0.70135708561E+02  0.73930883664E+02  0.00000000000E+00 0.  1.
<scales pt_clust_5="13000.00000" pt_clust_6="13000.00000" pt_clust_7="13000.00000" pt_clust_8="13000.00000" pt_clust_9="23.38286"></scales>
<clustering>
<clus scale="   23.383">  2  9  1 -1</clus>
<clus scale="   79.392">  5  6 -1 -1</clus>
<clus scale="   90.552">  7  8 -1 -1</clus>
<clus scale="   92.304">  1  5  2 -1</clus>
<clus scale="   92.304">  1  5  2 -1</clus>
</clustering>
</event>
<event>
 9    1  0.2802611E-005  0.1196116E+03  0.7546771E-02  0.1245956E+00
         -2   -1    0    0    0  501 -0.00000000000E+00  0.00000000000E+00  0.10406162776E+03  0.10406162776E+03  0.00000000000E+00 0.  1.
          1   -1    0    0  502    0  0.00000000000E+00 -0.00000000000E+00 -0.24927745327E+03  0.24927745327E+03  0.00000000000E+00 0. -1.
         23    2    1    2    0    0  0.23762584014E+02 -0.34120297218E+02 -0.25762859861E+01  0.97470448457E+02  0.88119214656E+02 0.  0.
        -24    2    1    2    0    0 -0.55392453118E+02  0.84583103542E+02 -0.14731524194E+03  0.19612915120E+03  0.80884103354E+02 0.  0.
         11    1    4    4    0    0 -0.14928559975E+02  0.76429399851E+02 -0.12963066779E+03  0.15122309710E+03  0.00000000000E+00 0. -1.
        -12    1    4    4    0    0 -0.40463893143E+02  0.81537036913E+01 -0.17684574153E+02  0.44906054103E+02  0.00000000000E+00 0.  1.
        -11    1    3    3    0    0  0.24090024507E+01 -0.40665073704E+02 -0.37924856347E+02  0.55657400596E+02  0.00000000000E+00 0. -1.
         11    1    3    3    0    0  0.21353581563E+02  0.65447764860E+01  0.35348570361E+02  0.41813047861E+02  0.00000000000E+00 0.  1.
         21    1    1    2  502  501  0.31629869104E+02 -0.50462806324E+02  0.46757024198E+01  0.59739481373E+02  0.00000000000E+00 0.  1.
<scales pt_clust_5="13000.00000" pt_clust_6="13000.00000" pt_clust_7="13000.00000" pt_clust_8="13000.00000" pt_clust_9="59.55622"></scales>
<clustering>
<clus scale="   59.556">  1  9  2 -1</clus>
<clus scale="   80.884">  5  6 -1 -1</clus>
<clus scale="   88.119">  7  8 -1 -1</clus>
<clus scale="  114.386">  2  5  1 -1</clus>
<clus scale="  114.386">  2  5  1 -1</clus>
</clustering>
</event>
<event>
 9    1  0.2802611E-005  0.1533400E+03  0.7546771E-02  0.1198030E+00
          1   -1    0    0  502    0  0.00000000000E+00  0.00000000000E+00  0.48856436824E+03  0.48856436824E+03  0.00000000000E+00 0. -1.
         -2   -1    0    0    0  501 -0.00000000000E+00 -0.00000000000E+00 -0.61405017954E+02  0.61405017954E+02  0.00000000000E+00 0.  1.
        -24    2    1    2    0    0 -0.82201957857E+02 -0.10232190029E+03  0.17256037783E+03  0.23068688572E+03  0.78818919605E+02 0.  0.
         23    2    1    2    0    0  0.56621236440E+02  0.10819897940E+03  0.25102736578E+03  0.29279345102E+03  0.88319211011E+02 0.  0.
         11    1    3    3    0    0 -0.37311169466E+02  0.41184441955E+01  0.40020368761E+02  0.54869981459E+02  0.00000000000E+00 0. -1.
        -12    1    3    3    0    0 -0.44890788391E+02 -0.10644034449E+03  0.13254000907E+03  0.17581690426E+03  0.00000000000E+00 0.  1.
        -13    1    4    4    0    0  0.15025653786E+02  0.10764499405E+03  0.19102628767E+03  0.21978229591E+03  0.00000000000E+00 0. -1.
         13    1    4    4    0    0  0.41595582654E+02  0.55398534377E+00  0.60001078109E+02  0.73011155109E+02  0.00000000000E+00 0.  1.
         21    1    1    2  502  501  0.25580721416E+02 -0.58770791036E+01  0.35716066768E+01  0.26489049459E+02  0.00000000000E+00 0. -1.
<scales pt_clust_5="13000.00000" pt_clust_6="13000.00000" pt_clust_7="13000.00000" pt_clust_8="13000.00000" pt_clust_9="26.24716"></scales>
<clustering>
<clus scale="   26.247">  2  9  1 -1</clus>
<clus scale="   78.819">  5  6 -1 -1</clus>
<clus scale="   88.319">  7  8 -1 -1</clus>
<clus scale="  148.072">  2  5  1 -1</clus>
<clus scale="  153.340">  1  5  2 -1</clus>
</clustering>
</event>
<event>
 9    1  0.2802611E-005  0.8903235E+02  0.7546771E-02  0.1308628E+00
         -2   -1    0    0    0  501 -0.00000000000E+00  0.00000000000E+00  0.36119823093E+02  0.36119823093E+02  0.00000000000E+00 0.  1.
          1   -1    0    0  502    0  0.00000000000E+00 -0.00000000000E+00 -0.39707735570E+03  0.39707735570E+03  0.00000000000E+00 0. -1.
        -24    2    1    2    0    0  0.80834070076E+01 -0.16231121272E+02 -0.53418681730E+02  0.10018582579E+03  0.82794041842E+02 0.  0.
         23    2    1    2    0    0  0.11527414271E+02  0.76835476931E+01 -0.29498615172E+03  0.30820781331E+03  0.88223059878E+02 0.  0.
         13    1    3    3    0    0 -0.34634842697E+02 -0.13367765799E+02 -0.41628172881E+02  0.55777901256E+02  0.00000000000E+00 0. -1.
        -14    1    3    3    0    0  0.42718249704E+02 -0.28633554734E+01 -0.11790508849E+02  0.44407924533E+02  0.00000000000E+00 0.  1.
        -13    1    4    4    0    0  0.65879542696E+01  0.42706348253E+02 -0.85955764956E+02  0.96206168471E+02  0.00000000000E+00 0.  1.
         13    1    4    4    0    0  0.49394600013E+01 -0.35022800560E+02 -0.20903038676E+03  0.21200164484E+03  0.00000000000E+00 0. -1.
         21    1    1    2  502  501 -0.19610821279E+02  0.85475735790E+01 -0.12552699158E+02  0.24803539696E+02  0.00000000000E+00 0. -1.
<scales pt_clust_5="13000.00000" pt_clust_6="13000.00000" pt_clust_7="13000.00000" pt_clust_8="13000.00000" pt_clust_9="21.39265"></scales>
<clustering>
<clus scale="   21.393">  1  9  2 -1</clus>
<clus scale="   82.794">  5  6 -1 -1</clus>
<clus scale="   83.656">  1  5  2 -1</clus>
<clus scale="   88.223">  7  8 -1 -1</clus>
<clus scale="   89.032">  2  5  1 -1</clus>
</clustering>
</event>
<event>
 9    1  0.2802611E-005  0.1382197E+03  0.7546771E-02  0.1218668E+00
          1   -1    0    0  502    0  0.00000000000E+00  0.00000000000E+00  0.19244499699E+03  0.19244499699E+03  0.00000000000E+00 0. -1.
         -2   -1    0    0    0  501 -0.00000000000E+00 -0.00000000000E+00 -0.23742044027E+03  0.23742044027E+03  0.00000000000E+00 0.  1.
        -24    2    1    2    0    0  0.80901370307E+00 -0.11062595683E+03 -0.11770681883E+03  0.18023722633E+03  0.79948769384E+02 0.  0.
         23    2    1    2    0    0  0.20355089834E+02  0.99149206714E+02  0.12901569673E+03  0.18841089408E+03  0.92783188835E+02 0.  0.
         11    1    3    3    0    0  0.26464273217E+02 -0.46707837868E+02 -0.13549748394E+02  0.55367639978E+02  0.00000000000E+00 0. -1.
        -12    1    3    3    0    0 -0.25655259514E+02 -0.63918118966E+02 -0.10415707044E+03  0.12486958635E+03  0.00000000000E+00 0.  1.
        -11    1    4    4    0    0 -0.24921778577E+02  0.10443048968E+02  0.21265618193E+01  0.27104881190E+02  0.00000000000E+00 0.  1.
         11    1    4    4    0    0  0.45276868411E+02  0.88706157746E+02  0.12688913491E+03  0.16130601289E+03  0.00000000000E+00 0. -1.
         21    1    1    2  502  501 -0.21164103537E+02  0.11476750120E+02 -0.56284321181E+02  0.61217316852E+02  0.00000000000E+00 0. -1.
<scales pt_clust_5="13000.00000" pt_clust_6="13000.00000" pt_clust_7="13000.00000" pt_clust_8="13000.00000" pt_clust_9="24.07561"></scales>
<clustering>
<clus scale="   24.076">  2  9  1 -1</clus>
<clus scale="   79.949">  5  6 -1 -1</clus>
<clus scale="   92.783">  7  8 -1 -1</clus>
<clus scale="  129.953">  2  5  1 -1</clus>
<clus scale="  138.220">  1  5  2 -1</clus>
</clustering>
</event>
<event>
 9    1  0.2802611E-005  0.1256476E+03  0.7546771E-02  0.1237857E+00
          1   -1    0    0  502    0  0.00000000000E+00  0.00000000000E+00  0.48518556958E+03  0.48518556958E+03  0.00000000000E+00 0. -1.
         -2   -1    0    0    0  501 -0.00000000000E+00 -0.00000000000E+00 -0.21194805516E+03  0.21194805516E+03  0.00000000000E+00 0.  1.
         23    2    1    2    0    0 -0.11532736443E+03 -0.71025408859E+02 -0.12624777302E+03  0.20657933024E+03  0.91605184357E+02 0.  0.
        -24    2    1    2    0    0  0.56689671761E+02  0.61858390052E+02  0.41387799450E+03  0.42948414425E+03  0.78239737506E+02 0.  0.
         11    1    4    4    0    0  0.48872015001E+02  0.80611618320E+02  0.33214143184E+03  0.34526024619E+03  0.00000000000E+00 0. -1.
        -12    1    4    4    0    0  0.78176567592E+01 -0.18753228267E+02  0.81736562660E+02  0.84223898053E+02  0.00000000000E+00 0.  1.
        -11    1    3    3    0    0 -0.10419121785E+03 -0.47062969594E+02 -0.13666189742E+03  0.17817745982E+03  0.00000000000E+00 0.  1.
         11    1    3    3    0    0 -0.11136146587E+02 -0.23962439264E+02  0.10414124400E+02  0.28401870419E+02  0.00000000000E+00 0. -1.
         21    1    1    2  502  501  0.58637692672E+02  0.91670188063E+01 -0.14392707068E+02  0.61070150257E+02  0.00000000000E+00 0.  1.
<scales pt_clust_5="13000.00000" pt_clust_6="13000.00000" pt_clust_7="13000.00000" pt_clust_8="13000.00000" pt_clust_9="59.34992"></scales>
<clustering>
<clus scale="   59.350">  2  9  1 -1</clus>
<clus scale="   78.240">  5  6 -1 -1</clus>
<clus scale="   91.605">  7  8 -1 -1</clus>
<clus scale="  116.264">  1  5  2 -1</clus>
<clus scale="  116.264">  1  5  2 -1</clus>
</clustering>
</event>
<event>
 9    1  0.2802611E-005  0.1748598E+03  0.7546771E-02  0.1174696E+00
         -4   -1    0    0    0  501 -0.00000000000E+00  0.00000000000E+00  0.13975654544E+03  0.13975654544E+03  0.00000000000E+00 0.  1.
          3   -1    0    0  502    0  0.00000000000E+00 -0.00000000000E+00 -0.38056241289E+03  0.38056241289E+03  0.00000000000E+00 0. -1.
        -24    2    1    2    0    0  0.50586009748E+02 -0.11671698128E+03  0.68320098084E+01  0.14992009687E+03  0.79041514321E+02 0.  0.
         23    2    1    2    0    0 -0.57632372432E+02  0.14404451898E+03 -0.27622648071E+03  0.33022730695E+03  0.93159496606E+02 0.  0.
         13    1    3    3    0    0  0.20086718762E+02  0.70063553441E+01  0.73027144238E+01  0.22492108034E+02  0.00000000000E+00 0. -1.
        -14    1    3    3    0    0  0.30499290986E+02 -0.12372333662E+03 -0.47070461538E+00  0.12742798884E+03  0.00000000000E+00 0.  1.
        -11    1    4    4    0    0 -0.58763179720E+02  0.45859903197E+02 -0.16970521690E+03  0.18535399282E+03  0.00000000000E+00 0. -1.
         11    1    4    4    0    0  0.11308072877E+01  0.98184615788E+02 -0.10652126381E+03  0.14487331413E+03  0.00000000000E+00 0.  1.
         21    1    1    2  502  501  0.70463626841E+01 -0.27327537705E+02  0.28588603449E+02  0.40171554503E+02  0.00000000000E+00 0.  1.
<scales pt_clust_5="13000.00000" pt_clust_6="13000.00000" pt_clust_7="13000.00000" pt_clust_8="13000.00000" pt_clust_9="28.22137"></scales>
<clustering>
<clus scale="   28.221">  1  9  2 -1</clus>
<clus scale="   79.042">  5  6 -1 -1</clus>
<clus scale="   93.159">  7  8 -1 -1</clus>
<clus scale="  167.764">  1  5  2 -1</clus>
<clus scale="  174.860">  2  5  1 -1</clus>
</clustering>
</event>
<event>
 9    1  0.2802611E-005  0.1692959E+03  0.7546771E-02  0.1185217E+00
          3   -1    0    0  502    0  0.00000000000E+00  0.00000000000E+00  0.34323185893E+03  0.34323185893E+03  0.00000000000E+00 0. -1.
         -4   -1    0    0    0  501 -0.00000000000E+00 -0.00000000000E+00 -0.17229716853E+03  0.17229716853E+03  0.00000000000E+00 0.  1.
         23    2    1    2    0    0  0.18979908927E+02 -0.87258565585E+02  0.41484005237E+02  0.15252904949E+03  0.11648988813E+03 0.  0.
        -24    2    1    2    0    0 -0.16441258527E+02  0.13817901502E+03  0.21226730345E+03  0.26574809274E+03  0.78745701538E+02 0.  0.
         11    1    4    4    0    0 -0.24974243975E+02  0.12653179274E+03  0.21531903932E+03  0.25099062957E+03  0.00000000000E+00 0. -1.
        -12    1    4    4    0    0  0.85329854476E+01  0.11647222282E+02 -0.30517358772E+01  0.14757463176E+02  0.00000000000E+00 0.  1.
        -13    1    3    3    0    0  0.24007810614E+02 -0.35342837842E+02  0.77947019669E+02  0.88888857752E+02  0.00000000000E+00 0. -1.
         13    1    3    3    0    0 -0.50279016871E+01 -0.51915727743E+02 -0.36463014433E+02  0.63640191734E+02  0.00000000000E+00 0.  1.
         21    1    1    2  502  501 -0.25386504000E+01 -0.50920449438E+02 -0.82816618286E+02  0.97251885232E+02  0.00000000000E+00 0.  1.
<scales pt_clust_5="13000.00000" pt_clust_6="13000.00000" pt_clust_7="13000.00000" pt_clust_8="13000.00000" pt_clust_9="50.98369"></scales>
<clustering>
<clus scale="   50.984">  2  9  1 -1</clus>
<clus scale="   78.746">  5  6 -1 -1</clus>
<clus scale="  116.490">  7  8 -1 -1</clus>
<clus scale="  145.918">  1  5  2 -1</clus>
<clus scale="  145.918">  1  5  2 -1</clus>
</clustering>
</event>
<event>
 9    1  0.2802611E-005  0.9738184E+02  0.7546771E-02  0.1287533E+00
          1   -1    0    0  502    0  0.00000000000E+00  0.00000000000E+00  0.41122055093E+03  0.41122055093E+03  0.00000000000E+00 0. -1.
         -2   -1    0    0    0  501 -0.00000000000E+00 -0.00000000000E+00 -0.42149288923E+02  0.42149288923E+02  0.00000000000E+00 0.  1.
         23    2    1    2    0    0 -0.45483008013E+02  0.15702835623E+02  0.43690248582E+02  0.10623448280E+03  0.84033591201E+02 0.  0.
        -24    2    1    2    0    0  0.42916029472E+02 -0.36809405178E+02  0.28454059230E+03  0.30109171846E+03  0.80598736737E+02 0.  0.
         13    1    4    4    0    0  0.16385532466E+02  0.23454655406E+02  0.12994830953E+03  0.13306077440E+03  0.00000000000E+00 0. -1.
        -14    1    4    4    0    0  0.26530497006E+02 -0.60264060584E+02  0.15459228277E+03  0.16803094406E+03  0.00000000000E+00 0.  1.
        -11    1    3    3    0    0 -0.24010324633E+02  0.49960759828E+02  0.32613559322E+02  0.64313431438E+02  0.00000000000E+00 0. -1.
         11    1    3    3    0    0 -0.21472683380E+02 -0.34257924205E+02  0.11076689260E+02  0.41921051363E+02  0.00000000000E+00 0.  1.
         21    1    1    2  502  501  0.25669785407E+01  0.21106569554E+02  0.40840421127E+02  0.46043638595E+02  0.00000000000E+00 0. -1.
<scales pt_clust_5="13000.00000" pt_clust_6="13000.00000" pt_clust_7="13000.00000" pt_clust_8="13000.00000" pt_clust_9="21.26209"></scales>
<clustering>
<clus scale="   21.262">  1  9  2 -1</clus>
<clus scale="   80.599">  5  6 -1 -1</clus>
<clus scale="   84.034">  7  8 -1 -1</clus>
<clus scale="   94.434">  1  5  2 -1</clus>
<clus scale="   21.262">  1  5  2 -1</clus>
</clustering>
</event>
<event>
 9    1  0.2802611E-005  0.1458103E+03  0.7546771E-02  0.1223324E+00
          1   -1    0    0  502    0  0.00000000000E+00  0.00000000000E+00  0.15786797006E+03  0.15786797006E+03  0.00000000000E+00 0. -1.
         -2   -1    0    0    0  501 -0.00000000000E+00 -0.00000000000E+00 -0.47784707856E+03  0.47784707856E+03  0.00000000000E+00 0.  1.
        -24    2    1    2    0    0  0.65382266171E+02  0.71399142745E+02  0.12714502964E+02  0.12848694786E+03  0.83513824428E+02 0.  0.
         23    2    1    2    0    0 -0.12604846768E+02  0.39938712451E+02  0.44939694177E+02  0.11000211026E+03  0.91251877983E+02 0.  0.
         11    1    3    3    0    0  0.60584392439E+02  0.81089303709E+02  0.32184625865E+02  0.10621578943E+03  0.00000000000E+00 0. -1.
        -12    1    3    3    0    0  0.47978737322E+01 -0.96901609636E+01 -0.19470122901E+02  0.22271158426E+02  0.00000000000E+00 0.  1.
        -13    1    4    4    0    0 -0.24373064086E+02  0.12724435021E+02 -0.23018062461E+02  0.35857895909E+02  0.00000000000E+00 0.  1.
         13    1    4    4    0    0  0.11768217319E+02  0.27214277430E+02  0.67957756638E+02  0.74144214354E+02  0.00000000000E+00 0. -1.
         21    1    1    2  502  501 -0.52777419403E+02 -0.11133785520E+03 -0.37763330564E+03  0.39722599050E+03  0.00000000000E+00 0.  1.
<scales pt_clust_5="13000.00000" pt_clust_6="13000.00000" pt_clust_7="13000.00000" pt_clust_8="13000.00000" pt_clust_9="119.52440"></scales>
<clustering>
<clus scale="   83.514">  5  6 -1 -1</clus>
<clus scale="   91.252">  7  8 -1 -1</clus>
<clus scale="  100.404">  1  7  2 -1</clus>
<clus scale="  119.524">  2  9  1 -1</clus>
<clus scale="  100.404">  1  5  2 -1</clus>
</clustering>
</event>
<event>
 9    1  0.2802611E-005  0.1258910E+03  0.7546771E-02  0.1238241E+00
         -2   -1    0    0    0  501 -0.00000000000E+00  0.00000000000E+00  0.57947696664E+03  0.57947696664E+03  0.00000000000E+00 0.  1.
          1   -1    0    0  502    0  0.00000000000E+00 -0.00000000000E+00 -0.26327377264E+03  0.26327377264E+03  0.00000000000E+00 0. -1.
         23    2    1    2    0    0  0.61811459220E+00  0.62095330245E+02  0.38153913995E+03  0.39737928713E+03  0.92097613579E+02 0.  0.
        -24    2    1    2    0    0 -0.43215581918E+02 -0.75387690427E+02 -0.23933399682E+03  0.26574252138E+03  0.76075194677E+02 0.  0.
         11    1    4    4    0    0 -0.63499719694E+02 -0.66794279453E+02 -0.20731716527E+03  0.22687903646E+03  0.00000000000E+00 0. -1.
        -12    1    4    4    0    0  0.20284137776E+02 -0.85934109730E+01 -0.32016831554E+02  0.38863484921E+02  0.00000000000E+00 0.  1.
        -13    1    3    3    0    0 -0.31072714767E+02  0.71453245458E+02  0.27608379266E+03  0.28686815867E+03  0.00000000000E+00 0. -1.
         13    1    3    3    0    0  0.31690829360E+02 -0.93579152127E+01  0.10545534729E+03  0.11051112847E+03  0.00000000000E+00 0.  1.
         21    1    1    2  502  501  0.42597467326E+02  0.13292360181E+02  0.17399805088E+03  0.17962893078E+03  0.00000000000E+00 0.  1.
<scales pt_clust_5="13000.00000" pt_clust_6="13000.00000" pt_clust_7="13000.00000" pt_clust_8="13000.00000" pt_clust_9="44.62321"></scales>
<clustering>
<clus scale="   44.623">  1  9  2 -1</clus>
<clus scale="   76.075">  5  6 -1 -1</clus>
<clus scale="   92.098">  7  8 -1 -1</clus>
<clus scale="  114.691">  2  5  1 -1</clus>
<clus scale="  114.691">  2  5  1 -1</clus>
</clustering>
</event>
<event>
 9    1  0.2802611E-005  0.1517731E+03  0.7546771E-02  0.1225464E+00
          1   -1    0    0  502    0  0.00000000000E+00  0.00000000000E+00  0.32122361707E+03  0.32122361707E+03  0.00000000000E+00 0. -1.
         -2   -1    0    0    0  501 -0.00000000000E+00 -0.00000000000E+00 -0.18727336186E+03  0.18727336186E+03  0.00000000000E+00 0.  1.
        -24    2    1    2    0    0 -0.19823423419E+02  0.13801306201E+02 -0.20738348584E+02  0.87633851049E+02  0.81646607883E+02 0.  0.
         23    2    1    2    0    0 -0.11182244872E+03  0.77648077538E+01  0.22510955960E+03  0.27001603994E+03  0.98335119468E+02 0.  0.
         13    1    3    3    0    0 -0.34445837354E+02 -0.21668302127E+02 -0.26893222461E+02  0.48777827364E+02  0.00000000000E+00 0. -1.
        -14    1    3    3    0    0  0.14622413934E+02  0.35469608327E+02  0.61548738768E+01  0.38856023685E+02  0.00000000000E+00 0.  1.
        -13    1    4    4    0    0 -0.67409125845E+02  0.52964775105E+02  0.12750930676E+03  0.15364856315E+03  0.00000000000E+00 0. -1.
         13    1    4    4    0    0 -0.44413322878E+02 -0.45199967351E+02  0.97600252847E+02  0.11636747679E+03  0.00000000000E+00 0.  1.
         21    1    1    2  502  501  0.13164587214E+03 -0.21566113954E+02 -0.70420955809E+02  0.15084708794E+03  0.00000000000E+00 0.  1.
<scales pt_clust_5="13000.00000" pt_clust_6="13000.00000" pt_clust_7="13000.00000" pt_clust_8="13000.00000" pt_clust_9="115.60831"></scales>
<clustering>
<clus scale="   81.647">  5  6 -1 -1</clus>
<clus scale="   85.145">  2  5  1 -1</clus>
<clus scale="   98.335">  7  8 -1 -1</clus>
<clus scale="  115.608">  2  9  1 -1</clus>
<clus scale="  151.773">  1  5  2 -1</clus>
</clustering>
</event>
<event>
 9    1  0.2802611E-005  0.1330709E+03  0.7546771E-02  0.1225793E+00
          3   -1    0    0  502    0  0.00000000000E+00  0.00000000000E+00  0.11102463955E+03  0.11102463955E+03  0.00000000000E+00 0. -1.
         -4   -1    0    0    0  501 -0.00000000000E+00 -0.00000000000E+00 -0.45685658671E+03  0.45685658671E+03  0.00000000000E+00 0.  1.
        -24    2    1    2    0    0  0.43953194032E+02 -0.14649603011E+03 -0.19738928044E+03  0.26226390663E+03  0.80167690415E+02 0.  0.
         23    2    1    2    0    0 -0.70154645130E+01  0.83415073611E+02  0.16509285572E+02  0.12519351439E+03  0.91616419304E+02 0.  0.
         13    1    3    3    0    0  0.58402167249E+02 -0.14479266370E+03 -0.19008639111E+03  0.24598488711E+03  0.00000000000E+00 0. -1.
        -14    1    3    3    0    0 -0.14448973217E+02 -0.17033664057E+01 -0.73028893380E+01  0.16279019529E+02  0.00000000000E+00 0.  1.
        -11    1    4    4    0    0 -0.41494072671E+02  0.76650746958E+02  0.20127101575E+01  0.87184551833E+02  0.00000000000E+00 0.  1.
         11    1    4    4    0    0  0.34478608158E+02  0.67643266532E+01  0.14496575414E+02  0.38008962553E+02  0.00000000000E+00 0. -1.
         21    1    1    2  502  501 -0.36937729519E+02  0.63080956496E+02 -0.16495195229E+03  0.18042380524E+03  0.00000000000E+00 0.  1.
<scales pt_clust_5="13000.00000" pt_clust_6="13000.00000" pt_clust_7="13000.00000" pt_clust_8="13000.00000" pt_clust_9="73.09995"></scales>
<clustering>
<clus scale="   73.100">  2  9  1 -1</clus>
<clus scale="   80.168">  5  6 -1 -1</clus>
<clus scale="   91.616">  7  8 -1 -1</clus>
<clus scale="  125.464">  2  5  1 -1</clus>
<clus scale="  133.071">  1  5  2 -1</clus>
</clustering>
</event>
<event>
 9    1  0.2802611E-005  0.9577925E+02  0.7546771E-02  0.1294161E+00
         -2   -1    0    0    0  501 -0.00000000000E+00  0.00000000000E+00  0.95148168433E+02  0.95148168433E+02  0.00000000000E+00 0.  1.
          1   -1    0    0  502    0  0.00000000000E+00 -0.00000000000E+00 -0.12168881279E+03  0.12168881279E+03  0.00000000000E+00 0. -1.
         23    2    1    2    0    0  0.17246123485E+02  0.24935365863E+02  0.11677072419E+02  0.95652928952E+02  0.89966257846E+02 0.  0.
        -24    2    1    2    0    0 -0.38208558921E+02 -0.14487273379E+02 -0.35257064553E+02  0.97575752935E+02  0.81290786041E+02 0.  0.
         13    1    4    4    0    0 -0.51784593450E+02  0.17866458935E+02 -0.28836930388E+02  0.61906566921E+02  0.00000000000E+00 0. -1.
        -14    1    4    4    0    0  0.13576034530E+02 -0.32353732314E+02 -0.64201341651E+01  0.35669186014E+02  0.00000000000E+00 0.  1.
        -11    1    3    3    0    0 -0.18787215759E+02  0.47302196259E+02  0.15140951752E+02  0.53100900810E+02  0.00000000000E+00 0. -1.
         11    1    3    3    0    0  0.36033339243E+02 -0.22366830396E+02 -0.34638793331E+01  0.42552028142E+02  0.00000000000E+00 0.  1.
         21    1    1    2  502  501  0.20962435436E+02 -0.10448092483E+02 -0.29606522228E+01  0.23608299336E+02  0.00000000000E+00 0.  1.
<scales pt_clust_5="13000.00000" pt_clust_6="13000.00000" pt_clust_7="13000.00000" pt_clust_8="13000.00000" pt_clust_9="23.42192"></scales>
<clustering>
<clus scale="   23.422">  2  9  1 -1</clus>
<clus scale="   81.291">  5  6 -1 -1</clus>
<clus scale="   87.681">  2  5  1 -1</clus>
<clus scale="   89.966">  7  8 -1 -1</clus>
<clus scale="   23.422">  2  5  1 -1</clus>
</clustering>
</event>
<event>
 9    1  0.2802611E-005  0.9161181E+02  0.7546771E-02  0.1305208E+00
          1   -1    0    0  502    0  0.00000000000E+00  0.00000000000E+00  0.25463520046E+03  0.25463520046E+03  0.00000000000E+00 0. -1.
         -2   -1    0    0    0  501 -0.00000000000E+00 -0.00000000000E+00 -0.14005722524E+03  0.14005722524E+03  0.00000000000E+00 0.  1.
        -24    2    1    2    0    0  0.68513079703E+01 -0.65748019372E+01  0.24650431461E+02  0.82312872210E+02  0.77958942520E+02 0.  0.
         23    2    1    2    0    0 -0.10388707292E+02  0.28738019178E+02  0.18898680068E+03  0.21080958857E+03  0.88265921021E+02 0.  0.
         13    1    3    3    0    0 -0.30333520831E+02  0.49898848187E+01 -0.76953287315E+01  0.31689738415E+02  0.00000000000E+00 0. -1.
        -14    1    3    3    0    0  0.37184828802E+02 -0.11564686756E+02  0.32345760192E+02  0.50623133795E+02  0.00000000000E+00 0.  1.
        -11    1    4    4    0    0 -0.15713807452E+02 -0.28392474447E+02  0.42399288102E+02  0.53392471205E+02  0.00000000000E+00 0.  1.
         11    1    4    4    0    0  0.53251001597E+01  0.57130493625E+02  0.14658751258E+03  0.15741711736E+03  0.00000000000E+00 0. -1.
         21    1    1    2  502  501  0.35373993219E+01 -0.22163217241E+02 -0.99059256927E+02  0.10156996493E+03  0.00000000000E+00 0.  1.
<scales pt_clust_5="13000.00000" pt_clust_6="13000.00000" pt_clust_7="13000.00000" pt_clust_8="13000.00000" pt_clust_9="22.44374"></scales>
<clustering>
<clus scale="   22.444">  2  9  1 -1</clus>
<clus scale="   77.959">  5  6 -1 -1</clus>
<clus scale="   81.728">  2  5  1 -1</clus>
<clus scale="   88.266">  7  8 -1 -1</clus>
<clus scale="   91.612">  1  5  2 -1</clus>
</clustering>
</event>
<event>
 9    1  0.2802611E-005  0.1179286E+03  0.7546771E-02  0.1250791E+00
         -2   -1    0    0    0  501 -0.00000000000E+00  0.00000000000E+00  0.12077530322E+03  0.12077530322E+03  0.00000000000E+00 0.  1.
          1   -1    0    0  502    0  0.00000000000E+00 -0.00000000000E+00 -0.31809481995E+03  0.31809481995E+03  0.00000000000E+00 0. -1.
        -24    2    1    2    0    0 -0.60911300005E+02  0.98970938865E+01  0.61168673444E+02  0.11744361687E+03  0.79014287303E+02 0.  0.
         23    2    1    2    0    0  0.75743958165E+02  0.76447484769E+01 -0.27042985651E+03  0.29553582503E+03  0.91725281193E+02 0.  0.
         13    1    3    3    0    0 -0.31360443182E+02 -0.14798664288E+02 -0.10372975833E+02  0.36194978781E+02  0.00000000000E+00 0. -1.
        -14    1    3    3    0    0 -0.29550856823E+02  0.24695758175E+02  0.71541649278E+02  0.81248638094E+02  0.00000000000E+00 0.  1.
        -11    1    4    4    0    0  0.58638391765E+02 -0.88155620795E+01 -0.26450274740E+03  0.27106803298E+03  0.00000000000E+00 0. -1.
         11    1    4    4    0    0  0.17105566400E+02  0.16460310556E+02 -0.59271091088E+01  0.24467792051E+02  0.00000000000E+00 0.  1.
         21    1    1    2  502  501 -0.14832658160E+02 -0.17541842363E+02  0.11941666331E+02  0.25890681265E+02  0.00000000000E+00 0. -1.
<scales pt_clust_5="13000.00000" pt_clust_6="13000.00000" pt_clust_7="13000.00000" pt_clust_8="13000.00000" pt_clust_9="22.97224"></scales>
<clustering>
<clus scale="   22.972">  1  9  2 -1</clus>
<clus scale="   79.014">  5  6 -1 -1</clus>
<clus scale="   91.725">  7  8 -1 -1</clus>
<clus scale="  108.337">  1  5  2 -1</clus>
<clus scale="  117.929">  2  5  1 -1</clus>
</clustering>
</event>
<event>
 9    1  0.2802611E-005  0.1022431E+03  0.7546771E-02  0.1279649E+00
         -2   -1    0    0    0  501 -0.00000000000E+00  0.00000000000E+00  0.17579638532E+03  0.17579638532E+03  0.00000000000E+00 0.  1.
          1   -1    0    0  502    0  0.00000000000E+00 -0.00000000000E+00 -0.11373089777E+03  0.11373089777E+03  0.00000000000E+00 0. -1.
        -24    2    1    2    0    0 -0.19714929035E+02 -0.38610111729E+02  0.35806594499E+02  0.98111726674E+02  0.80401365329E+02 0.  0.
         23    2    1    2    0    0  0.61735992710E+02  0.88433522800E+01 -0.32251018216E+02  0.11347173384E+03  0.89141284094E+02 0.  0.
         11    1    3    3    0    0  0.61270602177E+01  0.21026605176E+02  0.23201693132E+02  0.31905760551E+02  0.00000000000E+00 0. -1.
        -12    1    3    3    0    0 -0.25841989253E+02 -0.59636716905E+02  0.12604901367E+02  0.66205966123E+02  0.00000000000E+00 0.  1.
        -11    1    4    4    0    0  0.11184187586E+02  0.30603592487E+02 -0.46351377865E+02  0.56657886962E+02  0.00000000000E+00 0. -1.
         11    1    4    4    0    0  0.50551805124E+02 -0.21760240207E+02  0.14100359648E+02  0.56813846881E+02  0.00000000000E+00 0.  1.
         21    1    1    2  502  501 -0.42021063675E+02  0.29766759449E+02  0.58509911267E+02  0.77943822571E+02  0.00000000000E+00 0. -1.
<scales pt_clust_5="13000.00000" pt_clust_6="13000.00000" pt_clust_7="13000.00000" pt_clust_8="13000.00000" pt_clust_9="51.49592"></scales>
<clustering>
<clus scale="   51.496">  1  9  2 -1</clus>
<clus scale="   80.401">  5  6 -1 -1</clus>
<clus scale="   89.141">  7  8 -1 -1</clus>
<clus scale="   94.720">  1  5  2 -1</clus>
<clus scale="  102.243">  2  5  1 -1</clus>
</clustering>
</event>
<event>
 9    1  0.2802611E-005  0.1204265E+03  0.7546771E-02  0.1247183E+00
         -2   -1    0    0    0  501 -0.00000000000E+00  0.00000000000E+00  0.11125015377E+03  0.11125015377E+03  0.00000000000E+00 0.  1.
          1   -1    0    0  502    0  0.00000000000E+00 -0.00000000000E+00 -0.55138982508E+03  0.55138982508E+03  0.00000000000E+00 0. -1.
         23    2    1    2    0    0  0.49694017061E+02 -0.85353321672E+02  0.10145482175E+02  0.13688158093E+03  0.94228188662E+02 0.  0.
        -24    2    1    2    0    0 -0.26395884964E+02  0.68189511205E+02 -0.47534568245E+03  0.48747746975E+03  0.79587772378E+02 0.  0.
         11    1    4    4    0    0  0.23875341597E+02  0.45667825941E+02 -0.19006278675E+03  0.19692497345E+03  0.00000000000E+00 0. -1.
        -12    1    4    4    0    0 -0.50271226561E+02  0.22521685264E+02 -0.28528289570E+03  0.29055249630E+03  0.00000000000E+00 0.  1.
        -11    1    3    3    0    0  0.77945240242E+02 -0.59988583988E+02  0.10473814999E+02  0.98913050130E+02  0.00000000000E+00 0. -1.
         11    1    3    3    0    0 -0.28251223182E+02 -0.25364737684E+02 -0.32833282346E+00  0.37968530805E+02  0.00000000000E+00 0.  1.
         21    1    1    2  502  501 -0.23298132097E+02  0.17163810467E+02  0.25060528960E+02  0.38280928158E+02  0.00000000000E+00 0.  1.
<scales pt_clust_5="13000.00000" pt_clust_6="13000.00000" pt_clust_7="13000.00000" pt_clust_8="13000.00000" pt_clust_9="28.93785"></scales>
<clustering>
<clus scale="   28.938">  1  9  2 -1</clus>
<clus scale="   79.588">  5  6 -1 -1</clus>
<clus scale="   94.228">  7  8 -1 -1</clus>
<clus scale="  109.352">  2  5  1 -1</clus>
<clus scale="  109.352">  2  5  1 -1</clus>
</clustering>
</event>
<event>
 9    1  0.2802611E-005  0.1358927E+03  0.7546771E-02  0.1242069E+00
          3   -1    0    0  502    0  0.00000000000E+00  0.00000000000E+00  0.27846319510E+02  0.27846319510E+02  0.00000000000E+00 0. -1.
         -4   -1    0    0    0  501 -0.00000000000E+00 -0.00000000000E+00 -0.11126705218E+04  0.11126705218E+04  0.00000000000E+00 0.  1.
         23    2    1    2    0    0 -0.11386786355E+03  0.17893501902E+02 -0.61312604409E+03  0.63047477924E+03  0.91043031352E+02 0.  0.
        -24    2    1    2    0    0  0.25000477897E+02  0.32112537693E+01 -0.12007822706E+03  0.14675237199E+03  0.80511750847E+02 0.  0.
         11    1    4    4    0    0  0.35868176833E+02 -0.26706333361E+01 -0.12740610376E+03  0.13238570039E+03  0.00000000000E+00 0. -1.
        -12    1    4    4    0    0 -0.10867698935E+02  0.58818871054E+01  0.73278766974E+01  0.14366671604E+02  0.00000000000E+00 0.  1.
        -13    1    3    3    0    0 -0.39665284551E+02  0.48710892746E+02 -0.34088197407E+03  0.34662170462E+03  0.00000000000E+00 0.  1.
         13    1    3    3    0    0 -0.74202578995E+02 -0.30817390844E+02 -0.27224407002E+03  0.28385307461E+03  0.00000000000E+00 0. -1.
         21    1    1    2  502  501  0.88867385649E+02 -0.21104755672E+02 -0.35161993112E+03  0.36328969006E+03  0.00000000000E+00 0. -1.
<scales pt_clust_5="13000.00000" pt_clust_6="13000.00000" pt_clust_7="13000.00000" pt_clust_8="13000.00000" pt_clust_9="100.88604"></scales>
<clustering>
<clus scale="   80.512">  5  6 -1 -1</clus>
<clus scale="   84.365">  1  5  2 -1</clus>
<clus scale="   91.043">  7  8 -1 -1</clus>
<clus scale="  100.886">  2  9  1 -1</clus>
<clus scale="   84.365">  1  5  2 -1</clus>
</clustering>
</event>
<event>
 9    1  0.2802611E-005  0.1300588E+03  0.7546771E-02  0.1228773E+00
         -2   -1    0    0    0  501 -0.00000000000E+00  0.00000000000E+00  0.15869641368E+03  0.15869641368E+03  0.00000000000E+00 0.  1.
          1   -1    0    0  502    0  0.00000000000E+00 -0.00000000000E+00 -0.16694954229E+03  0.16694954229E+03  0.00000000000E+00 0. -1.
        -24    2    1    2    0    0  0.54132572973E+02  0.85353523422E+02  0.13494306963E+02  0.13416053732E+03  0.87185973853E+02 0.  0.
         23    2    1    2    0    0 -0.29658511725E+02 -0.81890567184E+02 -0.64204550328E+02  0.14235723598E+03  0.92507653960E+02 0.  0.
         13    1    3    3    0    0  0.60631379076E+02  0.33701219403E+02 -0.20077080799E+02  0.72215133396E+02  0.00000000000E+00 0. -1.
        -14    1    3    3    0    0 -0.64988061032E+01  0.51652304018E+02  0.33571387763E+02  0.61945403925E+02  0.00000000000E+00 0.  1.
        -11    1    4    4    0    0  0.96751029149E+01 -0.43879026714E+02 -0.74207396592E+02  0.86750874985E+02  0.00000000000E+00 0. -1.
         11    1    4    4    0    0 -0.39333614640E+02 -0.38011540470E+02  0.10002846264E+02  0.55606360993E+02  0.00000000000E+00 0.  1.
         21    1    1    2  502  501 -0.24474061248E+02 -0.34629562373E+01  0.42457114753E+02  0.49128182676E+02  0.00000000000E+00 0.  1.
<scales pt_clust_5="13000.00000" pt_clust_6="13000.00000" pt_clust_7="13000.00000" pt_clust_8="13000.00000" pt_clust_9="24.71784"></scales>
<clustering>
<clus scale="   24.718">  1  9  2 -1</clus>
<clus scale="   87.186">  5  6 -1 -1</clus>
<clus scale="   92.508">  7  8 -1 -1</clus>
<clus scale="  126.329">  1  5  2 -1</clus>
<clus scale="  130.059">  2  5  1 -1</clus>
</clustering>
</event>
<event>
 9    1  0.2802611E-005  0.2605032E+03  0.7546771E-02  0.1107288E+00
          3   -1    0    0  502    0  0.00000000000E+00  0.00000000000E+00  0.69717279520E+03  0.69717279520E+03  0.00000000000E+00 0. -1.
         -4   -1    0    0    0  501 -0.00000000000E+00 -0.00000000000E+00 -0.32833981145E+03  0.32833981145E+03  0.00000000000E+00 0.  1.
        -24    2    1    2    0    0  0.19726676144E+03  0.93908666992E+02 -0.15218098910E+03  0.27867275777E+03  0.82258370840E+02 0.  0.
         23    2    1    2    0    0 -0.21932974249E+03 -0.11431729441E+03  0.60376923713E+03  0.65879599066E+03  0.91109197430E+02 0.  0.
         13    1    3    3    0    0  0.39637701131E+02 -0.12117620493E+02 -0.13947405117E+02  0.43732301412E+02  0.00000000000E+00 0. -1.
        -14    1    3    3    0    0  0.15762906031E+03  0.10602628749E+03 -0.13823358398E+03  0.23494045636E+03  0.00000000000E+00 0.  1.
        -13    1    4    4    0    0 -0.98515981162E+02 -0.10118495418E+03  0.29827945397E+03  0.33002185709E+03  0.00000000000E+00 0.  1.
         13    1    4    4    0    0 -0.12081376132E+03 -0.13132340231E+02  0.30548978317E+03  0.32877413357E+03  0.00000000000E+00 0. -1.
         21    1    1    2  502  501  0.22062981042E+02  0.20408627417E+02 -0.82755264279E+02  0.88043858227E+02  0.00000000000E+00 0.  1.
<scales pt_clust_5="13000.00000" pt_clust_6="13000.00000" pt_clust_7="13000.00000" pt_clust_8="13000.00000" pt_clust_9="30.05474"></scales>
<clustering>
<clus scale="   30.055">  2  9  1 -1</clus>
<clus scale="   82.258">  5  6 -1 -1</clus>
<clus scale="   91.109">  7  8 -1 -1</clus>
<clus scale="  257.541">  2  5  1 -1</clus>
<clus scale="  260.503">  1  5  2 -1</clus>
</clustering>
</event>
<event>
 9    1  0.2802611E-005  0.1543633E+03  0.7546771E-02  0.1197626E+00
         -2   -1    0    0    0  501 -0.00000000000E+00  0.00000000000E+00  0.16607426121E+03  0.16607426121E+03  0.00000000000E+00 0.  1.
          1   -1    0    0  502    0  0.00000000000E+00 -0.00000000000E+00 -0.40046719377E+03  0.40046719377E+03  0.00000000000E+00 0. -1.
        -24    2    1    2    0    0 -0.10754965748E+03  0.45906354343E+02 -0.55862640139E+02  0.15093163083E+03  0.77365369697E+02 0.  0.
         23    2    1    2    0    0  0.12373370710E+03 -0.32627189323E+02 -0.27504406393E+03  0.31685169650E+03  0.91494244149E+02 0.  0.
         11    1    3    3    0    0 -0.11797759336E+03  0.38900824027E+02 -0.39605625191E+02  0.13038631904E+03  0.00000000000E+00 0. -1.
        -12    1    3    3    0    0  0.10427935878E+02  0.70055303160E+01 -0.16257014948E+02  0.20545311794E+02  0.00000000000E+00 0.  1.
        -13    1    4    4    0    0  0.45449525884E+02  0.15150501251E+02 -0.17363180738E+03  0.18011996454E+03  0.00000000000E+00 0. -1.
         13    1    4    4    0    0  0.78284181217E+02 -0.47777690574E+02 -0.10141225655E+03  0.13673173196E+03  0.00000000000E+00 0.  1.
         21    1    1    2  502  501 -0.16184049618E+02 -0.13279165020E+02  0.96513771511E+02  0.98758127650E+02  0.00000000000E+00 0.  1.
<scales pt_clust_5="13000.00000" pt_clust_6="13000.00000" pt_clust_7="13000.00000" pt_clust_8="13000.00000" pt_clust_9="20.93465"></scales>
<clustering>
<clus scale="   20.935">  1  9  2 -1</clus>
<clus scale="   77.365">  5  6 -1 -1</clus>
<clus scale="   91.494">  7  8 -1 -1</clus>
<clus scale="  146.432">  1  5  2 -1</clus>
<clus scale="  154.363">  2  5  1 -1</clus>
</clustering>
</event>
<event>
 9    1  0.2802611E-005  0.1956824E+03  0.7546771E-02  0.1154574E+00
          1   -1    0    0  502    0  0.00000000000E+00  0.00000000000E+00  0.11976055714E+04  0.11976055714E+04  0.00000000000E+00 0. -1.
         -2   -1    0    0    0  501 -0.00000000000E+00 -0.00000000000E+00 -0.42736424316E+02  0.42736424316E+02  0.00000000000E+00 0.  1.
        -24    2    1    2    0    0  0.79821571530E+02 -0.17311314325E+03  0.36361787551E+03  0.41833855175E+03  0.80309033394E+02 0.  0.
         23    2    1    2    0    0 -0.56355539823E+02  0.15515791542E+03  0.72913564238E+03  0.75321829846E+03  0.91918956522E+02 0.  0.
         13    1    3    3    0    0  0.64903289819E+02 -0.95227212476E+02  0.28152162981E+03  0.30419580385E+03  0.00000000000E+00 0. -1.
        -14    1    3    3    0    0  0.14918281710E+02 -0.77885930776E+02  0.82096245694E+02  0.11414274790E+03  0.00000000000E+00 0.  1.
        -11    1    4    4    0    0 -0.18282879019E+02  0.42808858415E+02  0.73955177039E+02  0.87385526461E+02  0.00000000000E+00 0. -1.
         11    1    4    4    0    0 -0.38072660804E+02  0.11234905700E+03  0.65518046534E+03  0.66583277200E+03  0.00000000000E+00 0.  1.
         21    1    1    2  502  501 -0.23466031707E+02  0.17955227833E+02  0.62115629176E+02  0.68785145479E+02  0.00000000000E+00 0. -1.
<scales pt_clust_5="13000.00000" pt_clust_6="13000.00000" pt_clust_7="13000.00000" pt_clust_8="13000.00000" pt_clust_9="29.54733"></scales>
<clustering>
<clus scale="   29.547">  2  9  1 -1</clus>
<clus scale="   80.309">  5  6 -1 -1</clus>
<clus scale="   91.919">  7  8 -1 -1</clus>
<clus scale="  190.505">  2  5  1 -1</clus>
<clus scale="  195.682">  1  5  2 -1</clus>
</clustering>
</event>
<event>
 9    1  0.2802611E-005  0.2534636E+03  0.7546771E-02  0.1111629E+00
          1   -1    0    0  502    0  0.00000000000E+00  0.00000000000E+00  0.35612441910E+03  0.35612441910E+03  0.00000000000E+00 0. -1.
         -2   -1    0    0    0  501 -0.00000000000E+00 -0.00000000000E+00 -0.32739761200E+03  0.32739761200E+03  0.00000000000E+00 0.  1.
         23    2    1    2    0    0  0.80730562965E+02  0.27965939685E+03 -0.10923443073E+03  0.32403353480E+03  0.91316859228E+02 0.  0.
        -24    2    1    2    0    0 -0.27946309164E+02 -0.21901313160E+03  0.14839123013E+03  0.27841487743E+03  0.82140968983E+02 0.  0.
         11    1    4    4    0    0 -0.42505265111E+02 -0.64278354275E+02  0.28632444795E+02  0.82208401550E+02  0.00000000000E+00 0. -1.
        -12    1    4    4    0    0  0.14558955947E+02 -0.15473477733E+03  0.11975878534E+03  0.19620647588E+03  0.00000000000E+00 0.  1.
        -13    1    3    3    0    0  0.32267762203E+01  0.11234323876E+03 -0.78511464410E+02  0.13709655511E+03  0.00000000000E+00 0.  1.
         13    1    3    3    0    0  0.77503786745E+02  0.16731615808E+03 -0.30722966318E+02  0.18693697969E+03  0.00000000000E+00 0. -1.
         21    1    1    2  502  501 -0.52784253801E+02 -0.60646265244E+02 -0.10429992306E+02  0.81073618871E+02  0.00000000000E+00 0. -1.
<scales pt_clust_5="13000.00000" pt_clust_6="13000.00000" pt_clust_7="13000.00000" pt_clust_8="13000.00000" pt_clust_9="80.39992"></scales>
<clustering>
<clus scale="   80.400">  2  9  1 -1</clus>
<clus scale="   82.141">  5  6 -1 -1</clus>
<clus scale="   91.317">  7  8 -1 -1</clus>
<clus scale="  250.304">  1  5  2 -1</clus>
<clus scale="  250.304">  1  5  2 -1</clus>
</clustering>
</event>
<event>
 9    1  0.2802611E-005  0.1143211E+03  0.7546771E-02  0.1257079E+00
         -2   -1    0    0    0  501 -0.00000000000E+00  0.00000000000E+00  0.25427519242E+03  0.25427519242E+03  0.00000000000E+00 0.  1.
          1   -1    0    0  502    0  0.00000000000E+00 -0.00000000000E+00 -0.45359828111E+03  0.45359828111E+03  0.00000000000E+00 0. -1.
         23    2    1    2    0    0  0.88361114095E+02  0.82000022049E+02  0.60311377653E+02  0.16399014984E+03  0.93400304437E+02 0.  0.
        -24    2    1    2    0    0 -0.64013661308E+02 -0.34745091756E+01 -0.38233588938E+03  0.39618534183E+03  0.81683974717E+02 0.  0.
         11    1    4    4    0    0 -0.11873164571E+02  0.35581670445E+02 -0.16957733470E+03  0.17367642256E+03  0.00000000000E+00 0. -1.
        -12    1    4    4    0    0 -0.52140496737E+02 -0.39056179620E+02 -0.21275855467E+03  0.22250891927E+03  0.00000000000E+00 0.  1.
        -11    1    3    3    0    0  0.25505996423E+02  0.50633166563E+02 -0.17332456294E+02  0.59284799493E+02  0.00000000000E+00 0. -1.
         11    1    3    3    0    0  0.62855117672E+02  0.31366855486E+02  0.77643833947E+02  0.10470535034E+03  0.00000000000E+00 0.  1.
         21    1    1    2  502  501 -0.24347452787E+02 -0.78525512874E+02  0.12270142304E+03  0.14769798186E+03  0.00000000000E+00 0.  1.
<scales pt_clust_5="13000.00000" pt_clust_6="13000.00000" pt_clust_7="13000.00000" pt_clust_8="13000.00000" pt_clust_9="82.21347"></scales>
<clustering>
<clus scale="   81.684">  5  6 -1 -1</clus>
<clus scale="   82.213">  1  9  2 -1</clus>
<clus scale="   93.400">  7  8 -1 -1</clus>
<clus scale="  104.966">  2  5  1 -1</clus>
<clus scale="  104.966">  2  5  1 -1</clus>
</clustering>
</event>
<event>
 9    1  0.2802611E-005  0.1061216E+03  0.7546771E-02  0.1275204E+00
          1   -1    0    0  502    0  0.00000000000E+00  0.00000000000E+00  0.24408772955E+02  0.24408772955E+02  0.00000000000E+00 0. -1.
         -2   -1    0    0    0  501 -0.00000000000E+00 -0.00000000000E+00 -0.65238996712E+03  0.65238996712E+03  0.00000000000E+00 0.  1.
        -24    2    1    2    0    0 -0.96552867317E+00 -0.30786625432E+02 -0.31210105701E+03  0.32397466271E+03  0.81263544939E+02 0.  0.
         23    2    1    2    0    0 -0.22810429395E+02  0.46916140714E+02 -0.15876096129E+03  0.19309964946E+03  0.96752218812E+02 0.  0.
         11    1    3    3    0    0 -0.20874812955E+02 -0.17385675361E+02 -0.28549557159E+02  0.39409348354E+02  0.00000000000E+00 0. -1.
        -12    1    3    3    0    0  0.19909284282E+02 -0.13400950071E+02 -0.28355149985E+03  0.28456531435E+03  0.00000000000E+00 0.  1.
        -11    1    4    4    0    0 -0.10468798098E+01 -0.23826392802E+02 -0.86243819752E+02  0.89480664932E+02  0.00000000000E+00 0.  1.
         11    1    4    4    0    0 -0.21763549586E+02  0.70742533516E+02 -0.72517141538E+02  0.10361898453E+03  0.00000000000E+00 0. -1.
         21    1    1    2  502  501  0.23775958068E+02 -0.16129515282E+02 -0.15711917586E+03  0.15972442790E+03  0.00000000000E+00 0.  1.
<scales pt_clust_5="13000.00000" pt_clust_6="13000.00000" pt_clust_7="13000.00000" pt_clust_8="13000.00000" pt_clust_9="28.73078"></scales>
<clustering>
<clus scale="   28.731">  2  9  1 -1</clus>
<clus scale="   81.264">  5  6 -1 -1</clus>
<clus scale="   92.220">  2  5  1 -1</clus>
<clus scale="   96.752">  7  8 -1 -1</clus>
<clus scale="  106.122">  1  5  2 -1</clus>
</clustering>
</event>
<event>
 9    1  0.2802611E-005  0.9651230E+02  0.7546771E-02  0.1290226E+00
         -2   -1    0    0    0  501 -0.00000000000E+00  0.00000000000E+00  0.63956415727E+02  0.63956415727E+02  0.00000000000E+00 0.  1.
          1   -1    0    0  502    0  0.00000000000E+00 -0.00000000000E+00 -0.42082061408E+03  0.42082061408E+03  0.00000000000E+00 0. -1.
        -24    2    1    2    0    0 -0.41089350201E+02 -0.10168006270E+02  0.11162633220E+02  0.92087840287E+02  0.81017546846E+02 0.  0.
         23    2    1    2    0    0  0.50032212844E+02  0.36943253381E+02 -0.31849763008E+03  0.33568015120E+03  0.85862665038E+02 0.  0.
         13    1    3    3    0    0 -0.94984827614E+01 -0.43696751543E+02  0.12624980937E+00  0.44717370330E+02  0.00000000000E+00 0. -1.
        -14    1    3    3    0    0 -0.31590867440E+02  0.33528745273E+02  0.11036383411E+02  0.47370469958E+02  0.00000000000E+00 0.  1.
        -11    1    4    4    0    0  0.45107611321E+02 -0.18143251027E+02 -0.11626904121E+03  0.12602525183E+03  0.00000000000E+00 0.  1.
         11    1    4    4    0    0  0.49246015228E+01  0.55086504408E+02 -0.20222858888E+03  0.20965489936E+03  0.00000000000E+00 0. -1.
         21    1    1    2  502  501 -0.89428626422E+01 -0.26775247111E+02 -0.49529201495E+02  0.57009038326E+02  0.00000000000E+00 0. -1.
<scales pt_clust_5="13000.00000" pt_clust_6="13000.00000" pt_clust_7="13000.00000" pt_clust_8="13000.00000" pt_clust_9="28.22922"></scales>
<clustering>
<clus scale="   28.229">  2  9  1 -1</clus>
<clus scale="   81.018">  5  6 -1 -1</clus>
<clus scale="   85.863">  7  8 -1 -1</clus>
<clus scale="   92.228">  1  5  2 -1</clus>
<clus scale="   28.229">  2  5  1 -1</clus>
</clustering>
</event>
<event>
 9    1  0.2802611E-005  0.9682281E+02  0.7546771E-02  0.1294575E+00
          1   -1    0    0  502    0  0.00000000000E+00  0.00000000000E+00  0.73880943760E+02  0.73880943760E+02  0.00000000000E+00 0. -1.
         -2   -1    0    0    0  501 -0.00000000000E+00 -0.00000000000E+00 -0.20016753014E+03  0.20016753014E+03  0.00000000000E+00 0.  1.
        -24    2    1    2    0    0  0.42942178403E+02  0.44052399379E+01 -0.11555147082E+03  0.14638166750E+03  0.78816326652E+02 0.  0.
         23    2    1    2    0    0 -0.22620499509E+02 -0.13066284793E+02  0.11316274209E+02  0.96453858417E+02  0.92156790012E+02 0.  0.
         11    1    3    3    0    0  0.28102114493E+02 -0.49288817711E+01  0.97111433820E+00  0.28547605461E+02  0.00000000000E+00 0. -1.
        -12    1    3    3    0    0  0.14840063910E+02  0.93341217091E+01 -0.11652258516E+03  0.11783406204E+03  0.00000000000E+00 0.  1.
        -11    1    4    4    0    0  0.17655396407E+02  0.23445576899E+02  0.26994139789E+02  0.39875953673E+02  0.00000000000E+00 0.  1.
         11    1    4    4    0    0 -0.40275895916E+02 -0.36511861692E+02 -0.15677865581E+02  0.56577904744E+02  0.00000000000E+00 0. -1.
         21    1    1    2  502  501 -0.20321678893E+02  0.86610448554E+01 -0.22051389769E+02  0.31212947983E+02  0.00000000000E+00 0.  1.
<scales pt_clust_5="13000.00000" pt_clust_6="13000.00000" pt_clust_7="13000.00000" pt_clust_8="13000.00000" pt_clust_9="22.09037"></scales>
<clustering>
<clus scale="   22.090">  2  9  1 -1</clus>
<clus scale="   78.816">  5  6 -1 -1</clus>
<clus scale="   84.225">  2  5  1 -1</clus>
<clus scale="   92.157">  7  8 -1 -1</clus>
<clus scale="   96.823">  1  5  2 -1</clus>
</clustering>
</event>
<event>
 9    1  0.2802611E-005  0.2095394E+03  0.7546771E-02  0.1142924E+00
         -2   -1    0    0    0  501 -0.00000000000E+00  0.00000000000E+00  0.36679499821E+02  0.36679499821E+02  0.00000000000E+00 0.  1.
          1   -1    0    0  502    0  0.00000000000E+00 -0.00000000000E+00 -0.14361285726E+04  0.14361285726E+04  0.00000000000E+00 0. -1.
         23    2    1    2    0    0  0.87187785019E+02 -0.15330303494E+03 -0.60404640202E+03  0.63590894731E+03  0.91676622358E+02 0.  0.
        -24    2    1    2    0    0 -0.12200246560E+03  0.15985273203E+03 -0.58880795809E+03  0.62728916396E+03  0.79745759486E+02 0.  0.
         11    1    4    4    0    0 -0.85314161144E+02  0.49796608149E+02 -0.23398331576E+03  0.25398110230E+03  0.00000000000E+00 0. -1.
        -12    1    4    4    0    0 -0.36688304459E+02  0.11005612388E+03 -0.35482464233E+03  0.37330806165E+03  0.00000000000E+00 0.  1.
        -13    1    3    3    0    0  0.50303803820E+02 -0.59249342236E+02 -0.13208707071E+03  0.15325779420E+03  0.00000000000E+00 0.  1.
         13    1    3    3    0    0  0.36883981198E+02 -0.94053692707E+02 -0.47195933131E+03  0.48265115311E+03  0.00000000000E+00 0. -1.
         21    1    1    2  502  501  0.34814680585E+02 -0.65496970886E+01 -0.20659471269E+03  0.20960996118E+03  0.00000000000E+00 0.  1.
<scales pt_clust_5="13000.00000" pt_clust_6="13000.00000" pt_clust_7="13000.00000" pt_clust_8="13000.00000" pt_clust_9="35.42542"></scales>
<clustering>
<clus scale="   35.425">  2  9  1 -1</clus>
<clus scale="   79.746">  5  6 -1 -1</clus>
<clus scale="   91.677">  7  8 -1 -1</clus>
<clus scale="  204.601">  2  5  1 -1</clus>
<clus scale="   35.425">  2  5  1 -1</clus>
</clustering>
</event>
<event>
 9    1  0.2802611E-005  0.1079126E+03  0.7546771E-02  0.1268080E+00
         -2   -1    0    0    0  501 -0.00000000000E+00  0.00000000000E+00  0.14632219995E+03  0.14632219995E+03  0.00000000000E+00 0.  1.
          1   -1    0    0  502    0  0.00000000000E+00 -0.00000000000E+00 -0.14373665704E+03  0.14373665704E+03  0.00000000000E+00 0. -1.
         23    2    1    2    0    0  0.55573805903E+02  0.24775238143E+02  0.76792189300E+02  0.13380540774E+03  0.91129503864E+02 0.  0.
        -24    2    1    2    0    0 -0.37630509714E+02 -0.44427386228E+02 -0.80329444607E+02  0.12894672003E+03  0.82368616758E+02 0.  0.
         11    1    4    4    0    0 -0.50640306538E+02 -0.24299311313E+02 -0.87459052407E+02  0.10394221002E+03  0.00000000000E+00 0. -1.
        -12    1    4    4    0    0  0.13009796824E+02 -0.20128074915E+02  0.71296077997E+01  0.25004510005E+02  0.00000000000E+00 0.  1.
        -11    1    3    3    0    0  0.75560937417E+02  0.48515838937E+01  0.73272884016E+02  0.10536559525E+03  0.00000000000E+00 0.  1.
         11    1    3    3    0    0 -0.19987131514E+02  0.19923654249E+02  0.35193052842E+01  0.28439812490E+02  0.00000000000E+00 0. -1.
         21    1    1    2  502  501 -0.17943296189E+02  0.19652148085E+02  0.61227982171E+01  0.27306729216E+02  0.00000000000E+00 0.  1.
<scales pt_clust_5="13000.00000" pt_clust_6="13000.00000" pt_clust_7="13000.00000" pt_clust_8="13000.00000" pt_clust_9="26.61144"></scales>
<clustering>
<clus scale="   26.611">  1  9  2 -1</clus>
<clus scale="   82.369">  5  6 -1 -1</clus>
<clus scale="   91.130">  7  8 -1 -1</clus>
<clus scale="  100.624">  2  5  1 -1</clus>
<clus scale="  100.624">  2  5  1 -1</clus>
</clustering>
</event>
<event>
 9    1  0.2802611E-005  0.1037502E+03  0.7546771E-02  0.1272688E+00
         -2   -1    0    0    0  501 -0.00000000000E+00  0.00000000000E+00  0.53500199397E+03  0.53500199397E+03  0.00000000000E+00 0.  1.
          1   -1    0    0  502    0  0.00000000000E+00 -0.00000000000E+00 -0.21446665692E+03  0.21446665692E+03  0.00000000000E+00 0. -1.
         23    2    1    2    0    0 -0.22220190475E+02 -0.78318849757E+02  0.40341571212E+03  0.42054918106E+03  0.86543617963E+02 0.  0.
        -24    2    1    2    0    0 -0.32753105504E+01  0.56170703717E+02 -0.19015792597E+03  0.21645154608E+03  0.86748829241E+02 0.  0.
         13    1    4    4    0    0  0.21867660349E+02  0.44970195717E+02 -0.40684760949E+02  0.64465206472E+02  0.00000000000E+00 0. -1.
        -14    1    4    4    0    0 -0.25142970899E+02  0.11200507999E+02 -0.14947316502E+03  0.15198633961E+03  0.00000000000E+00 0.  1.
        -13    1    3    3    0    0  0.28160697648E+01 -0.90201341065E+02  0.28564597393E+03  0.29956273901E+03  0.00000000000E+00 0.  1.
         13    1    3    3    0    0 -0.25036260240E+02  0.11882491308E+02  0.11776973819E+03  0.12098644205E+03  0.00000000000E+00 0. -1.
         21    1    1    2  502  501  0.25495501026E+02  0.22148146040E+02  0.10727755090E+03  0.11246792375E+03  0.00000000000E+00 0.  1.
<scales pt_clust_5="13000.00000" pt_clust_6="13000.00000" pt_clust_7="13000.00000" pt_clust_8="13000.00000" pt_clust_9="33.77219"></scales>
<clustering>
<clus scale="   33.772">  1  9  2 -1</clus>
<clus scale="   86.544">  7  8 -1 -1</clus>
<clus scale="   86.749">  5  6 -1 -1</clus>
<clus scale="  103.579">  1  7  2 -1</clus>
<clus scale="  103.750">  2  5  1 -1</clus>
</clustering>
</event>
<event>
 9    1  0.2802611E-005  0.1108496E+03  0.7546771E-02  0.1264548E+00
          1   -1    0    0  502    0  0.00000000000E+00  0.00000000000E+00  0.41617245050E+02  0.41617245050E+02  0.00000000000E+00 0. -1.
         -2   -1    0    0    0  501 -0.00000000000E+00 -0.00000000000E+00 -0.62510984431E+03  0.62510984431E+03  0.00000000000E+00 0.  1.
        -24    2    1    2    0    0  0.31031506739E+02  0.31862660141E+02 -0.37606473438E+03  0.38721043532E+03  0.80802557214E+02 0.  0.
         23    2    1    2    0    0 -0.54991113849E+02 -0.27863071202E+02 -0.55639817780E+02  0.12579719943E+03  0.94492183393E+02 0.  0.
         13    1    3    3    0    0  0.14020760989E+02 -0.27069084092E+02 -0.10818434254E+03  0.11239737107E+03  0.00000000000E+00 0. -1.
        -14    1    3    3    0    0  0.17010745751E+02  0.58931744233E+02 -0.26788039184E+03  0.27481306425E+03  0.00000000000E+00 0.  1.
        -13    1    4    4    0    0  0.15184874624E+02  0.13808369461E+02  0.82781739362E+01  0.22130965823E+02  0.00000000000E+00 0.  1.
         13    1    4    4    0    0 -0.70175988473E+02 -0.41671440663E+02 -0.63917991716E+02  0.10366623361E+03  0.00000000000E+00 0. -1.
         21    1    1    2  502  501  0.23959607110E+02 -0.39995889386E+01 -0.15178804710E+03  0.15371945461E+03  0.00000000000E+00 0.  1.
<scales pt_clust_5="13000.00000" pt_clust_6="13000.00000" pt_clust_7="13000.00000" pt_clust_8="13000.00000" pt_clust_9="24.29114"></scales>
<clustering>
<clus scale="   24.291">  2  9  1 -1</clus>
<clus scale="   80.803">  5  6 -1 -1</clus>
<clus scale="   94.492">  7  8 -1 -1</clus>
<clus scale="   99.438">  2  5  1 -1</clus>
<clus scale="  110.850">  1  5  2 -1</clus>
</clustering>
</event>
<event>
 9    1  0.2802611E-005  0.1098711E+03  0.7546771E-02  0.1267036E+00
         -2   -1    0    0    0  501 -0.00000000000E+00  0.00000000000E+00  0.40404943485E+03  0.40404943485E+03  0.00000000000E+00 0.  1.
          1   -1    0    0  502    0  0.00000000000E+00 -0.00000000000E+00 -0.48374472294E+02  0.48374472294E+02  0.00000000000E+00 0. -1.
         23    2    1    2    0    0 -0.32601250598E+02 -0.43630923299E+02  0.29681556879E+03  0.31642995277E+03  0.95194191662E+02 0.  0.
        -24    2    1    2    0    0  0.16629333304E+02  0.56706242886E+02  0.38238290549E+02  0.10681697677E+03  0.80346542882E+02 0.  0.
         13    1    4    4    0    0  0.41781884011E+02  0.12117237609E+02  0.34433568743E+02  0.55481744161E+02  0.00000000000E+00 0. -1.
        -14    1    4    4    0    0 -0.25152550706E+02  0.44589005277E+02  0.38047218056E+01  0.51335232606E+02  0.00000000000E+00 0.  1.
        -11    1    3    3    0    0 -0.40417790980E+02  0.16810501451E+01  0.23977754506E+03  0.24316598214E+03  0.00000000000E+00 0. -1.
         11    1    3    3    0    0  0.78165403829E+01 -0.45311973444E+02  0.57038023731E+02  0.73263970627E+02  0.00000000000E+00 0.  1.
         21    1    1    2  502  501  0.15971917293E+02 -0.13075319587E+02  0.20621103217E+02  0.29176977606E+02  0.00000000000E+00 0.  1.
<scales pt_clust_5="13000.00000" pt_clust_6="13000.00000" pt_clust_7="13000.00000" pt_clust_8="13000.00000" pt_clust_9="20.64137"></scales>
<clustering>
<clus scale="   20.641">  2  9  1 -1</clus>
<clus scale="   80.347">  5  6 -1 -1</clus>
<clus scale="   95.194">  7  8 -1 -1</clus>
<clus scale="   97.290">  2  5  1 -1</clus>
<clus scale="   20.641">  2  5  1 -1</clus>
</clustering>
</event>
<event>
 9    1  0.2802611E-005  0.1035253E+03  0.7546771E-02  0.1278253E+00
          1   -1    0    0  502    0  0.00000000000E+00  0.00000000000E+00  0.27700866282E+03  0.27700866282E+03  0.00000000000E+00 0. -1.
         -2   -1    0    0    0  501 -0.00000000000E+00 -0.00000000000E+00 -0.24610467925E+03  0.24610467925E+03  0.00000000000E+00 0.  1.
        -24    2    1    2    0    0  0.34690421476E+02 -0.20122875688E+02 -0.20332203584E+03  0.22261429540E+03  0.81295256881E+02 0.  0.
         23    2    1    2    0    0 -0.47036868671E+02  0.27386947236E+01  0.25213773588E+03  0.27265171119E+03  0.92442145693E+02 0.  0.
         13    1    3    3    0    0 -0.98944453764E+01 -0.38071835109E+02 -0.62824335086E+02  0.74123287548E+02  0.00000000000E+00 0. -1.
        -14    1    3    3    0    0  0.44584866853E+02  0.17948959422E+02 -0.14049770075E+03  0.14849100785E+03  0.00000000000E+00 0.  1.
        -11    1    4    4    0    0  0.65652173520E+01  0.33933364118E+02  0.14305772617E+03  0.14717366712E+03  0.00000000000E+00 0.  1.
         11    1    4    4    0    0 -0.53602086023E+02 -0.31194669395E+02  0.10908000971E+03  0.12547804407E+03  0.00000000000E+00 0. -1.
         21    1    1    2  502  501  0.12346447194E+02  0.17384180964E+02 -0.17911716473E+02  0.27847335476E+02  0.00000000000E+00 0.  1.
<scales pt_clust_5="13000.00000" pt_clust_6="13000.00000" pt_clust_7="13000.00000" pt_clust_8="13000.00000" pt_clust_9="21.32239"></scales>
<clustering>
<clus scale="   21.322">  2  9  1 -1</clus>
<clus scale="   81.295">  5  6 -1 -1</clus>
<clus scale="   92.442">  7  8 -1 -1</clus>
<clus scale="   93.706">  2  5  1 -1</clus>
<clus scale="  103.525">  1  5  2 -1</clus>
</clustering>
</event>
<event>
 9    1  0.2802611E-005  0.1640053E+03  0.7546771E-02  0.1185423E+00
         -2   -1    0    0    0  501 -0.00000000000E+00  0.00000000000E+00  0.33908511514E+02  0.33908511514E+02  0.00000000000E+00 0.  1.
          1   -1    0    0  502    0  0.00000000000E+00 -0.00000000000E+00 -0.16169575155E+04  0.16169575155E+04  0.00000000000E+00 0. -1.
         23    2    1    2    0    0 -0.13947403684E+03 -0.26253385115E+02 -0.24030958929E+03  0.29317938821E+03  0.89795366157E+02 0.  0.
        -24    2    1    2    0    0  0.13669364127E+03  0.16090739230E+01 -0.12851276840E+04  0.12949635634E+04  0.81790743316E+02 0.  0.
         13    1    4    4    0    0  0.59797658114E+02 -0.33595735701E+02 -0.40341604415E+03  0.40920525174E+03  0.00000000000E+00 0. -1.
        -14    1    4    4    0    0  0.76895983160E+02  0.35204809624E+02 -0.88171163984E+03  0.88575831166E+03  0.00000000000E+00 0.  1.
        -11    1    3    3    0    0 -0.83295822488E+02  0.27194637664E+02 -0.15376427547E+03  0.17697794996E+03  0.00000000000E+00 0. -1.
         11    1    3    3    0    0 -0.56178214347E+02 -0.53448022779E+02 -0.86545313825E+02  0.11620143825E+03  0.00000000000E+00 0.  1.
         21    1    1    2  502  501  0.27803955614E+01  0.24644311192E+02 -0.57611730704E+02  0.62723075405E+02  0.00000000000E+00 0. -1.
<scales pt_clust_5="13000.00000" pt_clust_6="13000.00000" pt_clust_7="13000.00000" pt_clust_8="13000.00000" pt_clust_9="24.80066"></scales>
<clustering>
<clus scale="   24.801">  1  9  2 -1</clus>
<clus scale="   81.791">  5  6 -1 -1</clus>
<clus scale="   89.795">  7  8 -1 -1</clus>
<clus scale="  159.763">  2  5  1 -1</clus>
<clus scale="  159.763">  2  5  1 -1</clus>
</clustering>
</event>
<event>
 9    1  0.2802611E-005  0.1890016E+03  0.7546771E-02  0.1160659E+00
         -2   -1    0    0    0  501 -0.00000000000E+00  0.00000000000E+00  0.94239661118E+02  0.94239661118E+02  0.00000000000E+00 0.  1.
          1   -1    0    0  502    0  0.00000000000E+00 -0.00000000000E+00 -0.47469154991E+03  0.47469154991E+03  0.00000000000E+00 0. -1.
         23    2    1    2    0    0  0.14164126546E+03  0.59018215376E+02 -0.12496407833E+03  0.21802641442E+03  0.91510101533E+02 0.  0.
        -24    2    1    2    0    0 -0.14847541806E+03 -0.91550156315E+02 -0.25328247595E+03  0.31758969008E+03  0.79276842371E+02 0.  0.
         11    1    4    4    0    0 -0.10473225811E+03 -0.37176140491E+02 -0.20349549546E+03  0.23186489166E+03  0.00000000000E+00 0. -1.
        -12    1    4    4    0    0 -0.43743159948E+02 -0.54374015823E+02 -0.49786980485E+02  0.85724798424E+02  0.00000000000E+00 0.  1.
        -13    1    3    3    0    0  0.81941184003E+02  0.32628322915E+02 -0.14020647393E+02  0.89305899276E+02  0.00000000000E+00 0.  1.
         13    1    3    3    0    0  0.59700081460E+02  0.26389892461E+02 -0.11094343093E+03  0.12872051514E+03  0.00000000000E+00 0. -1.
         21    1    1    2  502  501  0.68341525953E+01  0.32531940938E+02 -0.22053345210E+01  0.33315106532E+02  0.00000000000E+00 0. -1.
<scales pt_clust_5="13000.00000" pt_clust_6="13000.00000" pt_clust_7="13000.00000" pt_clust_8="13000.00000" pt_clust_9="33.24203"></scales>
<clustering>
<clus scale="   33.242">  1  9  2 -1</clus>
<clus scale="   79.277">  5  6 -1 -1</clus>
<clus scale="   91.510">  7  8 -1 -1</clus>
<clus scale="  183.391">  2  5  1 -1</clus>
<clus scale="  183.391">  2  5  1 -1</clus>
</clustering>
</event>
<event>
 9    1  0.2802611E-005  0.2918840E+03  0.7546771E-02  0.1137946E+00
          1   -1    0    0  502    0  0.00000000000E+00  0.00000000000E+00  0.14999733723E+04  0.14999733723E+04  0.00000000000E+00 0. -1.
         -2   -1    0    0    0  501 -0.00000000000E+00 -0.00000000000E+00 -0.12127612004E+03  0.12127612004E+03  0.00000000000E+00 0.  1.
         23    2    1    2    0    0 -0.10431360424E+03  0.26562091839E+03  0.19683185659E+03  0.35771221682E+03  0.88201190347E+02 0.  0.
        -24    2    1    2    0    0  0.26837959313E+02 -0.10245493804E+02  0.75709923738E+03  0.76189460164E+03  0.80367173373E+02 0.  0.
         13    1    4    4    0    0  0.46503257751E+02  0.75401419153E+01  0.27037155901E+03  0.27444523432E+03  0.00000000000E+00 0. -1.
        -14    1    4    4    0    0 -0.19665298438E+02 -0.17785635720E+02  0.48672767838E+03  0.48744936732E+03  0.00000000000E+00 0.  1.
        -13    1    3    3    0    0 -0.50655597314E+02  0.37232161126E+02  0.55245251389E+02  0.83691464095E+02  0.00000000000E+00 0.  1.
         13    1    3    3    0    0 -0.53658006921E+02  0.22838875727E+03  0.14158660520E+03  0.27402075273E+03  0.00000000000E+00 0. -1.
         21    1    1    2  502  501  0.77475644922E+02 -0.25537542459E+03  0.42476615830E+03  0.50164267390E+03  0.00000000000E+00 0.  1.
<scales pt_clust_5="13000.00000" pt_clust_6="13000.00000" pt_clust_7="13000.00000" pt_clust_8="13000.00000" pt_clust_9="278.23882"></scales>
<clustering>
<clus scale="   80.367">  5  6 -1 -1</clus>
<clus scale="   85.347">  1  5  2 -1</clus>
<clus scale="   88.201">  7  8 -1 -1</clus>
<clus scale="  278.239">  1  9  2 -1</clus>
<clus scale="   85.347">  1  5  2 -1</clus>
</clustering>
</event>
<event>
 9    1  0.2802611E-005  0.1401617E+03  0.7546771E-02  0.1215379E+00
         -2   -1    0    0    0  501 -0.00000000000E+00  0.00000000000E+00  0.11126699741E+03  0.11126699741E+03  0.00000000000E+00 0.  1.
          1   -1    0    0  502    0  0.00000000000E+00 -0.00000000000E+00 -0.36385518569E+03  0.36385518569E+03  0.00000000000E+00 0. -1.
         23    2    1    2    0    0 -0.14349556634E+02  0.13951962815E+03 -0.11753350025E+01  0.16682972887E+03  0.90327961380E+02 0.  0.
        -24    2    1    2    0    0  0.77072773344E+01 -0.10020166224E+03 -0.22916661345E+03  0.26263155735E+03  0.79738465967E+02 0.  0.
         13    1    4    4    0    0 -0.71889067787E+01 -0.66481449308E+02 -0.21137284407E+03  0.22169786353E+03  0.00000000000E+00 0. -1.
        -14    1    4    4    0    0  0.14896184113E+02 -0.33720212929E+02 -0.17793769388E+02  0.40933693824E+02  0.00000000000E+00 0.  1.
        -13    1    3    3    0    0  0.20146287843E+02  0.31688102114E+01  0.14914385189E+02  0.25265651735E+02  0.00000000000E+00 0. -1.
         13    1    3    3    0    0 -0.34495844477E+02  0.13635081794E+03 -0.16089720192E+02  0.14156407713E+03  0.00000000000E+00 0.  1.
         21    1    1    2  502  501  0.66422792997E+01 -0.39317965913E+02 -0.22246239827E+02  0.45660896884E+02  0.00000000000E+00 0. -1.
<scales pt_clust_5="13000.00000" pt_clust_6="13000.00000" pt_clust_7="13000.00000" pt_clust_8="13000.00000" pt_clust_9="39.87508"></scales>
<clustering>
<clus scale="   39.875">  1  9  2 -1</clus>
<clus scale="   79.738">  5  6 -1 -1</clus>
<clus scale="   90.328">  7  8 -1 -1</clus>
<clus scale="  133.583">  2  5  1 -1</clus>
<clus scale="  133.583">  2  5  1 -1</clus>
</clustering>
</event>
<event>
 9    1  0.2802611E-005  0.9525378E+02  0.7546771E-02  0.1295638E+00
         -2   -1    0    0    0  501 -0.00000000000E+00  0.00000000000E+00  0.13285817089E+03  0.13285817089E+03  0.00000000000E+00 0.  1.
          1   -1    0    0  502    0  0.00000000000E+00 -0.00000000000E+00 -0.19126910994E+03  0.19126910994E+03  0.00000000000E+00 0. -1.
        -24    2    1    2    0    0  0.29854893554E+02  0.19510497993E+02  0.75359154748E+01  0.88356244717E+02  0.80486407283E+02 0.  0.
         23    2    1    2    0    0 -0.25863346561E+02  0.31194457456E+02 -0.12421029819E+03  0.15843053041E+03  0.89610423055E+02 0.  0.
         11    1    3    3    0    0  0.15954858007E+01  0.38269121677E+02  0.29152761711E+02  0.48134756302E+02  0.00000000000E+00 0. -1.
        -12    1    3    3    0    0  0.28259407753E+02 -0.18758623685E+02 -0.21616846236E+02  0.40221488414E+02  0.00000000000E+00 0.  1.
        -13    1    4    4    0    0 -0.55737339740E+02  0.78507077414E+01 -0.50861936801E+02  0.75863174654E+02  0.00000000000E+00 0. -1.
         13    1    4    4    0    0  0.29873993179E+02  0.23343749714E+02 -0.73348361384E+02  0.82567355759E+02  0.00000000000E+00 0.  1.
         21    1    1    2  502  501 -0.39915469922E+01 -0.50704955449E+02  0.58263443668E+02  0.77340505703E+02  0.00000000000E+00 0.  1.
<scales pt_clust_5="13000.00000" pt_clust_6="13000.00000" pt_clust_7="13000.00000" pt_clust_8="13000.00000" pt_clust_9="50.86182"></scales>
<clustering>
<clus scale="   50.862">  1  9  2 -1</clus>
<clus scale="   80.486">  5  6 -1 -1</clus>
<clus scale="   86.726">  1  5  2 -1</clus>
<clus scale="   89.610">  7  8 -1 -1</clus>
<clus scale="   95.254">  2  5  1 -1</clus>
</clustering>
</event>
<event>
 9    1  0.2802611E-005  0.2640001E+03  0.7546771E-02  0.1105296E+00
          1   -1    0    0  502    0  0.00000000000E+00  0.00000000000E+00  0.12850978341E+04  0.12850978341E+04  0.00000000000E+00 0. -1.
         -2   -1    0    0    0  501 -0.00000000000E+00 -0.00000000000E+00 -0.33154750446E+03  0.33154750446E+03  0.00000000000E+00 0.  1.
         23    2    1    2    0    0  0.82599621167E+02  0.20071662473E+03 -0.69795239557E+02  0.24591183631E+03  0.92148765117E+02 0.  0.
        -24    2    1    2    0    0  0.59177099878E+02 -0.24705529400E+03  0.11466152082E+04  0.11772307509E+04  0.81286886644E+02 0.  0.
         13    1    4    4    0    0  0.34265986910E+02 -0.21185309193E+03  0.10455799042E+04  0.10673767969E+04  0.00000000000E+00 0. -1.
        -14    1    4    4    0    0  0.24911112968E+02 -0.35202202078E+02  0.10103530394E+03  0.10985395406E+03  0.00000000000E+00 0.  1.
        -13    1    3    3    0    0  0.22748890877E+02  0.16279160129E+03 -0.56554022670E+02  0.17383030508E+03  0.00000000000E+00 0.  1.
         13    1    3    3    0    0  0.59850730290E+02  0.37925023449E+02 -0.13241216887E+02  0.72081531230E+02  0.00000000000E+00 0. -1.
         21    1    1    2  502  501 -0.14177672105E+03  0.46338669270E+02 -0.12326963891E+03  0.19350275134E+03  0.00000000000E+00 0.  1.
<scales pt_clust_5="13000.00000" pt_clust_6="13000.00000" pt_clust_7="13000.00000" pt_clust_8="13000.00000" pt_clust_9="149.15734"></scales>
<clustering>
<clus scale="   81.287">  5  6 -1 -1</clus>
<clus scale="   92.149">  7  8 -1 -1</clus>
<clus scale="  149.157">  2  9  1 -1</clus>
<clus scale="  260.408">  1  5  2 -1</clus>
<clus scale="  260.408">  1  5  2 -1</clus>
</clustering>
</event>
<event>
 9    1  0.2802611E-005  0.9284640E+02  0.7546771E-02  0.1300128E+00
          1   -1    0    0  502    0  0.00000000000E+00  0.00000000000E+00  0.61226267312E+03  0.61226267312E+03  0.00000000000E+00 0. -1.
         -2   -1    0    0    0  501 -0.00000000000E+00 -0.00000000000E+00 -0.13629028253E+03  0.13629028253E+03  0.00000000000E+00 0.  1.
         23    2    1    2    0    0  0.13594563818E+02  0.10548309726E+02 -0.39013846395E+02  0.98264475624E+02  0.88531056447E+02 0.  0.
        -24    2    1    2    0    0  0.46091320950E+01 -0.28525054482E+02  0.57687388645E+03  0.58332118165E+03  0.81518079305E+02 0.  0.
         11    1    4    4    0    0  0.34241686971E+02 -0.36741396470E+02  0.24940250294E+03  0.25440918185E+03  0.00000000000E+00 0. -1.
        -12    1    4    4    0    0 -0.29632554876E+02  0.82163419881E+01  0.32747138352E+03  0.32891199979E+03  0.00000000000E+00 0.  1.
        -11    1    3    3    0    0  0.30848595830E+02 -0.14792655012E+02  0.14047279514E+02  0.36983571606E+02  0.00000000000E+00 0. -1.
         11    1    3    3    0    0 -0.17254032012E+02  0.25340964738E+02 -0.53061125909E+02  0.61280904018E+02  0.00000000000E+00 0.  1.
         21    1    1    2  502  501 -0.18203695913E+02  0.17976744756E+02 -0.61887649465E+02  0.66967298387E+02  0.00000000000E+00 0.  1.
<scales pt_clust_5="13000.00000" pt_clust_6="13000.00000" pt_clust_7="13000.00000" pt_clust_8="13000.00000" pt_clust_9="25.58394"></scales>
<clustering>
<clus scale="   25.584">  2  9  1 -1</clus>
<clus scale="   81.518">  5  6 -1 -1</clus>
<clus scale="   86.185">  1  5  2 -1</clus>
<clus scale="   88.531">  7  8 -1 -1</clus>
<clus scale="   86.185">  1  5  2 -1</clus>
</clustering>
</event>
<event>
 9    1  0.2802611E-005  0.1573421E+03  0.7546771E-02  0.1193384E+00
         -2   -1    0    0    0  501 -0.00000000000E+00  0.00000000000E+00  0.30185586613E+02  0.30185586613E+02  0.00000000000E+00 0.  1.
          1   -1    0    0  502    0  0.00000000000E+00 -0.00000000000E+00 -0.14769948302E+04  0.14769948302E+04  0.00000000000E+00 0. -1.
         23    2    1    2    0    0 -0.23843324370E+02  0.16103666448E+03 -0.42588749384E+03  0.46522153606E+03  0.92464094562E+02 0.  0.
        -24    2    1    2    0    0 -0.20101941437E+02 -0.83550509312E+02 -0.56923181083E+03  0.58156872930E+03  0.82538214093E+02 0.  0.
         11    1    4    4    0    0  0.11870027067E+02 -0.80732505060E+02 -0.47657394157E+03  0.48350941738E+03  0.00000000000E+00 0. -1.
        -12    1    4    4    0    0 -0.31971968504E+02 -0.28180042519E+01 -0.92657869258E+02  0.98059311916E+02  0.00000000000E+00 0.  1.
        -11    1    3    3    0    0 -0.48412504463E+02  0.15397983771E+03 -0.35906683136E+03  0.39367823205E+03  0.00000000000E+00 0.  1.
         11    1    3    3    0    0  0.24569180093E+02  0.70568267748E+01 -0.66820662483E+02  0.71543304014E+02  0.00000000000E+00 0. -1.
         21    1    1    2  502  501  0.43945265807E+02 -0.77486155169E+02 -0.45168993888E+03  0.46039015141E+03  0.00000000000E+00 0. -1.
<scales pt_clust_5="13000.00000" pt_clust_6="13000.00000" pt_clust_7="13000.00000" pt_clust_8="13000.00000" pt_clust_9="89.08025"></scales>
<clustering>
<clus scale="   82.538">  5  6 -1 -1</clus>
<clus scale="   89.080">  2  9  1 -1</clus>
<clus scale="   92.464">  7  8 -1 -1</clus>
<clus scale="  151.722">  2  5  1 -1</clus>
<clus scale="   89.080">  2  5  1 -1</clus>
</clustering>
</event>
<event>
 9    1  0.2802611E-005  0.2272964E+03  0.7546771E-02  0.1129317E+00
         -2   -1    0    0    0  501 -0.00000000000E+00  0.00000000000E+00  0.35988099031E+03  0.35988099031E+03  0.00000000000E+00 0.  1.
          1   -1    0    0  502    0  0.00000000000E+00 -0.00000000000E+00 -0.91533079891E+03  0.91533079891E+03  0.00000000000E+00 0. -1.
        -24    2    1    2    0    0  0.68617739530E+02  0.16970698555E+03  0.26332408078E+03  0.33075736848E+03  0.80944488146E+02 0.  0.
         23    2    1    2    0    0 -0.90812929384E+02 -0.18840338308E+03 -0.86235116244E+03  0.89209832788E+03  0.91907977542E+02 0.  0.
         11    1    3    3    0    0 -0.15569237894E+02  0.39799450986E+02  0.36832028410E+02  0.56418044845E+02  0.00000000000E+00 0. -1.
        -12    1    3    3    0    0  0.84186977423E+02  0.12990753456E+03  0.22649205237E+03  0.27433932363E+03  0.00000000000E+00 0.  1.
        -11    1    4    4    0    0 -0.15080931959E+02 -0.32621449620E+02 -0.50550019190E+02  0.62023365953E+02  0.00000000000E+00 0.  1.
         11    1    4    4    0    0 -0.75731997425E+02 -0.15578193346E+03 -0.81180114325E+03  0.83007496192E+03  0.00000000000E+00 0. -1.
         21    1    1    2  502  501  0.22195189854E+02  0.18696397530E+02  0.43577273056E+02  0.52356092867E+02  0.00000000000E+00 0. -1.
<scales pt_clust_5="13000.00000" pt_clust_6="13000.00000" pt_clust_7="13000.00000" pt_clust_8="13000.00000" pt_clust_9="29.02037"></scales>
<clustering>
<clus scale="   29.020">  1  9  2 -1</clus>
<clus scale="   80.944">  5  6 -1 -1</clus>
<clus scale="   91.908">  7  8 -1 -1</clus>
<clus scale="  223.089">  1  5  2 -1</clus>
<clus scale="  227.296">  2  5  1 -1</clus>
</clustering>
</event>
<event>
 9    1  0.2802611E-005  0.1663365E+03  0.7546771E-02  0.1182472E+00
         -2   -1    0    0    0  501 -0.00000000000E+00  0.00000000000E+00  0.12160488360E+03  0.12160488360E+03  0.00000000000E+00 0.  1.
          1   -1    0    0  502    0  0.00000000000E+00 -0.00000000000E+00 -0.75774184932E+03  0.75774184932E+03  0.00000000000E+00 0. -1.
        -24    2    1    2    0    0 -0.13299448712E+03  0.70248244092E+02 -0.19160076245E+02  0.17389622237E+03  0.85149505167E+02 0.  0.
         23    2    1    2    0    0  0.13188325215E+03 -0.42243154415E+02 -0.64497597515E+03  0.66583399013E+03  0.90350526283E+02 0.  0.
         11    1    3    3    0    0 -0.10576073331E+03  0.66886371262E+02 -0.48056419358E+02  0.13404677844E+03  0.00000000000E+00 0. -1.
        -12    1    3    3    0    0 -0.27233753814E+02  0.33618728297E+01  0.28896343113E+02  0.39849443924E+02  0.00000000000E+00 0.  1.
        -13    1    4    4    0    0  0.10911954980E+03  0.83183949363E+01 -0.45106791137E+03  0.46415356565E+03  0.00000000000E+00 0. -1.
         13    1    4    4    0    0  0.22763702351E+02 -0.50561549352E+02 -0.19390806378E+03  0.20168042448E+03  0.00000000000E+00 0.  1.
         21    1    1    2  502  501  0.11112349661E+01 -0.28005089677E+02  0.27999085678E+02  0.39616520415E+02  0.00000000000E+00 0. -1.
<scales pt_clust_5="13000.00000" pt_clust_6="13000.00000" pt_clust_7="13000.00000" pt_clust_8="13000.00000" pt_clust_9="28.02713"></scales>
<clustering>
<clus scale="   28.027">  1  9  2 -1</clus>
<clus scale="   85.150">  5  6 -1 -1</clus>
<clus scale="   90.351">  7  8 -1 -1</clus>
<clus scale="  163.570">  1  5  2 -1</clus>
<clus scale="  166.337">  2  5  1 -1</clus>
</clustering>
</event>
<event>
 9    1  0.2802611E-005  0.9988016E+02  0.7546771E-02  0.1286809E+00
          1   -1    0    0  502    0  0.00000000000E+00  0.00000000000E+00  0.18883703777E+03  0.18883703777E+03  0.00000000000E+00 0. -1.
         -2   -1    0    0    0  501 -0.00000000000E+00 -0.00000000000E+00 -0.97030679218E+02  0.97030679218E+02  0.00000000000E+00 0.  1.
        -24    2    1    2    0    0 -0.15612293715E+02  0.59635124006E+02 -0.38473430424E+01  0.10109448901E+03  0.80032505459E+02 0.  0.
         23    2    1    2    0    0  0.80135791742E+00 -0.30545822967E+02  0.11198840871E+03  0.14827153061E+03  0.92246157811E+02 0.  0.
         11    1    3    3    0    0  0.24896165778E+02  0.54551203142E+02  0.10690868297E+01  0.59973292234E+02  0.00000000000E+00 0. -1.
        -12    1    3    3    0    0 -0.40508459493E+02  0.50839208637E+01 -0.49164298721E+01  0.41121196779E+02  0.00000000000E+00 0.  1.
        -13    1    4    4    0    0  0.39383742452E+02  0.93678546685E+01  0.36060342176E+02  0.54214243041E+02  0.00000000000E+00 0.  1.
         13    1    4    4    0    0 -0.38582384534E+02 -0.39913677635E+02  0.75928066530E+02  0.94057287574E+02  0.00000000000E+00 0. -1.
         21    1    1    2  502  501  0.14810935798E+02 -0.29089301039E+02 -0.16334707109E+02  0.36501697364E+02  0.00000000000E+00 0. -1.
<scales pt_clust_5="13000.00000" pt_clust_6="13000.00000" pt_clust_7="13000.00000" pt_clust_8="13000.00000" pt_clust_9="32.64278"></scales>
<clustering>
<clus scale="   32.643">  2  9  1 -1</clus>
<clus scale="   80.033">  5  6 -1 -1</clus>
<clus scale="   88.724">  2  5  1 -1</clus>
<clus scale="   92.246">  7  8 -1 -1</clus>
<clus scale="   99.880">  1  5  2 -1</clus>
</clustering>
</event>
<event>
 9    1  0.2802611E-005  0.1040651E+03  0.7546771E-02  0.1277142E+00
          1   -1    0    0  502    0  0.00000000000E+00  0.00000000000E+00  0.17383771150E+03  0.17383771150E+03  0.00000000000E+00 0. -1.
         -2   -1    0    0    0  501 -0.00000000000E+00 -0.00000000000E+00 -0.21506734460E+03  0.21506734460E+03  0.00000000000E+00 0.  1.
        -24    2    1    2    0    0 -0.17464720674E+02  0.14107735972E+01 -0.52372222045E+02  0.97472897783E+02  0.80318798608E+02 0.  0.
         23    2    1    2    0    0  0.57038231364E+02  0.95765876626E+01  0.12791092118E+03  0.16765159333E+03  0.91655780619E+02 0.  0.
         11    1    3    3    0    0  0.20390014428E+02  0.28583194663E+02 -0.27862494333E+02  0.44822653825E+02  0.00000000000E+00 0. -1.
        -12    1    3    3    0    0 -0.37854735102E+02 -0.27172421066E+02 -0.24509727712E+02  0.52650243957E+02  0.00000000000E+00 0.  1.
        -13    1    4    4    0    0 -0.56901864715E+01 -0.30472124158E+02  0.56846656543E+02  0.64749292914E+02  0.00000000000E+00 0.  1.
         13    1    4    4    0    0  0.62728417835E+02  0.40048711821E+02  0.71064264638E+02  0.10290230042E+03  0.00000000000E+00 0. -1.
         21    1    1    2  502  501 -0.39573510689E+02 -0.10987361260E+02 -0.11676833223E+03  0.12378056498E+03  0.00000000000E+00 0.  1.
<scales pt_clust_5="13000.00000" pt_clust_6="13000.00000" pt_clust_7="13000.00000" pt_clust_8="13000.00000" pt_clust_9="41.07049"></scales>
<clustering>
<clus scale="   41.070">  2  9  1 -1</clus>
<clus scale="   80.319">  5  6 -1 -1</clus>
<clus scale="   91.656">  7  8 -1 -1</clus>
<clus scale="   94.233">  2  5  1 -1</clus>
<clus scale="  104.065">  1  5  2 -1</clus>
</clustering>
</event>
<event>
 9    1  0.2802611E-005  0.1995526E+03  0.7546771E-02  0.1168472E+00
         -2   -1    0    0    0  501 -0.00000000000E+00  0.00000000000E+00  0.96511825972E+03  0.96511825972E+03  0.00000000000E+00 0.  1.
          1   -1    0    0  502    0  0.00000000000E+00 -0.00000000000E+00 -0.15817039154E+03  0.15817039154E+03  0.00000000000E+00 0. -1.
         23    2    1    2    0    0  0.23278851771E+03 -0.88851073287E+02  0.16893376706E+03  0.32035294994E+03  0.10955540920E+03 0.  0.
        -24    2    1    2    0    0 -0.76830086182E+02  0.68170231410E+02 -0.15260394917E+02  0.13098458944E+03  0.79837587798E+02 0.  0.
         13    1    4    4    0    0 -0.31603102030E+02  0.75793686325E+02  0.15580124648E+01  0.82133223166E+02  0.00000000000E+00 0. -1.
        -14    1    4    4    0    0 -0.45226984152E+02 -0.76234549153E+01 -0.16818407382E+02  0.48851366278E+02  0.00000000000E+00 0.  1.
        -13    1    3    3    0    0  0.83225492488E+02 -0.85307535748E+02  0.10024186675E+03  0.15573146793E+03  0.00000000000E+00 0. -1.
         13    1    3    3    0    0  0.14956302522E+03 -0.35435375394E+01  0.68691900308E+02  0.16462148201E+03  0.00000000000E+00 0.  1.
         21    1    1    2  502  501 -0.15595843153E+03  0.20680841877E+02  0.65327449604E+03  0.67195111188E+03  0.00000000000E+00 0.  1.
<scales pt_clust_5="13000.00000" pt_clust_6="13000.00000" pt_clust_7="13000.00000" pt_clust_8="13000.00000" pt_clust_9="166.78983"></scales>
<clustering>
<clus scale="   79.838">  5  6 -1 -1</clus>
<clus scale="  109.555">  7  8 -1 -1</clus>
<clus scale="  130.093">  2  5  1 -1</clus>
<clus scale="  166.790">  1  9  2 -1</clus>
<clus scale="  130.093">  2  5  1 -1</clus>
</clustering>
</event>
<event>
 9    1  0.2802611E-005  0.1114051E+03  0.7546771E-02  0.1260875E+00
          3   -1    0    0  502    0  0.00000000000E+00  0.00000000000E+00  0.20857840525E+03  0.20857840525E+03  0.00000000000E+00 0. -1.
         -4   -1    0    0    0  501 -0.00000000000E+00 -0.00000000000E+00 -0.92401168241E+02  0.92401168241E+02  0.00000000000E+00 0.  1.
        -24    2    1    2    0    0 -0.34187435858E+02 -0.88330888956E+01  0.63155271258E+01  0.10493761357E+03  0.98616492685E+02 0.  0.
         23    2    1    2    0    0  0.58380156556E+02  0.62805116120E+01  0.12627730193E+03  0.16669447198E+03  0.91615514520E+02 0.  0.
         11    1    3    3    0    0 -0.50537134825E+02  0.32529683422E+02  0.65748251754E+01  0.60459991945E+02  0.00000000000E+00 0. -1.
        -12    1    3    3    0    0  0.16349698968E+02 -0.41362772318E+02 -0.25929804966E+00  0.44477621627E+02  0.00000000000E+00 0.  1.
        -11    1    4    4    0    0  0.31633527295E+01 -0.31649609070E+02  0.77663053019E+02  0.83924098798E+02  0.00000000000E+00 0.  1.
         11    1    4    4    0    0  0.55216803827E+02  0.37930120682E+02  0.48614248913E+02  0.82770373185E+02  0.00000000000E+00 0. -1.
         21    1    1    2  502  501 -0.24192720699E+02  0.25525772836E+01 -0.16415592052E+02  0.29347487933E+02  0.00000000000E+00 0.  1.
<scales pt_clust_5="13000.00000" pt_clust_6="13000.00000" pt_clust_7="13000.00000" pt_clust_8="13000.00000" pt_clust_9="24.32701"></scales>
<clustering>
<clus scale="   24.327">  2  9  1 -1</clus>
<clus scale="   91.616">  7  8 -1 -1</clus>
<clus scale="   98.616">  5  6 -1 -1</clus>
<clus scale="  105.258">  1  7  2 -1</clus>
<clus scale="  105.258">  1  5  2 -1</clus>
</clustering>
</event>
<event>
 9    1  0.2802611E-005  0.1040438E+03  0.7546771E-02  0.1278481E+00
          1   -1    0    0  502    0  0.00000000000E+00  0.00000000000E+00  0.19762718028E+03  0.19762718028E+03  0.00000000000E+00 0. -1.
         -2   -1    0    0    0  501 -0.00000000000E+00 -0.00000000000E+00 -0.26984488553E+03  0.26984488553E+03  0.00000000000E+00 0.  1.
        -24    2    1    2    0    0 -0.17763782455E+02 -0.10988321069E+01 -0.11765775435E+03  0.14403651703E+03  0.81156710625E+02 0.  0.
         23    2    1    2    0    0  0.44533438111E+02 -0.12265532303E+02  0.16743881323E+03  0.19782138100E+03  0.94677728173E+02 0.  0.
         11    1    3    3    0    0  0.22380324645E+02  0.10116166947E+02 -0.66253596782E+01  0.25438379583E+02  0.00000000000E+00 0. -1.
        -12    1    3    3    0    0 -0.40144107100E+02 -0.11214999053E+02 -0.11103239468E+03  0.11859813745E+03  0.00000000000E+00 0.  1.
        -11    1    4    4    0    0  0.72923147810E+02 -0.19934016916E+02  0.11318353247E+03  0.13610900976E+03  0.00000000000E+00 0. -1.
         11    1    4    4    0    0 -0.28389709699E+02  0.76684846126E+01  0.54255280763E+02  0.61712371237E+02  0.00000000000E+00 0.  1.
         21    1    1    2  502  501 -0.26769655656E+02  0.13364364410E+02 -0.12199876412E+03  0.12561416778E+03  0.00000000000E+00 0.  1.
<scales pt_clust_5="13000.00000" pt_clust_6="13000.00000" pt_clust_7="13000.00000" pt_clust_8="13000.00000" pt_clust_9="29.92024"></scales>
<clustering>
<clus scale="   29.920">  2  9  1 -1</clus>
<clus scale="   81.157">  5  6 -1 -1</clus>
<clus scale="   91.911">  2  5  1 -1</clus>
<clus scale="   94.678">  7  8 -1 -1</clus>
<clus scale="  104.044">  1  5  2 -1</clus>
</clustering>
</event>
<event>
 9    1  0.2802611E-005  0.1177791E+03  0.7546771E-02  0.1248936E+00
          1   -1    0    0  502    0  0.00000000000E+00  0.00000000000E+00  0.28120373627E+03  0.28120373627E+03  0.00000000000E+00 0. -1.
         -2   -1    0    0    0  501 -0.00000000000E+00 -0.00000000000E+00 -0.67262157015E+02  0.67262157015E+02  0.00000000000E+00 0.  1.
        -24    2    1    2    0    0  0.78633789177E+01  0.64464488516E+02  0.29737524316E+02  0.10686207895E+03  0.79483838344E+02 0.  0.
         23    2    1    2    0    0 -0.69713605249E+01 -0.87323278846E+02  0.18051548745E+03  0.21843216091E+03  0.86329675165E+02 0.  0.
         11    1    3    3    0    0 -0.30015348036E+02  0.55654549569E+02  0.13165089018E+02  0.64588463167E+02  0.00000000000E+00 0. -1.
        -12    1    3    3    0    0  0.37878726953E+02  0.88099389475E+01  0.16572435298E+02  0.42273615785E+02  0.00000000000E+00 0.  1.
        -13    1    4    4    0    0 -0.36334347865E+02 -0.70588305769E+02  0.16073389038E+03  0.17927151827E+03  0.00000000000E+00 0. -1.
         13    1    4    4    0    0  0.29362987340E+02 -0.16734973077E+02  0.19781597075E+02  0.39160642643E+02  0.00000000000E+00 0.  1.
         21    1    1    2  502  501 -0.89201839278E+00  0.22858790330E+02  0.36885674853E+01  0.23171653420E+02  0.00000000000E+00 0. -1.
<scales pt_clust_5="13000.00000" pt_clust_6="13000.00000" pt_clust_7="13000.00000" pt_clust_8="13000.00000" pt_clust_9="22.87619"></scales>
<clustering>
<clus scale="   22.876">  2  9  1 -1</clus>
<clus scale="   79.484">  5  6 -1 -1</clus>
<clus scale="   86.330">  7  8 -1 -1</clus>
<clus scale="  112.857">  2  5  1 -1</clus>
<clus scale="  117.779">  1  5  2 -1</clus>
</clustering>
</event>
<event>
 9    1  0.2802611E-005  0.9665094E+02  0.7546771E-02  0.1292640E+00
         -2   -1    0    0    0  501 -0.00000000000E+00  0.00000000000E+00  0.94966973960E+02  0.94966973960E+02  0.00000000000E+00 0.  1.
          1   -1    0    0  502    0  0.00000000000E+00 -0.00000000000E+00 -0.33040002212E+03  0.33040002212E+03  0.00000000000E+00 0. -1.
        -24    2    1    2    0    0 -0.57482525216E+02  0.29160534750E+01  0.43965773691E+02  0.10897951304E+03  0.81429730032E+02 0.  0.
         23    2    1    2    0    0  0.29881669587E+02 -0.39700427375E+01 -0.27113399396E+03  0.28755650135E+03  0.90919873362E+02 0.  0.
         11    1    3    3    0    0  0.14415190788E+02 -0.19486270785E+02  0.13489114193E+02  0.27739298410E+02  0.00000000000E+00 0. -1.
        -12    1    3    3    0    0 -0.71897716004E+02  0.22402324260E+02  0.30476659498E+02  0.81240214629E+02  0.00000000000E+00 0.  1.
        -11    1    4    4    0    0 -0.17789322133E+02 -0.25012223441E+02 -0.38913318798E+02  0.49561251833E+02  0.00000000000E+00 0.  1.
         11    1    4    4    0    0  0.47670991720E+02  0.21042180704E+02 -0.23222067517E+03  0.23799524952E+03  0.00000000000E+00 0. -1.
         21    1    1    2  502  501  0.27600855629E+02  0.10539892625E+01 -0.82648278842E+01  0.28830981682E+02  0.00000000000E+00 0. -1.
<scales pt_clust_5="13000.00000" pt_clust_6="13000.00000" pt_clust_7="13000.00000" pt_clust_8="13000.00000" pt_clust_9="27.62097"></scales>
<clustering>
<clus scale="   27.621">  1  9  2 -1</clus>
<clus scale="   81.430">  5  6 -1 -1</clus>
<clus scale="   87.783">  1  5  2 -1</clus>
<clus scale="   90.920">  7  8 -1 -1</clus>
<clus scale="   96.651">  2  5  1 -1</clus>
</clustering>
</event>
<event>
 9    1  0.2802611E-005  0.1324550E+03  0.7546771E-02  0.1226082E+00
         -2   -1    0    0    0  501 -0.00000000000E+00  0.00000000000E+00  0.90989016686E+02  0.90989016686E+02  0.00000000000E+00 0.  1.
          1   -1    0    0  502    0  0.00000000000E+00 -0.00000000000E+00 -0.51971203130E+03  0.51971203130E+03  0.00000000000E+00 0. -1.
        -24    2    1    2    0    0 -0.33641967289E+02  0.81746726440E+02 -0.51059962720E+02  0.13031752446E+03  0.81001408263E+02 0.  0.
         23    2    1    2    0    0  0.70864001369E+02 -0.71927245505E+02 -0.40896489079E+03  0.43076792976E+03  0.90074924776E+02 0.  0.
         13    1    3    3    0    0 -0.14611347165E+02  0.55876100026E+02 -0.71755109284E+02  0.92110942501E+02  0.00000000000E+00 0. -1.
        -14    1    3    3    0    0 -0.19030620124E+02  0.25870626414E+02  0.20695146564E+02  0.38206581955E+02  0.00000000000E+00 0.  1.
        -13    1    4    4    0    0  0.31117411863E+02 -0.73932908437E+02 -0.35359689498E+03  0.36258120802E+03  0.00000000000E+00 0. -1.
         13    1    4    4    0    0  0.39746589506E+02  0.20056629319E+01 -0.55367995808E+02  0.68186721735E+02  0.00000000000E+00 0.  1.
         21    1    1    2  502  501 -0.37222034080E+02 -0.98194809348E+01  0.31301838897E+02  0.49615593771E+02  0.00000000000E+00 0.  1.
<scales pt_clust_5="13000.00000" pt_clust_6="13000.00000" pt_clust_7="13000.00000" pt_clust_8="13000.00000" pt_clust_9="38.49548"></scales>
<clustering>
<clus scale="   38.495">  1  9  2 -1</clus>
<clus scale="   81.001">  5  6 -1 -1</clus>
<clus scale="   90.075">  7  8 -1 -1</clus>
<clus scale="  126.460">  1  5  2 -1</clus>
<clus scale="  132.455">  2  5  1 -1</clus>
</clustering>
</event>
<event>
 9    1  0.2802611E-005  0.9633984E+02  0.7546771E-02  0.1297484E+00
          1   -1    0    0  502    0  0.00000000000E+00  0.00000000000E+00  0.39697869032E+03  0.39697869032E+03  0.00000000000E+00 0. -1.
         -2   -1    0    0    0  501 -0.00000000000E+00 -0.00000000000E+00 -0.10543093791E+03  0.10543093791E+03  0.00000000000E+00 0.  1.
         23    2    1    2    0    0  0.18322050119E+02 -0.35601575947E+02 -0.65648271569E+02  0.12055933771E+03  0.92853048517E+02 0.  0.
        -24    2    1    2    0    0 -0.19783104917E+02  0.15520247661E+02  0.35185211682E+03  0.36101878144E+03  0.76827072798E+02 0.  0.
         11    1    4    4    0    0 -0.40419601759E+02 -0.14852862750E+02  0.16057542545E+03  0.16624926765E+03  0.00000000000E+00 0. -1.
        -12    1    4    4    0    0  0.20636496842E+02  0.30373110411E+02  0.19127669137E+03  0.19476951378E+03  0.00000000000E+00 0.  1.
        -11    1    3    3    0    0  0.51598008421E+02 -0.20919489249E+02 -0.63021831257E+02  0.84093583099E+02  0.00000000000E+00 0.  1.
         11    1    3    3    0    0 -0.33275958302E+02 -0.14682086698E+02 -0.26264403123E+01  0.36465754613E+02  0.00000000000E+00 0. -1.
         21    1    1    2  502  501  0.14610547981E+01  0.20081328286E+02  0.53439071567E+01  0.20831509080E+02  0.00000000000E+00 0. -1.
<scales pt_clust_5="13000.00000" pt_clust_6="13000.00000" pt_clust_7="13000.00000" pt_clust_8="13000.00000" pt_clust_9="20.13441"></scales>
<clustering>
<clus scale="   20.134">  2  9  1 -1</clus>
<clus scale="   76.827">  5  6 -1 -1</clus>
<clus scale="   81.007">  1  5  2 -1</clus>
<clus scale="   92.853">  7  8 -1 -1</clus>
<clus scale="   81.007">  1  5  2 -1</clus>
</clustering>
</event>
<event>
 9    1  0.2802611E-005  0.1060758E+03  0.7546771E-02  0.1276205E+00
         -2   -1    0    0    0  501 -0.00000000000E+00  0.00000000000E+00  0.19316396897E+03  0.19316396897E+03  0.00000000000E+00 0.  1.
          1   -1    0    0  502    0  0.00000000000E+00 -0.00000000000E+00 -0.73632838360E+02  0.73632838360E+02  0.00000000000E+00 0. -1.
        -24    2    1    2    0    0  0.79375182168E+01  0.39672417538E+02  0.87690468468E+02  0.12236049738E+03  0.75136995878E+02 0.  0.
         23    2    1    2    0    0 -0.29289479129E+02 -0.48999412121E+02  0.57718669260E+01  0.10947231209E+03  0.93231200198E+02 0.  0.
         13    1    3    3    0    0 -0.62801102530E+01  0.41372756047E+02  0.95548049476E+01  0.42923641799E+02  0.00000000000E+00 0. -1.
        -14    1    3    3    0    0  0.14217628470E+02 -0.17003385094E+01  0.78135663520E+02  0.79436855578E+02  0.00000000000E+00 0.  1.
        -13    1    4    4    0    0 -0.47394806502E+02 -0.27246652680E+02 -0.31173969905E+02  0.62932218817E+02  0.00000000000E+00 0.  1.
         13    1    4    4    0    0  0.18105327373E+02 -0.21752759440E+02  0.36945836831E+02  0.46540093271E+02  0.00000000000E+00 0. -1.
         21    1    1    2  502  501  0.21351960912E+02  0.93269945832E+01  0.26068795220E+02  0.34963997869E+02  0.00000000000E+00 0. -1.
<scales pt_clust_5="13000.00000" pt_clust_6="13000.00000" pt_clust_7="13000.00000" pt_clust_8="13000.00000" pt_clust_9="23.30019"></scales>
<clustering>
<clus scale="   23.300">  1  9  2 -1</clus>
<clus scale="   75.137">  5  6 -1 -1</clus>
<clus scale="   90.585">  1  5  2 -1</clus>
<clus scale="   93.231">  7  8 -1 -1</clus>
<clus scale="  106.076">  2  5  1 -1</clus>
</clustering>
</event>
<event>
 9    1  0.2802611E-005  0.1200084E+03  0.7546771E-02  0.1246733E+00
          1   -1    0    0  502    0  0.00000000000E+00  0.00000000000E+00  0.16583186168E+03  0.16583186168E+03  0.00000000000E+00 0. -1.
         -2   -1    0    0    0  501 -0.00000000000E+00 -0.00000000000E+00 -0.11821208410E+03  0.11821208410E+03  0.00000000000E+00 0.  1.
        -24    2    1    2    0    0 -0.79723510609E+02  0.24262726798E+02  0.70025887345E+01  0.11619936900E+03  0.80676756576E+02 0.  0.
         23    2    1    2    0    0  0.74794720080E+02  0.16404165687E+02  0.41857053303E+02  0.12686133162E+03  0.92078432576E+02 0.  0.
         13    1    3    3    0    0 -0.68659425842E+02  0.44344742679E+02  0.26686304836E+02  0.85980996888E+02  0.00000000000E+00 0. -1.
        -14    1    3    3    0    0 -0.11064084767E+02 -0.20082015880E+02 -0.19683716101E+02  0.30218372112E+02  0.00000000000E+00 0.  1.
        -11    1    4    4    0    0  0.62119334790E+02 -0.19251151555E+02 -0.66125626605E+01  0.65369293831E+02  0.00000000000E+00 0.  1.
         11    1    4    4    0    0  0.12675385290E+02  0.35655317243E+02  0.48469615964E+02  0.61492037790E+02  0.00000000000E+00 0. -1.
         21    1    1    2  502  501  0.49287905284E+01 -0.40666892486E+02 -0.12398644577E+01  0.40983245167E+02  0.00000000000E+00 0.  1.
<scales pt_clust_5="13000.00000" pt_clust_6="13000.00000" pt_clust_7="13000.00000" pt_clust_8="13000.00000" pt_clust_9="40.96449"></scales>
<clustering>
<clus scale="   40.964">  2  9  1 -1</clus>
<clus scale="   80.677">  5  6 -1 -1</clus>
<clus scale="   92.078">  7  8 -1 -1</clus>
<clus scale="  111.500">  2  5  1 -1</clus>
<clus scale="  120.008">  1  5  2 -1</clus>
</clustering>
</event>
<event>
 9    1  0.2802611E-005  0.9746020E+02  0.7546771E-02  0.1291566E+00
          1   -1    0    0  502    0  0.00000000000E+00  0.00000000000E+00  0.18023560217E+03  0.18023560217E+03  0.00000000000E+00 0. -1.
         -2   -1    0    0    0  501 -0.00000000000E+00 -0.00000000000E+00 -0.11403133399E+03  0.11403133399E+03  0.00000000000E+00 0.  1.
         23    2    1    2    0    0 -0.59242695872E+01  0.53976936290E+02 -0.51910387964E+02  0.11856077022E+03  0.91724376449E+02 0.  0.
        -24    2    1    2    0    0  0.57851711588E+01 -0.28994616505E+02  0.12309066160E+03  0.15023272329E+03  0.80897491823E+02 0.  0.
         11    1    4    4    0    0  0.33690046899E+02 -0.30371007555E+02  0.11077142252E+03  0.11969847705E+03  0.00000000000E+00 0. -1.
        -12    1    4    4    0    0 -0.27904875740E+02  0.13763910501E+01  0.12319239082E+02  0.30534246248E+02  0.00000000000E+00 0.  1.
        -13    1    3    3    0    0 -0.34363247154E+02  0.66587833818E+02 -0.42058643785E+02  0.85928469581E+02  0.00000000000E+00 0.  1.
         13    1    3    3    0    0  0.28438977567E+02 -0.12610897528E+02 -0.98517441789E+01  0.32632300637E+02  0.00000000000E+00 0. -1.
         21    1    1    2  502  501  0.13909842846E+00 -0.24982319785E+02 -0.49760054558E+01  0.25473442651E+02  0.00000000000E+00 0. -1.
<scales pt_clust_5="13000.00000" pt_clust_6="13000.00000" pt_clust_7="13000.00000" pt_clust_8="13000.00000" pt_clust_9="24.98271"></scales>
<clustering>
<clus scale="   24.983">  2  9  1 -1</clus>
<clus scale="   80.897">  5  6 -1 -1</clus>
<clus scale="   87.347">  1  5  2 -1</clus>
<clus scale="   91.724">  7  8 -1 -1</clus>
<clus scale="   87.347">  1  5  2 -1</clus>
</clustering>
</event>
<event>
 9    1  0.2802611E-005  0.9971328E+02  0.7546771E-02  0.1286166E+00
          1   -1    0    0  502    0  0.00000000000E+00  0.00000000000E+00  0.13020133916E+03  0.13020133916E+03  0.00000000000E+00 0. -1.
         -2   -1    0    0    0  501 -0.00000000000E+00 -0.00000000000E+00 -0.89645668179E+02  0.89645668179E+02  0.00000000000E+00 0.  1.
        -24    2    1    2    0    0 -0.12036458040E+02  0.29436447212E+02  0.17807235702E+02  0.88416953612E+02  0.80554821681E+02 0.  0.
         23    2    1    2    0    0  0.28516595124E+02 -0.42197757857E+02  0.31299945197E+02  0.10890064429E+03  0.91026462041E+02 0.  0.
         13    1    3    3    0    0 -0.86442833818E+01  0.30813126426E+02  0.48171341797E+02  0.57832953979E+02  0.00000000000E+00 0. -1.
        -14    1    3    3    0    0 -0.33921746586E+01 -0.13766792145E+01 -0.30364106095E+02  0.30583999633E+02  0.00000000000E+00 0.  1.
        -11    1    4    4    0    0  0.27943843832E+02  0.18914407192E+02  0.33765658233E+02  0.47736075283E+02  0.00000000000E+00 0. -1.
         11    1    4    4    0    0  0.57275129155E+00 -0.61112165048E+02 -0.24657130358E+01  0.61164569006E+02  0.00000000000E+00 0.  1.
         21    1    1    2  502  501 -0.16480137083E+02  0.12761310645E+02 -0.85515099194E+01  0.22529409436E+02  0.00000000000E+00 0.  1.
<scales pt_clust_5="13000.00000" pt_clust_6="13000.00000" pt_clust_7="13000.00000" pt_clust_8="13000.00000" pt_clust_9="20.84337"></scales>
<clustering>
<clus scale="   20.843">  2  9  1 -1</clus>
<clus scale="   80.555">  5  6 -1 -1</clus>
<clus scale="   90.255">  2  5  1 -1</clus>
<clus scale="   91.026">  7  8 -1 -1</clus>
<clus scale="   99.713">  1  5  2 -1</clus>
</clustering>
</event>
<event>
 9    1  0.2802611E-005  0.1063886E+03  0.7546771E-02  0.1270635E+00
         -2   -1    0    0    0  501 -0.00000000000E+00  0.00000000000E+00  0.41043547526E+02  0.41043547526E+02  0.00000000000E+00 0.  1.
          1   -1    0    0  502    0  0.00000000000E+00 -0.00000000000E+00 -0.46701475934E+03  0.46701475934E+03  0.00000000000E+00 0. -1.
         23    2    1    2    0    0 -0.66505518392E+02  0.38180491117E+02 -0.12711418103E+03  0.16485282145E+03  0.71677777878E+02 0.  0.
        -24    2    1    2    0    0  0.40545131816E+02 -0.54930291634E+02 -0.29345542495E+03  0.31184189452E+03  0.80424101446E+02 0.  0.
         13    1    4    4    0    0  0.77133679755E+01 -0.64283068450E+02 -0.23862774106E+03  0.24725494482E+03  0.00000000000E+00 0. -1.
        -14    1    4    4    0    0  0.32831763841E+02  0.93527768158E+01 -0.54827683897E+02  0.64586949708E+02  0.00000000000E+00 0.  1.
        -11    1    3    3    0    0 -0.32788584730E+02 -0.25854983036E+01 -0.70318235011E+01  0.33633653264E+02  0.00000000000E+00 0.  1.
         11    1    3    3    0    0 -0.33716933662E+02  0.40765989420E+02 -0.12008235753E+03  0.13121916818E+03  0.00000000000E+00 0. -1.
         21    1    1    2  502  501  0.25960386576E+02  0.16749800518E+02 -0.54016058360E+01  0.31363590900E+02  0.00000000000E+00 0.  1.
<scales pt_clust_5="13000.00000" pt_clust_6="13000.00000" pt_clust_7="13000.00000" pt_clust_8="13000.00000" pt_clust_9="30.89494"></scales>
<clustering>
<clus scale="   30.895">  1  9  2 -1</clus>
<clus scale="   71.678">  7  8 -1 -1</clus>
<clus scale="   80.424">  5  6 -1 -1</clus>
<clus scale="   99.941">  1  7  2 -1</clus>
<clus scale="  106.389">  2  5  1 -1</clus>
</clustering>
</event>
<event>
 9    1  0.2802611E-005  0.1913027E+03  0.7546771E-02  0.1158584E+00
         -2   -1    0    0    0  501 -0.00000000000E+00  0.00000000000E+00  0.76300195655E+03  0.76300195655E+03  0.00000000000E+00 0.  1.
          1   -1    0    0  502    0  0.00000000000E+00 -0.00000000000E+00 -0.20375663525E+03  0.20375663525E+03  0.00000000000E+00 0. -1.
        -24    2    1    2    0    0  0.12411402556E+03 -0.11312385723E+03  0.64948449815E+03  0.67577495636E+03  0.81488526178E+02 0.  0.
         23    2    1    2    0    0 -0.10607315667E+03  0.12872941701E+03 -0.13914102346E+03  0.23657410458E+03  0.93724624184E+02 0.  0.
         13    1    3    3    0    0  0.10303544196E+03 -0.39983482567E+02  0.38953617697E+03  0.40491161300E+03  0.00000000000E+00 0. -1.
        -14    1    3    3    0    0  0.21078583606E+02 -0.73140374665E+02  0.25994832118E+03  0.27086334336E+03  0.00000000000E+00 0.  1.
        -13    1    4    4    0    0 -0.10524299123E+03  0.71572045115E+02 -0.64870802322E+02  0.14285260180E+03  0.00000000000E+00 0. -1.
         13    1    4    4    0    0 -0.83016543897E+00  0.57157371899E+02 -0.74270221134E+02  0.93721502785E+02  0.00000000000E+00 0.  1.
         21    1    1    2  502  501 -0.18040868891E+02 -0.15605559782E+02  0.48901846608E+02  0.54409530858E+02  0.00000000000E+00 0.  1.
<scales pt_clust_5="13000.00000" pt_clust_6="13000.00000" pt_clust_7="13000.00000" pt_clust_8="13000.00000" pt_clust_9="23.85386"></scales>
<clustering>
<clus scale="   23.854">  1  9  2 -1</clus>
<clus scale="   81.489">  5  6 -1 -1</clus>
<clus scale="   93.725">  7  8 -1 -1</clus>
<clus scale="  185.615">  1  5  2 -1</clus>
<clus scale="  191.303">  2  5  1 -1</clus>
</clustering>
</event>
<event>
 9    1  0.2802611E-005  0.9224692E+02  0.7546771E-02  0.1303521E+00
          1   -1    0    0  502    0  0.00000000000E+00  0.00000000000E+00  0.19871734347E+03  0.19871734347E+03  0.00000000000E+00 0. -1.
         -2   -1    0    0    0  501 -0.00000000000E+00 -0.00000000000E+00 -0.13887976043E+03  0.13887976043E+03  0.00000000000E+00 0.  1.
         23    2    1    2    0    0  0.23123826885E+01  0.15714008520E+02 -0.82083351497E+02  0.12321885826E+03  0.90514823433E+02 0.  0.
        -24    2    1    2    0    0 -0.11985046546E+02  0.16901447543E+02  0.15658244070E+03  0.17733383764E+03  0.80622136961E+02 0.  0.
         11    1    4    4    0    0 -0.27324583955E+02  0.30798952436E+02  0.15009868950E+03  0.15564326181E+03  0.00000000000E+00 0. -1.
        -12    1    4    4    0    0  0.15339537409E+02 -0.13897504893E+02  0.64837512033E+01  0.21690575830E+02  0.00000000000E+00 0.  1.
        -11    1    3    3    0    0 -0.26994897361E+02 -0.27911327181E+02 -0.41369397606E+02  0.56737939043E+02  0.00000000000E+00 0.  1.
         11    1    3    3    0    0  0.29307280049E+02  0.43625335701E+02 -0.40713953891E+02  0.66480919220E+02  0.00000000000E+00 0. -1.
         21    1    1    2  502  501  0.96726638577E+01 -0.32615456063E+02 -0.14661506171E+02  0.37044407992E+02  0.00000000000E+00 0. -1.
<scales pt_clust_5="13000.00000" pt_clust_6="13000.00000" pt_clust_7="13000.00000" pt_clust_8="13000.00000" pt_clust_9="34.01953"></scales>
<clustering>
<clus scale="   34.020">  2  9  1 -1</clus>
<clus scale="   80.622">  5  6 -1 -1</clus>
<clus scale="   82.562">  1  5  2 -1</clus>
<clus scale="   90.515">  7  8 -1 -1</clus>
<clus scale="   82.562">  1  5  2 -1</clus>
</clustering>
</event>
<event>
 9    1  0.2802611E-005  0.1083141E+03  0.7546771E-02  0.1269230E+00
          3   -1    0    0  502    0  0.00000000000E+00  0.00000000000E+00  0.42728314915E+02  0.42728314915E+02  0.00000000000E+00 0. -1.
         -4   -1    0    0    0  501 -0.00000000000E+00 -0.00000000000E+00 -0.64520666454E+03  0.64520666454E+03  0.00000000000E+00 0.  1.
         23    2    1    2    0    0 -0.94267053378E+01 -0.37037086241E+02 -0.32527264294E+03  0.34050068346E+03  0.93154788723E+02 0.  0.
        -24    2    1    2    0    0 -0.58400024529E+02  0.32753246024E+02 -0.61257966869E+02  0.12104471385E+03  0.80099602094E+02 0.  0.
         13    1    4    4    0    0 -0.16198173473E+02  0.39201304460E+02  0.44892105706E+01  0.42652973012E+02  0.00000000000E+00 0. -1.
        -14    1    4    4    0    0 -0.42201851057E+02 -0.64480584357E+01 -0.65747177440E+02  0.78391740837E+02  0.00000000000E+00 0.  1.
        -13    1    3    3    0    0  0.34162928648E+02 -0.34144122055E+02 -0.10027647971E+03  0.11130273647E+03  0.00000000000E+00 0.  1.
         13    1    3    3    0    0 -0.43589633986E+02 -0.28929641865E+01 -0.22499616323E+03  0.22919794698E+03  0.00000000000E+00 0. -1.
         21    1    1    2  502  501  0.67826729867E+02  0.42838402173E+01 -0.21594773982E+03  0.22638958215E+03  0.00000000000E+00 0.  1.
<scales pt_clust_5="13000.00000" pt_clust_6="13000.00000" pt_clust_7="13000.00000" pt_clust_8="13000.00000" pt_clust_9="67.96188"></scales>
<clustering>
<clus scale="   67.962">  2  9  1 -1</clus>
<clus scale="   80.100">  5  6 -1 -1</clus>
<clus scale="   93.155">  7  8 -1 -1</clus>
<clus scale="   97.314">  1  5  2 -1</clus>
<clus scale="   97.314">  1  5  2 -1</clus>
</clustering>
</event>
<event>
 9    1  0.2802611E-005  0.9672473E+02  0.7546771E-02  0.1292461E+00
         -2   -1    0    0    0  501 -0.00000000000E+00  0.00000000000E+00  0.13061140801E+03  0.13061140801E+03  0.00000000000E+00 0.  1.
          1   -1    0    0  502    0  0.00000000000E+00 -0.00000000000E+00 -0.17795309085E+03  0.17795309085E+03  0.00000000000E+00 0. -1.
         23    2    1    2    0    0  0.13239327645E+02  0.30638084379E+02  0.84471978966E+02  0.12838439053E+03  0.90736235825E+02 0.  0.
        -24    2    1    2    0    0  0.13619112240E+02 -0.41236522069E+02 -0.11268881331E+03  0.14554685112E+03  0.81235375643E+02 0.  0.
         11    1    4    4    0    0  0.27445989537E+02  0.10506741731E+02 -0.73571737448E+02  0.79224204096E+02  0.00000000000E+00 0. -1.
        -12    1    4    4    0    0 -0.13826877297E+02 -0.51743263801E+02 -0.39117075857E+02  0.66322647023E+02  0.00000000000E+00 0.  1.
        -11    1    3    3    0    0  0.44987206995E+02 -0.87116094987E+01  0.35150986385E+02  0.57752340014E+02  0.00000000000E+00 0.  1.
         11    1    3    3    0    0 -0.31747879350E+02  0.39349693878E+02  0.49320992581E+02  0.70632050520E+02  0.00000000000E+00 0. -1.
         21    1    1    2  502  501 -0.26858439885E+02  0.10598437690E+02 -0.19124848496E+02  0.34633257204E+02  0.00000000000E+00 0. -1.
<scales pt_clust_5="13000.00000" pt_clust_6="13000.00000" pt_clust_7="13000.00000" pt_clust_8="13000.00000" pt_clust_9="28.87391"></scales>
<clustering>
<clus scale="   28.874">  2  9  1 -1</clus>
<clus scale="   81.235">  5  6 -1 -1</clus>
<clus scale="   87.874">  2  5  1 -1</clus>
<clus scale="   90.736">  7  8 -1 -1</clus>
<clus scale="   28.874">  2  5  1 -1</clus>
</clustering>
</event>
<event>
 9    1  0.2802611E-005  0.1249365E+03  0.7546771E-02  0.1239132E+00
         -2   -1    0    0    0  501 -0.00000000000E+00  0.00000000000E+00  0.34842218046E+03  0.34842218046E+03  0.00000000000E+00 0.  1.
          1   -1    0    0  502    0  0.00000000000E+00 -0.00000000000E+00 -0.32484421634E+03  0.32484421634E+03  0.00000000000E+00 0. -1.
        -24    2    1    2    0    0 -0.28802210400E+02  0.27374366496E+02  0.22205088896E+03  0.24624485471E+03  0.98747191954E+02 0.  0.
         23    2    1    2    0    0  0.76349863122E+02  0.21219029995E+02 -0.29016096191E+03  0.31287780111E+03  0.86137017463E+02 0.  0.
         11    1    3    3    0    0 -0.43156510962E+02 -0.25041025093E+02  0.13136939050E+03  0.14052563515E+03  0.00000000000E+00 0. -1.
        -12    1    3    3    0    0  0.14354300562E+02  0.52415391589E+02  0.90681498466E+02  0.10571921956E+03  0.00000000000E+00 0.  1.
        -11    1    4    4    0    0  0.47480994476E+02 -0.35141531486E+01 -0.26007716609E+03  0.26439918009E+03  0.00000000000E+00 0. -1.
         11    1    4    4    0    0  0.28868868646E+02  0.24733183143E+02 -0.30083795819E+02  0.48478621022E+02  0.00000000000E+00 0.  1.
         21    1    1    2  502  501 -0.47547652722E+02 -0.48593396490E+02  0.91688037068E+02  0.11414374097E+03  0.00000000000E+00 0. -1.
<scales pt_clust_5="13000.00000" pt_clust_6="13000.00000" pt_clust_7="13000.00000" pt_clust_8="13000.00000" pt_clust_9="67.98601"></scales>
<clustering>
<clus scale="   67.986">  1  9  2 -1</clus>
<clus scale="   86.137">  7  8 -1 -1</clus>
<clus scale="   98.747">  5  6 -1 -1</clus>
<clus scale="  115.229">  2  7  1 -1</clus>
<clus scale="  115.229">  2  5  1 -1</clus>
</clustering>
</event>
<event>
 9    1  0.2802611E-005  0.2529676E+03  0.7546771E-02  0.1112125E+00
         -2   -1    0    0    0  501 -0.00000000000E+00  0.00000000000E+00  0.79173789605E+02  0.79173789605E+02  0.00000000000E+00 0.  1.
          1   -1    0    0  502    0  0.00000000000E+00 -0.00000000000E+00 -0.17148262030E+04  0.17148262030E+04  0.00000000000E+00 0. -1.
        -24    2    1    2    0    0 -0.75732349422E+01  0.19230747588E+03 -0.15446969331E+03  0.25931269415E+03  0.79640869086E+02 0.  0.
         23    2    1    2    0    0  0.33183120346E+02 -0.24315742112E+03 -0.14418293958E+04  0.14654755415E+04  0.92303333276E+02 0.  0.
         11    1    3    3    0    0 -0.27966839164E+02  0.67572203772E+02 -0.94288269104E+02  0.11932486960E+03  0.00000000000E+00 0. -1.
        -12    1    3    3    0    0  0.20393604222E+02  0.12473527211E+03 -0.60181424203E+02  0.13998782455E+03  0.00000000000E+00 0.  1.
        -11    1    4    4    0    0 -0.14514443139E+02 -0.19051920206E+03 -0.10337525893E+04  0.10512624084E+04  0.00000000000E+00 0. -1.
         11    1    4    4    0    0  0.47697563485E+02 -0.52638219057E+02 -0.40807680646E+03  0.41421313311E+03  0.00000000000E+00 0.  1.
         21    1    1    2  502  501 -0.25609885404E+02  0.50849945234E+02 -0.39353324250E+02  0.69211756879E+02  0.00000000000E+00 0. -1.
<scales pt_clust_5="13000.00000" pt_clust_6="13000.00000" pt_clust_7="13000.00000" pt_clust_8="13000.00000" pt_clust_9="56.93490"></scales>
<clustering>
<clus scale="   56.935">  1  9  2 -1</clus>
<clus scale="   79.641">  5  6 -1 -1</clus>
<clus scale="   92.303">  7  8 -1 -1</clus>
<clus scale="  248.627">  1  5  2 -1</clus>
<clus scale="  252.968">  2  5  1 -1</clus>
</clustering>
</event>
<event>
 9    1  0.2802611E-005  0.1216940E+03  0.7546771E-02  0.1242463E+00
         -2   -1    0    0    0  501 -0.00000000000E+00  0.00000000000E+00  0.25843584640E+03  0.25843584640E+03  0.00000000000E+00 0.  1.
          1   -1    0    0  502    0  0.00000000000E+00 -0.00000000000E+00 -0.19198367412E+03  0.19198367412E+03  0.00000000000E+00 0. -1.
         23    2    1    2    0    0 -0.57740609381E+02 -0.70805245235E+00  0.11336393944E+03  0.15403837241E+03  0.86844447725E+02 0.  0.
        -24    2    1    2    0    0  0.46611665529E+02 -0.83553979992E+02 -0.12831079603E+03  0.17869620683E+03  0.79465458027E+02 0.  0.
         13    1    4    4    0    0  0.62257620056E+02 -0.73882979357E+02 -0.12790941822E+03  0.16029823818E+03  0.00000000000E+00 0. -1.
        -14    1    4    4    0    0 -0.15645954527E+02 -0.96710006349E+01 -0.40137781813E+00  0.18397968651E+02  0.00000000000E+00 0.  1.
        -13    1    3    3    0    0 -0.80700960151E+02  0.23239428642E+01  0.82263665871E+02  0.11526212041E+03  0.00000000000E+00 0. -1.
         13    1    3    3    0    0  0.22960350771E+02 -0.30319953166E+01  0.31100273567E+02  0.38776251999E+02  0.00000000000E+00 0.  1.
         21    1    1    2  502  501  0.11128943852E+02  0.84262032444E+02  0.81399028877E+02  0.11768494128E+03  0.00000000000E+00 0.  1.
<scales pt_clust_5="13000.00000" pt_clust_6="13000.00000" pt_clust_7="13000.00000" pt_clust_8="13000.00000" pt_clust_9="84.99379"></scales>
<clustering>
<clus scale="   79.465">  5  6 -1 -1</clus>
<clus scale="   84.994">  1  9  2 -1</clus>
<clus scale="   86.844">  7  8 -1 -1</clus>
<clus scale="  116.543">  2  5  1 -1</clus>
<clus scale="  116.543">  2  5  1 -1</clus>
</clustering>
</event>
<event>
 9    1  0.2802611E-005  0.2574649E+03  0.7546771E-02  0.1109008E+00
          1   -1    0    0  502    0  0.00000000000E+00  0.00000000000E+00  0.45861269505E+03  0.45861269505E+03  0.00000000000E+00 0. -1.
         -2   -1    0    0    0  501 -0.00000000000E+00 -0.00000000000E+00 -0.20380058167E+03  0.20380058167E+03  0.00000000000E+00 0.  1.
         23    2    1    2    0    0 -0.18209872920E+03 -0.12688992535E+03 -0.26331403832E+02  0.24059530274E+03  0.89060409512E+02 0.  0.
        -24    2    1    2    0    0  0.18948511541E+03  0.16229883270E+03  0.28221752412E+03  0.38563091950E+03  0.82576964698E+02 0.  0.
         11    1    4    4    0    0  0.14767098785E+03  0.83494841414E+02  0.21535158286E+03  0.27414305286E+03  0.00000000000E+00 0. -1.
        -12    1    4    4    0    0  0.41814127558E+02  0.78803991288E+02  0.66865941259E+02  0.11148786663E+03  0.00000000000E+00 0.  1.
        -11    1    3    3    0    0 -0.61929232721E+02 -0.81604788734E+02  0.19424443326E+02  0.10426830970E+03  0.00000000000E+00 0. -1.
         11    1    3    3    0    0 -0.12016949647E+03 -0.45285136614E+02 -0.45755847157E+02  0.13632699304E+03  0.00000000000E+00 0.  1.
         21    1    1    2  502  501 -0.73863862120E+01 -0.35408907354E+02 -0.10740068956E+01  0.36187054482E+02  0.00000000000E+00 0. -1.
<scales pt_clust_5="13000.00000" pt_clust_6="13000.00000" pt_clust_7="13000.00000" pt_clust_8="13000.00000" pt_clust_9="36.17111"></scales>
<clustering>
<clus scale="   36.171">  2  9  1 -1</clus>
<clus scale="   82.577">  5  6 -1 -1</clus>
<clus scale="   89.060">  7  8 -1 -1</clus>
<clus scale="  255.295">  1  5  2 -1</clus>
<clus scale="  255.295">  1  5  2 -1</clus>
</clustering>
</event>
<event>
 9    1  0.2802611E-005  0.1426635E+03  0.7546771E-02  0.1213212E+00
         -2   -1    0    0    0  501 -0.00000000000E+00  0.00000000000E+00  0.12750459861E+03  0.12750459861E+03  0.00000000000E+00 0.  1.
          1   -1    0    0  502    0  0.00000000000E+00 -0.00000000000E+00 -0.24253547449E+03  0.24253547449E+03  0.00000000000E+00 0. -1.
        -24    2    1    2    0    0 -0.85633839533E+01  0.12544954297E+03 -0.80671654183E+02  0.16792120176E+03  0.76672647242E+02 0.  0.
         23    2    1    2    0    0 -0.20089254828E+02 -0.91749078385E+02 -0.66024053135E+02  0.14771890284E+03  0.92952822011E+02 0.  0.
         13    1    3    3    0    0  0.29273793056E+02  0.52024982019E+02 -0.55656232901E+02  0.81615990925E+02  0.00000000000E+00 0. -1.
        -14    1    3    3    0    0 -0.37837177010E+02  0.73424560953E+02 -0.25015421282E+02  0.86305210834E+02  0.00000000000E+00 0.  1.
        -11    1    4    4    0    0 -0.54470829848E+02 -0.77930932264E+02 -0.48225923203E+02  0.10661163715E+03  0.00000000000E+00 0. -1.
         11    1    4    4    0    0  0.34381575021E+02 -0.13818146122E+02 -0.17798129932E+02  0.41107265686E+02  0.00000000000E+00 0.  1.
         21    1    1    2  502  501  0.28652638781E+02 -0.33700464587E+02  0.31664831445E+02  0.54399968501E+02  0.00000000000E+00 0.  1.
<scales pt_clust_5="13000.00000" pt_clust_6="13000.00000" pt_clust_7="13000.00000" pt_clust_8="13000.00000" pt_clust_9="44.23455"></scales>
<clustering>
<clus scale="   44.235">  1  9  2 -1</clus>
<clus scale="   76.673">  5  6 -1 -1</clus>
<clus scale="   92.953">  7  8 -1 -1</clus>
<clus scale="  132.632">  1  5  2 -1</clus>
<clus scale="  142.664">  2  5  1 -1</clus>
</clustering>
</event>
<event>
 9    1  0.2802611E-005  0.1094088E+03  0.7546771E-02  0.1265519E+00
          1   -1    0    0  502    0  0.00000000000E+00  0.00000000000E+00  0.39255225930E+02  0.39255225930E+02  0.00000000000E+00 0. -1.
         -2   -1    0    0    0  501 -0.00000000000E+00 -0.00000000000E+00 -0.35875561889E+03  0.35875561889E+03  0.00000000000E+00 0.  1.
         23    2    1    2    0    0 -0.22571879578E+02 -0.53289254190E+02 -0.17701377555E+03  0.20761643914E+03  0.91768593257E+02 0.  0.
        -24    2    1    2    0    0  0.35540002498E+01  0.61932631990E+02 -0.10245222981E+03  0.14523756893E+03  0.82153577003E+02 0.  0.
         11    1    4    4    0    0  0.29880653516E+02 -0.55854883167E+01 -0.27749028923E+02  0.41158956989E+02  0.00000000000E+00 0. -1.
        -12    1    4    4    0    0 -0.26326653266E+02  0.67518120307E+02 -0.74703200883E+02  0.10407861194E+03  0.00000000000E+00 0.  1.
        -13    1    3    3    0    0 -0.41020608823E+02 -0.39549285025E+01 -0.28678464333E+02  0.50207430965E+02  0.00000000000E+00 0.  1.
         13    1    3    3    0    0  0.18448729245E+02 -0.49334325687E+02 -0.14833531122E+03  0.15740900818E+03  0.00000000000E+00 0. -1.
         21    1    1    2  502  501  0.19017879328E+02 -0.86433778003E+01 -0.40034387608E+02  0.45156836748E+02  0.00000000000E+00 0. -1.
<scales pt_clust_5="13000.00000" pt_clust_6="13000.00000" pt_clust_7="13000.00000" pt_clust_8="13000.00000" pt_clust_9="20.88990"></scales>
<clustering>
<clus scale="   20.890">  2  9  1 -1</clus>
<clus scale="   82.154">  5  6 -1 -1</clus>
<clus scale="   91.769">  7  8 -1 -1</clus>
<clus scale="  101.479">  1  5  2 -1</clus>
<clus scale="  101.479">  1  5  2 -1</clus>
</clustering>
</event>
<event>
 9    1  0.2802611E-005  0.1025158E+03  0.7546771E-02  0.1280484E+00
         -2   -1    0    0    0  501 -0.00000000000E+00  0.00000000000E+00  0.17674775810E+02  0.17674775810E+02  0.00000000000E+00 0.  1.
          1   -1    0    0  502    0  0.00000000000E+00 -0.00000000000E+00 -0.66728919414E+03  0.66728919414E+03  0.00000000000E+00 0. -1.
         23    2    1    2    0    0 -0.17018027821E+02 -0.42917057336E+02 -0.29109325509E+03  0.30862742443E+03  0.91564823334E+02 0.  0.
        -24    2    1    2    0    0  0.34776862280E+02  0.33060558832E+02 -0.30879777530E+03  0.32262488876E+03  0.80176817801E+02 0.  0.
         11    1    4    4    0    0  0.32136884723E+02  0.48125486350E+02 -0.29880081287E+03  0.30435303115E+03  0.00000000000E+00 0. -1.
        -12    1    4    4    0    0  0.26399775565E+01 -0.15064927518E+02 -0.99969624318E+01  0.18271857609E+02  0.00000000000E+00 0.  1.
        -11    1    3    3    0    0  0.30120686444E+02 -0.16300858858E+02 -0.44453484087E+02  0.56116717642E+02  0.00000000000E+00 0.  1.
         11    1    3    3    0    0 -0.47138714266E+02 -0.26616198478E+02 -0.24663977100E+03  0.25251070679E+03  0.00000000000E+00 0. -1.
         21    1    1    2  502  501 -0.17758834458E+02  0.98564985036E+01 -0.49723387935E+02  0.53711656759E+02  0.00000000000E+00 0.  1.
<scales pt_clust_5="13000.00000" pt_clust_6="13000.00000" pt_clust_7="13000.00000" pt_clust_8="13000.00000" pt_clust_9="20.31075"></scales>
<clustering>
<clus scale="   20.311">  1  9  2 -1</clus>
<clus scale="   80.177">  5  6 -1 -1</clus>
<clus scale="   91.565">  7  8 -1 -1</clus>
<clus scale="   92.486">  2  5  1 -1</clus>
<clus scale="   92.486">  2  5  1 -1</clus>
</clustering>
</event>
<event>
 9    1  0.2802611E-005  0.1656245E+03  0.7546771E-02  0.1184078E+00
          1   -1    0    0  502    0  0.00000000000E+00  0.00000000000E+00  0.29118422223E+03  0.29118422223E+03  0.00000000000E+00 0. -1.
         -2   -1    0    0    0  501 -0.00000000000E+00 -0.00000000000E+00 -0.15516245556E+03  0.15516245556E+03  0.00000000000E+00 0.  1.
         23    2    1    2    0    0  0.11735228275E+03 -0.34369038414E+00 -0.27054559456E+02  0.15107922147E+03  0.91221190440E+02 0.  0.
        -24    2    1    2    0    0 -0.13515940609E+03  0.19975014103E+02  0.19176562848E+03  0.25620905668E+03  0.10100474354E+03 0.  0.
         13    1    4    4    0    0 -0.26587197632E+02 -0.31154706043E+01  0.12245397863E+03  0.12534577024E+03  0.00000000000E+00 0. -1.
        -14    1    4    4    0    0 -0.10857220846E+03  0.23090484707E+02  0.69311649849E+02  0.13086328644E+03  0.00000000000E+00 0.  1.
        -11    1    3    3    0    0  0.27953406091E+02 -0.30920145063E+02  0.19187587356E+02  0.45886945762E+02  0.00000000000E+00 0. -1.
         11    1    3    3    0    0  0.89398876654E+02  0.30576454679E+02 -0.46242146812E+02  0.10519227571E+03  0.00000000000E+00 0.  1.
         21    1    1    2  502  501  0.17807123349E+02 -0.19631323718E+02 -0.28689302349E+02  0.39058399637E+02  0.00000000000E+00 0.  1.
<scales pt_clust_5="13000.00000" pt_clust_6="13000.00000" pt_clust_7="13000.00000" pt_clust_8="13000.00000" pt_clust_9="26.50439"></scales>
<clustering>
<clus scale="   26.504">  2  9  1 -1</clus>
<clus scale="   91.221">  7  8 -1 -1</clus>
<clus scale="  101.005">  5  6 -1 -1</clus>
<clus scale="  159.846">  2  7  1 -1</clus>
<clus scale="  165.624">  1  5  2 -1</clus>
</clustering>
</event>
<event>
 9    1  0.2802611E-005  0.3731149E+03  0.7546771E-02  0.1053508E+00
          1   -1    0    0  502    0  0.00000000000E+00  0.00000000000E+00  0.57955266591E+03  0.57955266591E+03  0.00000000000E+00 0. -1.
         -2   -1    0    0    0  501 -0.00000000000E+00 -0.00000000000E+00 -0.20880688908E+03  0.20880688908E+03  0.00000000000E+00 0.  1.
        -24    2    1    2    0    0 -0.32422502252E+02  0.15038454910E+03  0.96408413937E+02  0.20077516499E+03  0.85728369506E+02 0.  0.
         23    2    1    2    0    0  0.41319026415E+02  0.12802845976E+03  0.24934629418E+03  0.30791046352E+03  0.12056836513E+03 0.  0.
         11    1    3    3    0    0  0.38886230714E+01  0.13101452573E+03  0.54237354741E+02  0.14185068908E+03  0.00000000000E+00 0. -1.
        -12    1    3    3    0    0 -0.36311125324E+02  0.19370023363E+02  0.42171059196E+02  0.58924475908E+02  0.00000000000E+00 0.  1.
        -13    1    4    4    0    0  0.81750337512E+01  0.86287689979E+02  0.23817151538E+03  0.25345229799E+03  0.00000000000E+00 0. -1.
         13    1    4    4    0    0  0.33143992664E+02  0.41740769779E+02  0.11174778802E+02  0.54458165528E+02  0.00000000000E+00 0.  1.
         21    1    1    2  502  501 -0.88965241625E+01 -0.27841300885E+03  0.24991068709E+02  0.27967392649E+03  0.00000000000E+00 0.  1.
<scales pt_clust_5="13000.00000" pt_clust_6="13000.00000" pt_clust_7="13000.00000" pt_clust_8="13000.00000" pt_clust_9="278.55511"></scales>
<clustering>
<clus scale="   85.728">  5  6 -1 -1</clus>
<clus scale="  120.568">  7  8 -1 -1</clus>
<clus scale="  175.995">  5  7 -1 -1</clus>
<clus scale="  278.555">  2  9  1 -1</clus>
<clus scale="  373.115">  1  5  2 -1</clus>
</clustering>
</event>
<event>
 9    1  0.2802611E-005  0.9054322E+02  0.7546771E-02  0.1305893E+00
          1   -1    0    0  502    0  0.00000000000E+00  0.00000000000E+00  0.25770413603E+03  0.25770413603E+03  0.00000000000E+00 0. -1.
         -2   -1    0    0    0  501 -0.00000000000E+00 -0.00000000000E+00 -0.26327005822E+03  0.26327005822E+03  0.00000000000E+00 0.  1.
        -24    2    1    2    0    0  0.90000318844E+01 -0.28965624888E+02  0.16118658070E+02  0.89626533846E+02  0.82783430904E+02 0.  0.
         23    2    1    2    0    0  0.14629997923E+02  0.62444400745E+00  0.19307850865E+03  0.21343762117E+03  0.89787977263E+02 0.  0.
         11    1    3    3    0    0 -0.13068079149E+02 -0.24231583708E+02  0.45133083110E+02  0.52867187675E+02  0.00000000000E+00 0. -1.
        -12    1    3    3    0    0  0.22068111034E+02 -0.47340411795E+01 -0.29014425041E+02  0.36759346171E+02  0.00000000000E+00 0.  1.
        -13    1    4    4    0    0  0.39321184603E+02  0.20479276641E+02  0.16581126953E+03  0.17163604934E+03  0.00000000000E+00 0. -1.
         13    1    4    4    0    0 -0.24691186680E+02 -0.19854832633E+02  0.27267239119E+02  0.41801571834E+02  0.00000000000E+00 0.  1.
         21    1    1    2  502  501 -0.23630029808E+02  0.28341180880E+02 -0.21476308890E+03  0.21791003923E+03  0.00000000000E+00 0.  1.
<scales pt_clust_5="13000.00000" pt_clust_6="13000.00000" pt_clust_7="13000.00000" pt_clust_8="13000.00000" pt_clust_9="36.89988"></scales>
<clustering>
<clus scale="   36.900">  2  9  1 -1</clus>
<clus scale="   82.783">  5  6 -1 -1</clus>
<clus scale="   83.602">  2  5  1 -1</clus>
<clus scale="   89.788">  7  8 -1 -1</clus>
<clus scale="   90.543">  1  5  2 -1</clus>
</clustering>
</event>
<event>
 9    1  0.2802611E-005  0.1123988E+03  0.7546771E-02  0.1258445E+00
         -2   -1    0    0    0  501 -0.00000000000E+00  0.00000000000E+00  0.13461561341E+03  0.13461561341E+03  0.00000000000E+00 0.  1.
          1   -1    0    0  502    0  0.00000000000E+00 -0.00000000000E+00 -0.23425121963E+03  0.23425121963E+03  0.00000000000E+00 0. -1.
        -24    2    1    2    0    0 -0.42806497478E+02 -0.34116499605E+01  0.76300269907E+02  0.12349259008E+03  0.87089913506E+02 0.  0.
         23    2    1    2    0    0  0.63384299278E+02  0.19989592007E+02 -0.18495456250E+03  0.21745273166E+03  0.93060986114E+02 0.  0.
         11    1    3    3    0    0  0.22214330494E+02 -0.19160109271E+02  0.31105094189E+02  0.42756439878E+02  0.00000000000E+00 0. -1.
        -12    1    3    3    0    0 -0.65020827972E+02  0.15748459311E+02  0.45195175718E+02  0.80736150200E+02  0.00000000000E+00 0.  1.
        -13    1    4    4    0    0  0.58220686039E+02  0.54326104483E+02 -0.12794836974E+03  0.15070421106E+03  0.00000000000E+00 0. -1.
         13    1    4    4    0    0  0.51636132387E+01 -0.34336512476E+02 -0.57006192753E+02  0.66748520604E+02  0.00000000000E+00 0.  1.
         21    1    1    2  502  501 -0.20577801800E+02 -0.16577942046E+02  0.90186863673E+01  0.27921511298E+02  0.00000000000E+00 0.  1.
<scales pt_clust_5="13000.00000" pt_clust_6="13000.00000" pt_clust_7="13000.00000" pt_clust_8="13000.00000" pt_clust_9="26.42488"></scales>
<clustering>
<clus scale="   26.425">  1  9  2 -1</clus>
<clus scale="   87.090">  5  6 -1 -1</clus>
<clus scale="   93.061">  7  8 -1 -1</clus>
<clus scale="  107.507">  1  5  2 -1</clus>
<clus scale="  112.399">  2  5  1 -1</clus>
</clustering>
</event>
<event>
 9    1  0.2802611E-005  0.1257337E+03  0.7546771E-02  0.1237584E+00
         -2   -1    0    0    0  501 -0.00000000000E+00  0.00000000000E+00  0.50890269202E+02  0.50890269202E+02  0.00000000000E+00 0.  1.
          1   -1    0    0  502    0  0.00000000000E+00 -0.00000000000E+00 -0.49827579012E+03  0.49827579012E+03  0.00000000000E+00 0. -1.
         23    2    1    2    0    0 -0.26505889482E+02 -0.10164781934E+03 -0.12271227536E+03  0.18512131922E+03  0.90425433108E+02 0.  0.
        -24    2    1    2    0    0  0.12434517252E+02  0.81063224818E+02 -0.31919681367E+03  0.33851592590E+03  0.77334097231E+02 0.  0.
         13    1    4    4    0    0  0.40012964580E+02  0.73404307454E+02 -0.25098400047E+03  0.26454148669E+03  0.00000000000E+00 0. -1.
        -14    1    4    4    0    0 -0.27578447328E+02  0.76589173632E+01 -0.68212813205E+02  0.73974439218E+02  0.00000000000E+00 0.  1.
        -13    1    3    3    0    0 -0.29249534059E+02 -0.14379099841E+02  0.22586718674E+01  0.32671017026E+02  0.00000000000E+00 0.  1.
         13    1    3    3    0    0  0.27436445772E+01 -0.87268719498E+02 -0.12497094723E+03  0.15245030220E+03  0.00000000000E+00 0. -1.
         21    1    1    2  502  501  0.14071372230E+02  0.20584594521E+02 -0.54764318832E+01  0.25528814195E+02  0.00000000000E+00 0. -1.
<scales pt_clust_5="13000.00000" pt_clust_6="13000.00000" pt_clust_7="13000.00000" pt_clust_8="13000.00000" pt_clust_9="24.93450"></scales>
<clustering>
<clus scale="   24.934">  1  9  2 -1</clus>
<clus scale="   77.334">  5  6 -1 -1</clus>
<clus scale="   90.425">  7  8 -1 -1</clus>
<clus scale="  116.674">  2  5  1 -1</clus>
<clus scale="  116.674">  2  5  1 -1</clus>
</clustering>
</event>
<event>
 9    1  0.2802611E-005  0.2582710E+03  0.7546771E-02  0.1109037E+00
          1   -1    0    0  502    0  0.00000000000E+00  0.00000000000E+00  0.21025118804E+03  0.21025118804E+03  0.00000000000E+00 0. -1.
         -2   -1    0    0    0  501 -0.00000000000E+00 -0.00000000000E+00 -0.57515970874E+03  0.57515970874E+03  0.00000000000E+00 0.  1.
         23    2    1    2    0    0  0.19390418255E+03 -0.71015863764E+02 -0.23430070346E+03  0.32661271394E+03  0.95587448712E+02 0.  0.
        -24    2    1    2    0    0 -0.21596304783E+03  0.13507718944E+03  0.44996025741E+02  0.27057715146E+03  0.79381782717E+02 0.  0.
         11    1    4    4    0    0 -0.21607711356E+03  0.14061483838E+03  0.50574619887E+02  0.26271589969E+03  0.00000000000E+00 0. -1.
        -12    1    4    4    0    0  0.11406572622E+00 -0.55376489391E+01 -0.55785941461E+01  0.78612517711E+01  0.00000000000E+00 0.  1.
        -11    1    3    3    0    0  0.42469206278E+02  0.18865336662E+02 -0.23949055630E+02  0.52278979282E+02  0.00000000000E+00 0. -1.
         11    1    3    3    0    0  0.15143497627E+03 -0.89881200426E+02 -0.21035164783E+03  0.27433373466E+03  0.00000000000E+00 0.  1.
         21    1    1    2  502  501  0.22058865286E+02 -0.64061325673E+02 -0.17560384298E+03  0.18822103138E+03  0.00000000000E+00 0.  1.
<scales pt_clust_5="13000.00000" pt_clust_6="13000.00000" pt_clust_7="13000.00000" pt_clust_8="13000.00000" pt_clust_9="67.75284"></scales>
<clustering>
<clus scale="   67.753">  2  9  1 -1</clus>
<clus scale="   79.382">  5  6 -1 -1</clus>
<clus scale="   95.587">  7  8 -1 -1</clus>
<clus scale="  252.722">  1  5  2 -1</clus>
<clus scale="  252.722">  1  5  2 -1</clus>
</clustering>
</event>
<event>
 9    1  0.2802611E-005  0.9575646E+02  0.7546771E-02  0.1291746E+00
         -2   -1    0    0    0  501 -0.00000000000E+00  0.00000000000E+00  0.81764063291E+02  0.81764063291E+02  0.00000000000E+00 0.  1.
          1   -1    0    0  502    0  0.00000000000E+00 -0.00000000000E+00 -0.41251929817E+03  0.41251929817E+03  0.00000000000E+00 0. -1.
        -24    2    1    2    0    0  0.17418021865E+02  0.10470620621E+02 -0.19223027675E+02  0.87710142273E+02  0.83129554809E+02 0.  0.
         23    2    1    2    0    0 -0.39358804123E+02 -0.16186343702E+02 -0.34925861522E+03  0.36255788915E+03  0.87495882745E+02 0.  0.
         13    1    3    3    0    0 -0.26631496861E+02  0.26320780243E+02 -0.94920648666E+00  0.37455588242E+02  0.00000000000E+00 0. -1.
        -14    1    3    3    0    0  0.44049518726E+02 -0.15850159622E+02 -0.18273821188E+02  0.50254554031E+02  0.00000000000E+00 0.  1.
        -11    1    4    4    0    0  0.50302417310E+01 -0.43788326795E+02 -0.13489255164E+03  0.14191096287E+03  0.00000000000E+00 0. -1.
         11    1    4    4    0    0 -0.44389045854E+02  0.27601983092E+02 -0.21436606358E+03  0.22064692628E+03  0.00000000000E+00 0.  1.
         21    1    1    2  502  501  0.21940782258E+02  0.57157230812E+01  0.37726408015E+02  0.44015330035E+02  0.00000000000E+00 0.  1.
<scales pt_clust_5="13000.00000" pt_clust_6="13000.00000" pt_clust_7="13000.00000" pt_clust_8="13000.00000" pt_clust_9="22.67305"></scales>
<clustering>
<clus scale="   22.673">  1  9  2 -1</clus>
<clus scale="   83.130">  5  6 -1 -1</clus>
<clus scale="   87.496">  7  8 -1 -1</clus>
<clus scale="   91.784">  1  5  2 -1</clus>
<clus scale="   95.756">  2  5  1 -1</clus>
</clustering>
</event>
<event>
 9    1  0.2802611E-005  0.1369610E+03  0.7546771E-02  0.1219347E+00
         -2   -1    0    0    0  501 -0.00000000000E+00  0.00000000000E+00  0.10950594312E+03  0.10950594312E+03  0.00000000000E+00 0.  1.
          1   -1    0    0  502    0  0.00000000000E+00 -0.00000000000E+00 -0.79239225128E+03  0.79239225128E+03  0.00000000000E+00 0. -1.
        -24    2    1    2    0    0 -0.26844263878E+00 -0.61180432208E+02  0.49158658659E+02  0.11373132860E+03  0.82311141639E+02 0.  0.
         23    2    1    2    0    0 -0.32706317610E+02  0.10128976386E+03 -0.72185271821E+03  0.73525207364E+03  0.90525938404E+02 0.  0.
         11    1    3    3    0    0 -0.21950395909E+02  0.47843374982E+01  0.36929226202E+02  0.43225889392E+02  0.00000000000E+00 0. -1.
        -12    1    3    3    0    0  0.21681953270E+02 -0.65964769706E+02  0.12229432457E+02  0.70505439210E+02  0.00000000000E+00 0.  1.
        -11    1    4    4    0    0 -0.32679896301E+02 -0.36718766894E+01 -0.12574107825E+03  0.12997029299E+03  0.00000000000E+00 0.  1.
         11    1    4    4    0    0 -0.26421309011E-01  0.10496164055E+03 -0.59611163996E+03  0.60528178065E+03  0.00000000000E+00 0. -1.
         21    1    1    2  502  501  0.32974760249E+02 -0.40109331648E+02 -0.10192248607E+02  0.52914792170E+02  0.00000000000E+00 0.  1.
<scales pt_clust_5="13000.00000" pt_clust_6="13000.00000" pt_clust_7="13000.00000" pt_clust_8="13000.00000" pt_clust_9="51.92392"></scales>
<clustering>
<clus scale="   51.924">  1  9  2 -1</clus>
<clus scale="   82.311">  5  6 -1 -1</clus>
<clus scale="   90.526">  7  8 -1 -1</clus>
<clus scale="  131.676">  1  5  2 -1</clus>
<clus scale="  136.961">  2  5  1 -1</clus>
</clustering>
</event>
<event>
 9    1  0.2802611E-005  0.9594832E+02  0.7546771E-02  0.1294060E+00
         -4   -1    0    0    0  501 -0.00000000000E+00  0.00000000000E+00  0.61996227973E+02  0.61996227973E+02  0.00000000000E+00 0.  1.
          3   -1    0    0  502    0  0.00000000000E+00 -0.00000000000E+00 -0.24712629479E+03  0.24712629479E+03  0.00000000000E+00 0. -1.
        -24    2    1    2    0    0  0.20060885699E+02 -0.44208634388E+02 -0.50473863679E+02  0.10659247580E+03  0.80358586925E+02 0.  0.
         23    2    1    2    0    0 -0.37063943475E+01  0.27729794784E+02 -0.14836758821E+03  0.17556667139E+03  0.89599307995E+02 0.  0.
         11    1    3    3    0    0  0.28727842582E+02  0.10661132116E+02  0.12809608765E+01  0.30669032234E+02  0.00000000000E+00 0. -1.
        -12    1    3    3    0    0 -0.86669568832E+01 -0.54869766504E+02 -0.51754824556E+02  0.75923443564E+02  0.00000000000E+00 0.  1.
        -11    1    4    4    0    0 -0.26990577820E+02 -0.24242190698E+02 -0.67915982581E+02  0.76998414210E+02  0.00000000000E+00 0.  1.
         11    1    4    4    0    0  0.23284183472E+02  0.51971985482E+02 -0.80451605632E+02  0.98568257180E+02  0.00000000000E+00 0. -1.
         21    1    1    2  502  501 -0.16354491351E+02  0.16478839604E+02  0.13711385070E+02  0.26963375579E+02  0.00000000000E+00 0. -1.
<scales pt_clust_5="13000.00000" pt_clust_6="13000.00000" pt_clust_7="13000.00000" pt_clust_8="13000.00000" pt_clust_9="23.21684"></scales>
<clustering>
<clus scale="   23.217">  1  9  2 -1</clus>
<clus scale="   80.359">  5  6 -1 -1</clus>
<clus scale="   87.382">  1  5  2 -1</clus>
<clus scale="   89.599">  7  8 -1 -1</clus>
<clus scale="   95.948">  2  5  1 -1</clus>
</clustering>
</event>
<event>
 9    1  0.2802611E-005  0.2940125E+03  0.7546771E-02  0.1088737E+00
          1   -1    0    0  502    0  0.00000000000E+00  0.00000000000E+00  0.58595250069E+03  0.58595250069E+03  0.00000000000E+00 0. -1.
         -2   -1    0    0    0  501 -0.00000000000E+00 -0.00000000000E+00 -0.45268818202E+03  0.45268818202E+03  0.00000000000E+00 0.  1.
        -24    2    1    2    0    0 -0.19081359156E+03  0.10482281328E+03 -0.28951920686E+03  0.37090214950E+03  0.79683024890E+02 0.  0.
         23    2    1    2    0    0  0.23487218373E+03 -0.16576861405E+03  0.48425092135E+03  0.57061082901E+03  0.91943391611E+02 0.  0.
         13    1    3    3    0    0 -0.26804781042E+02  0.51526880288E+02 -0.56680762647E+02  0.81155557624E+02  0.00000000000E+00 0. -1.
        -14    1    3    3    0    0 -0.16400881052E+03  0.53295932993E+02 -0.23283844421E+03  0.28974659188E+03  0.00000000000E+00 0.  1.
        -11    1    4    4    0    0  0.23625237601E+03 -0.13719907598E+03  0.44026599621E+03  0.51814372431E+03  0.00000000000E+00 0. -1.
         11    1    4    4    0    0 -0.13801922823E+01 -0.28569538068E+02  0.43984925137E+02  0.52467104699E+02  0.00000000000E+00 0.  1.
         21    1    1    2  502  501 -0.44058592164E+02  0.60945800767E+02 -0.61467395825E+02  0.97127704205E+02  0.00000000000E+00 0.  1.
<scales pt_clust_5="13000.00000" pt_clust_6="13000.00000" pt_clust_7="13000.00000" pt_clust_8="13000.00000" pt_clust_9="75.20339"></scales>
<clustering>
<clus scale="   75.203">  2  9  1 -1</clus>
<clus scale="   79.683">  5  6 -1 -1</clus>
<clus scale="   91.943">  7  8 -1 -1</clus>
<clus scale="  290.412">  2  5  1 -1</clus>
<clus scale="  294.013">  1  5  2 -1</clus>
</clustering>
</event>
<event>
 9    1  0.2802611E-005  0.1010363E+03  0.7546771E-02  0.1283118E+00
          1   -1    0    0  502    0  0.00000000000E+00  0.00000000000E+00  0.62066182830E+03  0.62066182830E+03  0.00000000000E+00 0. -1.
         -2   -1    0    0    0  501 -0.00000000000E+00 -0.00000000000E+00 -0.27840190636E+02  0.27840190636E+02  0.00000000000E+00 0.  1.
         23    2    1    2    0    0  0.94600220532E+01  0.68844980392E+02  0.20730593806E+03  0.23637056893E+03  0.89811862013E+02 0.  0.
        -24    2    1    2    0    0  0.22375990389E+02 -0.34044814094E+02  0.31423180039E+03  0.32665643875E+03  0.79391877966E+02 0.  0.
         13    1    4    4    0    0  0.42261818128E+02 -0.28731186102E+02  0.29168220906E+03  0.29612506380E+03  0.00000000000E+00 0. -1.
        -14    1    4    4    0    0 -0.19885827739E+02 -0.53136279917E+01  0.22549591329E+02  0.30531374951E+02  0.00000000000E+00 0.  1.
        -13    1    3    3    0    0  0.21404118324E+02  0.86170759621E+02  0.18755396379E+03  0.20750909722E+03  0.00000000000E+00 0. -1.
         13    1    3    3    0    0 -0.11944096271E+02 -0.17325779229E+02  0.19751974262E+02  0.28861471703E+02  0.00000000000E+00 0.  1.
         21    1    1    2  502  501 -0.31836012442E+02 -0.34800166298E+02  0.71283899213E+02  0.85475011258E+02  0.00000000000E+00 0. -1.
<scales pt_clust_5="13000.00000" pt_clust_6="13000.00000" pt_clust_7="13000.00000" pt_clust_8="13000.00000" pt_clust_9="47.16549"></scales>
<clustering>
<clus scale="   47.165">  2  9  1 -1</clus>
<clus scale="   79.392">  5  6 -1 -1</clus>
<clus scale="   89.812">  7  8 -1 -1</clus>
<clus scale="   91.898">  1  5  2 -1</clus>
<clus scale="   91.898">  1  5  2 -1</clus>
</clustering>
</event>
<event>
 9    1  0.2802611E-005  0.1136984E+03  0.7546771E-02  0.1256988E+00
          1   -1    0    0  502    0  0.00000000000E+00  0.00000000000E+00  0.13212168442E+03  0.13212168442E+03  0.00000000000E+00 0. -1.
         -2   -1    0    0    0  501 -0.00000000000E+00 -0.00000000000E+00 -0.19136361299E+03  0.19136361299E+03  0.00000000000E+00 0.  1.
         23    2    1    2    0    0  0.41231742931E+02  0.59087033604E+02 -0.13743736809E+03  0.17992734574E+03  0.91068575433E+02 0.  0.
        -24    2    1    2    0    0 -0.26387317646E+02 -0.42544209172E+02  0.72420173240E+02  0.12059328964E+03  0.82412133490E+02 0.  0.
         13    1    4    4    0    0  0.17347814611E+01 -0.33599671464E+02  0.82749356051E+02  0.89327505933E+02  0.00000000000E+00 0. -1.
        -14    1    4    4    0    0 -0.28122099108E+02 -0.89445377075E+01 -0.10329182811E+02  0.31265783703E+02  0.00000000000E+00 0.  1.
        -11    1    3    3    0    0  0.22267066702E+01  0.23792946543E+02 -0.12311043360E+03  0.12540829873E+03  0.00000000000E+00 0.  1.
         11    1    3    3    0    0  0.39005036261E+02  0.35294087061E+02 -0.14326934487E+02  0.54519047011E+02  0.00000000000E+00 0. -1.
         21    1    1    2  502  501 -0.14844425284E+02 -0.16542824432E+02  0.57752662796E+01  0.22964662044E+02  0.00000000000E+00 0. -1.
<scales pt_clust_5="13000.00000" pt_clust_6="13000.00000" pt_clust_7="13000.00000" pt_clust_8="13000.00000" pt_clust_9="22.22661"></scales>
<clustering>
<clus scale="   22.227">  1  9  2 -1</clus>
<clus scale="   82.412">  5  6 -1 -1</clus>
<clus scale="   91.069">  7  8 -1 -1</clus>
<clus scale="  106.891">  1  5  2 -1</clus>
<clus scale="   22.227">  1  5  2 -1</clus>
</clustering>
</event>
<event>
 9    1  0.2802611E-005  0.1097536E+03  0.7546771E-02  0.1265172E+00
         -2   -1    0    0    0  501 -0.00000000000E+00  0.00000000000E+00  0.77942411245E+02  0.77942411245E+02  0.00000000000E+00 0.  1.
          1   -1    0    0  502    0  0.00000000000E+00 -0.00000000000E+00 -0.25307663238E+03  0.25307663238E+03  0.00000000000E+00 0. -1.
         23    2    1    2    0    0 -0.47037056881E+02  0.51590197737E+02  0.32540696355E+01  0.11486205551E+03  0.91151904005E+02 0.  0.
        -24    2    1    2    0    0  0.20859221633E+02 -0.34637930817E+02 -0.12228625173E+03  0.15196900485E+03  0.80658277274E+02 0.  0.
         13    1    4    4    0    0 -0.27899515699E+02 -0.24405539847E+02 -0.73088750104E+02  0.81951075303E+02  0.00000000000E+00 0. -1.
        -14    1    4    4    0    0  0.48758737332E+02 -0.10232390970E+02 -0.49197501630E+02  0.70017929546E+02  0.00000000000E+00 0.  1.
        -13    1    3    3    0    0  0.12465931083E+02 -0.16684830483E+02  0.11725647376E+02  0.23901334950E+02  0.00000000000E+00 0.  1.
         13    1    3    3    0    0 -0.59502987964E+02  0.68275028220E+02 -0.84715777403E+01  0.90960720558E+02  0.00000000000E+00 0. -1.
         21    1    1    2  502  501  0.26177835247E+02 -0.16952266920E+02 -0.56102039033E+02  0.64187983265E+02  0.00000000000E+00 0. -1.
<scales pt_clust_5="13000.00000" pt_clust_6="13000.00000" pt_clust_7="13000.00000" pt_clust_8="13000.00000" pt_clust_9="31.18747"></scales>
<clustering>
<clus scale="   31.187">  2  9  1 -1</clus>
<clus scale="   80.658">  5  6 -1 -1</clus>
<clus scale="   91.152">  7  8 -1 -1</clus>
<clus scale="  101.207">  2  5  1 -1</clus>
<clus scale="   31.187">  2  5  1 -1</clus>
</clustering>
</event>
<event>
 9    1  0.2802611E-005  0.1562616E+03  0.7546771E-02  0.1195315E+00
          1   -1    0    0  502    0  0.00000000000E+00  0.00000000000E+00  0.14361672867E+03  0.14361672867E+03  0.00000000000E+00 0. -1.
         -2   -1    0    0    0  501 -0.00000000000E+00 -0.00000000000E+00 -0.45419249406E+03  0.45419249406E+03  0.00000000000E+00 0.  1.
        -24    2    1    2    0    0 -0.46027705608E+02 -0.14923948511E+03 -0.51523425465E+02  0.18341864100E+03  0.81220446299E+02 0.  0.
         23    2    1    2    0    0  0.11516793460E+03  0.43762863875E+02 -0.38145016774E+02  0.16001736318E+03  0.94718914696E+02 0.  0.
         11    1    3    3    0    0 -0.35929022110E+02 -0.12056607882E+03 -0.26156410848E+01  0.12583288747E+03  0.00000000000E+00 0. -1.
        -12    1    3    3    0    0 -0.10098683498E+02 -0.28673406289E+02 -0.48907784380E+02  0.57585753530E+02  0.00000000000E+00 0.  1.
        -11    1    4    4    0    0  0.94675362583E+02 -0.42281585096E+01 -0.49044105927E+02  0.10670813432E+03  0.00000000000E+00 0. -1.
         11    1    4    4    0    0  0.20492572018E+02  0.47991022385E+02  0.10899089153E+02  0.53309228861E+02  0.00000000000E+00 0.  1.
         21    1    1    2  502  501 -0.69140228994E+02  0.10547662123E+03 -0.22090732315E+03  0.25437321854E+03  0.00000000000E+00 0.  1.
<scales pt_clust_5="13000.00000" pt_clust_6="13000.00000" pt_clust_7="13000.00000" pt_clust_8="13000.00000" pt_clust_9="126.11776"></scales>
<clustering>
<clus scale="   81.220">  5  6 -1 -1</clus>
<clus scale="   94.719">  7  8 -1 -1</clus>
<clus scale="  126.118">  2  9  1 -1</clus>
<clus scale="  148.468">  2  5  1 -1</clus>
<clus scale="  156.262">  1  5  2 -1</clus>
</clustering>
</event>
<event>
 9    1  0.2802611E-005  0.2150796E+03  0.7546771E-02  0.1138245E+00
          1   -1    0    0  502    0  0.00000000000E+00  0.00000000000E+00  0.10411773921E+04  0.10411773921E+04  0.00000000000E+00 0. -1.
         -2   -1    0    0    0  501 -0.00000000000E+00 -0.00000000000E+00 -0.87104398239E+02  0.87104398239E+02  0.00000000000E+00 0.  1.
        -24    2    1    2    0    0  0.14573153317E+02  0.18009996076E+03  0.21025052635E+03  0.29438755827E+03  0.99047352158E+02 0.  0.
         23    2    1    2    0    0  0.38991276328E+02 -0.19269821687E+03  0.74789541337E+03  0.77871766944E+03  0.91655534088E+02 0.  0.
         11    1    3    3    0    0  0.51159819902E+02  0.13567533600E+03  0.17345508934E+03  0.22607917195E+03  0.00000000000E+00 0. -1.
        -12    1    3    3    0    0 -0.36586666585E+02  0.44424624756E+02  0.36795437011E+02  0.68308386318E+02  0.00000000000E+00 0.  1.
        -13    1    4    4    0    0 -0.21788443399E+02 -0.69476484739E+02  0.17432481749E+03  0.18892024823E+03  0.00000000000E+00 0.  1.
         13    1    4    4    0    0  0.60779719727E+02 -0.12322173213E+03  0.57357059589E+03  0.58979742121E+03  0.00000000000E+00 0. -1.
         21    1    1    2  502  501 -0.53564429645E+02  0.12598256115E+02 -0.40729458327E+01  0.55176562670E+02  0.00000000000E+00 0.  1.
<scales pt_clust_5="13000.00000" pt_clust_6="13000.00000" pt_clust_7="13000.00000" pt_clust_8="13000.00000" pt_clust_9="55.02603"></scales>
<clustering>
<clus scale="   55.026">  2  9  1 -1</clus>
<clus scale="   91.656">  7  8 -1 -1</clus>
<clus scale="   99.047">  5  6 -1 -1</clus>
<clus scale="  211.777">  1  7  2 -1</clus>
<clus scale="  211.777">  1  5  2 -1</clus>
</clustering>
</event>
<event>
 9    1  0.2802611E-005  0.8320520E+02  0.7546771E-02  0.1322658E+00
          1   -1    0    0  502    0  0.00000000000E+00  0.00000000000E+00  0.16271853884E+03  0.16271853884E+03  0.00000000000E+00 0. -1.
         -2   -1    0    0    0  501 -0.00000000000E+00 -0.00000000000E+00 -0.11381120423E+03  0.11381120423E+03  0.00000000000E+00 0.  1.
        -24    2    1    2    0    0  0.13278160401E+01 -0.15833459828E+01  0.25707451731E+02  0.84772568950E+02  0.80754227703E+02 0.  0.
         23    2    1    2    0    0 -0.25086707534E+02 -0.18640204549E+02  0.87236910625E+02  0.12052362974E+03  0.77064042398E+02 0.  0.
         13    1    3    3    0    0 -0.23014541353E+02 -0.28237984436E+02 -0.57645281745E+01  0.36882010029E+02  0.00000000000E+00 0. -1.
        -14    1    3    3    0    0  0.24342357393E+02  0.26654638454E+02  0.31471979906E+02  0.47890558921E+02  0.00000000000E+00 0.  1.
        -13    1    4    4    0    0 -0.21271650139E+02 -0.42598064141E+02  0.25112402999E+02  0.53830390604E+02  0.00000000000E+00 0. -1.
         13    1    4    4    0    0 -0.38150573950E+01  0.23957859592E+02  0.62124507626E+02  0.66693239140E+02  0.00000000000E+00 0.  1.
         21    1    1    2  502  501  0.23758891494E+02  0.20223550532E+02 -0.64037027749E+02  0.71233544373E+02  0.00000000000E+00 0.  1.
<scales pt_clust_5="13000.00000" pt_clust_6="13000.00000" pt_clust_7="13000.00000" pt_clust_8="13000.00000" pt_clust_9="31.20059"></scales>
<clustering>
<clus scale="   31.201">  2  9  1 -1</clus>
<clus scale="   77.064">  7  8 -1 -1</clus>
<clus scale="   79.629">  1  7  2 -1</clus>
<clus scale="   80.754">  5  6 -1 -1</clus>
<clus scale="   79.629">  1  5  2 -1</clus>
</clustering>
</event>
<event>
 9    1  0.2802611E-005  0.9718398E+02  0.7546771E-02  0.1294607E+00
         -2   -1    0    0    0  501 -0.00000000000E+00  0.00000000000E+00  0.22410873380E+02  0.22410873380E+02  0.00000000000E+00 0.  1.
          1   -1    0    0  502    0  0.00000000000E+00 -0.00000000000E+00 -0.13053415542E+04  0.13053415542E+04  0.00000000000E+00 0. -1.
         23    2    1    2    0    0 -0.17177243541E+01  0.89662774904E-01 -0.98724243569E+02  0.13631766557E+03  0.93984419249E+02 0.  0.
        -24    2    1    2    0    0 -0.25360133287E+02 -0.92785790289E+01 -0.10835170292E+04  0.10867638327E+04  0.79481111172E+02 0.  0.
         13    1    4    4    0    0  0.20619302207E+02 -0.42092391182E+01 -0.10153933136E+03  0.10369719924E+03  0.00000000000E+00 0. -1.
        -14    1    4    4    0    0 -0.45979435494E+02 -0.50693399107E+01 -0.98197769787E+03  0.98306663346E+03  0.00000000000E+00 0.  1.
        -13    1    3    3    0    0 -0.61149813762E+01  0.34294208644E+02 -0.95530995180E+02  0.10168410291E+03  0.00000000000E+00 0. -1.
         13    1    3    3    0    0  0.43972570222E+01 -0.34204545869E+02 -0.31932483884E+01  0.34633562663E+02  0.00000000000E+00 0.  1.
         21    1    1    2  502  501  0.27077857641E+02  0.91889162540E+01 -0.10068940807E+03  0.10467092936E+03  0.00000000000E+00 0. -1.
<scales pt_clust_5="13000.00000" pt_clust_6="13000.00000" pt_clust_7="13000.00000" pt_clust_8="13000.00000" pt_clust_9="28.59452"></scales>
<clustering>
<clus scale="   28.595">  1  9  2 -1</clus>
<clus scale="   79.481">  5  6 -1 -1</clus>
<clus scale="   83.240">  2  5  1 -1</clus>
<clus scale="   93.984">  7  8 -1 -1</clus>
<clus scale="   83.240">  2  5  1 -1</clus>
</clustering>
</event>
<event>
 9    1  0.2802611E-005  0.1193151E+03  0.7546771E-02  0.1248136E+00
         -2   -1    0    0    0  501 -0.00000000000E+00  0.00000000000E+00  0.76104369948E+02  0.76104369948E+02  0.00000000000E+00 0.  1.
          1   -1    0    0  502    0  0.00000000000E+00 -0.00000000000E+00 -0.32655169773E+03  0.32655169773E+03  0.00000000000E+00 0. -1.
        -24    2    1    2    0    0 -0.13204357716E+02  0.71024191950E+02 -0.75862753117E+01  0.10806630339E+03  0.80012395607E+02 0.  0.
         23    2    1    2    0    0  0.37549973425E+02 -0.68135169644E+02 -0.24166273635E+03  0.27004406373E+03  0.92035408223E+02 0.  0.
         13    1    3    3    0    0 -0.37352206064E+02  0.60028944037E+02 -0.26475859871E+02  0.75495910988E+02  0.00000000000E+00 0. -1.
        -14    1    3    3    0    0  0.24147848348E+02  0.10995247913E+02  0.18889584559E+02  0.32570392404E+02  0.00000000000E+00 0.  1.
        -13    1    4    4    0    0  0.67479510946E+02 -0.47217530427E+02 -0.14565771275E+03  0.16732946202E+03  0.00000000000E+00 0.  1.
         13    1    4    4    0    0 -0.29929537521E+02 -0.20917639216E+02 -0.96005023606E+02  0.10271460171E+03  0.00000000000E+00 0. -1.
         21    1    1    2  502  501 -0.24345615709E+02 -0.28890223059E+01 -0.11983161128E+01  0.24545700553E+02  0.00000000000E+00 0.  1.
<scales pt_clust_5="13000.00000" pt_clust_6="13000.00000" pt_clust_7="13000.00000" pt_clust_8="13000.00000" pt_clust_9="24.51643"></scales>
<clustering>
<clus scale="   24.516">  1  9  2 -1</clus>
<clus scale="   80.012">  5  6 -1 -1</clus>
<clus scale="   92.035">  7  8 -1 -1</clus>
<clus scale="  110.307">  1  5  2 -1</clus>
<clus scale="  119.315">  2  5  1 -1</clus>
</clustering>
</event>
<event>
 9    1  0.2802611E-005  0.1086013E+03  0.7546771E-02  0.1266866E+00
         -2   -1    0    0    0  501 -0.00000000000E+00  0.00000000000E+00  0.14510362425E+03  0.14510362425E+03  0.00000000000E+00 0.  1.
          1   -1    0    0  502    0  0.00000000000E+00 -0.00000000000E+00 -0.92630619157E+03  0.92630619157E+03  0.00000000000E+00 0. -1.
         23    2    1    2    0    0  0.44821169317E+02  0.77040819030E+02  0.50868592184E+02  0.13614330534E+03  0.89460387336E+02 0.  0.
        -24    2    1    2    0    0 -0.46762327451E+02 -0.38981020621E+02 -0.87332386015E+03  0.87910512108E+03  0.80156184768E+02 0.  0.
         13    1    4    4    0    0 -0.43508409731E+02 -0.16801006267E+02 -0.19836969307E+03  0.20377877872E+03  0.00000000000E+00 0. -1.
        -14    1    4    4    0    0 -0.32539177201E+01 -0.22180014354E+02 -0.67495416708E+03  0.67532634236E+03  0.00000000000E+00 0.  1.
        -11    1    3    3    0    0  0.70883050002E+02  0.57377746133E+02  0.25199411384E+02  0.94613016351E+02  0.00000000000E+00 0.  1.
         11    1    3    3    0    0 -0.26061880685E+02  0.19663072897E+02  0.25669180799E+02  0.41530288989E+02  0.00000000000E+00 0. -1.
         21    1    1    2  502  501  0.19411581341E+01 -0.38059798409E+02  0.41252700646E+02  0.56161389410E+02  0.00000000000E+00 0. -1.
<scales pt_clust_5="13000.00000" pt_clust_6="13000.00000" pt_clust_7="13000.00000" pt_clust_8="13000.00000" pt_clust_9="38.10927"></scales>
<clustering>
<clus scale="   38.109">  1  9  2 -1</clus>
<clus scale="   80.156">  5  6 -1 -1</clus>
<clus scale="   89.460">  7  8 -1 -1</clus>
<clus scale="  101.075">  2  5  1 -1</clus>
<clus scale="  101.075">  2  5  1 -1</clus>
</clustering>
</event>
<event>
 9    1  0.2802611E-005  0.1466602E+03  0.7546771E-02  0.1206872E+00
          1   -1    0    0  502    0  0.00000000000E+00  0.00000000000E+00  0.42466103730E+02  0.42466103730E+02  0.00000000000E+00 0. -1.
         -2   -1    0    0    0  501 -0.00000000000E+00 -0.00000000000E+00 -0.75845129170E+03  0.75845129170E+03  0.00000000000E+00 0.  1.
        -24    2    1    2    0    0  0.34265117397E+02  0.92425799324E+02 -0.47071102186E+03  0.48761280282E+03  0.80503122397E+02 0.  0.
         23    2    1    2    0    0 -0.46111957617E+02 -0.11076461562E+03 -0.14079122472E+03  0.20656498026E+03  0.91933722863E+02 0.  0.
         11    1    3    3    0    0 -0.59667174313E+01  0.86372068507E+02 -0.32247698701E+03  0.33389690488E+03  0.00000000000E+00 0. -1.
        -12    1    3    3    0    0  0.40231834828E+02  0.60537308166E+01 -0.14823403485E+03  0.15371589794E+03  0.00000000000E+00 0.  1.
        -13    1    4    4    0    0 -0.29629038426E+02 -0.12548649455E+03 -0.11726777820E+03  0.17428847362E+03  0.00000000000E+00 0.  1.
         13    1    4    4    0    0 -0.16482919191E+02  0.14721878929E+02 -0.23523446521E+02  0.32276506633E+02  0.00000000000E+00 0. -1.
         21    1    1    2  502  501  0.11846840220E+02  0.18338816299E+02 -0.10448294138E+03  0.10673961235E+03  0.00000000000E+00 0.  1.
<scales pt_clust_5="13000.00000" pt_clust_6="13000.00000" pt_clust_7="13000.00000" pt_clust_8="13000.00000" pt_clust_9="21.83254"></scales>
<clustering>
<clus scale="   21.833">  2  9  1 -1</clus>
<clus scale="   80.503">  5  6 -1 -1</clus>
<clus scale="   91.934">  7  8 -1 -1</clus>
<clus scale="  139.779">  2  5  1 -1</clus>
<clus scale="  146.660">  1  5  2 -1</clus>
</clustering>
</event>
<event>
 9    1  0.2802611E-005  0.1532501E+03  0.7546771E-02  0.1198933E+00
          1   -1    0    0  502    0  0.00000000000E+00  0.00000000000E+00  0.26148772278E+03  0.26148772278E+03  0.00000000000E+00 0. -1.
         -2   -1    0    0    0  501 -0.00000000000E+00 -0.00000000000E+00 -0.39042027548E+03  0.39042027548E+03  0.00000000000E+00 0.  1.
         23    2    1    2    0    0  0.12718746807E+03 -0.11719760315E+02 -0.33885048489E+03  0.37410946220E+03  0.93937392873E+02 0.  0.
        -24    2    1    2    0    0 -0.62523648592E+02 -0.25357891645E+02  0.14414483541E+03  0.17838896869E+03  0.80577051773E+02 0.  0.
         13    1    4    4    0    0 -0.76232822689E+02 -0.19775646192E+02  0.78876110321E+02  0.11146281989E+03  0.00000000000E+00 0. -1.
        -14    1    4    4    0    0  0.13709174098E+02 -0.55822454530E+01  0.65268725093E+02  0.66926148806E+02  0.00000000000E+00 0.  1.
        -13    1    3    3    0    0  0.93051359315E+02 -0.50877638225E+02 -0.24167172967E+03  0.26391724927E+03  0.00000000000E+00 0.  1.
         13    1    3    3    0    0  0.34136108752E+02  0.39157877909E+02 -0.97178755224E+02  0.11019221293E+03  0.00000000000E+00 0. -1.
         21    1    1    2  502  501 -0.64663819476E+02  0.37077651960E+02  0.65773096781E+02  0.99409567368E+02  0.00000000000E+00 0. -1.
<scales pt_clust_5="13000.00000" pt_clust_6="13000.00000" pt_clust_7="13000.00000" pt_clust_8="13000.00000" pt_clust_9="74.53967"></scales>
<clustering>
<clus scale="   74.540">  1  9  2 -1</clus>
<clus scale="   80.577">  5  6 -1 -1</clus>
<clus scale="   93.937">  7  8 -1 -1</clus>
<clus scale="  145.444">  1  5  2 -1</clus>
<clus scale="   74.540">  1  5  2 -1</clus>
</clustering>
</event>
<event>
 9    1  0.2802611E-005  0.1342058E+03  0.7546771E-02  0.1222569E+00
          1   -1    0    0  502    0  0.00000000000E+00  0.00000000000E+00  0.32826629394E+03  0.32826629394E+03  0.00000000000E+00 0. -1.
         -2   -1    0    0    0  501 -0.00000000000E+00 -0.00000000000E+00 -0.22164806383E+03  0.22164806383E+03  0.00000000000E+00 0.  1.
        -24    2    1    2    0    0  0.53155330678E+02 -0.10061619954E+03 -0.33804861454E+02  0.14738595893E+03  0.87354126650E+02 0.  0.
         23    2    1    2    0    0 -0.55656131494E+02  0.76507902538E+02  0.25402296380E+03  0.28637162995E+03  0.92357891815E+02 0.  0.
         13    1    3    3    0    0 -0.16952685376E+02 -0.18104628285E+02 -0.30162468868E+02  0.39050552301E+02  0.00000000000E+00 0. -1.
        -14    1    3    3    0    0  0.70108016054E+02 -0.82511571254E+02 -0.36423925863E+01  0.10833540663E+03  0.00000000000E+00 0.  1.
        -11    1    4    4    0    0  0.56404686954E+01  0.56969857548E+02  0.64575021545E+02  0.86297815521E+02  0.00000000000E+00 0.  1.
         11    1    4    4    0    0 -0.61296600190E+02  0.19538044990E+02  0.18944794225E+03  0.20007381443E+03  0.00000000000E+00 0. -1.
         21    1    1    2  502  501  0.25008008164E+01  0.24108297000E+02 -0.11359987223E+03  0.11615676889E+03  0.00000000000E+00 0.  1.
<scales pt_clust_5="13000.00000" pt_clust_6="13000.00000" pt_clust_7="13000.00000" pt_clust_8="13000.00000" pt_clust_9="24.23766"></scales>
<clustering>
<clus scale="   24.238">  2  9  1 -1</clus>
<clus scale="   87.354">  5  6 -1 -1</clus>
<clus scale="   92.358">  7  8 -1 -1</clus>
<clus scale="  130.813">  2  5  1 -1</clus>
<clus scale="  134.206">  1  5  2 -1</clus>
</clustering>
</event>
<event>
 9    1  0.2802611E-005  0.1020899E+03  0.7546771E-02  0.1279299E+00
         -2   -1    0    0    0  501 -0.00000000000E+00  0.00000000000E+00  0.21861877119E+03  0.21861877119E+03  0.00000000000E+00 0.  1.
          1   -1    0    0  502    0  0.00000000000E+00 -0.00000000000E+00 -0.33849985175E+03  0.33849985175E+03  0.00000000000E+00 0. -1.
         23    2    1    2    0    0 -0.13159003532E+02 -0.34143087149E+00  0.13245444277E+03  0.15941735683E+03  0.87729346869E+02 0.  0.
        -24    2    1    2    0    0  0.35805354465E+02  0.40970284511E+02 -0.30930271340E+03  0.32415657423E+03  0.80303975499E+02 0.  0.
         13    1    4    4    0    0  0.78293775800E+01  0.55527361493E+02 -0.25728839933E+03  0.26332851622E+03  0.00000000000E+00 0. -1.
        -14    1    4    4    0    0  0.27975976885E+02 -0.14557076982E+02 -0.52014314074E+02  0.60828058012E+02  0.00000000000E+00 0.  1.
        -11    1    3    3    0    0  0.34497807571E+02 -0.13244600904E+02  0.39024002311E+02  0.53743752536E+02  0.00000000000E+00 0. -1.
         11    1    3    3    0    0 -0.47656811103E+02  0.12903170032E+02  0.93430440455E+02  0.10567360430E+03  0.00000000000E+00 0.  1.
         21    1    1    2  502  501 -0.22646350933E+02 -0.40628853639E+02  0.56967190066E+02  0.73544691872E+02  0.00000000000E+00 0. -1.
<scales pt_clust_5="13000.00000" pt_clust_6="13000.00000" pt_clust_7="13000.00000" pt_clust_8="13000.00000" pt_clust_9="46.51409"></scales>
<clustering>
<clus scale="   46.514">  1  9  2 -1</clus>
<clus scale="   80.304">  5  6 -1 -1</clus>
<clus scale="   87.729">  7  8 -1 -1</clus>
<clus scale="   95.784">  2  5  1 -1</clus>
<clus scale="   95.784">  2  5  1 -1</clus>
</clustering>
</event>
<event>
 9    1  0.2802611E-005  0.9175748E+02  0.7546771E-02  0.1298843E+00
         -2   -1    0    0    0  501 -0.00000000000E+00  0.00000000000E+00  0.16362279908E+03  0.16362279908E+03  0.00000000000E+00 0.  1.
          1   -1    0    0  502    0  0.00000000000E+00 -0.00000000000E+00 -0.90125151763E+02  0.90125151763E+02  0.00000000000E+00 0. -1.
        -24    2    1    2    0    0  0.20375752969E+02 -0.19171796996E+02  0.84200406299E+02  0.12531495739E+03  0.88495203349E+02 0.  0.
         23    2    1    2    0    0 -0.25493174161E+02 -0.63092693296E+01 -0.29225867396E+02  0.96517820165E+02  0.88157980218E+02 0.  0.
         13    1    3    3    0    0 -0.32709534478E+02  0.69826692294E+01  0.26629715107E+02  0.42752930216E+02  0.00000000000E+00 0. -1.
        -14    1    3    3    0    0  0.53085287447E+02 -0.26154466225E+02  0.57570691193E+02  0.82562027175E+02  0.00000000000E+00 0.  1.
        -11    1    4    4    0    0  0.30857388423E+02 -0.11573642526E+02 -0.21615131791E+02  0.39412454173E+02  0.00000000000E+00 0.  1.
         11    1    4    4    0    0 -0.56350562584E+02  0.52643731960E+01 -0.76107356046E+01  0.57105365992E+02  0.00000000000E+00 0. -1.
         21    1    1    2  502  501  0.51174211919E+01  0.25481066325E+02  0.18523108414E+02  0.31915173289E+02  0.00000000000E+00 0.  1.
<scales pt_clust_5="13000.00000" pt_clust_6="13000.00000" pt_clust_7="13000.00000" pt_clust_8="13000.00000" pt_clust_9="25.98986"></scales>
<clustering>
<clus scale="   25.990">  1  9  2 -1</clus>
<clus scale="   88.158">  7  8 -1 -1</clus>
<clus scale="   88.495">  5  6 -1 -1</clus>
<clus scale="   91.432">  2  7  1 -1</clus>
<clus scale="   91.432">  2  5  1 -1</clus>
</clustering>
</event>
<event>
 9    1  0.2802611E-005  0.9425455E+02  0.7546771E-02  0.1298961E+00
          1   -1    0    0  502    0  0.00000000000E+00  0.00000000000E+00  0.37891696429E+02  0.37891696429E+02  0.00000000000E+00 0. -1.
         -2   -1    0    0    0  501 -0.00000000000E+00 -0.00000000000E+00 -0.42975810667E+03  0.42975810667E+03  0.00000000000E+00 0.  1.
        -24    2    1    2    0    0  0.26721422860E+02 -0.41170479771E+02 -0.27368488783E+03  0.28915192949E+03  0.79349717426E+02 0.  0.
         23    2    1    2    0    0  0.15643452411E+01  0.23628323275E+02 -0.57743470702E+02  0.10950098944E+03  0.89974515513E+02 0.  0.
         11    1    3    3    0    0  0.26780228147E+02 -0.35476445674E+02 -0.56483436763E+02  0.71875847444E+02  0.00000000000E+00 0. -1.
        -12    1    3    3    0    0 -0.58805287707E-01 -0.56940340967E+01 -0.21720145107E+03  0.21727608205E+03  0.00000000000E+00 0.  1.
        -11    1    4    4    0    0  0.40563080437E+02  0.23165671088E+02 -0.52296694544E+02  0.70121010202E+02  0.00000000000E+00 0.  1.
         11    1    4    4    0    0 -0.38998735196E+02  0.46265218707E+00 -0.54467761583E+01  0.39379979234E+02  0.00000000000E+00 0. -1.
         21    1    1    2  502  501 -0.28285768101E+02  0.17542156496E+02 -0.60438051701E+02  0.68996884169E+02  0.00000000000E+00 0. -1.
<scales pt_clust_5="13000.00000" pt_clust_6="13000.00000" pt_clust_7="13000.00000" pt_clust_8="13000.00000" pt_clust_9="33.28381"></scales>
<clustering>
<clus scale="   33.284">  2  9  1 -1</clus>
<clus scale="   79.350">  5  6 -1 -1</clus>
<clus scale="   84.172">  2  5  1 -1</clus>
<clus scale="   89.975">  7  8 -1 -1</clus>
<clus scale="   94.255">  1  5  2 -1</clus>
</clustering>
</event>
<event>
 9    1  0.2802611E-005  0.9446529E+02  0.7546771E-02  0.1295364E+00
          1   -1    0    0  502    0  0.00000000000E+00  0.00000000000E+00  0.14099483123E+03  0.14099483123E+03  0.00000000000E+00 0. -1.
         -2   -1    0    0    0  501 -0.00000000000E+00 -0.00000000000E+00 -0.35605847853E+03  0.35605847853E+03  0.00000000000E+00 0.  1.
         23    2    1    2    0    0  0.36834325932E+01  0.22112817301E+02 -0.20202024512E+03  0.22141096384E+03  0.87795735127E+02 0.  0.
        -24    2    1    2    0    0  0.19458490710E+02 -0.30506640189E+02  0.11459883767E+03  0.14564793730E+03  0.82286937525E+02 0.  0.
         13    1    4    4    0    0  0.40566991101E+02 -0.21888990410E+01  0.99049215285E+02  0.10705708335E+03  0.00000000000E+00 0. -1.
        -14    1    4    4    0    0 -0.21108500391E+02 -0.28317741148E+02  0.15549622390E+02  0.38590853955E+02  0.00000000000E+00 0.  1.
        -11    1    3    3    0    0  0.31447289775E+02 -0.21804441382E+02 -0.75694567885E+02  0.84817647371E+02  0.00000000000E+00 0. -1.
         11    1    3    3    0    0 -0.27763857182E+02  0.43917258683E+02 -0.12632567723E+03  0.13659331647E+03  0.00000000000E+00 0.  1.
         21    1    1    2  502  501 -0.23141923303E+02  0.83938228880E+01 -0.12764223986E+03  0.12999440863E+03  0.00000000000E+00 0.  1.
<scales pt_clust_5="13000.00000" pt_clust_6="13000.00000" pt_clust_7="13000.00000" pt_clust_8="13000.00000" pt_clust_9="24.61717"></scales>
<clustering>
<clus scale="   24.617">  2  9  1 -1</clus>
<clus scale="   82.287">  5  6 -1 -1</clus>
<clus scale="   87.796">  7  8 -1 -1</clus>
<clus scale="   89.369">  1  5  2 -1</clus>
<clus scale="   89.369">  1  5  2 -1</clus>
</clustering>
</event>
<event>
 9    1  0.2802611E-005  0.1065864E+03  0.7546771E-02  0.1271054E+00
         -2   -1    0    0    0  501 -0.00000000000E+00  0.00000000000E+00  0.75117715197E+02  0.75117715197E+02  0.00000000000E+00 0.  1.
          1   -1    0    0  502    0  0.00000000000E+00 -0.00000000000E+00 -0.41375284588E+03  0.41375284588E+03  0.00000000000E+00 0. -1.
         23    2    1    2    0    0 -0.36543115091E+02  0.34796854018E+02 -0.12494204245E+03  0.16170257226E+03  0.89392324030E+02 0.  0.
        -24    2    1    2    0    0  0.61905304591E+02 -0.17571096322E+02 -0.25553422644E+03  0.27529653009E+03  0.79683300821E+02 0.  0.
         11    1    4    4    0    0  0.13296935301E+02 -0.44427103038E+02 -0.10267275138E+03  0.11265997448E+03  0.00000000000E+00 0. -1.
        -12    1    4    4    0    0  0.48608369290E+02  0.26856006716E+02 -0.15286147506E+03  0.16263655561E+03  0.00000000000E+00 0.  1.
        -11    1    3    3    0    0 -0.53604194166E+02  0.53272871862E+02 -0.78995171885E+02  0.10932358250E+03  0.00000000000E+00 0.  1.
         11    1    3    3    0    0  0.17061079075E+02 -0.18476017843E+02 -0.45946870564E+02  0.52378989768E+02  0.00000000000E+00 0. -1.
         21    1    1    2  502  501 -0.25362189500E+02 -0.17225757696E+02  0.41841138207E+02  0.51871458731E+02  0.00000000000E+00 0.  1.
<scales pt_clust_5="13000.00000" pt_clust_6="13000.00000" pt_clust_7="13000.00000" pt_clust_8="13000.00000" pt_clust_9="30.65889"></scales>
<clustering>
<clus scale="   30.659">  1  9  2 -1</clus>
<clus scale="   79.683">  5  6 -1 -1</clus>
<clus scale="   89.392">  7  8 -1 -1</clus>
<clus scale="   98.586">  2  5  1 -1</clus>
<clus scale="   98.586">  2  5  1 -1</clus>
</clustering>
</event>
<event>
 9    1  0.2802611E-005  0.9199747E+02  0.7546771E-02  0.1305637E+00
         -4   -1    0    0    0  501 -0.00000000000E+00  0.00000000000E+00  0.10698862144E+03  0.10698862144E+03  0.00000000000E+00 0.  1.
          3   -1    0    0  502    0  0.00000000000E+00 -0.00000000000E+00 -0.26820877713E+03  0.26820877713E+03  0.00000000000E+00 0. -1.
        -24    2    1    2    0    0 -0.12369981142E+02  0.11124470401E+02 -0.93700423817E+01  0.82088470562E+02  0.79837015411E+02 0.  0.
         23    2    1    2    0    0 -0.10109199856E+02 -0.79747047538E+00 -0.21027588710E+03  0.22966185126E+03  0.91792076715E+02 0.  0.
         13    1    3    3    0    0 -0.39241700552E+02 -0.91380282090E+01 -0.22281057066E+02  0.46041938770E+02  0.00000000000E+00 0. -1.
        -14    1    3    3    0    0  0.26871719411E+02  0.20262498610E+02  0.12911014684E+02  0.36046531791E+02  0.00000000000E+00 0.  1.
        -13    1    4    4    0    0 -0.44346972216E+01  0.32689663006E+02 -0.25246927382E+02  0.41541400423E+02  0.00000000000E+00 0.  1.
         13    1    4    4    0    0 -0.56745026344E+01 -0.33487133481E+02 -0.18502895972E+03  0.18812045083E+03  0.00000000000E+00 0. -1.
         21    1    1    2  502  501  0.22479180998E+02 -0.10326999926E+02  0.58425773788E+02  0.63447076753E+02  0.00000000000E+00 0.  1.
<scales pt_clust_5="13000.00000" pt_clust_6="13000.00000" pt_clust_7="13000.00000" pt_clust_8="13000.00000" pt_clust_9="24.73784"></scales>
<clustering>
<clus scale="   24.738">  1  9  2 -1</clus>
<clus scale="   79.837">  5  6 -1 -1</clus>
<clus scale="   80.073">  1  5  2 -1</clus>
<clus scale="   91.792">  7  8 -1 -1</clus>
<clus scale="   91.997">  2  5  1 -1</clus>
</clustering>
</event>
<event>
 9    1  0.2802611E-005  0.9533455E+02  0.7546771E-02  0.1298152E+00
          1   -1    0    0  502    0  0.00000000000E+00  0.00000000000E+00  0.11796255684E+03  0.11796255684E+03  0.00000000000E+00 0. -1.
         -2   -1    0    0    0  501 -0.00000000000E+00 -0.00000000000E+00 -0.18455571397E+03  0.18455571397E+03  0.00000000000E+00 0.  1.
        -24    2    1    2    0    0  0.24521214597E+02 -0.94336149859E+01 -0.11513046808E+03  0.14274328392E+03  0.80189384372E+02 0.  0.
         23    2    1    2    0    0  0.16706492169E+02 -0.14300405637E+02  0.56925476827E+02  0.11146982291E+03  0.93281311237E+02 0.  0.
         13    1    3    3    0    0 -0.35839832548E+01  0.26576597380E+02 -0.82110519215E+02  0.86378804287E+02  0.00000000000E+00 0. -1.
        -14    1    3    3    0    0  0.28105197852E+02 -0.36010212366E+02 -0.33019948867E+02  0.56364479632E+02  0.00000000000E+00 0.  1.
        -13    1    4    4    0    0  0.38363346386E+02 -0.43937846887E+02  0.27818570610E+02  0.64623166170E+02  0.00000000000E+00 0.  1.
         13    1    4    4    0    0 -0.21656854218E+02  0.29637441250E+02  0.29106906216E+02  0.46846656742E+02  0.00000000000E+00 0. -1.
         21    1    1    2  502  501 -0.41227706766E+02  0.23734020623E+02 -0.83881658696E+01  0.48305163976E+02  0.00000000000E+00 0. -1.
<scales pt_clust_5="13000.00000" pt_clust_6="13000.00000" pt_clust_7="13000.00000" pt_clust_8="13000.00000" pt_clust_9="47.57129"></scales>
<clustering>
<clus scale="   47.571">  1  9  2 -1</clus>
<clus scale="   80.189">  5  6 -1 -1</clus>
<clus scale="   82.569">  2  5  1 -1</clus>
<clus scale="   93.281">  7  8 -1 -1</clus>
<clus scale="   47.571">  1  5  2 -1</clus>
</clustering>
</event>
<event>
 9    1  0.2802611E-005  0.1037494E+03  0.7546771E-02  0.1280468E+00
         -2   -1    0    0    0  501 -0.00000000000E+00  0.00000000000E+00  0.66648820708E+02  0.66648820708E+02  0.00000000000E+00 0.  1.
          1   -1    0    0  502    0  0.00000000000E+00 -0.00000000000E+00 -0.24156455478E+03  0.24156455478E+03  0.00000000000E+00 0. -1.
        -24    2    1    2    0    0  0.32884673588E+02  0.12387434937E+02 -0.38585055564E+02  0.94544247117E+02  0.78835003956E+02 0.  0.
         23    2    1    2    0    0 -0.44672041726E+02  0.32764929252E+02 -0.12337720989E+03  0.16523907171E+03  0.94936204879E+02 0.  0.
         11    1    3    3    0    0  0.31024258399E+02  0.26730485100E+02 -0.57587609691E+02  0.70663683974E+02  0.00000000000E+00 0. -1.
        -12    1    3    3    0    0  0.18604151889E+01 -0.14343050163E+02  0.19002554127E+02  0.23880563143E+02  0.00000000000E+00 0.  1.
        -11    1    4    4    0    0 -0.22664393582E+02  0.57828819032E+02 -0.11522999985E+03  0.13090378113E+03  0.00000000000E+00 0. -1.
         11    1    4    4    0    0 -0.22007648144E+02 -0.25063889780E+02 -0.81472100369E+01  0.34335290579E+02  0.00000000000E+00 0.  1.
         21    1    1    2  502  501  0.11787368139E+02 -0.45152364189E+02 -0.12953468619E+02  0.48430056667E+02  0.00000000000E+00 0.  1.
<scales pt_clust_5="13000.00000" pt_clust_6="13000.00000" pt_clust_7="13000.00000" pt_clust_8="13000.00000" pt_clust_9="46.66560"></scales>
<clustering>
<clus scale="   46.666">  1  9  2 -1</clus>
<clus scale="   78.835">  5  6 -1 -1</clus>
<clus scale="   89.252">  1  5  2 -1</clus>
<clus scale="   94.936">  7  8 -1 -1</clus>
<clus scale="  103.749">  2  5  1 -1</clus>
</clustering>
</event>
<event>
 9    1  0.2802611E-005  0.9432132E+02  0.7546771E-02  0.1297231E+00
          1   -1    0    0  502    0  0.00000000000E+00  0.00000000000E+00  0.43776242484E+02  0.43776242484E+02  0.00000000000E+00 0. -1.
         -2   -1    0    0    0  501 -0.00000000000E+00 -0.00000000000E+00 -0.45313774365E+03  0.45313774365E+03  0.00000000000E+00 0.  1.
        -24    2    1    2    0    0  0.12706870811E+02 -0.25116364567E+02 -0.31980156917E+03  0.33154405778E+03  0.82801704502E+02 0.  0.
         23    2    1    2    0    0  0.11245598835E+02  0.24628613193E+02 -0.27116980751E+02  0.98488833392E+02  0.90728648050E+02 0.  0.
         13    1    3    3    0    0 -0.26396482830E+01 -0.54360342879E+02 -0.20068978088E+03  0.20793845909E+03  0.00000000000E+00 0. -1.
        -14    1    3    3    0    0  0.15346519094E+02  0.29243978313E+02 -0.11911178830E+03  0.12360559869E+03  0.00000000000E+00 0.  1.
        -13    1    4    4    0    0  0.15029956523E+01 -0.33584467976E+02 -0.19796687120E+02  0.39013898884E+02  0.00000000000E+00 0. -1.
         13    1    4    4    0    0  0.97426031823E+01  0.58213081169E+02 -0.73202936312E+01  0.59474934508E+02  0.00000000000E+00 0.  1.
         21    1    1    2  502  501 -0.23952469645E+02  0.48775137403E+00 -0.62442951246E+02  0.66881094966E+02  0.00000000000E+00 0. -1.
<scales pt_clust_5="13000.00000" pt_clust_6="13000.00000" pt_clust_7="13000.00000" pt_clust_8="13000.00000" pt_clust_9="23.95744"></scales>
<clustering>
<clus scale="   23.957">  2  9  1 -1</clus>
<clus scale="   82.802">  5  6 -1 -1</clus>
<clus scale="   86.723">  2  5  1 -1</clus>
<clus scale="   90.729">  7  8 -1 -1</clus>
<clus scale="   94.321">  1  5  2 -1</clus>
</clustering>
</event>
<event>
 9    1  0.2802611E-005  0.1209713E+03  0.7546771E-02  0.1241830E+00
          1   -1    0    0  502    0  0.00000000000E+00  0.00000000000E+00  0.12731558400E+03  0.12731558400E+03  0.00000000000E+00 0. -1.
         -2   -1    0    0    0  501 -0.00000000000E+00 -0.00000000000E+00 -0.32644946376E+03  0.32644946376E+03  0.00000000000E+00 0.  1.
        -24    2    1    2    0    0 -0.67293707283E+02  0.18930084348E+02 -0.18228781237E+03  0.21181593934E+03  0.82160540940E+02 0.  0.
         23    2    1    2    0    0  0.91281928528E+02  0.14273463183E+01  0.75197182616E+02  0.14467722341E+03  0.83321395260E+02 0.  0.
         13    1    3    3    0    0  0.13934991258E+02  0.18908321890E+02 -0.65276549753E+02  0.69373889654E+02  0.00000000000E+00 0. -1.
        -14    1    3    3    0    0 -0.81228698541E+02  0.21762457926E-01 -0.11701126262E+03  0.14244204969E+03  0.00000000000E+00 0.  1.
        -11    1    4    4    0    0  0.50936763128E+02 -0.21334052185E+00 -0.86008318562E+01  0.51658239040E+02  0.00000000000E+00 0.  1.
         11    1    4    4    0    0  0.40345165400E+02  0.16406868401E+01  0.83798014472E+02  0.93018984373E+02  0.00000000000E+00 0. -1.
         21    1    1    2  502  501 -0.23988221245E+02 -0.20357430667E+02 -0.92043250001E+02  0.97271885005E+02  0.00000000000E+00 0.  1.
<scales pt_clust_5="13000.00000" pt_clust_6="13000.00000" pt_clust_7="13000.00000" pt_clust_8="13000.00000" pt_clust_9="31.46204"></scales>
<clustering>
<clus scale="   31.462">  2  9  1 -1</clus>
<clus scale="   82.161">  5  6 -1 -1</clus>
<clus scale="   83.321">  7  8 -1 -1</clus>
<clus scale="  120.175">  2  5  1 -1</clus>
<clus scale="  120.971">  1  5  2 -1</clus>
</clustering>
</event>
<event>
 9    1  0.2802611E-005  0.1396818E+03  0.7546771E-02  0.1222887E+00
          1   -1    0    0  502    0  0.00000000000E+00  0.00000000000E+00  0.49642348943E+03  0.49642348943E+03  0.00000000000E+00 0. -1.
         -2   -1    0    0    0  501 -0.00000000000E+00 -0.00000000000E+00 -0.55554964879E+02  0.55554964879E+02  0.00000000000E+00 0.  1.
        -24    2    1    2    0    0 -0.85936608280E+02  0.63164357113E+02  0.12422464197E+03  0.18265485660E+03  0.80970354550E+02 0.  0.
         23    2    1    2    0    0  0.60397488504E+02 -0.35944392964E+02  0.30047499974E+03  0.32864675098E+03  0.11306460745E+03 0.  0.
         11    1    3    3    0    0 -0.96066811805E+02  0.52755117648E+02  0.12712074029E+03  0.16784402695E+03  0.00000000000E+00 0. -1.
        -12    1    3    3    0    0  0.10130203525E+02  0.10409239466E+02 -0.28960983221E+01  0.14810829659E+02  0.00000000000E+00 0.  1.
        -11    1    4    4    0    0 -0.28714645833E+02  0.40809670613E+01  0.11971896850E+03  0.12318204656E+03  0.00000000000E+00 0. -1.
         11    1    4    4    0    0  0.89112134337E+02 -0.40025360025E+02  0.18075603124E+03  0.20546470442E+03  0.00000000000E+00 0.  1.
         21    1    1    2  502  501  0.25539119776E+02 -0.27219964149E+02  0.16168882841E+02  0.40676846726E+02  0.00000000000E+00 0. -1.
<scales pt_clust_5="13000.00000" pt_clust_6="13000.00000" pt_clust_7="13000.00000" pt_clust_8="13000.00000" pt_clust_9="37.32523"></scales>
<clustering>
<clus scale="   37.325">  2  9  1 -1</clus>
<clus scale="   80.970">  5  6 -1 -1</clus>
<clus scale="  113.065">  7  8 -1 -1</clus>
<clus scale="  115.254">  2  5  1 -1</clus>
<clus scale="  139.682">  1  5  2 -1</clus>
</clustering>
</event>
<event>
 9    1  0.2802611E-005  0.1036694E+03  0.7546771E-02  0.1278154E+00
          1   -1    0    0  502    0  0.00000000000E+00  0.00000000000E+00  0.51952133439E+03  0.51952133439E+03  0.00000000000E+00 0. -1.
         -2   -1    0    0    0  501 -0.00000000000E+00 -0.00000000000E+00 -0.46099490722E+02  0.46099490722E+02  0.00000000000E+00 0.  1.
         23    2    1    2    0    0  0.59046973342E+02 -0.28533146701E+02  0.15021503507E+03  0.18729225918E+03  0.90626420358E+02 0.  0.
        -24    2    1    2    0    0 -0.47204976056E+02 -0.12981544094E+02  0.32205175299E+03  0.33514249636E+03  0.78780270439E+02 0.  0.
         13    1    4    4    0    0 -0.30289853993E+02 -0.42725501562E+02  0.13155086086E+03  0.14159298263E+03  0.00000000000E+00 0. -1.
        -14    1    4    4    0    0 -0.16915122063E+02  0.29743957468E+02  0.19050089214E+03  0.19354951373E+03  0.00000000000E+00 0.  1.
        -11    1    3    3    0    0 -0.22401776230E+02  0.62132558950E+01  0.28653963058E+02  0.36898424439E+02  0.00000000000E+00 0. -1.
         11    1    3    3    0    0  0.81448749573E+02 -0.34746402596E+02  0.12156107201E+03  0.15039383474E+03  0.00000000000E+00 0.  1.
         21    1    1    2  502  501 -0.11841997286E+02  0.41514690794E+02  0.11550556090E+01  0.43186069571E+02  0.00000000000E+00 0.  1.
<scales pt_clust_5="13000.00000" pt_clust_6="13000.00000" pt_clust_7="13000.00000" pt_clust_8="13000.00000" pt_clust_9="43.17062"></scales>
<clustering>
<clus scale="   43.171">  2  9  1 -1</clus>
<clus scale="   78.780">  5  6 -1 -1</clus>
<clus scale="   90.626">  7  8 -1 -1</clus>
<clus scale="   93.491">  1  5  2 -1</clus>
<clus scale="   93.491">  1  5  2 -1</clus>
</clustering>
</event>
<event>
 9    1  0.2802611E-005  0.1336741E+03  0.7546771E-02  0.1224134E+00
          1   -1    0    0  502    0  0.00000000000E+00  0.00000000000E+00  0.91123267830E+02  0.91123267830E+02  0.00000000000E+00 0. -1.
         -2   -1    0    0    0  501 -0.00000000000E+00 -0.00000000000E+00 -0.61089921078E+03  0.61089921078E+03  0.00000000000E+00 0.  1.
        -24    2    1    2    0    0 -0.11991332569E+03  0.67413845950E+02 -0.40506204020E+03  0.43531592965E+03  0.80627972158E+02 0.  0.
         23    2    1    2    0    0  0.83415148842E+02 -0.44027576398E+02  0.14309585088E+02  0.13059595080E+03  0.89185332871E+02 0.  0.
         11    1    3    3    0    0  0.73785085549E+00  0.29508334436E+02 -0.46223207285E+02  0.54844061819E+02  0.00000000000E+00 0. -1.
        -12    1    3    3    0    0 -0.12065117655E+03  0.37905511514E+02 -0.35883883291E+03  0.38047186783E+03  0.00000000000E+00 0.  1.
        -13    1    4    4    0    0  0.31279191021E+02  0.24760027335E+02  0.18936565693E+02  0.44159260238E+02  0.00000000000E+00 0.  1.
         13    1    4    4    0    0  0.52135957821E+02 -0.68787603733E+02 -0.46269806043E+01  0.86436690558E+02  0.00000000000E+00 0. -1.
         21    1    1    2  502  501  0.36498176853E+02 -0.23386269552E+02 -0.12902348785E+03  0.13611059817E+03  0.00000000000E+00 0. -1.
<scales pt_clust_5="13000.00000" pt_clust_6="13000.00000" pt_clust_7="13000.00000" pt_clust_8="13000.00000" pt_clust_9="43.34783"></scales>
<clustering>
<clus scale="   43.348">  2  9  1 -1</clus>
<clus scale="   80.628">  5  6 -1 -1</clus>
<clus scale="   89.185">  7  8 -1 -1</clus>
<clus scale="  128.123">  2  5  1 -1</clus>
<clus scale="  133.674">  1  5  2 -1</clus>
</clustering>
</event>
<event>
 9    1  0.2802611E-005  0.1089890E+03  0.7546771E-02  0.1269822E+00
         -2   -1    0    0    0  501 -0.00000000000E+00  0.00000000000E+00  0.83699745637E+02  0.83699745637E+02  0.00000000000E+00 0.  1.
          1   -1    0    0  502    0  0.00000000000E+00 -0.00000000000E+00 -0.24269476316E+03  0.24269476316E+03  0.00000000000E+00 0. -1.
         23    2    1    2    0    0 -0.37891202183E+02  0.62880806803E+01 -0.15751841052E+02  0.10031127858E+03  0.91317845754E+02 0.  0.
        -24    2    1    2    0    0  0.63835464828E+02 -0.18484894790E+02 -0.16340391914E+03  0.19103579688E+03  0.73329236969E+02 0.  0.
         11    1    4    4    0    0  0.37868228956E+02 -0.39479945804E+02 -0.54872259889E+02  0.77483119388E+02  0.00000000000E+00 0. -1.
        -12    1    4    4    0    0  0.25967235872E+02  0.20995051013E+02 -0.10853165925E+03  0.11355267749E+03  0.00000000000E+00 0.  1.
        -13    1    3    3    0    0  0.68126859784E+01  0.20827793841E+02  0.28364529177E+02  0.35843495950E+02  0.00000000000E+00 0.  1.
         13    1    3    3    0    0 -0.44703888161E+02 -0.14539713160E+02 -0.44116370229E+02  0.64467782634E+02  0.00000000000E+00 0. -1.
         21    1    1    2  502  501 -0.25944262645E+02  0.12196814110E+02  0.20160742665E+02  0.35047433336E+02  0.00000000000E+00 0.  1.
<scales pt_clust_5="13000.00000" pt_clust_6="13000.00000" pt_clust_7="13000.00000" pt_clust_8="13000.00000" pt_clust_9="28.66822"></scales>
<clustering>
<clus scale="   28.668">  1  9  2 -1</clus>
<clus scale="   73.329">  5  6 -1 -1</clus>
<clus scale="   91.318">  7  8 -1 -1</clus>
<clus scale="   94.429">  2  5  1 -1</clus>
<clus scale="   94.429">  2  5  1 -1</clus>
</clustering>
</event>
<event>
 9    1  0.2802611E-005  0.1381637E+03  0.7546771E-02  0.1228329E+00
          1   -1    0    0  502    0  0.00000000000E+00  0.00000000000E+00  0.81474258414E+03  0.81474258414E+03  0.00000000000E+00 0. -1.
         -2   -1    0    0    0  501 -0.00000000000E+00 -0.00000000000E+00 -0.45595697178E+02  0.45595697178E+02  0.00000000000E+00 0.  1.
         23    2    1    2    0    0 -0.35597481842E+02 -0.62753664085E+02  0.15607930873E+03  0.20905351757E+03  0.11890088109E+03 0.  0.
        -24    2    1    2    0    0  0.10031064265E+03 -0.21462539676E+01  0.36006048920E+03  0.38218927950E+03  0.79738686004E+02 0.  0.
         13    1    4    4    0    0  0.86609241941E+02  0.26051747334E+02  0.20613027408E+03  0.22509896539E+03  0.00000000000E+00 0. -1.
        -14    1    4    4    0    0  0.13701400707E+02 -0.28198001301E+02  0.15393021512E+03  0.15709031411E+03  0.00000000000E+00 0.  1.
        -13    1    3    3    0    0  0.48225549862E+01 -0.80673772873E+02  0.52342788771E+02  0.96287497644E+02  0.00000000000E+00 0.  1.
         13    1    3    3    0    0 -0.40420036828E+02  0.17920108788E+02  0.10373651996E+03  0.11276601992E+03  0.00000000000E+00 0. -1.
         21    1    1    2  502  501 -0.64713160806E+02  0.64899918053E+02  0.25300708903E+03  0.26909548425E+03  0.00000000000E+00 0. -1.
<scales pt_clust_5="13000.00000" pt_clust_6="13000.00000" pt_clust_7="13000.00000" pt_clust_8="13000.00000" pt_clust_9="91.65038"></scales>
<clustering>
<clus scale="   79.739">  5  6 -1 -1</clus>
<clus scale="   91.650">  1  9  2 -1</clus>
<clus scale="  106.349">  1  5  2 -1</clus>
<clus scale="  118.901">  7  8 -1 -1</clus>
<clus scale="   91.650">  1  5  2 -1</clus>
</clustering>
</event>
<event>
 9    1  0.2802611E-005  0.1270193E+03  0.7546771E-02  0.1235847E+00
         -2   -1    0    0    0  501 -0.00000000000E+00  0.00000000000E+00  0.12805616111E+03  0.12805616111E+03  0.00000000000E+00 0.  1.
          1   -1    0    0  502    0  0.00000000000E+00 -0.00000000000E+00 -0.49949638944E+03  0.49949638944E+03  0.00000000000E+00 0. -1.
        -24    2    1    2    0    0  0.33769035801E+02  0.61722908715E+02  0.82235040621E+02  0.13477083189E+03  0.80315066973E+02 0.  0.
         23    2    1    2    0    0 -0.25515201849E+02 -0.82930191881E+02 -0.45223390229E+03  0.46997925889E+03  0.94002974184E+02 0.  0.
         11    1    3    3    0    0  0.47611052941E+02  0.74821899216E+01  0.52931004807E+02  0.71585520869E+02  0.00000000000E+00 0. -1.
        -12    1    3    3    0    0 -0.13842017140E+02  0.54240718793E+02  0.29304035814E+02  0.63185311020E+02  0.00000000000E+00 0.  1.
        -11    1    4    4    0    0  0.18891231236E+02  0.12452837372E+02 -0.73656436504E+02  0.77053373805E+02  0.00000000000E+00 0.  1.
         11    1    4    4    0    0 -0.44406433085E+02 -0.95383029253E+02 -0.37857746578E+03  0.39292588508E+03  0.00000000000E+00 0. -1.
         21    1    1    2  502  501 -0.82538339519E+01  0.21207283166E+02 -0.14413666632E+01  0.22802459780E+02  0.00000000000E+00 0.  1.
<scales pt_clust_5="13000.00000" pt_clust_6="13000.00000" pt_clust_7="13000.00000" pt_clust_8="13000.00000" pt_clust_9="22.75686"></scales>
<clustering>
<clus scale="   22.757">  1  9  2 -1</clus>
<clus scale="   80.315">  5  6 -1 -1</clus>
<clus scale="   94.003">  7  8 -1 -1</clus>
<clus scale="  117.251">  1  5  2 -1</clus>
<clus scale="  127.019">  2  5  1 -1</clus>
</clustering>
</event>
<event>
 9    1  0.2802611E-005  0.1057000E+03  0.7546771E-02  0.1272410E+00
          1   -1    0    0  502    0  0.00000000000E+00  0.00000000000E+00  0.83449848069E+03  0.83449848069E+03  0.00000000000E+00 0. -1.
         -2   -1    0    0    0  501 -0.00000000000E+00 -0.00000000000E+00 -0.20161549193E+02  0.20161549193E+02  0.00000000000E+00 0.  1.
         23    2    1    2    0    0  0.32646299645E+02 -0.18337320798E+02  0.20249215166E+03  0.22496788073E+03  0.90583870854E+02 0.  0.
        -24    2    1    2    0    0 -0.55547121304E+02  0.25821055138E+02  0.58384174009E+03  0.59275132963E+03  0.82041158794E+02 0.  0.
         13    1    4    4    0    0  0.17856904400E+02  0.22663140599E+02  0.17402964696E+03  0.17640522951E+03  0.00000000000E+00 0. -1.
        -14    1    4    4    0    0 -0.73404025704E+02  0.31579145394E+01  0.40981209312E+03  0.41634610012E+03  0.00000000000E+00 0.  1.
        -11    1    3    3    0    0  0.59751446049E+01 -0.53335588095E+02  0.12059125286E+03  0.13199483920E+03  0.00000000000E+00 0.  1.
         11    1    3    3    0    0  0.26671155041E+02  0.34998267297E+02  0.81900898806E+02  0.92973041524E+02  0.00000000000E+00 0. -1.
         21    1    1    2  502  501  0.22900821658E+02 -0.74837343402E+01  0.28003039749E+02  0.36940819529E+02  0.00000000000E+00 0.  1.
<scales pt_clust_5="13000.00000" pt_clust_6="13000.00000" pt_clust_7="13000.00000" pt_clust_8="13000.00000" pt_clust_9="24.09261"></scales>
<clustering>
<clus scale="   24.093">  2  9  1 -1</clus>
<clus scale="   82.041">  5  6 -1 -1</clus>
<clus scale="   90.584">  7  8 -1 -1</clus>
<clus scale="   98.477">  1  5  2 -1</clus>
<clus scale="   98.477">  1  5  2 -1</clus>
</clustering>
</event>
<event>
 9    1  0.2802611E-005  0.1012398E+03  0.7546771E-02  0.1283513E+00
          1   -1    0    0  502    0  0.00000000000E+00  0.00000000000E+00  0.32645774933E+02  0.32645774933E+02  0.00000000000E+00 0. -1.
         -2   -1    0    0    0  501 -0.00000000000E+00 -0.00000000000E+00 -0.74401454927E+03  0.74401454927E+03  0.00000000000E+00 0.  1.
        -24    2    1    2    0    0  0.17893741100E+02  0.40184385262E+02 -0.53792828597E+03  0.54591271682E+03  0.81968791331E+02 0.  0.
         23    2    1    2    0    0 -0.32383844800E+02 -0.21450307006E+02 -0.66366208890E+02  0.12108526143E+03  0.93532549303E+02 0.  0.
         13    1    3    3    0    0 -0.69622658468E+01  0.58113652855E+02 -0.27210868105E+03  0.27833218300E+03  0.00000000000E+00 0. -1.
        -14    1    3    3    0    0  0.24856006947E+02 -0.17929267593E+02 -0.26581960492E+03  0.26758053382E+03  0.00000000000E+00 0.  1.
        -11    1    4    4    0    0 -0.20862646532E+02  0.30785775790E+02 -0.17904566556E+01  0.37231972099E+02  0.00000000000E+00 0. -1.
         11    1    4    4    0    0 -0.11521198268E+02 -0.52236082796E+02 -0.64575752235E+02  0.83853289334E+02  0.00000000000E+00 0.  1.
         21    1    1    2  502  501  0.14490103700E+02 -0.18734078256E+02 -0.10707427947E+03  0.10966234594E+03  0.00000000000E+00 0.  1.
<scales pt_clust_5="13000.00000" pt_clust_6="13000.00000" pt_clust_7="13000.00000" pt_clust_8="13000.00000" pt_clust_9="23.68394"></scales>
<clustering>
<clus scale="   23.684">  2  9  1 -1</clus>
<clus scale="   81.969">  5  6 -1 -1</clus>
<clus scale="   90.664">  2  5  1 -1</clus>
<clus scale="   93.533">  7  8 -1 -1</clus>
<clus scale="  101.240">  1  5  2 -1</clus>
</clustering>
</event>
<event>
 9    1  0.2802611E-005  0.3195434E+03  0.7546771E-02  0.1076221E+00
          1   -1    0    0  502    0  0.00000000000E+00  0.00000000000E+00  0.17155687609E+04  0.17155687609E+04  0.00000000000E+00 0. -1.
         -2   -1    0    0    0  501 -0.00000000000E+00 -0.00000000000E+00 -0.93937334185E+02  0.93937334185E+02  0.00000000000E+00 0.  1.
         23    2    1    2    0    0 -0.24789801202E+03 -0.74276310920E+02  0.28086199976E+03  0.39270333322E+03  0.91444246889E+02 0.  0.
        -24    2    1    2    0    0  0.31683256243E+03  0.70050032375E+02  0.12858541979E+04  0.13285671905E+04  0.79874162226E+02 0.  0.
         13    1    4    4    0    0  0.19514170216E+03  0.55929695025E+02  0.93963446795E+03  0.96131230517E+03  0.00000000000E+00 0. -1.
        -14    1    4    4    0    0  0.12169086027E+03  0.14120337350E+02  0.34621972991E+03  0.36725488530E+03  0.00000000000E+00 0.  1.
        -13    1    3    3    0    0 -0.18440964877E+03 -0.22286751972E+02  0.15240100142E+03  0.24027002124E+03  0.00000000000E+00 0.  1.
         13    1    3    3    0    0 -0.63488363248E+02 -0.51989558948E+02  0.12846099834E+03  0.15243331198E+03  0.00000000000E+00 0. -1.
         21    1    1    2  502  501 -0.68934550415E+02  0.42262785451E+01  0.54915229086E+02  0.88235571380E+02  0.00000000000E+00 0. -1.
<scales pt_clust_5="13000.00000" pt_clust_6="13000.00000" pt_clust_7="13000.00000" pt_clust_8="13000.00000" pt_clust_9="69.06398"></scales>
<clustering>
<clus scale="   69.064">  2  9  1 -1</clus>
<clus scale="   79.874">  5  6 -1 -1</clus>
<clus scale="   91.444">  7  8 -1 -1</clus>
<clus scale="  316.427">  1  5  2 -1</clus>
<clus scale="  316.427">  1  5  2 -1</clus>
</clustering>
</event>
<event>
 9    1  0.2802611E-005  0.1435386E+03  0.7546771E-02  0.1211571E+00
         -2   -1    0    0    0  501 -0.00000000000E+00  0.00000000000E+00  0.39026326119E+03  0.39026326119E+03  0.00000000000E+00 0.  1.
          1   -1    0    0  502    0  0.00000000000E+00 -0.00000000000E+00 -0.19692728724E+03  0.19692728724E+03  0.00000000000E+00 0. -1.
        -24    2    1    2    0    0 -0.80163925937E+02 -0.51115760727E+02  0.11226983908E+03  0.16709011413E+03  0.79218138439E+02 0.  0.
         23    2    1    2    0    0  0.59633322669E+02  0.97526903390E+02 -0.13389839158E+03  0.19922660727E+03  0.93246081532E+02 0.  0.
         11    1    3    3    0    0 -0.21441061806E+02 -0.13451963653E+02 -0.92664579224E+01  0.26954437481E+02  0.00000000000E+00 0. -1.
        -12    1    3    3    0    0 -0.58722864131E+02 -0.37663797074E+02  0.12153629700E+03  0.14013567665E+03  0.00000000000E+00 0.  1.
        -13    1    4    4    0    0 -0.18023143549E+02  0.55185928697E+02 -0.64677777826E+02  0.86911077395E+02  0.00000000000E+00 0.  1.
         13    1    4    4    0    0  0.77656466218E+02  0.42340974693E+02 -0.69220613753E+02  0.11231552988E+03  0.00000000000E+00 0. -1.
         21    1    1    2  502  501  0.20530603268E+02 -0.46411142663E+02  0.21496452645E+03  0.22087382702E+03  0.00000000000E+00 0. -1.
<scales pt_clust_5="13000.00000" pt_clust_6="13000.00000" pt_clust_7="13000.00000" pt_clust_8="13000.00000" pt_clust_9="50.74938"></scales>
<clustering>
<clus scale="   50.749">  1  9  2 -1</clus>
<clus scale="   79.218">  5  6 -1 -1</clus>
<clus scale="   93.246">  7  8 -1 -1</clus>
<clus scale="  134.848">  1  5  2 -1</clus>
<clus scale="  143.539">  2  5  1 -1</clus>
</clustering>
</event>
<event>
 9    1  0.2802611E-005  0.1000725E+03  0.7546771E-02  0.1286481E+00
          1   -1    0    0  502    0  0.00000000000E+00  0.00000000000E+00  0.45612911730E+03  0.45612911730E+03  0.00000000000E+00 0. -1.
         -2   -1    0    0    0  501 -0.00000000000E+00 -0.00000000000E+00 -0.96950751292E+02  0.96950751292E+02  0.00000000000E+00 0.  1.
         23    2    1    2    0    0  0.46761171542E+00  0.31539823830E+01  0.31250482525E+02  0.98984872611E+02  0.93868237877E+02 0.  0.
        -24    2    1    2    0    0 -0.35155344507E+02 -0.18840678875E+02  0.37936212653E+03  0.39010442941E+03  0.81700510202E+02 0.  0.
         11    1    4    4    0    0 -0.59892632523E+02 -0.25619141556E+02  0.28119274399E+03  0.28863961460E+03  0.00000000000E+00 0. -1.
        -12    1    4    4    0    0  0.24737288015E+02  0.67784626809E+01  0.98169382542E+02  0.10146481480E+03  0.00000000000E+00 0.  1.
        -13    1    3    3    0    0 -0.15816855729E+02 -0.37063970663E+02 -0.72878920831E+01  0.40951486145E+02  0.00000000000E+00 0. -1.
         13    1    3    3    0    0  0.16284467445E+02  0.40217953046E+02  0.38538374608E+02  0.58033386465E+02  0.00000000000E+00 0.  1.
         21    1    1    2  502  501  0.34687732792E+02  0.15686696492E+02 -0.51434243047E+02  0.63990566577E+02  0.00000000000E+00 0.  1.
<scales pt_clust_5="13000.00000" pt_clust_6="13000.00000" pt_clust_7="13000.00000" pt_clust_8="13000.00000" pt_clust_9="38.06982"></scales>
<clustering>
<clus scale="   38.070">  2  9  1 -1</clus>
<clus scale="   81.701">  5  6 -1 -1</clus>
<clus scale="   88.759">  1  5  2 -1</clus>
<clus scale="   93.868">  7  8 -1 -1</clus>
<clus scale="   88.759">  1  5  2 -1</clus>
</clustering>
</event>
<event>
 9    1  0.2802611E-005  0.9382840E+02  0.7546771E-02  0.1299106E+00
         -2   -1    0    0    0  501 -0.00000000000E+00  0.00000000000E+00  0.14754827387E+02  0.14754827387E+02  0.00000000000E+00 0.  1.
          1   -1    0    0  502    0  0.00000000000E+00 -0.00000000000E+00 -0.85840925050E+03  0.85840925050E+03  0.00000000000E+00 0. -1.
         23    2    1    2    0    0 -0.35180021473E+02  0.10010130524E-01 -0.26148085767E+03  0.27894494027E+03  0.90556097325E+02 0.  0.
        -24    2    1    2    0    0  0.17151512196E+02 -0.14739439002E+02 -0.53470460472E+03  0.54134867844E+03  0.81473627063E+02 0.  0.
         11    1    4    4    0    0  0.48584042604E+02 -0.53466831494E+01 -0.24778691722E+03  0.25256158173E+03  0.00000000000E+00 0. -1.
        -12    1    4    4    0    0 -0.31432530408E+02 -0.93927558526E+01 -0.28691768749E+03  0.28878709671E+03  0.00000000000E+00 0.  1.
        -13    1    3    3    0    0  0.12520455826E+02  0.35153469849E+02 -0.11628302027E+03  0.12212399052E+03  0.00000000000E+00 0.  1.
         13    1    3    3    0    0 -0.47700477299E+02 -0.35143459719E+02 -0.14519783740E+03  0.15682094975E+03  0.00000000000E+00 0. -1.
         21    1    1    2  502  501  0.18028509277E+02  0.14729428871E+02 -0.47468960721E+02  0.52870459177E+02  0.00000000000E+00 0.  1.
<scales pt_clust_5="13000.00000" pt_clust_6="13000.00000" pt_clust_7="13000.00000" pt_clust_8="13000.00000" pt_clust_9="23.28053"></scales>
<clustering>
<clus scale="   23.281">  1  9  2 -1</clus>
<clus scale="   81.474">  5  6 -1 -1</clus>
<clus scale="   85.096">  2  5  1 -1</clus>
<clus scale="   90.556">  7  8 -1 -1</clus>
<clus scale="   85.096">  2  5  1 -1</clus>
</clustering>
</event>
<event>
 9    1  0.2802611E-005  0.1162152E+03  0.7546771E-02  0.1252531E+00
         -2   -1    0    0    0  501 -0.00000000000E+00  0.00000000000E+00  0.19983184402E+03  0.19983184402E+03  0.00000000000E+00 0.  1.
          1   -1    0    0  502    0  0.00000000000E+00 -0.00000000000E+00 -0.19049599827E+03  0.19049599827E+03  0.00000000000E+00 0. -1.
        -24    2    1    2    0    0  0.44116800359E+01 -0.23655070086E+02  0.83510649667E+02  0.11860769458E+03  0.80713885703E+02 0.  0.
         23    2    1    2    0    0 -0.69705307329E+02  0.53202789945E+02 -0.13012751442E+03  0.18079693106E+03  0.89805309110E+02 0.  0.
         13    1    3    3    0    0  0.27694507917E+02  0.19108146316E+02  0.46746335326E+02  0.57596240249E+02  0.00000000000E+00 0. -1.
        -14    1    3    3    0    0 -0.23282827881E+02 -0.42763216401E+02  0.36764314340E+02  0.61011454335E+02  0.00000000000E+00 0.  1.
        -11    1    4    4    0    0 -0.14308158301E+02 -0.21295183818E+02 -0.57372169456E+02  0.62847228068E+02  0.00000000000E+00 0.  1.
         11    1    4    4    0    0 -0.55397149028E+02  0.74497973763E+02 -0.72755344960E+02  0.11794970299E+03  0.00000000000E+00 0. -1.
         21    1    1    2  502  501  0.65293627293E+02 -0.29547719859E+02  0.55952710502E+02  0.90923216652E+02  0.00000000000E+00 0. -1.
<scales pt_clust_5="13000.00000" pt_clust_6="13000.00000" pt_clust_7="13000.00000" pt_clust_8="13000.00000" pt_clust_9="71.66816"></scales>
<clustering>
<clus scale="   71.668">  1  9  2 -1</clus>
<clus scale="   80.714">  5  6 -1 -1</clus>
<clus scale="   89.805">  7  8 -1 -1</clus>
<clus scale="  109.342">  1  5  2 -1</clus>
<clus scale="  116.215">  2  5  1 -1</clus>
</clustering>
</event>
<event>
 9    1  0.2802611E-005  0.1110807E+03  0.7546771E-02  0.1263150E+00
         -2   -1    0    0    0  501 -0.00000000000E+00  0.00000000000E+00  0.10648618062E+03  0.10648618062E+03  0.00000000000E+00 0.  1.
          1   -1    0    0  502    0  0.00000000000E+00 -0.00000000000E+00 -0.80759079579E+03  0.80759079579E+03  0.00000000000E+00 0. -1.
         23    2    1    2    0    0 -0.32610113019E+02  0.10903429469E+03 -0.89820128132E+02  0.17171382160E+03  0.92011326596E+02 0.  0.
        -24    2    1    2    0    0  0.67854768548E+01 -0.57322640930E+02 -0.65963767012E+03  0.66700376732E+03  0.80251117800E+02 0.  0.
         13    1    4    4    0    0 -0.19721839533E+02 -0.36431333687E+02 -0.13338974899E+03  0.13967468691E+03  0.00000000000E+00 0. -1.
        -14    1    4    4    0    0  0.26507316388E+02 -0.20891307243E+02 -0.52624792114E+03  0.52732908040E+03  0.00000000000E+00 0.  1.
        -11    1    3    3    0    0 -0.26464552814E+02  0.65642593524E+02 -0.10387064497E+03  0.12569181965E+03  0.00000000000E+00 0. -1.
         11    1    3    3    0    0 -0.61455602052E+01  0.43391701168E+02  0.14050516838E+02  0.46022001955E+02  0.00000000000E+00 0.  1.
         21    1    1    2  502  501  0.25824636164E+02 -0.51711653762E+02  0.48353183083E+02  0.75359387485E+02  0.00000000000E+00 0.  1.
<scales pt_clust_5="13000.00000" pt_clust_6="13000.00000" pt_clust_7="13000.00000" pt_clust_8="13000.00000" pt_clust_9="57.80144"></scales>
<clustering>
<clus scale="   57.801">  1  9  2 -1</clus>
<clus scale="   80.251">  5  6 -1 -1</clus>
<clus scale="   92.011">  7  8 -1 -1</clus>
<clus scale="  101.553">  2  5  1 -1</clus>
<clus scale="  101.553">  2  5  1 -1</clus>
</clustering>
</event>
<event>
 9    1  0.2802611E-005  0.1338225E+03  0.7546771E-02  0.1224193E+00
          1   -1    0    0  502    0  0.00000000000E+00  0.00000000000E+00  0.16633592386E+03  0.16633592386E+03  0.00000000000E+00 0. -1.
         -2   -1    0    0    0  501 -0.00000000000E+00 -0.00000000000E+00 -0.16816346988E+03  0.16816346988E+03  0.00000000000E+00 0.  1.
        -24    2    1    2    0    0 -0.75744105957E+02  0.77940453385E+02 -0.15893315667E+02  0.13689419822E+03  0.81703978869E+02 0.  0.
         23    2    1    2    0    0  0.78858350983E+02 -0.49482231110E+02  0.60005181767E+02  0.14347573474E+03  0.91200514829E+02 0.  0.
         13    1    3    3    0    0  0.81639343450E+01  0.19773486964E+02  0.19389312254E+02  0.28871890142E+02  0.00000000000E+00 0. -1.
        -14    1    3    3    0    0 -0.83908040302E+02  0.58166966421E+02 -0.35282627921E+02  0.10802230808E+03  0.00000000000E+00 0.  1.
        -11    1    4    4    0    0  0.33078371747E+02 -0.20311972160E+02  0.77304018355E+02  0.86502405425E+02  0.00000000000E+00 0. -1.
         11    1    4    4    0    0  0.45779979236E+02 -0.29170258950E+02 -0.17298836588E+02  0.56973329316E+02  0.00000000000E+00 0.  1.
         21    1    1    2  502  501 -0.31142450264E+01 -0.28458222275E+02 -0.45939412121E+02  0.54129460769E+02  0.00000000000E+00 0. -1.
<scales pt_clust_5="13000.00000" pt_clust_6="13000.00000" pt_clust_7="13000.00000" pt_clust_8="13000.00000" pt_clust_9="28.62811"></scales>
<clustering>
<clus scale="   28.628">  2  9  1 -1</clus>
<clus scale="   81.704">  5  6 -1 -1</clus>
<clus scale="   91.201">  7  8 -1 -1</clus>
<clus scale="  127.540">  2  5  1 -1</clus>
<clus scale="  133.822">  1  5  2 -1</clus>
</clustering>
</event>
<event>
 9    1  0.2802611E-005  0.8995811E+02  0.7546771E-02  0.1307295E+00
         -2   -1    0    0    0  501 -0.00000000000E+00  0.00000000000E+00  0.14857219549E+03  0.14857219549E+03  0.00000000000E+00 0.  1.
          1   -1    0    0  502    0  0.00000000000E+00 -0.00000000000E+00 -0.13871781430E+03  0.13871781430E+03  0.00000000000E+00 0. -1.
         23    2    1    2    0    0 -0.17511193980E+02 -0.25838305262E+02  0.97982787547E+02  0.13579446669E+03  0.88686248059E+02 0.  0.
        -24    2    1    2    0    0  0.12714578695E+02  0.47221142947E+01 -0.97471178558E+02  0.12791189556E+03  0.81712076837E+02 0.  0.
         13    1    4    4    0    0  0.39349479683E+02  0.44050481433E+01 -0.16898691143E+02  0.43050572154E+02  0.00000000000E+00 0. -1.
        -14    1    4    4    0    0 -0.26634900988E+02  0.31706615142E+00 -0.80572487416E+02  0.84861323404E+02  0.00000000000E+00 0.  1.
        -13    1    3    3    0    0 -0.99041343430E+01  0.26548911261E+02  0.49642938345E+01  0.28767703758E+02  0.00000000000E+00 0. -1.
         13    1    3    3    0    0 -0.76070596371E+01 -0.52387216522E+02  0.93018493712E+02  0.10702676293E+03  0.00000000000E+00 0.  1.
         21    1    1    2  502  501  0.47966152852E+01  0.21116190967E+02  0.93427722015E+01  0.23583647546E+02  0.00000000000E+00 0. -1.
<scales pt_clust_5="13000.00000" pt_clust_6="13000.00000" pt_clust_7="13000.00000" pt_clust_8="13000.00000" pt_clust_9="21.65412"></scales>
<clustering>
<clus scale="   21.654">  1  9  2 -1</clus>
<clus scale="   81.712">  5  6 -1 -1</clus>
<clus scale="   83.091">  2  5  1 -1</clus>
<clus scale="   88.686">  7  8 -1 -1</clus>
<clus scale="   83.091">  2  5  1 -1</clus>
</clustering>
</event>
<event>
 9    1  0.2802611E-005  0.1098262E+03  0.7546771E-02  0.1266319E+00
         -2   -1    0    0    0  501 -0.00000000000E+00  0.00000000000E+00  0.64460327842E+03  0.64460327842E+03  0.00000000000E+00 0.  1.
          1   -1    0    0  502    0  0.00000000000E+00 -0.00000000000E+00 -0.31161999820E+02  0.31161999820E+02  0.00000000000E+00 0. -1.
        -24    2    1    2    0    0  0.10005596284E+01 -0.35164520872E+02  0.39641636873E+03  0.40605586612E+03  0.80609455796E+02 0.  0.
         23    2    1    2    0    0 -0.47141942959E+01  0.64157086607E+02  0.10809679489E+03  0.15692779046E+03  0.93824618118E+02 0.  0.
         13    1    3    3    0    0  0.27485522919E+02 -0.47811902279E+02  0.20022056862E+03  0.20767693196E+03  0.00000000000E+00 0. -1.
        -14    1    3    3    0    0 -0.26484963290E+02  0.12647381406E+02  0.19619580010E+03  0.19837893415E+03  0.00000000000E+00 0.  1.
        -13    1    4    4    0    0 -0.64303277386E+01 -0.24138022577E+02  0.18172262498E+02  0.30890522383E+02  0.00000000000E+00 0.  1.
         13    1    4    4    0    0  0.17161334427E+01  0.88295109185E+02  0.89924532388E+02  0.12603726808E+03  0.00000000000E+00 0. -1.
         21    1    1    2  502  501  0.37136346675E+01 -0.28992565735E+02  0.10892811499E+03  0.11278162166E+03  0.00000000000E+00 0.  1.
<scales pt_clust_5="13000.00000" pt_clust_6="13000.00000" pt_clust_7="13000.00000" pt_clust_8="13000.00000" pt_clust_9="29.22944"></scales>
<clustering>
<clus scale="   29.229">  1  9  2 -1</clus>
<clus scale="   80.609">  5  6 -1 -1</clus>
<clus scale="   93.825">  7  8 -1 -1</clus>
<clus scale="   98.776">  1  5  2 -1</clus>
<clus scale="  109.826">  2  5  1 -1</clus>
</clustering>
</event>
<event>
 9    1  0.2802611E-005  0.1353824E+03  0.7546771E-02  0.1222556E+00
         -2   -1    0    0    0  501 -0.00000000000E+00  0.00000000000E+00  0.12394041197E+03  0.12394041197E+03  0.00000000000E+00 0.  1.
          1   -1    0    0  502    0  0.00000000000E+00 -0.00000000000E+00 -0.25342965185E+03  0.25342965185E+03  0.00000000000E+00 0. -1.
         23    2    1    2    0    0  0.69857158774E+02  0.80367441420E+02  0.35211308916E+02  0.14494030011E+03  0.91809073892E+02 0.  0.
        -24    2    1    2    0    0 -0.77310109181E+02 -0.60586335692E+02 -0.16877223591E+03  0.21090263549E+03  0.79676200895E+02 0.  0.
         11    1    4    4    0    0 -0.34460216823E+02  0.99826254526E+01 -0.89599820291E+02  0.96515735249E+02  0.00000000000E+00 0. -1.
        -12    1    4    4    0    0 -0.42849892359E+02 -0.70568961145E+02 -0.79172415615E+02  0.11438690024E+03  0.00000000000E+00 0.  1.
        -11    1    3    3    0    0 -0.92248476265E+00  0.49422068114E+02  0.45284048387E+02  0.67037577769E+02  0.00000000000E+00 0. -1.
         11    1    3    3    0    0  0.70779643537E+02  0.30945373306E+02 -0.10072739471E+02  0.77902722344E+02  0.00000000000E+00 0.  1.
         21    1    1    2  502  501  0.74529504075E+01 -0.19781105728E+02  0.40716871108E+01  0.21527128223E+02  0.00000000000E+00 0.  1.
<scales pt_clust_5="13000.00000" pt_clust_6="13000.00000" pt_clust_7="13000.00000" pt_clust_8="13000.00000" pt_clust_9="21.13856"></scales>
<clustering>
<clus scale="   21.139">  1  9  2 -1</clus>
<clus scale="   79.676">  5  6 -1 -1</clus>
<clus scale="   91.809">  7  8 -1 -1</clus>
<clus scale="  127.467">  2  5  1 -1</clus>
<clus scale="  127.467">  2  5  1 -1</clus>
</clustering>
</event>
<event>
 9    1  0.2802611E-005  0.1045484E+03  0.7546771E-02  0.1274707E+00
         -2   -1    0    0    0  501 -0.00000000000E+00  0.00000000000E+00  0.20004078587E+02  0.20004078587E+02  0.00000000000E+00 0.  1.
          1   -1    0    0  502    0  0.00000000000E+00 -0.00000000000E+00 -0.75208453020E+03  0.75208453020E+03  0.00000000000E+00 0. -1.
        -24    2    1    2    0    0 -0.17600595292E+02  0.28607972032E+02 -0.16036455385E+03  0.18423456656E+03  0.84245999106E+02 0.  0.
         23    2    1    2    0    0  0.39634853080E+02 -0.40151801345E+02 -0.50879775197E+03  0.52019710185E+03  0.92448816283E+02 0.  0.
         11    1    3    3    0    0 -0.39935767301E+02  0.22019612790E+02 -0.15324080251E+03  0.15988268328E+03  0.00000000000E+00 0. -1.
        -12    1    3    3    0    0  0.22335172009E+02  0.65883592417E+01 -0.71237513359E+01  0.24351883280E+02  0.00000000000E+00 0.  1.
        -13    1    4    4    0    0 -0.19080571504E+02  0.17589171988E+02 -0.12375744554E+03  0.12644901149E+03  0.00000000000E+00 0.  1.
         13    1    4    4    0    0  0.58715424584E+02 -0.57740973334E+02 -0.38504030643E+03  0.39374809036E+03  0.00000000000E+00 0. -1.
         21    1    1    2  502  501 -0.22034257788E+02  0.11543829314E+02 -0.62918145787E+02  0.67656940374E+02  0.00000000000E+00 0.  1.
<scales pt_clust_5="13000.00000" pt_clust_6="13000.00000" pt_clust_7="13000.00000" pt_clust_8="13000.00000" pt_clust_9="24.87506"></scales>
<clustering>
<clus scale="   24.875">  1  9  2 -1</clus>
<clus scale="   84.246">  5  6 -1 -1</clus>
<clus scale="   92.449">  7  8 -1 -1</clus>
<clus scale="   97.370">  1  5  2 -1</clus>
<clus scale="  104.548">  2  5  1 -1</clus>
</clustering>
</event>
<event>
 9    1  0.2802611E-005  0.1332821E+03  0.7546771E-02  0.1232431E+00
         -2   -1    0    0    0  501 -0.00000000000E+00  0.00000000000E+00  0.18129215412E+03  0.18129215412E+03  0.00000000000E+00 0.  1.
          1   -1    0    0  502    0  0.00000000000E+00 -0.00000000000E+00 -0.29158702673E+03  0.29158702673E+03  0.00000000000E+00 0. -1.
        -24    2    1    2    0    0  0.29213219927E+02  0.46764781905E+02  0.93775419779E+02  0.13558457155E+03  0.80925828037E+02 0.  0.
         23    2    1    2    0    0 -0.38728964996E+02 -0.64695893832E+02 -0.25171811898E+03  0.28550281884E+03  0.11164388355E+03 0.  0.
         13    1    3    3    0    0 -0.13689995423E+02  0.49155555917E+02  0.31644376550E+02  0.60042078740E+02  0.00000000000E+00 0. -1.
        -14    1    3    3    0    0  0.42903215350E+02 -0.23907740128E+01  0.62131043228E+02  0.75542492813E+02  0.00000000000E+00 0.  1.
        -11    1    4    4    0    0  0.35576717924E+02 -0.44120940644E+02 -0.90254827681E+02  0.10657529818E+03  0.00000000000E+00 0.  1.
         11    1    4    4    0    0 -0.74305682920E+02 -0.20574953188E+02 -0.16146329130E+03  0.17892752067E+03  0.00000000000E+00 0. -1.
         21    1    1    2  502  501  0.95157450688E+01  0.17931111928E+02  0.47647826595E+02  0.51791790454E+02  0.00000000000E+00 0.  1.
<scales pt_clust_5="13000.00000" pt_clust_6="13000.00000" pt_clust_7="13000.00000" pt_clust_8="13000.00000" pt_clust_9="20.29961"></scales>
<clustering>
<clus scale="   20.300">  1  9  2 -1</clus>
<clus scale="   80.926">  5  6 -1 -1</clus>
<clus scale="  108.852">  1  5  2 -1</clus>
<clus scale="  111.644">  7  8 -1 -1</clus>
<clus scale="  133.282">  2  5  1 -1</clus>
</clustering>
</event>
<event>
 9    1  0.2802611E-005  0.1144712E+03  0.7546771E-02  0.1256820E+00
         -2   -1    0    0    0  501 -0.00000000000E+00  0.00000000000E+00  0.26048909683E+02  0.26048909683E+02  0.00000000000E+00 0.  1.
          1   -1    0    0  502    0  0.00000000000E+00 -0.00000000000E+00 -0.82346243389E+03  0.82346243389E+03  0.00000000000E+00 0. -1.
        -24    2    1    2    0    0 -0.13684512909E+02 -0.61500755717E+02 -0.14479603503E+03  0.17740249950E+03  0.80846436047E+02 0.  0.
         23    2    1    2    0    0 -0.24011719904E+02  0.67284697528E+02 -0.55702931845E+03  0.56919354718E+03  0.92713749382E+02 0.  0.
         13    1    3    3    0    0  0.20438670159E+02 -0.47161272136E+02 -0.12559328351E+03  0.13570408133E+03  0.00000000000E+00 0. -1.
        -14    1    3    3    0    0 -0.34123183067E+02 -0.14339483582E+02 -0.19202751524E+02  0.41698418173E+02  0.00000000000E+00 0.  1.
        -11    1    4    4    0    0 -0.48957312782E+02  0.86949145254E+01 -0.17639295246E+03  0.18326727392E+03  0.00000000000E+00 0.  1.
         11    1    4    4    0    0  0.24945592878E+02  0.58589783003E+02 -0.38063636600E+03  0.38592627326E+03  0.00000000000E+00 0. -1.
         21    1    1    2  502  501  0.37696232813E+02 -0.57839418110E+01 -0.95588170726E+02  0.10291529689E+03  0.00000000000E+00 0. -1.
<scales pt_clust_5="13000.00000" pt_clust_6="13000.00000" pt_clust_7="13000.00000" pt_clust_8="13000.00000" pt_clust_9="38.13738"></scales>
<clustering>
<clus scale="   38.137">  1  9  2 -1</clus>
<clus scale="   80.846">  5  6 -1 -1</clus>
<clus scale="   92.714">  7  8 -1 -1</clus>
<clus scale="  105.090">  1  5  2 -1</clus>
<clus scale="  114.471">  2  5  1 -1</clus>
</clustering>
</event>
<event>
 9    1  0.2802611E-005  0.1331767E+03  0.7546771E-02  0.1240049E+00
          1   -1    0    0  502    0  0.00000000000E+00  0.00000000000E+00  0.76575122240E+03  0.76575122240E+03  0.00000000000E+00 0. -1.
         -2   -1    0    0    0  501 -0.00000000000E+00 -0.00000000000E+00 -0.45825316153E+02  0.45825316153E+02  0.00000000000E+00 0.  1.
         23    2    1    2    0    0 -0.74410495471E+02  0.78605986172E+00  0.11218625330E+03  0.16918510131E+03  0.10247098785E+03 0.  0.
        -24    2    1    2    0    0 -0.34393481429E+02  0.35668640898E+02  0.27052845265E+03  0.28619115060E+03  0.79149020718E+02 0.  0.
         13    1    4    4    0    0 -0.46948507314E+02  0.50904228226E+02  0.24036461332E+03  0.25014106046E+03  0.00000000000E+00 0. -1.
        -14    1    4    4    0    0  0.12555025885E+02 -0.15235587329E+02  0.30163839330E+02  0.36050090144E+02  0.00000000000E+00 0.  1.
        -11    1    3    3    0    0 -0.90940305389E+02  0.19094619986E+02  0.11061867880E+03  0.14446880548E+03  0.00000000000E+00 0. -1.
         11    1    3    3    0    0  0.16529809918E+02 -0.18308560124E+02  0.15675744931E+01  0.24716295830E+02  0.00000000000E+00 0.  1.
         21    1    1    2  502  501  0.10880397690E+03 -0.36454700759E+02  0.33721120030E+03  0.35620028664E+03  0.00000000000E+00 0.  1.
<scales pt_clust_5="13000.00000" pt_clust_6="13000.00000" pt_clust_7="13000.00000" pt_clust_8="13000.00000" pt_clust_9="85.06313"></scales>
<clustering>
<clus scale="   79.149">  5  6 -1 -1</clus>
<clus scale="   93.379">  1  5  2 -1</clus>
<clus scale="   85.063">  1  9  2 -1</clus>
<clus scale="  102.471">  7  8 -1 -1</clus>
<clus scale="   93.379">  1  5  2 -1</clus>
</clustering>
</event>
<event>
 9    1  0.2802611E-005  0.9305009E+02  0.7546771E-02  0.1297939E+00
         -2   -1    0    0    0  501 -0.00000000000E+00  0.00000000000E+00  0.22652089883E+03  0.22652089883E+03  0.00000000000E+00 0.  1.
          1   -1    0    0  502    0  0.00000000000E+00 -0.00000000000E+00 -0.97450478879E+02  0.97450478879E+02  0.00000000000E+00 0. -1.
        -24    2    1    2    0    0 -0.70582499292E+01 -0.37317338622E+02  0.13924232256E+03  0.16516489126E+03  0.80303264312E+02 0.  0.
         23    2    1    2    0    0 -0.45045955849E+02  0.44594580618E+02 -0.10044254602E+02  0.10619638471E+03  0.84610698590E+02 0.  0.
         13    1    3    3    0    0  0.27273102157E+02  0.34827304572E+00  0.90960245720E+02  0.94961622232E+02  0.00000000000E+00 0. -1.
        -14    1    3    3    0    0 -0.34331352086E+02 -0.37665611667E+02  0.48282076842E+02  0.70203269030E+02  0.00000000000E+00 0.  1.
        -13    1    4    4    0    0  0.10339881977E+02  0.47766886982E+02 -0.13217933757E+02  0.50629066987E+02  0.00000000000E+00 0. -1.
         13    1    4    4    0    0 -0.55385837826E+02 -0.31723063636E+01  0.31736791550E+01  0.55567317721E+02  0.00000000000E+00 0.  1.
         21    1    1    2  502  501  0.52104205778E+02 -0.72772419964E+01 -0.12764800877E+00  0.52610101738E+02  0.00000000000E+00 0. -1.
<scales pt_clust_5="13000.00000" pt_clust_6="13000.00000" pt_clust_7="13000.00000" pt_clust_8="13000.00000" pt_clust_9="52.60995"></scales>
<clustering>
<clus scale="   52.610">  2  9  1 -1</clus>
<clus scale="   80.303">  5  6 -1 -1</clus>
<clus scale="   84.611">  7  8 -1 -1</clus>
<clus scale="   89.151">  1  5  2 -1</clus>
<clus scale="   52.610">  2  5  1 -1</clus>
</clustering>
</event>
<event>
 9    1  0.2802611E-005  0.1066864E+03  0.7546771E-02  0.1272523E+00
         -2   -1    0    0    0  501 -0.00000000000E+00  0.00000000000E+00  0.19984165413E+03  0.19984165413E+03  0.00000000000E+00 0.  1.
          1   -1    0    0  502    0  0.00000000000E+00 -0.00000000000E+00 -0.54237425418E+03  0.54237425418E+03  0.00000000000E+00 0. -1.
        -24    2    1    2    0    0 -0.64253759607E+01  0.44312535291E+02 -0.17264955898E+02  0.91737406371E+02  0.78184312911E+02 0.  0.
         23    2    1    2    0    0  0.53338648915E+02 -0.26445082666E+02 -0.47769390628E+03  0.48999838969E+03  0.91447252193E+02 0.  0.
         11    1    3    3    0    0  0.24255021088E+02  0.74681825652E+00 -0.28344310222E+02  0.37313050096E+02  0.00000000000E+00 0. -1.
        -12    1    3    3    0    0 -0.30680397049E+02  0.43565717034E+02  0.11079354324E+02  0.54424356275E+02  0.00000000000E+00 0.  1.
        -11    1    4    4    0    0 -0.13739174441E+02  0.21165777028E+02 -0.15183973086E+03  0.15392224952E+03  0.00000000000E+00 0.  1.
         11    1    4    4    0    0  0.67077823356E+02 -0.47610859694E+02 -0.32585417542E+03  0.33607614016E+03  0.00000000000E+00 0. -1.
         21    1    1    2  502  501 -0.46913272955E+02 -0.17867452624E+02  0.15242626213E+03  0.16048011225E+03  0.00000000000E+00 0.  1.
<scales pt_clust_5="13000.00000" pt_clust_6="13000.00000" pt_clust_7="13000.00000" pt_clust_8="13000.00000" pt_clust_9="50.20061"></scales>
<clustering>
<clus scale="   50.201">  1  9  2 -1</clus>
<clus scale="   78.184">  5  6 -1 -1</clus>
<clus scale="   91.447">  7  8 -1 -1</clus>
<clus scale="   95.562">  1  5  2 -1</clus>
<clus scale="  106.686">  2  5  1 -1</clus>
</clustering>
</event>
<event>
 9    1  0.2802611E-005  0.9336682E+02  0.7546771E-02  0.1301561E+00
         -2   -1    0    0    0  501 -0.00000000000E+00  0.00000000000E+00  0.31051539833E+02  0.31051539833E+02  0.00000000000E+00 0.  1.
          1   -1    0    0  502    0  0.00000000000E+00 -0.00000000000E+00 -0.53911241586E+03  0.53911241586E+03  0.00000000000E+00 0. -1.
        -24    2    1    2    0    0 -0.17635371448E+02  0.94602511065E+01 -0.92060566392E+02  0.12391984666E+03  0.80501415104E+02 0.  0.
         23    2    1    2    0    0 -0.99496047493E+01 -0.20963404488E+02 -0.40252448286E+03  0.41345918328E+03  0.91564610915E+02 0.  0.
         11    1    3    3    0    0  0.13838321066E+02 -0.25100341501E+02 -0.62107242134E+02  0.68402016044E+02  0.00000000000E+00 0. -1.
        -12    1    3    3    0    0 -0.31473692514E+02  0.34560592607E+02 -0.29953324258E+02  0.55517830613E+02  0.00000000000E+00 0.  1.
        -13    1    4    4    0    0  0.18781774757E+02  0.30262837768E+02 -0.16166497464E+03  0.16554201412E+03  0.00000000000E+00 0.  1.
         13    1    4    4    0    0 -0.28731379506E+02 -0.51226242256E+02 -0.24085950822E+03  0.24791716916E+03  0.00000000000E+00 0. -1.
         21    1    1    2  502  501  0.27584976198E+02  0.11503153381E+02 -0.13475826769E+02  0.32784925754E+02  0.00000000000E+00 0.  1.
<scales pt_clust_5="13000.00000" pt_clust_6="13000.00000" pt_clust_7="13000.00000" pt_clust_8="13000.00000" pt_clust_9="29.88735"></scales>
<clustering>
<clus scale="   29.887">  1  9  2 -1</clus>
<clus scale="   80.501">  5  6 -1 -1</clus>
<clus scale="   82.546">  1  5  2 -1</clus>
<clus scale="   91.565">  7  8 -1 -1</clus>
<clus scale="   93.367">  2  5  1 -1</clus>
</clustering>
</event>
<event>
 9    1  0.2802611E-005  0.9900179E+02  0.7546771E-02  0.1286733E+00
         -2   -1    0    0    0  501 -0.00000000000E+00  0.00000000000E+00  0.98553450188E+02  0.98553450188E+02  0.00000000000E+00 0.  1.
          1   -1    0    0  502    0  0.00000000000E+00 -0.00000000000E+00 -0.22316311331E+03  0.22316311331E+03  0.00000000000E+00 0. -1.
        -24    2    1    2    0    0 -0.46706976364E+02  0.10910871162E+02  0.26069141340E+01  0.95310339774E+02  0.82320569216E+02 0.  0.
         23    2    1    2    0    0  0.29227000486E+02  0.30755706362E+02 -0.14629462770E+03  0.17735905002E+03  0.90851436426E+02 0.  0.
         13    1    3    3    0    0 -0.70424643875E+02  0.11245175822E+02  0.48683312597E+01  0.71482760813E+02  0.00000000000E+00 0. -1.
        -14    1    3    3    0    0  0.23717667511E+02 -0.33430466067E+00 -0.22614171258E+01  0.23827578962E+02  0.00000000000E+00 0.  1.
        -11    1    4    4    0    0 -0.21664271266E+02  0.13750677523E+02 -0.10908531624E+03  0.11206260751E+03  0.00000000000E+00 0. -1.
         11    1    4    4    0    0  0.50891271752E+02  0.17005028839E+02 -0.37209311460E+02  0.65296442519E+02  0.00000000000E+00 0.  1.
         21    1    1    2  502  501  0.17479975878E+02 -0.41666577524E+02  0.19078050443E+02  0.49047173700E+02  0.00000000000E+00 0.  1.
<scales pt_clust_5="13000.00000" pt_clust_6="13000.00000" pt_clust_7="13000.00000" pt_clust_8="13000.00000" pt_clust_9="45.18466"></scales>
<clustering>
<clus scale="   45.185">  1  9  2 -1</clus>
<clus scale="   82.321">  5  6 -1 -1</clus>
<clus scale="   90.851">  7  8 -1 -1</clus>
<clus scale="   91.236">  1  5  2 -1</clus>
<clus scale="   99.002">  2  5  1 -1</clus>
</clustering>
</event>
<event>
 9    1  0.2802611E-005  0.1113873E+03  0.7546771E-02  0.1271867E+00
          1   -1    0    0  502    0  0.00000000000E+00  0.00000000000E+00  0.16370353454E+03  0.16370353454E+03  0.00000000000E+00 0. -1.
         -2   -1    0    0    0  501 -0.00000000000E+00 -0.00000000000E+00 -0.14837092918E+03  0.14837092918E+03  0.00000000000E+00 0.  1.
        -24    2    1    2    0    0  0.50407912813E+01  0.14891362779E+02 -0.29230005138E+02  0.88237554605E+02  0.81757633161E+02 0.  0.
         23    2    1    2    0    0 -0.29545840781E+02 -0.33893787930E+01  0.10714940243E+03  0.15564673671E+03  0.10890577400E+03 0.  0.
         11    1    3    3    0    0 -0.38162506976E+02  0.10484172501E+02 -0.10517882087E+02  0.40950221676E+02  0.00000000000E+00 0. -1.
        -12    1    3    3    0    0  0.43203298257E+02  0.44071902775E+01 -0.18712123051E+02  0.47287332929E+02  0.00000000000E+00 0.  1.
        -11    1    4    4    0    0  0.17101118437E+02 -0.39692353488E+02  0.14195638675E+02  0.45491178646E+02  0.00000000000E+00 0.  1.
         11    1    4    4    0    0 -0.46646959218E+02  0.36302974695E+02  0.92953763758E+02  0.11015555807E+03  0.00000000000E+00 0. -1.
         21    1    1    2  502  501  0.24505049500E+02 -0.11501983986E+02 -0.62586791942E+02  0.68190172401E+02  0.00000000000E+00 0.  1.
<scales pt_clust_5="13000.00000" pt_clust_6="13000.00000" pt_clust_7="13000.00000" pt_clust_8="13000.00000" pt_clust_9="27.07015"></scales>
<clustering>
<clus scale="   27.070">  2  9  1 -1</clus>
<clus scale="   81.758">  5  6 -1 -1</clus>
<clus scale="   85.035">  2  5  1 -1</clus>
<clus scale="  108.906">  7  8 -1 -1</clus>
<clus scale="  111.387">  1  5  2 -1</clus>
</clustering>
</event>
<event>
 9    1  0.2802611E-005  0.1720922E+03  0.7546771E-02  0.1198096E+00
         -4   -1    0    0    0  501 -0.00000000000E+00  0.00000000000E+00  0.66113541272E+03  0.66113541272E+03  0.00000000000E+00 0.  1.
          3   -1    0    0  502    0  0.00000000000E+00 -0.00000000000E+00 -0.17296306721E+03  0.17296306721E+03  0.00000000000E+00 0. -1.
        -24    2    1    2    0    0  0.60353606938E+02 -0.27560941581E+02  0.48663593972E+03  0.49775042078E+03  0.80862724352E+02 0.  0.
         23    2    1    2    0    0 -0.15677541767E+03  0.71065090699E+02 -0.71347877351E+02  0.20788835612E+03  0.92186063511E+02 0.  0.
         11    1    3    3    0    0  0.17574518803E+02 -0.31785160651E+02  0.69618406155E+02  0.78523134326E+02  0.00000000000E+00 0. -1.
        -12    1    3    3    0    0  0.42779088135E+02  0.42242190699E+01  0.41701753356E+03  0.41922728645E+03  0.00000000000E+00 0.  1.
        -13    1    4    4    0    0 -0.82497929817E+02  0.25771483653E+01 -0.67763223182E+02  0.10679140665E+03  0.00000000000E+00 0.  1.
         13    1    4    4    0    0 -0.74277487852E+02  0.68487942334E+02 -0.35846541687E+01  0.10109694947E+03  0.00000000000E+00 0. -1.
         21    1    1    2  502  501  0.96421810731E+02 -0.43504149118E+02  0.72884283144E+02  0.12845970304E+03  0.00000000000E+00 0.  1.
<scales pt_clust_5="13000.00000" pt_clust_6="13000.00000" pt_clust_7="13000.00000" pt_clust_8="13000.00000" pt_clust_9="145.31843"></scales>
<clustering>
<clus scale="   80.863">  5  6 -1 -1</clus>
<clus scale="   92.186">  7  8 -1 -1</clus>
<clus scale="  104.599">  1  5  2 -1</clus>
<clus scale="  145.318">  1  9  2 -1</clus>
<clus scale="  172.092">  2  5  1 -1</clus>
</clustering>
</event>
<event>
 9    1  0.2802611E-005  0.9258768E+02  0.7546771E-02  0.1302589E+00
         -2   -1    0    0    0  501 -0.00000000000E+00  0.00000000000E+00  0.25793902904E+03  0.25793902904E+03  0.00000000000E+00 0.  1.
          1   -1    0    0  502    0  0.00000000000E+00 -0.00000000000E+00 -0.18224304292E+03  0.18224304292E+03  0.00000000000E+00 0. -1.
         23    2    1    2    0    0 -0.12090365237E+02  0.15696401144E+02  0.20248970687E+03  0.22280589666E+03  0.90817576810E+02 0.  0.
        -24    2    1    2    0    0  0.18018289728E+02  0.40216202094E+01 -0.15883614278E+03  0.17928867782E+03  0.81084385357E+02 0.  0.
         11    1    4    4    0    0  0.17925970388E+02 -0.37514311963E+02 -0.76466281882E+02  0.87038820541E+02  0.00000000000E+00 0. -1.
        -12    1    4    4    0    0  0.92319339731E-01  0.41535932172E+02 -0.82369860898E+02  0.92249857282E+02  0.00000000000E+00 0.  1.
        -11    1    3    3    0    0  0.15964235133E+02 -0.12683420969E+02  0.45595009711E+01  0.20892941869E+02  0.00000000000E+00 0. -1.
         11    1    3    3    0    0 -0.28054600370E+02  0.28379822112E+02  0.19793020590E+03  0.20191295479E+03  0.00000000000E+00 0.  1.
         21    1    1    2  502  501 -0.59279244913E+01 -0.19718021353E+02  0.32042422031E+02  0.38087497482E+02  0.00000000000E+00 0. -1.
<scales pt_clust_5="13000.00000" pt_clust_6="13000.00000" pt_clust_7="13000.00000" pt_clust_8="13000.00000" pt_clust_9="20.58982"></scales>
<clustering>
<clus scale="   20.590">  1  9  2 -1</clus>
<clus scale="   81.084">  5  6 -1 -1</clus>
<clus scale="   83.062">  2  5  1 -1</clus>
<clus scale="   90.818">  7  8 -1 -1</clus>
<clus scale="   83.062">  2  5  1 -1</clus>
</clustering>
</event>
<event>
 9    1  0.2802611E-005  0.2016518E+03  0.7546771E-02  0.1149114E+00
         -2   -1    0    0    0  501 -0.00000000000E+00  0.00000000000E+00  0.42382792493E+03  0.42382792493E+03  0.00000000000E+00 0.  1.
          1   -1    0    0  502    0  0.00000000000E+00 -0.00000000000E+00 -0.38509659945E+03  0.38509659945E+03  0.00000000000E+00 0. -1.
         23    2    1    2    0    0 -0.12872217217E+03 -0.12519217115E+03  0.35093606460E+03  0.40448823742E+03  0.90620833437E+02 0.  0.
        -24    2    1    2    0    0  0.11381212739E+03  0.15176623066E+03 -0.31159514616E+03  0.37395905483E+03  0.82265730862E+02 0.  0.
         13    1    4    4    0    0  0.12051254221E+03  0.11929758944E+03 -0.22892581959E+03  0.28488983582E+03  0.00000000000E+00 0. -1.
        -14    1    4    4    0    0 -0.67004148219E+01  0.32468641215E+02 -0.82669326565E+02  0.89069219015E+02  0.00000000000E+00 0.  1.
        -13    1    3    3    0    0 -0.10433677997E+03 -0.40213006530E+02  0.17674711878E+03  0.20914777921E+03  0.00000000000E+00 0.  1.
         13    1    3    3    0    0 -0.24385392198E+02 -0.84979164616E+02  0.17418894581E+03  0.19534045821E+03  0.00000000000E+00 0. -1.
         21    1    1    2  502  501  0.14910044783E+02 -0.26574059512E+02 -0.60959295507E+00  0.30477232124E+02  0.00000000000E+00 0.  1.
<scales pt_clust_5="13000.00000" pt_clust_6="13000.00000" pt_clust_7="13000.00000" pt_clust_8="13000.00000" pt_clust_9="30.47114"></scales>
<clustering>
<clus scale="   30.471">  2  9  1 -1</clus>
<clus scale="   82.266">  5  6 -1 -1</clus>
<clus scale="   90.621">  7  8 -1 -1</clus>
<clus scale="  198.038">  2  5  1 -1</clus>
<clus scale="   30.471">  2  5  1 -1</clus>
</clustering>
</event>
<event>
 9    1  0.2802611E-005  0.2113901E+03  0.7546771E-02  0.1141051E+00
          3   -1    0    0  502    0  0.00000000000E+00  0.00000000000E+00  0.25551245292E+03  0.25551245292E+03  0.00000000000E+00 0. -1.
         -4   -1    0    0    0  501 -0.00000000000E+00 -0.00000000000E+00 -0.32379758719E+03  0.32379758719E+03  0.00000000000E+00 0.  1.
         23    2    1    2    0    0  0.78025384258E+02 -0.16208291599E+03 -0.19940142215E+03  0.28293736129E+03  0.89071830626E+02 0.  0.
        -24    2    1    2    0    0 -0.65799486657E+02  0.18303160598E+03  0.15538602497E+03  0.26206028568E+03  0.81857408604E+02 0.  0.
         13    1    4    4    0    0 -0.55653056511E+02  0.89220874001E+02  0.12407866422E+03  0.16264421899E+03  0.00000000000E+00 0. -1.
        -14    1    4    4    0    0 -0.10146430146E+02  0.93810731983E+02  0.31307360754E+02  0.99416066696E+02  0.00000000000E+00 0.  1.
        -13    1    3    3    0    0  0.60546172984E+02 -0.11295580620E+03 -0.19116074290E+03  0.23014622057E+03  0.00000000000E+00 0.  1.
         13    1    3    3    0    0  0.17479211274E+02 -0.49127109794E+02 -0.82406792480E+01  0.52791140714E+02  0.00000000000E+00 0. -1.
         21    1    1    2  502  501 -0.12225897600E+02 -0.20948689990E+02 -0.24269737097E+02  0.34312393143E+02  0.00000000000E+00 0. -1.
<scales pt_clust_5="13000.00000" pt_clust_6="13000.00000" pt_clust_7="13000.00000" pt_clust_8="13000.00000" pt_clust_9="24.25531"></scales>
<clustering>
<clus scale="   24.255">  2  9  1 -1</clus>
<clus scale="   81.857">  5  6 -1 -1</clus>
<clus scale="   89.072">  7  8 -1 -1</clus>
<clus scale="  208.453">  1  5  2 -1</clus>
<clus scale="  208.453">  1  5  2 -1</clus>
</clustering>
</event>
<event>
 9    1  0.2802611E-005  0.1132729E+03  0.7546771E-02  0.1258286E+00
         -2   -1    0    0    0  501 -0.00000000000E+00  0.00000000000E+00  0.40914005613E+03  0.40914005613E+03  0.00000000000E+00 0.  1.
          1   -1    0    0  502    0  0.00000000000E+00 -0.00000000000E+00 -0.43162106816E+02  0.43162106816E+02  0.00000000000E+00 0. -1.
         23    2    1    2    0    0 -0.37453638822E+02  0.42742555461E+02  0.19722557210E+03  0.22421246653E+03  0.90241912382E+02 0.  0.
        -24    2    1    2    0    0  0.34334046254E+02 -0.66682805607E+02  0.79165302889E+02  0.13530655505E+03  0.80095538968E+02 0.  0.
         11    1    4    4    0    0  0.46596757584E+02 -0.11976904357E+02  0.15661730300E+02  0.50596381800E+02  0.00000000000E+00 0. -1.
        -12    1    4    4    0    0 -0.12262711329E+02 -0.54705901250E+02  0.63503572589E+02  0.84710173251E+02  0.00000000000E+00 0.  1.
        -13    1    3    3    0    0 -0.57516615589E+02  0.15807042489E+02  0.17245562370E+03  0.18248004221E+03  0.00000000000E+00 0.  1.
         13    1    3    3    0    0  0.20062976767E+02  0.26935512972E+02  0.24769948403E+02  0.41732424321E+02  0.00000000000E+00 0. -1.
         21    1    1    2  502  501  0.31195925678E+01  0.23940250146E+02  0.89587074323E+02  0.92783141360E+02  0.00000000000E+00 0. -1.
<scales pt_clust_5="13000.00000" pt_clust_6="13000.00000" pt_clust_7="13000.00000" pt_clust_8="13000.00000" pt_clust_9="24.14265"></scales>
<clustering>
<clus scale="   24.143">  1  9  2 -1</clus>
<clus scale="   80.096">  5  6 -1 -1</clus>
<clus scale="   90.242">  7  8 -1 -1</clus>
<clus scale="  105.368">  2  5  1 -1</clus>
<clus scale="  105.368">  2  5  1 -1</clus>
</clustering>
</event>
<event>
 9    1  0.2802611E-005  0.1295146E+03  0.7546771E-02  0.1243627E+00
          1   -1    0    0  502    0  0.00000000000E+00  0.00000000000E+00  0.77354007529E+02  0.77354007529E+02  0.00000000000E+00 0. -1.
         -2   -1    0    0    0  501 -0.00000000000E+00 -0.00000000000E+00 -0.67975343938E+03  0.67975343938E+03  0.00000000000E+00 0.  1.
        -24    2    1    2    0    0  0.19993115335E+02 -0.52853311325E+01 -0.46687562195E+03  0.47422282284E+03  0.80540548452E+02 0.  0.
         23    2    1    2    0    0 -0.53003076878E+02 -0.22730545796E+01  0.11988623901E+02  0.13153501263E+03  0.11976326444E+03 0.  0.
         11    1    3    3    0    0  0.44958191765E+02 -0.96853626608E+01 -0.16514049377E+03  0.17142470049E+03  0.00000000000E+00 0. -1.
        -12    1    3    3    0    0 -0.24965076430E+02  0.44000315283E+01 -0.30173512819E+03  0.30279812235E+03  0.00000000000E+00 0.  1.
        -13    1    4    4    0    0 -0.53060098643E+02 -0.52162524365E+02  0.27444237582E+02  0.79306299829E+02  0.00000000000E+00 0. -1.
         13    1    4    4    0    0  0.57021765108E-01  0.49889469786E+02 -0.15455613681E+02  0.52228712805E+02  0.00000000000E+00 0.  1.
         21    1    1    2  502  501  0.33009961542E+02  0.75583857121E+01 -0.14751243379E+03  0.15134961143E+03  0.00000000000E+00 0.  1.
<scales pt_clust_5="13000.00000" pt_clust_6="13000.00000" pt_clust_7="13000.00000" pt_clust_8="13000.00000" pt_clust_9="33.86424"></scales>
<clustering>
<clus scale="   33.864">  2  9  1 -1</clus>
<clus scale="   80.541">  5  6 -1 -1</clus>
<clus scale="   94.433">  2  5  1 -1</clus>
<clus scale="  119.763">  7  8 -1 -1</clus>
<clus scale="  129.515">  1  5  2 -1</clus>
</clustering>
</event>
<event>
 9    1  0.2802611E-005  0.1182298E+03  0.7546771E-02  0.1254665E+00
          1   -1    0    0  502    0  0.00000000000E+00  0.00000000000E+00  0.42081763726E+03  0.42081763726E+03  0.00000000000E+00 0. -1.
         -2   -1    0    0    0  501 -0.00000000000E+00 -0.00000000000E+00 -0.14425358423E+03  0.14425358423E+03  0.00000000000E+00 0.  1.
         23    2    1    2    0    0  0.16073704815E+02  0.38711825917E+00 -0.77524151715E+02  0.13110876486E+03  0.10450358977E+03 0.  0.
        -24    2    1    2    0    0  0.25205823295E+02 -0.53974147243E+02  0.35179888509E+03  0.36628077447E+03  0.82768400343E+02 0.  0.
         11    1    4    4    0    0  0.47374549368E+02 -0.10969954918E+02  0.23275905554E+03  0.23778449439E+03  0.00000000000E+00 0. -1.
        -12    1    4    4    0    0 -0.22168726073E+02 -0.43004192325E+02  0.11903982955E+03  0.12849628007E+03  0.00000000000E+00 0.  1.
        -11    1    3    3    0    0  0.43651275495E+02 -0.22651477970E+02 -0.81257655873E+02  0.94980681954E+02  0.00000000000E+00 0.  1.
         11    1    3    3    0    0 -0.27577570680E+02  0.23038596229E+02  0.37335041582E+01  0.36128082901E+02  0.00000000000E+00 0. -1.
         21    1    1    2  502  501 -0.41279528110E+02  0.53587028984E+02  0.22893196549E+01  0.67681682166E+02  0.00000000000E+00 0.  1.
<scales pt_clust_5="13000.00000" pt_clust_6="13000.00000" pt_clust_7="13000.00000" pt_clust_8="13000.00000" pt_clust_9="67.64295"></scales>
<clustering>
<clus scale="   67.643">  2  9  1 -1</clus>
<clus scale="   82.768">  5  6 -1 -1</clus>
<clus scale="   99.538">  1  5  2 -1</clus>
<clus scale="  104.504">  7  8 -1 -1</clus>
<clus scale="   99.538">  1  5  2 -1</clus>
</clustering>
</event>
<event>
 9    1  0.2802611E-005  0.3093091E+03  0.7546771E-02  0.1081204E+00
         -2   -1    0    0    0  501 -0.00000000000E+00  0.00000000000E+00  0.26136357064E+03  0.26136357064E+03  0.00000000000E+00 0.  1.
          1   -1    0    0  502    0  0.00000000000E+00 -0.00000000000E+00 -0.15953053190E+04  0.15953053190E+04  0.00000000000E+00 0. -1.
         23    2    1    2    0    0  0.10638495981E+03 -0.25497392131E+03  0.11732889625E+03  0.31518719439E+03  0.96163597026E+02 0.  0.
        -24    2    1    2    0    0 -0.10389159732E+03  0.27639815393E+03 -0.14767130362E+04  0.15081270869E+04  0.81095718777E+02 0.  0.
         11    1    4    4    0    0 -0.11547321565E+03  0.26637518779E+03 -0.14204480527E+04  0.14498146345E+04  0.00000000000E+00 0. -1.
        -12    1    4    4    0    0  0.11581618330E+02  0.10022966145E+02 -0.56264983520E+02  0.58312452393E+02  0.00000000000E+00 0.  1.
        -13    1    3    3    0    0  0.90959024546E+02 -0.10706390805E+03  0.80761081854E+02  0.16204498417E+03  0.00000000000E+00 0.  1.
         13    1    3    3    0    0  0.15425935260E+02 -0.14791001326E+03  0.36567814392E+02  0.15314221022E+03  0.00000000000E+00 0. -1.
         21    1    1    2  502  501 -0.24933624827E+01 -0.21424232623E+02  0.25442391636E+02  0.33354608259E+02  0.00000000000E+00 0. -1.
<scales pt_clust_5="13000.00000" pt_clust_6="13000.00000" pt_clust_7="13000.00000" pt_clust_8="13000.00000" pt_clust_9="21.56883"></scales>
<clustering>
<clus scale="   21.569">  1  9  2 -1</clus>
<clus scale="   81.096">  5  6 -1 -1</clus>
<clus scale="   96.164">  7  8 -1 -1</clus>
<clus scale="  304.961">  2  5  1 -1</clus>
<clus scale="  304.961">  2  5  1 -1</clus>
</clustering>
</event>
<event>
 9    1  0.2802611E-005  0.1004759E+03  0.7546771E-02  0.1284619E+00
         -2   -1    0    0    0  501 -0.00000000000E+00  0.00000000000E+00  0.64846945652E+03  0.64846945652E+03  0.00000000000E+00 0.  1.
          1   -1    0    0  502    0  0.00000000000E+00 -0.00000000000E+00 -0.21862247474E+02  0.21862247474E+02  0.00000000000E+00 0. -1.
        -24    2    1    2    0    0  0.13076730953E+02 -0.22179754197E+02  0.33916428239E+03  0.34986278597E+03  0.81906142418E+02 0.  0.
         23    2    1    2    0    0 -0.22135893647E+02  0.40204209198E+02  0.15336598871E+03  0.18488287636E+03  0.92488784471E+02 0.  0.
         11    1    3    3    0    0  0.18947927020E+02 -0.51454103458E+02  0.24575796272E+03  0.25180056581E+03  0.00000000000E+00 0. -1.
        -12    1    3    3    0    0 -0.58711960672E+01  0.29274349261E+02  0.93406319670E+02  0.98062220157E+02  0.00000000000E+00 0.  1.
        -13    1    4    4    0    0 -0.45583120203E+02  0.55305535922E+02  0.85851265251E+02  0.11183453356E+03  0.00000000000E+00 0.  1.
         13    1    4    4    0    0  0.23447226557E+02 -0.15101326724E+02  0.67514723463E+02  0.73048342803E+02  0.00000000000E+00 0. -1.
         21    1    1    2  502  501  0.90591626937E+01 -0.18024455000E+02  0.13407693794E+03  0.13558604166E+03  0.00000000000E+00 0. -1.
<scales pt_clust_5="13000.00000" pt_clust_6="13000.00000" pt_clust_7="13000.00000" pt_clust_8="13000.00000" pt_clust_9="20.17299"></scales>
<clustering>
<clus scale="   20.173">  1  9  2 -1</clus>
<clus scale="   81.906">  5  6 -1 -1</clus>
<clus scale="   90.829">  1  5  2 -1</clus>
<clus scale="   92.489">  7  8 -1 -1</clus>
<clus scale="  100.476">  2  5  1 -1</clus>
</clustering>
</event>
<event>
 9    1  0.2802611E-005  0.1188337E+03  0.7546771E-02  0.1247847E+00
          3   -1    0    0  502    0  0.00000000000E+00  0.00000000000E+00  0.12308573158E+03  0.12308573158E+03  0.00000000000E+00 0. -1.
         -4   -1    0    0    0  501 -0.00000000000E+00 -0.00000000000E+00 -0.23981740596E+03  0.23981740596E+03  0.00000000000E+00 0.  1.
        -24    2    1    2    0    0 -0.30272895022E+01  0.90524389755E+02 -0.16110991346E+03  0.20201261658E+03  0.81540563023E+02 0.  0.
         23    2    1    2    0    0 -0.42487793392E+01 -0.33063065322E+02  0.33607432565E+02  0.10197740480E+03  0.90325595219E+02 0.  0.
         11    1    3    3    0    0 -0.16991703400E+01  0.21432506987E+02 -0.11934816617E+03  0.12126922241E+03  0.00000000000E+00 0. -1.
        -12    1    3    3    0    0 -0.13281191622E+01  0.69091882768E+02 -0.41761747295E+02  0.80743394170E+02  0.00000000000E+00 0.  1.
        -13    1    4    4    0    0  0.98314320352E+01 -0.62579325299E+02  0.18793125961E+02  0.66075794313E+02  0.00000000000E+00 0. -1.
         13    1    4    4    0    0 -0.14080211374E+02  0.29516259976E+02  0.14814306605E+02  0.35901610486E+02  0.00000000000E+00 0.  1.
         21    1    1    2  502  501  0.72760688414E+01 -0.57461324433E+02  0.10770806513E+02  0.58913116165E+02  0.00000000000E+00 0. -1.
<scales pt_clust_5="13000.00000" pt_clust_6="13000.00000" pt_clust_7="13000.00000" pt_clust_8="13000.00000" pt_clust_9="57.92016"></scales>
<clustering>
<clus scale="   57.920">  1  9  2 -1</clus>
<clus scale="   81.541">  5  6 -1 -1</clus>
<clus scale="   90.326">  7  8 -1 -1</clus>
<clus scale="  112.301">  2  5  1 -1</clus>
<clus scale="   57.920">  1  5  2 -1</clus>
</clustering>
</event>
<event>
 9    1  0.2802611E-005  0.1045510E+03  0.7546771E-02  0.1275965E+00
          1   -1    0    0  502    0  0.00000000000E+00  0.00000000000E+00  0.59580480963E+03  0.59580480963E+03  0.00000000000E+00 0. -1.
         -2   -1    0    0    0  501 -0.00000000000E+00 -0.00000000000E+00 -0.45144746267E+02  0.45144746267E+02  0.00000000000E+00 0.  1.
        -24    2    1    2    0    0  0.79169674130E+01  0.13218164755E+02  0.43664853601E+02  0.92623947983E+02  0.80219561501E+02 0.  0.
         23    2    1    2    0    0 -0.12404702114E+02 -0.58673583445E+02  0.48587956640E+03  0.49800458601E+03  0.91286081169E+02 0.  0.
         13    1    3    3    0    0 -0.33131463481E+02  0.21826263065E+02  0.23141369865E+02  0.45930410742E+02  0.00000000000E+00 0. -1.
        -14    1    3    3    0    0  0.41048430894E+02 -0.86080983100E+01  0.20523483736E+02  0.46693537240E+02  0.00000000000E+00 0.  1.
        -13    1    4    4    0    0 -0.49067377957E+02 -0.15069426928E+02  0.19821683142E+03  0.20475499375E+03  0.00000000000E+00 0. -1.
         13    1    4    4    0    0  0.36662675843E+02 -0.43604156517E+02  0.28766273498E+03  0.29324959226E+03  0.00000000000E+00 0.  1.
         21    1    1    2  502  501  0.44877347008E+01  0.45455418690E+02  0.21115643370E+02  0.50321021909E+02  0.00000000000E+00 0.  1.
<scales pt_clust_5="13000.00000" pt_clust_6="13000.00000" pt_clust_7="13000.00000" pt_clust_8="13000.00000" pt_clust_9="45.67641"></scales>
<clustering>
<clus scale="   45.676">  2  9  1 -1</clus>
<clus scale="   80.220">  5  6 -1 -1</clus>
<clus scale="   91.286">  7  8 -1 -1</clus>
<clus scale="   95.042">  2  5  1 -1</clus>
<clus scale="  104.551">  1  5  2 -1</clus>
</clustering>
</event>
<event>
 9    1  0.2802611E-005  0.9485473E+02  0.7546771E-02  0.1299579E+00
         -2   -1    0    0    0  501 -0.00000000000E+00  0.00000000000E+00  0.87501471230E+02  0.87501471230E+02  0.00000000000E+00 0.  1.
          1   -1    0    0  502    0  0.00000000000E+00 -0.00000000000E+00 -0.16773979726E+03  0.16773979726E+03  0.00000000000E+00 0. -1.
        -24    2    1    2    0    0 -0.97921473747E+01 -0.66036094746E+01  0.21300110686E+02  0.80849283720E+02  0.77093567529E+02 0.  0.
         23    2    1    2    0    0  0.11274400097E+02  0.30923210246E+02 -0.11189858789E+03  0.14791609409E+03  0.90964388036E+02 0.  0.
         11    1    3    3    0    0  0.29551417145E+02 -0.15081856005E+02  0.23317791394E+02  0.40552041025E+02  0.00000000000E+00 0. -1.
        -12    1    3    3    0    0 -0.39343564519E+02  0.84782465306E+01 -0.20176807075E+01  0.40297242694E+02  0.00000000000E+00 0.  1.
        -11    1    4    4    0    0  0.16880580769E+01  0.52874202018E+02 -0.26394344940E+02  0.59120150744E+02  0.00000000000E+00 0.  1.
         11    1    4    4    0    0  0.95863420204E+01 -0.21950991773E+02 -0.85504242946E+02  0.88795943347E+02  0.00000000000E+00 0. -1.
         21    1    1    2  502  501 -0.14822527226E+01 -0.24319600771E+02  0.10360151173E+02  0.26475890677E+02  0.00000000000E+00 0.  1.
<scales pt_clust_5="13000.00000" pt_clust_6="13000.00000" pt_clust_7="13000.00000" pt_clust_8="13000.00000" pt_clust_9="24.36473"></scales>
<clustering>
<clus scale="   24.365">  1  9  2 -1</clus>
<clus scale="   77.094">  5  6 -1 -1</clus>
<clus scale="   81.648">  1  5  2 -1</clus>
<clus scale="   90.964">  7  8 -1 -1</clus>
<clus scale="   94.855">  2  5  1 -1</clus>
</clustering>
</event>
<event>
 9    1  0.2802611E-005  0.1510272E+03  0.7546771E-02  0.1201303E+00
         -2   -1    0    0    0  501 -0.00000000000E+00  0.00000000000E+00  0.58056351169E+02  0.58056351169E+02  0.00000000000E+00 0.  1.
          1   -1    0    0  502    0  0.00000000000E+00 -0.00000000000E+00 -0.64051064748E+03  0.64051064748E+03  0.00000000000E+00 0. -1.
         23    2    1    2    0    0  0.12485180703E+03  0.15585669412E+02 -0.88342616479E+02  0.17867962223E+03  0.91055492447E+02 0.  0.
        -24    2    1    2    0    0 -0.99658915492E+02 -0.26814872292E+02 -0.44369105026E+03  0.46241549923E+03  0.79469547841E+02 0.  0.
         13    1    4    4    0    0 -0.10926502387E+03 -0.26897238533E+02 -0.43546303325E+03  0.44976700658E+03  0.00000000000E+00 0. -1.
        -14    1    4    4    0    0  0.96061083779E+01  0.82366241495E-01 -0.82280170111E+01  0.12648492649E+02  0.00000000000E+00 0.  1.
        -13    1    3    3    0    0  0.11696802719E+03 -0.20170260005E+02 -0.67012295593E+02  0.13630482946E+03  0.00000000000E+00 0. -1.
         13    1    3    3    0    0  0.78837798329E+01  0.35755929416E+02 -0.21330320885E+02  0.42374792766E+02  0.00000000000E+00 0.  1.
         21    1    1    2  502  501 -0.25192891535E+02  0.11229202880E+02 -0.50420629570E+02  0.57471877188E+02  0.00000000000E+00 0. -1.
<scales pt_clust_5="13000.00000" pt_clust_6="13000.00000" pt_clust_7="13000.00000" pt_clust_8="13000.00000" pt_clust_9="27.58218"></scales>
<clustering>
<clus scale="   27.582">  2  9  1 -1</clus>
<clus scale="   79.470">  5  6 -1 -1</clus>
<clus scale="   91.055">  7  8 -1 -1</clus>
<clus scale="  144.338">  2  5  1 -1</clus>
<clus scale="   27.582">  2  5  1 -1</clus>
</clustering>
</event>
<event>
 9    1  0.2802611E-005  0.1236576E+03  0.7546771E-02  0.1263105E+00
          1   -1    0    0  502    0  0.00000000000E+00  0.00000000000E+00  0.24092010484E+03  0.24092010484E+03  0.00000000000E+00 0. -1.
         -2   -1    0    0    0  501 -0.00000000000E+00 -0.00000000000E+00 -0.17758799589E+03  0.17758799589E+03  0.00000000000E+00 0.  1.
         23    2    1    2    0    0  0.96479451363E+02 -0.28448881102E+01 -0.22498377436E+02  0.13601541430E+03  0.93153840583E+02 0.  0.
        -24    2    1    2    0    0 -0.21205761029E+02  0.21904288684E+02  0.15935116178E+03  0.17555962832E+03  0.67073900816E+02 0.  0.
         13    1    4    4    0    0 -0.34551152572E+02  0.34320076560E+02  0.14302724270E+03  0.15109084008E+03  0.00000000000E+00 0. -1.
        -14    1    4    4    0    0  0.13345391543E+02 -0.12415787876E+02  0.16323919076E+02  0.24468788242E+02  0.00000000000E+00 0.  1.
        -13    1    3    3    0    0  0.12281990616E+02 -0.32769394096E+02 -0.30338186944E+02  0.46315073896E+02  0.00000000000E+00 0.  1.
         13    1    3    3    0    0  0.84197460747E+02  0.29924505986E+02  0.78398095087E+01  0.89700340400E+02  0.00000000000E+00 0. -1.
         21    1    1    2  502  501 -0.75273690334E+02 -0.19059400574E+02 -0.73520675400E+02  0.10693305812E+03  0.00000000000E+00 0. -1.
<scales pt_clust_5="13000.00000" pt_clust_6="13000.00000" pt_clust_7="13000.00000" pt_clust_8="13000.00000" pt_clust_9="81.32381"></scales>
<clustering>
<clus scale="   67.074">  5  6 -1 -1</clus>
<clus scale="   73.678">  1  5  2 -1</clus>
<clus scale="   81.324">  2  9  1 -1</clus>
<clus scale="   93.154">  7  8 -1 -1</clus>
<clus scale="   73.678">  1  5  2 -1</clus>
</clustering>
</event>
<event>
 9    1  0.2802611E-005  0.1050245E+03  0.7546771E-02  0.1271748E+00
          1   -1    0    0  502    0  0.00000000000E+00  0.00000000000E+00  0.33795782709E+02  0.33795782709E+02  0.00000000000E+00 0. -1.
         -2   -1    0    0    0  501 -0.00000000000E+00 -0.00000000000E+00 -0.53826372181E+03  0.53826372181E+03  0.00000000000E+00 0.  1.
        -24    2    1    2    0    0 -0.26268747346E+02  0.20317331784E+02 -0.31566120958E+03  0.32933782179E+03  0.87855338886E+02 0.  0.
         23    2    1    2    0    0  0.59160863857E+02 -0.82448441019E+01 -0.10406374999E+03  0.15102103460E+03  0.91706616789E+02 0.  0.
         11    1    3    3    0    0  0.87832771349E+01 -0.21038123827E+02 -0.25709532666E+02  0.34361732804E+02  0.00000000000E+00 0. -1.
        -12    1    3    3    0    0 -0.35052024481E+02  0.41355455611E+02 -0.28995167692E+03  0.29497608899E+03  0.00000000000E+00 0.  1.
        -13    1    4    4    0    0  0.37317334489E+02  0.30823118437E+02 -0.93112607253E+02  0.10494096299E+03  0.00000000000E+00 0. -1.
         13    1    4    4    0    0  0.21843529368E+02 -0.39067962539E+02 -0.10951142732E+02  0.46080071607E+02  0.00000000000E+00 0.  1.
         21    1    1    2  502  501 -0.32892116511E+02 -0.12072487682E+02 -0.84742979536E+02  0.91700648133E+02  0.00000000000E+00 0.  1.
<scales pt_clust_5="13000.00000" pt_clust_6="13000.00000" pt_clust_7="13000.00000" pt_clust_8="13000.00000" pt_clust_9="35.03764"></scales>
<clustering>
<clus scale="   35.038">  2  9  1 -1</clus>
<clus scale="   87.855">  5  6 -1 -1</clus>
<clus scale="   91.707">  7  8 -1 -1</clus>
<clus scale="  101.679">  2  5  1 -1</clus>
<clus scale="  105.025">  1  5  2 -1</clus>
</clustering>
</event>
<event>
 9    1  0.2802611E-005  0.8797831E+02  0.7546771E-02  0.1311384E+00
          1   -1    0    0  502    0  0.00000000000E+00  0.00000000000E+00  0.58110157524E+03  0.58110157524E+03  0.00000000000E+00 0. -1.
         -2   -1    0    0    0  501 -0.00000000000E+00 -0.00000000000E+00 -0.43196227211E+02  0.43196227211E+02  0.00000000000E+00 0.  1.
         23    2    1    2    0    0 -0.28599989450E+02  0.26871575423E+02  0.55262250849E+02  0.99673604495E+02  0.73081256844E+02 0.  0.
        -24    2    1    2    0    0  0.10739629420E+02 -0.37348963937E+02  0.49343991406E+03  0.50127169520E+03  0.79246948697E+02 0.  0.
         11    1    4    4    0    0 -0.54819660171E+00 -0.61552693576E+02  0.34544179356E+03  0.35088326740E+03  0.00000000000E+00 0. -1.
        -12    1    4    4    0    0  0.11287826021E+02  0.24203729638E+02  0.14799812050E+03  0.15038842780E+03  0.00000000000E+00 0.  1.
        -13    1    3    3    0    0 -0.46784917491E+01 -0.21194374133E+02  0.37123304958E+02  0.43002669114E+02  0.00000000000E+00 0. -1.
         13    1    3    3    0    0 -0.23921497700E+02  0.48065949556E+02  0.18138945891E+02  0.56670935381E+02  0.00000000000E+00 0.  1.
         21    1    1    2  502  501  0.17860360030E+02  0.10477388514E+02 -0.10796816874E+02  0.23352502758E+02  0.00000000000E+00 0.  1.
<scales pt_clust_5="13000.00000" pt_clust_6="13000.00000" pt_clust_7="13000.00000" pt_clust_8="13000.00000" pt_clust_9="20.70672"></scales>
<clustering>
<clus scale="   20.707">  2  9  1 -1</clus>
<clus scale="   73.081">  7  8 -1 -1</clus>
<clus scale="   79.247">  5  6 -1 -1</clus>
<clus scale="   82.468">  2  7  1 -1</clus>
<clus scale="   87.978">  1  5  2 -1</clus>
</clustering>
</event>
<event>
 9    1  0.7966870E-005  0.1179116E+03  0.7546771E-02  0.1249920E+00
          1   -1    0    0  502    0  0.00000000000E+00  0.00000000000E+00  0.54624017632E+03  0.54624017632E+03  0.00000000000E+00 0. -1.
         -2   -1    0    0    0  501 -0.00000000000E+00 -0.00000000000E+00 -0.20700543704E+03  0.20700543704E+03  0.00000000000E+00 0.  1.
         23    2    1    2    0    0 -0.33977720363E+02 -0.55458427146E+02 -0.17554184770E+03  0.20785303858E+03  0.90320666117E+02 0.  0.
        -24    2    1    2    0    0  0.56812650532E+02  0.50801423990E+02  0.50968143907E+03  0.52153712999E+03  0.80108343411E+02 0.  0.
         11    1    4    4    0    0  0.68072350338E+02  0.61721773592E+02  0.46940384371E+03  0.47831306767E+03  0.00000000000E+00 0. -1.
        -12    1    4    4    0    0 -0.11259699806E+02 -0.10920349603E+02  0.40277595363E+02  0.43224062319E+02  0.00000000000E+00 0.  1.
        -13    1    3    3    0    0 -0.56408354403E+02 -0.55584519482E+02 -0.16509994992E+03  0.18311071710E+03  0.00000000000E+00 0.  1.
         13    1    3    3    0    0  0.22430634040E+02  0.12609233596E+00 -0.10441897779E+02  0.24742321475E+02  0.00000000000E+00 0. -1.
         21    1    1    2  502  501 -0.22834930169E+02  0.46570031567E+01  0.50951479093E+01  0.23855444797E+02  0.00000000000E+00 0. -1.
<scales pt_clust_5="13000.00000" pt_clust_6="13000.00000" pt_clust_7="13000.00000" pt_clust_8="13000.00000" pt_clust_9="23.30497"></scales>
<clustering>
<clus scale="   23.305">  2  9  1 -1</clus>
<clus scale="   80.108">  5  6 -1 -1</clus>
<clus scale="   90.321">  7  8 -1 -1</clus>
<clus scale="  110.284">  1  5  2 -1</clus>
<clus scale="  110.284">  1  5  2 -1</clus>
</clustering>
</event>
<event>
 9    1  0.9819152E-005  0.9853308E+02  0.7546771E-02  0.1289963E+00
          1   -1    0    0  502    0  0.00000000000E+00  0.00000000000E+00  0.64984513403E+03  0.64984513403E+03  0.00000000000E+00 0. -1.
         -2   -1    0    0    0  501 -0.00000000000E+00 -0.00000000000E+00 -0.20699728202E+03  0.20699728202E+03  0.00000000000E+00 0.  1.
         23    2    1    2    0    0 -0.41525077038E+02  0.39563734480E+02 -0.17665907302E+03  0.20693279879E+03  0.91231211905E+02 0.  0.
        -24    2    1    2    0    0  0.18660586235E+02 -0.31880043914E+02  0.61971399336E+03  0.62578769947E+03  0.78741707929E+02 0.  0.
         13    1    4    4    0    0  0.12968123604E+02 -0.47043908481E+02  0.20388946658E+03  0.20964783838E+03  0.00000000000E+00 0. -1.
        -14    1    4    4    0    0  0.56924626314E+01  0.15163864567E+02  0.41582452678E+03  0.41613986109E+03  0.00000000000E+00 0.  1.
        -11    1    3    3    0    0 -0.53254491389E+02  0.62222246746E+02 -0.14147635105E+03  0.16347234246E+03  0.00000000000E+00 0.  1.
         11    1    3    3    0    0  0.11729414351E+02 -0.22658512266E+02 -0.35182721974E+02  0.43460456333E+02  0.00000000000E+00 0. -1.
         21    1    1    2  502  501  0.22864490803E+02 -0.76836905668E+01 -0.20706831805E+00  0.24121917786E+02  0.00000000000E+00 0.  1.
<scales pt_clust_5="13000.00000" pt_clust_6="13000.00000" pt_clust_7="13000.00000" pt_clust_8="13000.00000" pt_clust_9="24.12103"></scales>
<clustering>
<clus scale="   24.121">  2  9  1 -1</clus>
<clus scale="   78.742">  5  6 -1 -1</clus>
<clus scale="   87.097">  1  5  2 -1</clus>
<clus scale="   91.231">  7  8 -1 -1</clus>
<clus scale="   87.097">  1  5  2 -1</clus>
</clustering>
</event>
<event>
 9    1  0.2802611E-005  0.1189237E+03  0.7546771E-02  0.1264376E+00
         -2   -1    0    0    0  501 -0.00000000000E+00  0.00000000000E+00  0.75815815440E+02  0.75815815440E+02  0.00000000000E+00 0.  1.
          1   -1    0    0  502    0  0.00000000000E+00 -0.00000000000E+00 -0.20880701294E+03  0.20880701294E+03  0.00000000000E+00 0. -1.
         23    2    1    2    0    0 -0.60912432765E+01 -0.32744812939E+02 -0.25183467531E+02  0.12089990409E+03  0.11346036204E+03 0.  0.
        -24    2    1    2    0    0 -0.22146602330E+02  0.31705495937E+02 -0.10768632233E+03  0.13546569788E+03  0.72518279188E+02 0.  0.
         13    1    4    4    0    0 -0.48438560610E+02  0.26843631460E+02 -0.69983599478E+02  0.89244489465E+02  0.00000000000E+00 0. -1.
        -14    1    4    4    0    0  0.26291958281E+02  0.48618644769E+01 -0.37702722854E+02  0.46221208412E+02  0.00000000000E+00 0.  1.
        -13    1    3    3    0    0 -0.11638528040E+02 -0.65755418945E+02 -0.46357987185E+02  0.81291410563E+02  0.00000000000E+00 0. -1.
         13    1    3    3    0    0  0.55472847636E+01  0.33010606006E+02  0.21174519654E+02  0.39608493530E+02  0.00000000000E+00 0.  1.
         21    1    1    2  502  501  0.28237845606E+02  0.10393170022E+01 -0.12140763342E+00  0.28257226405E+02  0.00000000000E+00 0.  1.
<scales pt_clust_5="13000.00000" pt_clust_6="13000.00000" pt_clust_7="13000.00000" pt_clust_8="13000.00000" pt_clust_9="28.25697"></scales>
<clustering>
<clus scale="   28.257">  1  9  2 -1</clus>
<clus scale="   72.518">  5  6 -1 -1</clus>
<clus scale="   80.799">  2  5  1 -1</clus>
<clus scale="  113.460">  7  8 -1 -1</clus>
<clus scale="   80.799">  2  5  1 -1</clus>
</clustering>
</event>
<event>
 9    1  0.2802611E-005  0.1022892E+03  0.7546771E-02  0.1278943E+00
         -2   -1    0    0    0  501 -0.00000000000E+00  0.00000000000E+00  0.93715769938E+02  0.93715769938E+02  0.00000000000E+00 0.  1.
          1   -1    0    0  502    0  0.00000000000E+00 -0.00000000000E+00 -0.57520772576E+03  0.57520772576E+03  0.00000000000E+00 0. -1.
         23    2    1    2    0    0  0.65597778582E+01 -0.26337103710E+02  0.52029790696E+02  0.10566222582E+03  0.87867702414E+02 0.  0.
        -24    2    1    2    0    0  0.24795843620E+02  0.48208949288E+02 -0.50831847219E+03  0.51747090338E+03  0.80308966026E+02 0.  0.
         11    1    4    4    0    0  0.26943453621E+02  0.56460572805E+02 -0.21220034649E+03  0.22123004549E+03  0.00000000000E+00 0. -1.
        -12    1    4    4    0    0 -0.21476100011E+01 -0.82516235176E+01 -0.29611812569E+03  0.29624085789E+03  0.00000000000E+00 0.  1.
        -11    1    3    3    0    0 -0.20677275734E+02 -0.46005334167E+02  0.92703771836E+01  0.51283334493E+02  0.00000000000E+00 0.  1.
         11    1    3    3    0    0  0.27237053592E+02  0.19668230458E+02  0.42759413512E+02  0.54378891324E+02  0.00000000000E+00 0. -1.
         21    1    1    2  502  501 -0.31355621478E+02 -0.21871845578E+02 -0.25203274328E+02  0.45790366499E+02  0.00000000000E+00 0. -1.
<scales pt_clust_5="13000.00000" pt_clust_6="13000.00000" pt_clust_7="13000.00000" pt_clust_8="13000.00000" pt_clust_9="38.23026"></scales>
<clustering>
<clus scale="   38.230">  1  9  2 -1</clus>
<clus scale="   80.309">  5  6 -1 -1</clus>
<clus scale="   87.868">  7  8 -1 -1</clus>
<clus scale="   95.874">  2  5  1 -1</clus>
<clus scale="   95.874">  2  5  1 -1</clus>
</clustering>
</event>
<event>
 9    1  0.2802611E-005  0.1257137E+03  0.7546771E-02  0.1237686E+00
          3   -1    0    0  502    0  0.00000000000E+00  0.00000000000E+00  0.23132219334E+03  0.23132219334E+03  0.00000000000E+00 0. -1.
         -4   -1    0    0    0  501 -0.00000000000E+00 -0.00000000000E+00 -0.24645487878E+03  0.24645487878E+03  0.00000000000E+00 0.  1.
        -24    2    1    2    0    0  0.12517005068E+03  0.51591104629E+02  0.23023293902E+02  0.15829305231E+03  0.78723787274E+02 0.  0.
         23    2    1    2    0    0 -0.68713693980E+02 -0.57096026421E+01  0.10710219049E+03  0.15702673823E+03  0.91827806292E+02 0.  0.
         13    1    3    3    0    0  0.78239954985E+02  0.41223341771E+02  0.51589084741E+02  0.10238304609E+03  0.00000000000E+00 0. -1.
        -14    1    3    3    0    0  0.46930095695E+02  0.10367762858E+02 -0.28565790840E+02  0.55910006215E+02  0.00000000000E+00 0.  1.
        -11    1    4    4    0    0 -0.40149643309E+02  0.42012892236E+02  0.65552464304E+02  0.87602525923E+02  0.00000000000E+00 0. -1.
         11    1    4    4    0    0 -0.28564050671E+02 -0.47722494878E+02  0.41549726182E+02  0.69424212303E+02  0.00000000000E+00 0.  1.
         21    1    1    2  502  501 -0.56456356700E+02 -0.45881501987E+02 -0.14525816983E+03  0.16245728158E+03  0.00000000000E+00 0.  1.
<scales pt_clust_5="13000.00000" pt_clust_6="13000.00000" pt_clust_7="13000.00000" pt_clust_8="13000.00000" pt_clust_9="72.74911"></scales>
<clustering>
<clus scale="   72.749">  2  9  1 -1</clus>
<clus scale="   78.724">  5  6 -1 -1</clus>
<clus scale="   91.828">  7  8 -1 -1</clus>
<clus scale="  116.486">  2  5  1 -1</clus>
<clus scale="  125.714">  1  5  2 -1</clus>
</clustering>
</event>
<event>
 9    1  0.2802611E-005  0.9346579E+02  0.7546771E-02  0.1300302E+00
          1   -1    0    0  502    0  0.00000000000E+00  0.00000000000E+00  0.22317494791E+03  0.22317494791E+03  0.00000000000E+00 0. -1.
         -2   -1    0    0    0  501 -0.00000000000E+00 -0.00000000000E+00 -0.96847978142E+02  0.96847978142E+02  0.00000000000E+00 0.  1.
        -24    2    1    2    0    0  0.17324476360E+02  0.22694862116E+02 -0.26833739494E+02  0.90167660629E+02  0.81209378771E+02 0.  0.
         23    2    1    2    0    0  0.13611348087E+02  0.33709001348E+02  0.12730921408E+03  0.16052474653E+03  0.90768897139E+02 0.  0.
         11    1    3    3    0    0  0.37103500765E+02 -0.16606399382E+02 -0.21093289383E+02  0.45797042769E+02  0.00000000000E+00 0. -1.
        -12    1    3    3    0    0 -0.19779024404E+02  0.39301261498E+02 -0.57404501111E+01  0.44370617859E+02  0.00000000000E+00 0.  1.
        -11    1    4    4    0    0  0.14779540567E+00 -0.20389803937E+02 -0.12190009023E+01  0.20426744999E+02  0.00000000000E+00 0.  1.
         11    1    4    4    0    0  0.13463552682E+02  0.54098805285E+02  0.12852821499E+03  0.14009800153E+03  0.00000000000E+00 0. -1.
         21    1    1    2  502  501 -0.30935824448E+02 -0.56403863464E+02  0.25851495180E+02  0.69330518900E+02  0.00000000000E+00 0.  1.
<scales pt_clust_5="13000.00000" pt_clust_6="13000.00000" pt_clust_7="13000.00000" pt_clust_8="13000.00000" pt_clust_9="64.33056"></scales>
<clustering>
<clus scale="   64.331">  2  9  1 -1</clus>
<clus scale="   81.209">  5  6 -1 -1</clus>
<clus scale="   84.213">  2  5  1 -1</clus>
<clus scale="   90.769">  7  8 -1 -1</clus>
<clus scale="   93.466">  1  5  2 -1</clus>
</clustering>
</event>
<event>
 9    1  0.2802611E-005  0.1058755E+03  0.7546771E-02  0.1272099E+00
         -2   -1    0    0    0  501 -0.00000000000E+00  0.00000000000E+00  0.96147811258E+02  0.96147811258E+02  0.00000000000E+00 0.  1.
          1   -1    0    0  502    0  0.00000000000E+00 -0.00000000000E+00 -0.49573718075E+03  0.49573718075E+03  0.00000000000E+00 0. -1.
        -24    2    1    2    0    0  0.64626584709E+01  0.99379042133E+01  0.39905395869E+02  0.90881385607E+02  0.80786494761E+02 0.  0.
         23    2    1    2    0    0 -0.60598686679E+02  0.12760012602E+02 -0.42742554634E+03  0.44107388902E+03  0.89546407862E+02 0.  0.
         13    1    3    3    0    0  0.17887344422E+02  0.12096924323E+02 -0.20255621862E+02  0.29607142475E+02  0.00000000000E+00 0. -1.
        -14    1    3    3    0    0 -0.11424685951E+02 -0.21590201096E+01  0.60161017732E+02  0.61274243132E+02  0.00000000000E+00 0.  1.
        -13    1    4    4    0    0 -0.20868332839E+02 -0.33055807382E+02 -0.88264670365E+02  0.96534065240E+02  0.00000000000E+00 0.  1.
         13    1    4    4    0    0 -0.39730353840E+02  0.45815819984E+02 -0.33916087597E+03  0.34453982378E+03  0.00000000000E+00 0. -1.
         21    1    1    2  502  501  0.54136028208E+02 -0.22697916815E+02 -0.12069219023E+02  0.59929717384E+02  0.00000000000E+00 0.  1.
<scales pt_clust_5="13000.00000" pt_clust_6="13000.00000" pt_clust_7="13000.00000" pt_clust_8="13000.00000" pt_clust_9="58.70183"></scales>
<clustering>
<clus scale="   58.702">  1  9  2 -1</clus>
<clus scale="   80.786">  5  6 -1 -1</clus>
<clus scale="   89.546">  7  8 -1 -1</clus>
<clus scale="   98.577">  1  5  2 -1</clus>
<clus scale="  105.875">  2  5  1 -1</clus>
</clustering>
</event>
<event>
 9    1  0.2802611E-005  0.8538752E+02  0.7546771E-02  0.1319205E+00
         -2   -1    0    0    0  501 -0.00000000000E+00  0.00000000000E+00  0.11607254474E+03  0.11607254474E+03  0.00000000000E+00 0.  1.
          1   -1    0    0  502    0  0.00000000000E+00 -0.00000000000E+00 -0.19857564389E+03  0.19857564389E+03  0.00000000000E+00 0. -1.
        -24    2    1    2    0    0  0.16746060276E+01  0.31573375264E+02  0.44711854017E+02  0.99907508468E+02  0.83562419949E+02 0.  0.
         23    2    1    2    0    0  0.10175964513E+02 -0.13098928290E+02 -0.15838687471E+03  0.17661680437E+03  0.76367279182E+02 0.  0.
         13    1    3    3    0    0  0.23384337647E+02 -0.20795235505E+02  0.77715410422E+01  0.32243850841E+02  0.00000000000E+00 0. -1.
        -14    1    3    3    0    0 -0.21709731619E+02  0.52368610768E+02  0.36940312975E+02  0.67663657627E+02  0.00000000000E+00 0.  1.
        -11    1    4    4    0    0  0.67115036572E+01  0.31625510007E+02 -0.80271481427E+02  0.86537436379E+02  0.00000000000E+00 0.  1.
         11    1    4    4    0    0  0.34644608555E+01 -0.44724438297E+02 -0.78115393280E+02  0.90079367989E+02  0.00000000000E+00 0. -1.
         21    1    1    2  502  501 -0.11850570540E+02 -0.18474446973E+02  0.31171921538E+02  0.38123875793E+02  0.00000000000E+00 0.  1.
<scales pt_clust_5="13000.00000" pt_clust_6="13000.00000" pt_clust_7="13000.00000" pt_clust_8="13000.00000" pt_clust_9="21.94860"></scales>
<clustering>
<clus scale="   21.949">  1  9  2 -1</clus>
<clus scale="   76.367">  7  8 -1 -1</clus>
<clus scale="   78.360">  2  7  1 -1</clus>
<clus scale="   83.562">  5  6 -1 -1</clus>
<clus scale="   78.360">  2  5  1 -1</clus>
</clustering>
</event>
<event>
 9    1  0.2802611E-005  0.1091828E+03  0.7546771E-02  0.1267085E+00
         -2   -1    0    0    0  501 -0.00000000000E+00  0.00000000000E+00  0.22318537953E+03  0.22318537953E+03  0.00000000000E+00 0.  1.
          1   -1    0    0  502    0  0.00000000000E+00 -0.00000000000E+00 -0.40095254872E+03  0.40095254872E+03  0.00000000000E+00 0. -1.
         23    2    1    2    0    0  0.12142721656E+02  0.40503639108E+02  0.15583238808E+03  0.18383955849E+03  0.87893456069E+02 0.  0.
        -24    2    1    2    0    0 -0.68159467092E+01 -0.65303045622E+02 -0.37704787673E+03  0.38998791797E+03  0.74930166938E+02 0.  0.
         11    1    4    4    0    0 -0.36850547222E+02 -0.40580465867E+02 -0.15153947925E+03  0.16114884676E+03  0.00000000000E+00 0. -1.
        -12    1    4    4    0    0  0.30034600512E+02 -0.24722579755E+02 -0.22550839748E+03  0.22883907121E+03  0.00000000000E+00 0.  1.
        -11    1    3    3    0    0  0.33433211891E+02  0.37488034511E+02  0.15431342478E+03  0.16228297956E+03  0.00000000000E+00 0.  1.
         11    1    3    3    0    0 -0.21290490235E+02  0.30156045964E+01  0.15189633054E+01  0.21556578927E+02  0.00000000000E+00 0. -1.
         21    1    1    2  502  501 -0.53267749469E+01  0.24799406514E+02  0.43448319458E+02  0.50310451782E+02  0.00000000000E+00 0. -1.
<scales pt_clust_5="13000.00000" pt_clust_6="13000.00000" pt_clust_7="13000.00000" pt_clust_8="13000.00000" pt_clust_9="25.36504"></scales>
<clustering>
<clus scale="   25.365">  1  9  2 -1</clus>
<clus scale="   74.930">  5  6 -1 -1</clus>
<clus scale="   87.893">  7  8 -1 -1</clus>
<clus scale="   99.046">  2  5  1 -1</clus>
<clus scale="   99.046">  2  5  1 -1</clus>
</clustering>
</event>
<event>
 9    1  0.2802611E-005  0.1328382E+03  0.7546771E-02  0.1230224E+00
          1   -1    0    0  502    0  0.00000000000E+00  0.00000000000E+00  0.53808009866E+03  0.53808009866E+03  0.00000000000E+00 0. -1.
         -2   -1    0    0    0  501 -0.00000000000E+00 -0.00000000000E+00 -0.83486164114E+02  0.83486164114E+02  0.00000000000E+00 0.  1.
         23    2    1    2    0    0 -0.58353592880E+02 -0.10117204844E+02  0.17795509047E+03  0.21438870871E+03  0.10386050531E+03 0.  0.
        -24    2    1    2    0    0  0.65937647611E+02  0.92635019436E+02  0.29155882885E+03  0.32297949259E+03  0.79876039920E+02 0.  0.
         11    1    4    4    0    0  0.21299279366E+02  0.90171420963E+02  0.17257726871E+03  0.19587612957E+03  0.00000000000E+00 0. -1.
        -12    1    4    4    0    0  0.44638368244E+02  0.24635984732E+01  0.11898156014E+03  0.12710336302E+03  0.00000000000E+00 0.  1.
        -11    1    3    3    0    0 -0.33523671458E+02 -0.35654509649E+02  0.20677874864E+02  0.53128665664E+02  0.00000000000E+00 0.  1.
         11    1    3    3    0    0 -0.24829921422E+02  0.25537304805E+02  0.15727721560E+03  0.16126004305E+03  0.00000000000E+00 0. -1.
         21    1    1    2  502  501 -0.75840547307E+01 -0.82517814593E+02 -0.14919984772E+02  0.84198061479E+02  0.00000000000E+00 0.  1.
<scales pt_clust_5="13000.00000" pt_clust_6="13000.00000" pt_clust_7="13000.00000" pt_clust_8="13000.00000" pt_clust_9="82.86560"></scales>
<clustering>
<clus scale="   79.876">  5  6 -1 -1</clus>
<clus scale="   82.866">  2  9  1 -1</clus>
<clus scale="  103.861">  7  8 -1 -1</clus>
<clus scale="  115.062">  1  5  2 -1</clus>
<clus scale="  115.062">  1  5  2 -1</clus>
</clustering>
</event>
<event>
 9    1  0.2802611E-005  0.1909411E+03  0.7546771E-02  0.1160239E+00
         -2   -1    0    0    0  501 -0.00000000000E+00  0.00000000000E+00  0.10748811518E+03  0.10748811518E+03  0.00000000000E+00 0.  1.
          1   -1    0    0  502    0  0.00000000000E+00 -0.00000000000E+00 -0.47578130651E+03  0.47578130651E+03  0.00000000000E+00 0. -1.
         23    2    1    2    0    0 -0.42779878315E+02 -0.17849393262E+03 -0.75214419175E+02  0.22016864923E+03  0.95534408874E+02 0.  0.
        -24    2    1    2    0    0  0.31494101877E+02  0.15613463650E+03 -0.28950452015E+03  0.33780092760E+03  0.70190429043E+02 0.  0.
         13    1    4    4    0    0  0.29330337689E+02  0.34939344619E+02 -0.41112293439E+02  0.61410481053E+02  0.00000000000E+00 0. -1.
        -14    1    4    4    0    0  0.21637641879E+01  0.12119529189E+03 -0.24839222671E+03  0.27639044655E+03  0.00000000000E+00 0.  1.
        -13    1    3    3    0    0 -0.38141580441E+01 -0.13448512983E+03 -0.13940819894E+02  0.13525954460E+03  0.00000000000E+00 0.  1.
         13    1    3    3    0    0 -0.38965720271E+02 -0.44008802797E+02 -0.61273599281E+02  0.84909104628E+02  0.00000000000E+00 0. -1.
         21    1    1    2  502  501  0.11285776439E+02  0.22359296120E+02 -0.35742519956E+01  0.25299844864E+02  0.00000000000E+00 0.  1.
<scales pt_clust_5="13000.00000" pt_clust_6="13000.00000" pt_clust_7="13000.00000" pt_clust_8="13000.00000" pt_clust_9="25.04609"></scales>
<clustering>
<clus scale="   25.046">  1  9  2 -1</clus>
<clus scale="   70.190">  5  6 -1 -1</clus>
<clus scale="   95.534">  7  8 -1 -1</clus>
<clus scale="  179.606">  2  5  1 -1</clus>
<clus scale="  179.606">  2  5  1 -1</clus>
</clustering>
</event>
<event>
 9    1  0.2802611E-005  0.1060442E+03  0.7546771E-02  0.1280329E+00
         -2   -1    0    0    0  501 -0.00000000000E+00  0.00000000000E+00  0.13740887942E+03  0.13740887942E+03  0.00000000000E+00 0.  1.
          1   -1    0    0  502    0  0.00000000000E+00 -0.00000000000E+00 -0.20891895682E+03  0.20891895682E+03  0.00000000000E+00 0. -1.
         23    2    1    2    0    0  0.29324440752E+01 -0.10482177550E+02  0.59174338398E+02  0.11973773880E+03  0.10352317853E+03 0.  0.
        -24    2    1    2    0    0  0.21375033849E+02  0.13400796448E+02 -0.16446063251E+03  0.18487433742E+03  0.80589996718E+02 0.  0.
         13    1    4    4    0    0  0.15578027900E+02  0.36444691914E+02 -0.15381032316E+03  0.15883483885E+03  0.00000000000E+00 0. -1.
        -14    1    4    4    0    0  0.57970059491E+01 -0.23043895466E+02 -0.10650309352E+02  0.26039498565E+02  0.00000000000E+00 0.  1.
        -13    1    3    3    0    0  0.65857939574E+01 -0.44775861581E+02  0.70205451909E+02  0.83528773127E+02  0.00000000000E+00 0.  1.
         13    1    3    3    0    0 -0.36533498822E+01  0.34293684031E+02 -0.11031113511E+02  0.36208965673E+02  0.00000000000E+00 0. -1.
         21    1    1    2  502  501 -0.24307477924E+02 -0.29186188974E+01  0.33776216716E+02  0.41715760031E+02  0.00000000000E+00 0.  1.
<scales pt_clust_5="13000.00000" pt_clust_6="13000.00000" pt_clust_7="13000.00000" pt_clust_8="13000.00000" pt_clust_9="24.48207"></scales>
<clustering>
<clus scale="   24.482">  1  9  2 -1</clus>
<clus scale="   80.590">  5  6 -1 -1</clus>
<clus scale="   83.804">  2  5  1 -1</clus>
<clus scale="  103.523">  7  8 -1 -1</clus>
<clus scale="   83.804">  2  5  1 -1</clus>
</clustering>
</event>
<event>
 9    1  0.2802611E-005  0.1011002E+03  0.7546771E-02  0.1293383E+00
          1   -1    0    0  502    0  0.00000000000E+00  0.00000000000E+00  0.14199500217E+03  0.14199500217E+03  0.00000000000E+00 0. -1.
         -2   -1    0    0    0  501 -0.00000000000E+00 -0.00000000000E+00 -0.55226987449E+03  0.55226987449E+03  0.00000000000E+00 0.  1.
        -24    2    1    2    0    0 -0.31974244369E+02  0.13059228108E+02 -0.26243769270E+03  0.27168570703E+03  0.61210171654E+02 0.  0.
         23    2    1    2    0    0  0.22719467695E+02  0.41521494109E+02  0.11499354308E+03  0.15398152458E+03  0.90810716740E+02 0.  0.
         13    1    3    3    0    0 -0.14234959221E+02  0.37440389376E+02 -0.14346501138E+03  0.14895175833E+03  0.00000000000E+00 0. -1.
        -14    1    3    3    0    0 -0.17739285148E+02 -0.24381161268E+02 -0.11897268132E+03  0.12273394870E+03  0.00000000000E+00 0.  1.
        -11    1    4    4    0    0  0.24059266499E+02  0.70996801164E+01 -0.79409646658E+01  0.26311835399E+02  0.00000000000E+00 0.  1.
         11    1    4    4    0    0 -0.13397988043E+01  0.34421813993E+02  0.12293450775E+03  0.12766968918E+03  0.00000000000E+00 0. -1.
         21    1    1    2  502  501  0.92547766742E+01 -0.54580722217E+02 -0.26283072271E+03  0.26859764505E+03  0.00000000000E+00 0.  1.
<scales pt_clust_5="13000.00000" pt_clust_6="13000.00000" pt_clust_7="13000.00000" pt_clust_8="13000.00000" pt_clust_9="55.35979"></scales>
<clustering>
<clus scale="   55.360">  2  9  1 -1</clus>
<clus scale="   61.210">  5  6 -1 -1</clus>
<clus scale="   75.640">  2  5  1 -1</clus>
<clus scale="   90.811">  7  8 -1 -1</clus>
<clus scale="  101.100">  1  5  2 -1</clus>
</clustering>
</event>
<event>
 9    1  0.2802611E-005  0.3236646E+03  0.7546771E-02  0.1074311E+00
         -2   -1    0    0    0  501 -0.00000000000E+00  0.00000000000E+00  0.16489809762E+03  0.16489809762E+03  0.00000000000E+00 0.  1.
          1   -1    0    0  502    0  0.00000000000E+00 -0.00000000000E+00 -0.69957366174E+03  0.69957366174E+03  0.00000000000E+00 0. -1.
        -24    2    1    2    0    0  0.28812878246E+03  0.85662502561E+02 -0.16090087914E+03  0.35027222587E+03  0.80282499233E+02 0.  0.
         23    2    1    2    0    0 -0.30789317906E+03 -0.76923262998E+02 -0.36022589398E+03  0.48869315353E+03  0.91339506870E+02 0.  0.
         11    1    3    3    0    0  0.26803174349E+03  0.81671376372E+02 -0.17012582436E+03  0.32780180803E+03  0.00000000000E+00 0. -1.
        -12    1    3    3    0    0  0.20097038969E+02  0.39911261885E+01  0.92249452171E+01  0.22470417838E+02  0.00000000000E+00 0.  1.
        -11    1    4    4    0    0 -0.17629489295E+03 -0.85842352785E+02 -0.18691128872E+03  0.27089597387E+03  0.00000000000E+00 0. -1.
         11    1    4    4    0    0 -0.13159828611E+03  0.89190897869E+01 -0.17331460527E+03  0.21779717966E+03  0.00000000000E+00 0.  1.
         21    1    1    2  502  501  0.19764396599E+02 -0.87392395629E+01 -0.13548790995E+02  0.25506379956E+02  0.00000000000E+00 0. -1.
<scales pt_clust_5="13000.00000" pt_clust_6="13000.00000" pt_clust_7="13000.00000" pt_clust_8="13000.00000" pt_clust_9="21.61031"></scales>
<clustering>
<clus scale="   21.610">  1  9  2 -1</clus>
<clus scale="   80.282">  5  6 -1 -1</clus>
<clus scale="   91.340">  7  8 -1 -1</clus>
<clus scale="  320.720">  1  5  2 -1</clus>
<clus scale="  323.665">  2  5  1 -1</clus>
</clustering>
</event>
<event>
 9    1  0.2802611E-005  0.1914338E+03  0.7546771E-02  0.1158036E+00
          1   -1    0    0  502    0  0.00000000000E+00  0.00000000000E+00  0.12353056946E+03  0.12353056946E+03  0.00000000000E+00 0. -1.
         -2   -1    0    0    0  501 -0.00000000000E+00 -0.00000000000E+00 -0.56680714993E+03  0.56680714993E+03  0.00000000000E+00 0.  1.
         23    2    1    2    0    0  0.16738562956E+03 -0.43422878762E+01 -0.42629996105E+03  0.46668557042E+03  0.89593305525E+02 0.  0.
        -24    2    1    2    0    0 -0.17552986525E+03  0.27698599447E+02 -0.26534758080E+02  0.19713415734E+03  0.81116191971E+02 0.  0.
         11    1    4    4    0    0 -0.15112009027E+03 -0.53522280870E+01 -0.63296651487E+01  0.15134725861E+03  0.00000000000E+00 0. -1.
        -12    1    4    4    0    0 -0.24409774981E+02  0.33050827534E+02 -0.20205092932E+02  0.45786898734E+02  0.00000000000E+00 0.  1.
        -11    1    3    3    0    0  0.14734311728E+03 -0.35618685390E+02 -0.32016614761E+03  0.35423868653E+03  0.00000000000E+00 0. -1.
         11    1    3    3    0    0  0.20042512276E+02  0.31276397514E+02 -0.10613381345E+03  0.11244688389E+03  0.00000000000E+00 0.  1.
         21    1    1    2  502  501  0.81442356869E+01 -0.23356311570E+02  0.95581386645E+01  0.26517991625E+02  0.00000000000E+00 0. -1.
<scales pt_clust_5="13000.00000" pt_clust_6="13000.00000" pt_clust_7="13000.00000" pt_clust_8="13000.00000" pt_clust_9="24.73552"></scales>
<clustering>
<clus scale="   24.736">  1  9  2 -1</clus>
<clus scale="   81.116">  5  6 -1 -1</clus>
<clus scale="   89.593">  7  8 -1 -1</clus>
<clus scale="  187.616">  1  5  2 -1</clus>
<clus scale="   24.736">  1  5  2 -1</clus>
</clustering>
</event>
<event>
 9    1  0.2802611E-005  0.1618045E+03  0.7546771E-02  0.1187064E+00
         -2   -1    0    0    0  501 -0.00000000000E+00  0.00000000000E+00  0.89760626378E+02  0.89760626378E+02  0.00000000000E+00 0.  1.
          1   -1    0    0  502    0  0.00000000000E+00 -0.00000000000E+00 -0.49159463348E+03  0.49159463348E+03  0.00000000000E+00 0. -1.
        -24    2    1    2    0    0 -0.74068761848E+02  0.12116614369E+03 -0.50265039239E+02  0.17478988475E+03  0.88642618333E+02 0.  0.
         23    2    1    2    0    0  0.53508966834E+02 -0.12026154263E+03 -0.35121189784E+03  0.38598259169E+03  0.91141185724E+02 0.  0.
         11    1    3    3    0    0 -0.19762677473E+01  0.35654974527E+02 -0.51820942392E+02  0.62933241718E+02  0.00000000000E+00 0. -1.
        -12    1    3    3    0    0 -0.72092494100E+02  0.85511169160E+02  0.15559031526E+01  0.11185664304E+03  0.00000000000E+00 0.  1.
        -11    1    4    4    0    0  0.35515745745E+02  0.11910316956E+01 -0.56864390394E+02  0.67054795856E+02  0.00000000000E+00 0.  1.
         11    1    4    4    0    0  0.17993221089E+02 -0.12145257433E+03 -0.29434750745E+03  0.31892779584E+03  0.00000000000E+00 0. -1.
         21    1    1    2  502  501  0.20559795013E+02 -0.90460105651E+00 -0.35707002077E+00  0.20582783414E+02  0.00000000000E+00 0.  1.
<scales pt_clust_5="13000.00000" pt_clust_6="13000.00000" pt_clust_7="13000.00000" pt_clust_8="13000.00000" pt_clust_9="20.57969"></scales>
<clustering>
<clus scale="   20.580">  1  9  2 -1</clus>
<clus scale="   88.643">  5  6 -1 -1</clus>
<clus scale="   91.141">  7  8 -1 -1</clus>
<clus scale="  160.410">  1  5  2 -1</clus>
<clus scale="  161.805">  2  5  1 -1</clus>
</clustering>
</event>
<event>
 9    1  0.2802611E-005  0.3447098E+03  0.7546771E-02  0.1109020E+00
          1   -1    0    0  502    0  0.00000000000E+00  0.00000000000E+00  0.40454762661E+03  0.40454762661E+03  0.00000000000E+00 0. -1.
         -2   -1    0    0    0  501 -0.00000000000E+00 -0.00000000000E+00 -0.71903766090E+03  0.71903766090E+03  0.00000000000E+00 0.  1.
        -24    2    1    2    0    0  0.13386520876E+01  0.32855344909E+03  0.17102885617E+02  0.33891603237E+03  0.81378175245E+02 0.  0.
         23    2    1    2    0    0 -0.52372236700E+02  0.53449838080E+01  0.15764361975E+03  0.19015686503E+03  0.92394277094E+02 0.  0.
         13    1    3    3    0    0 -0.28700928749E+02  0.16829125906E+03  0.36906031938E+02  0.17466466838E+03  0.00000000000E+00 0. -1.
        -14    1    3    3    0    0  0.30039580836E+02  0.16026219002E+03 -0.19803146321E+02  0.16425136399E+03  0.00000000000E+00 0.  1.
        -11    1    4    4    0    0 -0.73217319736E+02  0.23333427201E+02  0.13080014860E+03  0.15170334079E+03  0.00000000000E+00 0. -1.
         11    1    4    4    0    0  0.20845083036E+02 -0.17988443393E+02  0.26843471153E+02  0.38453524234E+02  0.00000000000E+00 0.  1.
         21    1    1    2  502  501  0.51033584613E+02 -0.33389843290E+03 -0.48923653966E+03  0.59451239010E+03  0.00000000000E+00 0.  1.
<scales pt_clust_5="13000.00000" pt_clust_6="13000.00000" pt_clust_7="13000.00000" pt_clust_8="13000.00000" pt_clust_9="334.96627"></scales>
<clustering>
<clus scale="   81.378">  5  6 -1 -1</clus>
<clus scale="   92.394">  7  8 -1 -1</clus>
<clus scale="  106.340">  1  7  2 -1</clus>
<clus scale="  334.966">  2  9  1 -1</clus>
<clus scale="  106.340">  1  5  2 -1</clus>
</clustering>
</event>
<event>
 9    1  0.2802611E-005  0.1055006E+03  0.7546771E-02  0.1272895E+00
          1   -1    0    0  502    0  0.00000000000E+00  0.00000000000E+00  0.24560507539E+03  0.24560507539E+03  0.00000000000E+00 0. -1.
         -2   -1    0    0    0  501 -0.00000000000E+00 -0.00000000000E+00 -0.15936915790E+03  0.15936915790E+03  0.00000000000E+00 0.  1.
        -24    2    1    2    0    0  0.98489801527E+01  0.29059029911E+02 -0.10528717575E+03  0.13713144958E+03  0.82329918367E+02 0.  0.
         23    2    1    2    0    0 -0.50701842999E+02 -0.25686353574E+02  0.19908713101E+03  0.22615890174E+03  0.91003832102E+02 0.  0.
         13    1    3    3    0    0  0.43135983797E+01  0.27344974753E+02  0.37539331764E+01  0.27936477758E+02  0.00000000000E+00 0. -1.
        -14    1    3    3    0    0  0.55353817729E+01  0.17140551582E+01 -0.10904110892E+03  0.10919497182E+03  0.00000000000E+00 0.  1.
        -13    1    4    4    0    0  0.15762983923E+01  0.29920133520E+02  0.42971799542E+02  0.52385825014E+02  0.00000000000E+00 0.  1.
         13    1    4    4    0    0 -0.52278141391E+02 -0.55606487094E+02  0.15611533147E+03  0.17377307672E+03  0.00000000000E+00 0. -1.
         21    1    1    2  502  501  0.40852862846E+02 -0.33726763368E+01 -0.75640377809E+01  0.41683881968E+02  0.00000000000E+00 0. -1.
<scales pt_clust_5="13000.00000" pt_clust_6="13000.00000" pt_clust_7="13000.00000" pt_clust_8="13000.00000" pt_clust_9="40.99184"></scales>
<clustering>
<clus scale="   40.992">  2  9  1 -1</clus>
<clus scale="   82.330">  5  6 -1 -1</clus>
<clus scale="   91.004">  7  8 -1 -1</clus>
<clus scale="   98.117">  2  5  1 -1</clus>
<clus scale="  105.501">  1  5  2 -1</clus>
</clustering>
</event>
<event>
 9    1  0.2802611E-005  0.1234974E+03  0.7546771E-02  0.1244967E+00
         -2   -1    0    0    0  501 -0.00000000000E+00  0.00000000000E+00  0.22481218991E+03  0.22481218991E+03  0.00000000000E+00 0.  1.
          1   -1    0    0  502    0  0.00000000000E+00 -0.00000000000E+00 -0.88586503433E+02  0.88586503433E+02  0.00000000000E+00 0. -1.
         23    2    1    2    0    0 -0.79005187353E+02  0.44189506446E+02  0.82106621563E+02  0.15913365035E+03  0.10191903286E+03 0.  0.
        -24    2    1    2    0    0  0.54168171784E+02 -0.34248335932E+01  0.32555770037E+02  0.10188554719E+03  0.79842759493E+02 0.  0.
         13    1    4    4    0    0  0.29762894840E+02 -0.21940864818E+01 -0.25272133098E+02  0.39106580470E+02  0.00000000000E+00 0. -1.
        -14    1    4    4    0    0  0.24405276944E+02 -0.12307471114E+01  0.57827903135E+02  0.62778966718E+02  0.00000000000E+00 0.  1.
        -11    1    3    3    0    0  0.67323574099E+01  0.32474752691E+02  0.61971215377E+02  0.70287735303E+02  0.00000000000E+00 0. -1.
         11    1    3    3    0    0 -0.85737544763E+02  0.11714753755E+02  0.20135406186E+02  0.88845915042E+02  0.00000000000E+00 0.  1.
         21    1    1    2  502  501  0.24837015568E+02 -0.40764672853E+02  0.21563294873E+02  0.52379495806E+02  0.00000000000E+00 0.  1.
<scales pt_clust_5="13000.00000" pt_clust_6="13000.00000" pt_clust_7="13000.00000" pt_clust_8="13000.00000" pt_clust_9="47.73506"></scales>
<clustering>
<clus scale="   47.735">  2  9  1 -1</clus>
<clus scale="   79.843">  5  6 -1 -1</clus>
<clus scale="  101.919">  7  8 -1 -1</clus>
<clus scale="  106.014">  2  5  1 -1</clus>
<clus scale="   47.735">  2  5  1 -1</clus>
</clustering>
</event>
<event>
 9    1  0.2802611E-005  0.1299478E+03  0.7546771E-02  0.1238206E+00
         -2   -1    0    0    0  501 -0.00000000000E+00  0.00000000000E+00  0.58570951392E+02  0.58570951392E+02  0.00000000000E+00 0.  1.
          1   -1    0    0  502    0  0.00000000000E+00 -0.00000000000E+00 -0.54935825291E+03  0.54935825291E+03  0.00000000000E+00 0. -1.
         23    2    1    2    0    0  0.16487852319E+02  0.43484708938E+02 -0.81046751448E+02  0.14477120881E+03  0.11057738375E+03 0.  0.
        -24    2    1    2    0    0 -0.72002831216E+01 -0.72867347937E+02 -0.41768195857E+03  0.43133560738E+03  0.78934740157E+02 0.  0.
         11    1    4    4    0    0 -0.24737910756E+02  0.48208264333E+01 -0.63699519104E+02  0.68504257752E+02  0.00000000000E+00 0. -1.
        -12    1    4    4    0    0  0.17537627635E+02 -0.77688174371E+02 -0.35398243947E+03  0.36283134963E+03  0.00000000000E+00 0.  1.
        -13    1    3    3    0    0 -0.76262124253E+01 -0.33114030890E+02 -0.53237413767E+01  0.34395354046E+02  0.00000000000E+00 0. -1.
         13    1    3    3    0    0  0.24114064744E+02  0.76598739827E+02 -0.75723010071E+02  0.11037585477E+03  0.00000000000E+00 0.  1.
         21    1    1    2  502  501 -0.92875691973E+01  0.29382639000E+02  0.79414084992E+01  0.31822388112E+02  0.00000000000E+00 0. -1.
<scales pt_clust_5="13000.00000" pt_clust_6="13000.00000" pt_clust_7="13000.00000" pt_clust_8="13000.00000" pt_clust_9="30.81555"></scales>
<clustering>
<clus scale="   30.816">  1  9  2 -1</clus>
<clus scale="   78.935">  5  6 -1 -1</clus>
<clus scale="  104.354">  2  5  1 -1</clus>
<clus scale="  110.577">  7  8 -1 -1</clus>
<clus scale="  104.354">  2  5  1 -1</clus>
</clustering>
</event>
<event>
 9    1  0.2802611E-005  0.9114705E+02  0.7546771E-02  0.1306275E+00
          1   -1    0    0  502    0  0.00000000000E+00  0.00000000000E+00  0.34772908665E+03  0.34772908665E+03  0.00000000000E+00 0. -1.
         -2   -1    0    0    0  501 -0.00000000000E+00 -0.00000000000E+00 -0.53083425166E+02  0.53083425166E+02  0.00000000000E+00 0.  1.
        -24    2    1    2    0    0 -0.61363974625E+01  0.36784578235E+02  0.45759078416E+01  0.86779227772E+02  0.78223620924E+02 0.  0.
         23    2    1    2    0    0 -0.63587556204E+01 -0.19341811023E+02  0.26938696051E+03  0.28423132252E+03  0.88337821938E+02 0.  0.
         13    1    3    3    0    0 -0.36566714024E+02 -0.22995789179E+00  0.11569741827E+02  0.38354092103E+02  0.00000000000E+00 0. -1.
        -14    1    3    3    0    0  0.30430316561E+02  0.37014536127E+02 -0.69938339849E+01  0.48425135669E+02  0.00000000000E+00 0.  1.
        -11    1    4    4    0    0  0.19476977239E+02  0.18040167195E+02  0.27924391298E+02  0.38530142800E+02  0.00000000000E+00 0.  1.
         11    1    4    4    0    0 -0.25835732860E+02 -0.37381978218E+02  0.24146256921E+03  0.24570117972E+03  0.00000000000E+00 0. -1.
         21    1    1    2  502  501  0.12495153083E+02 -0.17442767212E+02  0.20682793134E+02  0.29801961520E+02  0.00000000000E+00 0. -1.
<scales pt_clust_5="13000.00000" pt_clust_6="13000.00000" pt_clust_7="13000.00000" pt_clust_8="13000.00000" pt_clust_9="21.45644"></scales>
<clustering>
<clus scale="   21.456">  2  9  1 -1</clus>
<clus scale="   78.224">  5  6 -1 -1</clus>
<clus scale="   81.383">  2  5  1 -1</clus>
<clus scale="   88.338">  7  8 -1 -1</clus>
<clus scale="   91.147">  1  5  2 -1</clus>
</clustering>
</event>
<event>
 9    1  0.2802611E-005  0.1812563E+03  0.7546771E-02  0.1166900E+00
         -2   -1    0    0    0  501 -0.00000000000E+00  0.00000000000E+00  0.24788192360E+03  0.24788192360E+03  0.00000000000E+00 0.  1.
          1   -1    0    0  502    0  0.00000000000E+00 -0.00000000000E+00 -0.67342315324E+03  0.67342315324E+03  0.00000000000E+00 0. -1.
        -24    2    1    2    0    0  0.19958098078E+03 -0.29766183826E+02  0.68286116330E+02  0.23272772846E+03  0.93704900191E+02 0.  0.
         23    2    1    2    0    0 -0.14756796723E+03  0.32272141469E+02 -0.56978552787E+03  0.59648348974E+03  0.91209701750E+02 0.  0.
         13    1    3    3    0    0  0.93008963903E+01  0.18180910435E+02  0.24095232995E+02  0.31585319865E+02  0.00000000000E+00 0. -1.
        -14    1    3    3    0    0  0.19028008439E+03 -0.47947094261E+02  0.44190883335E+02  0.20114240859E+03  0.00000000000E+00 0.  1.
        -13    1    4    4    0    0 -0.62788443072E+02  0.48579159725E+02 -0.37672265338E+03  0.38499646870E+03  0.00000000000E+00 0. -1.
         13    1    4    4    0    0 -0.84779524156E+02 -0.16307018256E+02 -0.19306287449E+03  0.21148702104E+03  0.00000000000E+00 0.  1.
         21    1    1    2  502  501 -0.52013013555E+02 -0.25059576427E+01  0.75958181896E+02  0.92093858643E+02  0.00000000000E+00 0. -1.
<scales pt_clust_5="13000.00000" pt_clust_6="13000.00000" pt_clust_7="13000.00000" pt_clust_8="13000.00000" pt_clust_9="52.07335"></scales>
<clustering>
<clus scale="   52.073">  1  9  2 -1</clus>
<clus scale="   91.210">  7  8 -1 -1</clus>
<clus scale="   93.705">  5  6 -1 -1</clus>
<clus scale="  179.979">  2  7  1 -1</clus>
<clus scale="  179.979">  2  5  1 -1</clus>
</clustering>
</event>
<event>
 9    1  0.2802611E-005  0.1457592E+03  0.7546771E-02  0.1208084E+00
         -2   -1    0    0    0  501 -0.00000000000E+00  0.00000000000E+00  0.80238582235E+02  0.80238582235E+02  0.00000000000E+00 0.  1.
          1   -1    0    0  502    0  0.00000000000E+00 -0.00000000000E+00 -0.50032785787E+03  0.50032785787E+03  0.00000000000E+00 0. -1.
        -24    2    1    2    0    0 -0.47260319123E+02 -0.12378384522E+03 -0.38121464572E+02  0.15836129031E+03  0.77904262431E+02 0.  0.
         23    2    1    2    0    0  0.33813932223E+02  0.10564202066E+03 -0.37015878867E+03  0.39672213332E+03  0.89818170183E+02 0.  0.
         13    1    3    3    0    0 -0.34687712554E+01 -0.54128802764E+02 -0.51745633408E+02  0.74963792857E+02  0.00000000000E+00 0. -1.
        -14    1    3    3    0    0 -0.43791547867E+02 -0.69655042459E+02  0.13624168836E+02  0.83397497451E+02  0.00000000000E+00 0.  1.
        -11    1    4    4    0    0  0.64322413658E+02  0.61957075742E+02 -0.22342315003E+03  0.24061162919E+03  0.00000000000E+00 0. -1.
         11    1    4    4    0    0 -0.30508481435E+02  0.43684944920E+02 -0.14673563863E+03  0.15611050412E+03  0.00000000000E+00 0.  1.
         21    1    1    2  502  501  0.13446386899E+02  0.18141824561E+02 -0.11809022402E+02  0.25483016485E+02  0.00000000000E+00 0.  1.
<scales pt_clust_5="13000.00000" pt_clust_6="13000.00000" pt_clust_7="13000.00000" pt_clust_8="13000.00000" pt_clust_9="22.58165"></scales>
<clustering>
<clus scale="   22.582">  1  9  2 -1</clus>
<clus scale="   77.904">  5  6 -1 -1</clus>
<clus scale="   89.818">  7  8 -1 -1</clus>
<clus scale="  138.735">  1  5  2 -1</clus>
<clus scale="  145.759">  2  5  1 -1</clus>
</clustering>
</event>
<event>
 9    1  0.2802611E-005  0.9800531E+02  0.7546771E-02  0.1290073E+00
          1   -1    0    0  502    0  0.00000000000E+00  0.00000000000E+00  0.38490114020E+03  0.38490114020E+03  0.00000000000E+00 0. -1.
         -2   -1    0    0    0  501 -0.00000000000E+00 -0.00000000000E+00 -0.11793202544E+03  0.11793202544E+03  0.00000000000E+00 0.  1.
         23    2    1    2    0    0 -0.26460170091E+01 -0.32342527999E+02 -0.74174775300E+02  0.12206042455E+03  0.91344454827E+02 0.  0.
        -24    2    1    2    0    0 -0.96972654154E+01  0.75812143711E+02  0.29879058930E+03  0.31883917833E+03  0.80876988625E+02 0.  0.
         13    1    4    4    0    0 -0.33120785620E+02  0.74488178818E+02  0.26803101538E+03  0.28015370857E+03  0.00000000000E+00 0. -1.
        -14    1    4    4    0    0  0.23423520205E+02  0.13239648925E+01  0.30759573927E+02  0.38685469753E+02  0.00000000000E+00 0.  1.
        -13    1    3    3    0    0  0.30710880675E+02 -0.44477152993E+02 -0.20701678188E+02  0.57878621355E+02  0.00000000000E+00 0.  1.
         13    1    3    3    0    0 -0.33356897684E+02  0.12134624994E+02 -0.53473097112E+02  0.64181803197E+02  0.00000000000E+00 0. -1.
         21    1    1    2  502  501  0.12343282425E+02 -0.43469615712E+02  0.42353300755E+02  0.61933562759E+02  0.00000000000E+00 0. -1.
<scales pt_clust_5="13000.00000" pt_clust_6="13000.00000" pt_clust_7="13000.00000" pt_clust_8="13000.00000" pt_clust_9="45.18810"></scales>
<clustering>
<clus scale="   45.188">  1  9  2 -1</clus>
<clus scale="   80.877">  5  6 -1 -1</clus>
<clus scale="   88.331">  1  5  2 -1</clus>
<clus scale="   91.344">  7  8 -1 -1</clus>
<clus scale="   45.188">  1  5  2 -1</clus>
</clustering>
</event>
<event>
 9    1  0.2802611E-005  0.1305956E+03  0.7546771E-02  0.1241173E+00
          1   -1    0    0  502    0  0.00000000000E+00  0.00000000000E+00  0.32598725585E+03  0.32598725585E+03  0.00000000000E+00 0. -1.
         -2   -1    0    0    0  501 -0.00000000000E+00 -0.00000000000E+00 -0.11738394291E+03  0.11738394291E+03  0.00000000000E+00 0.  1.
        -24    2    1    2    0    0  0.94613586887E+02  0.40950670271E+02 -0.26459128197E+02  0.13367840384E+03  0.80877326659E+02 0.  0.
         23    2    1    2    0    0  0.95061856426E+01 -0.30416226626E+02  0.11959453577E+03  0.15385718056E+03  0.91398384102E+02 0.  0.
         13    1    3    3    0    0  0.92370498293E+00  0.33890092640E+02 -0.20312497082E+02  0.39522008397E+02  0.00000000000E+00 0. -1.
        -14    1    3    3    0    0  0.93689881904E+02  0.70605776312E+01 -0.61466311151E+01  0.94156395438E+02  0.00000000000E+00 0.  1.
        -11    1    4    4    0    0  0.26391172308E+02 -0.58342099577E+02  0.82900570744E+02  0.10475112977E+03  0.00000000000E+00 0. -1.
         11    1    4    4    0    0 -0.16884986665E+02  0.27925872951E+02  0.36693965031E+02  0.49106050793E+02  0.00000000000E+00 0.  1.
         21    1    1    2  502  501 -0.10411977253E+03 -0.10534443646E+02  0.11546790536E+03  0.15583561436E+03  0.00000000000E+00 0. -1.
<scales pt_clust_5="13000.00000" pt_clust_6="13000.00000" pt_clust_7="13000.00000" pt_clust_8="13000.00000" pt_clust_9="102.53813"></scales>
<clustering>
<clus scale="   80.877">  5  6 -1 -1</clus>
<clus scale="   91.398">  7  8 -1 -1</clus>
<clus scale="   96.795">  1  7  2 -1</clus>
<clus scale="  102.538">  1  9  2 -1</clus>
<clus scale="   96.795">  1  5  2 -1</clus>
</clustering>
</event>
<event>
 9    1  0.2802611E-005  0.1154502E+03  0.7546771E-02  0.1269743E+00
         -2   -1    0    0    0  501 -0.00000000000E+00  0.00000000000E+00  0.74808490518E+02  0.74808490518E+02  0.00000000000E+00 0.  1.
          1   -1    0    0  502    0  0.00000000000E+00 -0.00000000000E+00 -0.63880422418E+03  0.63880422418E+03  0.00000000000E+00 0. -1.
        -24    2    1    2    0    0 -0.38119808753E+01  0.14864884527E+02  0.18487326718E+02  0.81686516519E+02  0.78073105111E+02 0.  0.
         23    2    1    2    0    0 -0.35171435985E+02  0.55105209359E+02 -0.51461750444E+03  0.52694403536E+03  0.92548508951E+02 0.  0.
         11    1    3    3    0    0 -0.23477522215E+02  0.40666895389E+02  0.83200944504E+01  0.47688724051E+02  0.00000000000E+00 0. -1.
        -12    1    3    3    0    0  0.19665541340E+02 -0.25802010862E+02  0.10167232267E+02  0.33997792468E+02  0.00000000000E+00 0.  1.
        -13    1    4    4    0    0  0.26704203415E+02  0.41120487379E+02 -0.19304618034E+03  0.19917539182E+03  0.00000000000E+00 0. -1.
         13    1    4    4    0    0 -0.61875639400E+02  0.13984721981E+02 -0.32157132410E+03  0.32776864354E+03  0.00000000000E+00 0.  1.
         21    1    1    2  502  501  0.38983416861E+02 -0.69970093886E+02 -0.67865555933E+02  0.10498216282E+03  0.00000000000E+00 0.  1.
<scales pt_clust_5="13000.00000" pt_clust_6="13000.00000" pt_clust_7="13000.00000" pt_clust_8="13000.00000" pt_clust_9="69.01835"></scales>
<clustering>
<clus scale="   78.073">  5  6 -1 -1</clus>
<clus scale="   79.567">  1  5  2 -1</clus>
<clus scale="   69.018">  1  9  2 -1</clus>
<clus scale="   92.549">  7  8 -1 -1</clus>
<clus scale="  115.450">  2  5  1 -1</clus>
</clustering>
</event>
<event>
 9    1  0.2802611E-005  0.1500167E+03  0.7546771E-02  0.1202891E+00
          1   -1    0    0  502    0  0.00000000000E+00  0.00000000000E+00  0.24172068497E+03  0.24172068497E+03  0.00000000000E+00 0. -1.
         -2   -1    0    0    0  501 -0.00000000000E+00 -0.00000000000E+00 -0.13290923240E+04  0.13290923240E+04  0.00000000000E+00 0.  1.
        -24    2    1    2    0    0 -0.57718744912E+02  0.97146764074E+02 -0.10886409426E+04  0.10972627294E+04  0.77957989134E+02 0.  0.
         23    2    1    2    0    0  0.11489360981E+03 -0.34107891846E+02  0.20404615213E+03  0.25363821786E+03  0.91288682191E+02 0.  0.
         13    1    3    3    0    0 -0.51912353935E+01  0.68408032748E+02 -0.38381532806E+03  0.38989846617E+03  0.00000000000E+00 0. -1.
        -14    1    3    3    0    0 -0.52527509519E+02  0.28738731326E+02 -0.70482561457E+03  0.70736426323E+03  0.00000000000E+00 0.  1.
        -13    1    4    4    0    0  0.11822413140E+02 -0.33299742927E+02  0.15144149244E+02  0.38444604144E+02  0.00000000000E+00 0.  1.
         13    1    4    4    0    0  0.10307119667E+03 -0.80814891925E+00  0.18890200289E+03  0.21519361371E+03  0.00000000000E+00 0. -1.
         21    1    1    2  502  501 -0.57174864898E+02 -0.63038872228E+02 -0.20277684855E+03  0.21991206173E+03  0.00000000000E+00 0. -1.
<scales pt_clust_5="13000.00000" pt_clust_6="13000.00000" pt_clust_7="13000.00000" pt_clust_8="13000.00000" pt_clust_9="85.10502"></scales>
<clustering>
<clus scale="   77.958">  5  6 -1 -1</clus>
<clus scale="   85.105">  2  9  1 -1</clus>
<clus scale="   91.289">  7  8 -1 -1</clus>
<clus scale="  142.298">  2  5  1 -1</clus>
<clus scale="  150.017">  1  5  2 -1</clus>
</clustering>
</event>
<event>
 9    1  0.2802611E-005  0.1060056E+03  0.7546771E-02  0.1273668E+00
          1   -1    0    0  502    0  0.00000000000E+00  0.00000000000E+00  0.53324781389E+03  0.53324781389E+03  0.00000000000E+00 0. -1.
         -2   -1    0    0    0  501 -0.00000000000E+00 -0.00000000000E+00 -0.64397599179E+02  0.64397599179E+02  0.00000000000E+00 0.  1.
        -24    2    1    2    0    0 -0.29184521948E+02  0.44238307485E+02  0.48460596214E+02  0.10836208620E+03  0.81148925864E+02 0.  0.
         23    2    1    2    0    0  0.50402439703E+02  0.37350233790E+02  0.37899576153E+03  0.39536665372E+03  0.93496297913E+02 0.  0.
         13    1    3    3    0    0 -0.24971895878E+02 -0.18548069380E+02  0.41122355842E+01  0.31377331674E+02  0.00000000000E+00 0. -1.
        -14    1    3    3    0    0 -0.42126260701E+01  0.62786376865E+02  0.44348360630E+02  0.76984754522E+02  0.00000000000E+00 0.  1.
        -13    1    4    4    0    0 -0.17799355200E+02  0.15428306729E+02  0.25621044509E+02  0.34803557516E+02  0.00000000000E+00 0.  1.
         13    1    4    4    0    0  0.68201794903E+02  0.21921927061E+02  0.35337471703E+03  0.36056309621E+03  0.00000000000E+00 0. -1.
         21    1    1    2  502  501 -0.21217917754E+02 -0.81588541275E+02  0.41393856965E+02  0.93916673150E+02  0.00000000000E+00 0.  1.
<scales pt_clust_5="13000.00000" pt_clust_6="13000.00000" pt_clust_7="13000.00000" pt_clust_8="13000.00000" pt_clust_9="84.30237"></scales>
<clustering>
<clus scale="   81.149">  5  6 -1 -1</clus>
<clus scale="   84.302">  2  9  1 -1</clus>
<clus scale="   93.496">  7  8 -1 -1</clus>
<clus scale="   95.293">  2  5  1 -1</clus>
<clus scale="  106.006">  1  5  2 -1</clus>
</clustering>
</event>
<event>
 9    1  0.2802611E-005  0.3337037E+03  0.7546771E-02  0.1069808E+00
         -2   -1    0    0    0  501 -0.00000000000E+00  0.00000000000E+00  0.58956175906E+03  0.58956175906E+03  0.00000000000E+00 0.  1.
          1   -1    0    0  502    0  0.00000000000E+00 -0.00000000000E+00 -0.45585067180E+03  0.45585067180E+03  0.00000000000E+00 0. -1.
         23    2    1    2    0    0  0.33321148107E+03  0.69824559545E+02  0.39407588334E+03  0.52885838069E+03  0.92141330352E+02 0.  0.
        -24    2    1    2    0    0 -0.31203108310E+03 -0.60059013228E+02 -0.31643330712E+03  0.45582800070E+03  0.81722986266E+02 0.  0.
         11    1    4    4    0    0 -0.17978063127E+03 -0.74047375924E+02 -0.17339624046E+03  0.26051937637E+03  0.00000000000E+00 0. -1.
        -12    1    4    4    0    0 -0.13225045182E+03  0.13988362696E+02 -0.14303706666E+03  0.19530862433E+03  0.00000000000E+00 0.  1.
        -11    1    3    3    0    0  0.31417464125E+03  0.39162809308E+02  0.35399464997E+03  0.47492277588E+03  0.00000000000E+00 0.  1.
         11    1    3    3    0    0  0.19036839821E+02  0.30661750236E+02  0.40081233373E+02  0.53935604814E+02  0.00000000000E+00 0. -1.
         21    1    1    2  502  501 -0.21180397978E+02 -0.97655463169E+01  0.56068511044E+02  0.60726049469E+02  0.00000000000E+00 0.  1.
<scales pt_clust_5="13000.00000" pt_clust_6="13000.00000" pt_clust_7="13000.00000" pt_clust_8="13000.00000" pt_clust_9="23.32327"></scales>
<clustering>
<clus scale="   23.323">  1  9  2 -1</clus>
<clus scale="   81.723">  5  6 -1 -1</clus>
<clus scale="   92.141">  7  8 -1 -1</clus>
<clus scale="  330.979">  2  5  1 -1</clus>
<clus scale="  330.979">  2  5  1 -1</clus>
</clustering>
</event>
<event>
 9    1  0.2802611E-005  0.1104129E+03  0.7546771E-02  0.1264532E+00
         -2   -1    0    0    0  501 -0.00000000000E+00  0.00000000000E+00  0.44544699784E+02  0.44544699784E+02  0.00000000000E+00 0.  1.
          1   -1    0    0  502    0  0.00000000000E+00 -0.00000000000E+00 -0.72898641079E+03  0.72898641079E+03  0.00000000000E+00 0. -1.
        -24    2    1    2    0    0  0.62237323014E+02 -0.78170689453E+02 -0.21704258369E+03  0.25168801501E+03  0.79090029073E+02 0.  0.
         23    2    1    2    0    0 -0.39494334897E+02  0.30812030124E+02 -0.45647711457E+03  0.46818327368E+03  0.91186829859E+02 0.  0.
         11    1    3    3    0    0  0.51884602647E+02 -0.84249762660E+01 -0.12607195523E+03  0.13659110554E+03  0.00000000000E+00 0. -1.
        -12    1    3    3    0    0  0.10352720367E+02 -0.69745713187E+02 -0.90970628460E+02  0.11509690947E+03  0.00000000000E+00 0.  1.
        -13    1    4    4    0    0 -0.68627926568E+02  0.28591055671E+02 -0.30663149533E+03  0.31551563305E+03  0.00000000000E+00 0. -1.
         13    1    4    4    0    0  0.29133591671E+02  0.22209744529E+01 -0.14984561924E+03  0.15266764063E+03  0.00000000000E+00 0.  1.
         21    1    1    2  502  501 -0.22742988117E+02  0.47358659329E+02 -0.10922012743E+02  0.53659821881E+02  0.00000000000E+00 0.  1.
<scales pt_clust_5="13000.00000" pt_clust_6="13000.00000" pt_clust_7="13000.00000" pt_clust_8="13000.00000" pt_clust_9="52.53652"></scales>
<clustering>
<clus scale="   52.537">  1  9  2 -1</clus>
<clus scale="   79.090">  5  6 -1 -1</clus>
<clus scale="   91.187">  7  8 -1 -1</clus>
<clus scale="  100.654">  1  5  2 -1</clus>
<clus scale="  110.413">  2  5  1 -1</clus>
</clustering>
</event>
<event>
 9    1  0.2802611E-005  0.1835070E+03  0.7546771E-02  0.1165487E+00
          1   -1    0    0  502    0  0.00000000000E+00  0.00000000000E+00  0.80728042966E+03  0.80728042966E+03  0.00000000000E+00 0. -1.
         -2   -1    0    0    0  501 -0.00000000000E+00 -0.00000000000E+00 -0.29408686938E+03  0.29408686938E+03  0.00000000000E+00 0.  1.
        -24    2    1    2    0    0  0.18905687047E+03 -0.47129204631E+02 -0.66110556869E+01  0.21050680066E+03  0.79408720354E+02 0.  0.
         23    2    1    2    0    0 -0.13752448485E+03  0.76945413540E+02  0.68855699768E+03  0.71191369227E+03  0.88751256840E+02 0.  0.
         13    1    3    3    0    0  0.52384934878E+02  0.61043008670E+01  0.28134220138E+02  0.59774394468E+02  0.00000000000E+00 0. -1.
        -14    1    3    3    0    0  0.13667193559E+03 -0.53233505498E+02 -0.34745275825E+02  0.15073240620E+03  0.00000000000E+00 0.  1.
        -11    1    4    4    0    0 -0.11017061840E+03  0.13620368121E+02  0.38997488902E+03  0.40546700686E+03  0.00000000000E+00 0.  1.
         11    1    4    4    0    0 -0.27353866448E+02  0.63325045419E+02  0.29858210866E+03  0.30644668541E+03  0.00000000000E+00 0. -1.
         21    1    1    2  502  501 -0.51532385622E+02 -0.29816208909E+02 -0.16875238171E+03  0.17894680611E+03  0.00000000000E+00 0.  1.
<scales pt_clust_5="13000.00000" pt_clust_6="13000.00000" pt_clust_7="13000.00000" pt_clust_8="13000.00000" pt_clust_9="59.53649"></scales>
<clustering>
<clus scale="   59.536">  2  9  1 -1</clus>
<clus scale="   79.409">  5  6 -1 -1</clus>
<clus scale="   88.751">  7  8 -1 -1</clus>
<clus scale="  179.175">  2  5  1 -1</clus>
<clus scale="  183.507">  1  5  2 -1</clus>
</clustering>
</event>
<event>
 9    1  0.4011681E-005  0.1210223E+03  0.7546771E-02  0.1245239E+00
         -4   -1    0    0    0  501 -0.00000000000E+00  0.00000000000E+00  0.24924684435E+03  0.24924684435E+03  0.00000000000E+00 0.  1.
          3   -1    0    0  502    0  0.00000000000E+00 -0.00000000000E+00 -0.31731452718E+03  0.31731452718E+03  0.00000000000E+00 0. -1.
        -24    2    1    2    0    0  0.37748497109E+02 -0.49821931093E+02  0.19998578447E+03  0.22357520866E+03  0.78002474871E+02 0.  0.
         23    2    1    2    0    0 -0.39280937322E+02  0.71413881465E+02 -0.28854680579E+03  0.31317781478E+03  0.90433124656E+02 0.  0.
         13    1    3    3    0    0  0.11351953212E+02  0.20977660848E+02  0.38569979768E+02  0.45349448020E+02  0.00000000000E+00 0. -1.
        -14    1    3    3    0    0  0.26396543897E+02 -0.70799591941E+02  0.16141580470E+03  0.17822576064E+03  0.00000000000E+00 0.  1.
        -11    1    4    4    0    0 -0.34458462745E+02  0.93232432524E+02 -0.23580119324E+03  0.25589426500E+03  0.00000000000E+00 0. -1.
         11    1    4    4    0    0 -0.48224745772E+01 -0.21818551059E+02 -0.52745612551E+02  0.57283549774E+02  0.00000000000E+00 0.  1.
         21    1    1    2  502  501  0.15324402132E+01 -0.21591950371E+02  0.20493338486E+02  0.29808348095E+02  0.00000000000E+00 0.  1.
<scales pt_clust_5="13000.00000" pt_clust_6="13000.00000" pt_clust_7="13000.00000" pt_clust_8="13000.00000" pt_clust_9="21.64626"></scales>
<clustering>
<clus scale="   21.646">  1  9  2 -1</clus>
<clus scale="   78.002">  5  6 -1 -1</clus>
<clus scale="   90.433">  7  8 -1 -1</clus>
<clus scale="  112.039">  1  5  2 -1</clus>
<clus scale="  121.022">  2  5  1 -1</clus>
</clustering>
</event>
<event>
 9    1  0.2802611E-005  0.1159785E+03  0.7546771E-02  0.1253745E+00
         -4   -1    0    0    0  501 -0.00000000000E+00  0.00000000000E+00  0.10514716528E+03  0.10514716528E+03  0.00000000000E+00 0.  1.
          3   -1    0    0  502    0  0.00000000000E+00 -0.00000000000E+00 -0.19459902047E+03  0.19459902047E+03  0.00000000000E+00 0. -1.
         23    2    1    2    0    0 -0.49006668836E+02 -0.60967513499E+02 -0.14270146082E+02  0.12145895482E+03  0.91814755590E+02 0.  0.
        -24    2    1    2    0    0  0.13096486976E+02  0.69045965571E+02 -0.88786726647E+02  0.13904568341E+03  0.80695451637E+02 0.  0.
         11    1    4    4    0    0  0.17013426296E+02  0.18119052828E+02 -0.84166698542E+02  0.87759842144E+02  0.00000000000E+00 0. -1.
        -12    1    4    4    0    0 -0.39169393192E+01  0.50926912743E+02 -0.46200281052E+01  0.51285841271E+02  0.00000000000E+00 0.  1.
        -13    1    3    3    0    0 -0.52244069684E+01 -0.61743875454E+02  0.20794533738E+02  0.65360639667E+02  0.00000000000E+00 0.  1.
         13    1    3    3    0    0 -0.43782261867E+02  0.77636195529E+00 -0.35064679820E+02  0.56098315153E+02  0.00000000000E+00 0. -1.
         21    1    1    2  502  501  0.35910181859E+02 -0.80784520721E+01  0.13605017539E+02  0.39241547514E+02  0.00000000000E+00 0.  1.
<scales pt_clust_5="13000.00000" pt_clust_6="13000.00000" pt_clust_7="13000.00000" pt_clust_8="13000.00000" pt_clust_9="36.80764"></scales>
<clustering>
<clus scale="   36.808">  1  9  2 -1</clus>
<clus scale="   80.695">  5  6 -1 -1</clus>
<clus scale="   91.815">  7  8 -1 -1</clus>
<clus scale="  107.391">  2  5  1 -1</clus>
<clus scale="  107.391">  2  5  1 -1</clus>
</clustering>
</event>
<event>
 9    1  0.2802611E-005  0.1361728E+03  0.7546771E-02  0.1221022E+00
          1   -1    0    0  502    0  0.00000000000E+00  0.00000000000E+00  0.12551174212E+03  0.12551174212E+03  0.00000000000E+00 0. -1.
         -2   -1    0    0    0  501 -0.00000000000E+00 -0.00000000000E+00 -0.61314457518E+03  0.61314457518E+03  0.00000000000E+00 0.  1.
        -24    2    1    2    0    0 -0.72515360382E+02  0.31856510174E+02 -0.51351874944E+03  0.52573799313E+03  0.80159944234E+02 0.  0.
         23    2    1    2    0    0  0.83142601236E+02 -0.61525975687E+02  0.73354560041E+02  0.15594036735E+03  0.90765460762E+02 0.  0.
         11    1    3    3    0    0 -0.29887422747E+02  0.10661899196E+01 -0.43510947112E+02  0.52797701825E+02  0.00000000000E+00 0. -1.
        -12    1    3    3    0    0 -0.42627937635E+02  0.30790320254E+02 -0.47000780233E+03  0.47294029130E+03  0.00000000000E+00 0.  1.
        -11    1    4    4    0    0  0.54654329328E+02  0.14197944144E+02  0.25681950036E+02  0.62034183237E+02  0.00000000000E+00 0.  1.
         11    1    4    4    0    0  0.28488271908E+02 -0.75723919831E+02  0.47672610005E+02  0.93906184118E+02  0.00000000000E+00 0. -1.
         21    1    1    2  502  501 -0.10627240854E+02  0.29669465514E+02 -0.47468643667E+02  0.56977956822E+02  0.00000000000E+00 0.  1.
<scales pt_clust_5="13000.00000" pt_clust_6="13000.00000" pt_clust_7="13000.00000" pt_clust_8="13000.00000" pt_clust_9="31.51532"></scales>
<clustering>
<clus scale="   31.515">  2  9  1 -1</clus>
<clus scale="   80.160">  5  6 -1 -1</clus>
<clus scale="   90.765">  7  8 -1 -1</clus>
<clus scale="  129.346">  2  5  1 -1</clus>
<clus scale="  136.173">  1  5  2 -1</clus>
</clustering>
</event>
<event>
 9    1  0.2802611E-005  0.1644554E+03  0.7546771E-02  0.1206626E+00
         -2   -1    0    0    0  501 -0.00000000000E+00  0.00000000000E+00  0.11455745140E+03  0.11455745140E+03  0.00000000000E+00 0.  1.
          1   -1    0    0  502    0  0.00000000000E+00 -0.00000000000E+00 -0.47880575508E+03  0.47880575508E+03  0.00000000000E+00 0. -1.
         23    2    1    2    0    0  0.24687998412E+02 -0.10026366824E+03 -0.11619114914E+03  0.17788357126E+03  0.86486307283E+02 0.  0.
        -24    2    1    2    0    0  0.11992337811E+02 -0.57704990037E+02 -0.23201745649E+03  0.25251701381E+03  0.80368277983E+02 0.  0.
         11    1    4    4    0    0  0.26521586477E+02 -0.38968775700E+02 -0.22170693878E+03  0.22666258344E+03  0.00000000000E+00 0. -1.
        -12    1    4    4    0    0 -0.14529248666E+02 -0.18736214337E+02 -0.10310517718E+02  0.25854430377E+02  0.00000000000E+00 0.  1.
        -11    1    3    3    0    0 -0.32027413765E+02 -0.39755681923E+02 -0.53268340744E+02  0.73782014090E+02  0.00000000000E+00 0.  1.
         11    1    3    3    0    0  0.56715412177E+02 -0.60507986321E+02 -0.62922808401E+02  0.10410155716E+03  0.00000000000E+00 0. -1.
         21    1    1    2  502  501 -0.36680336223E+02  0.15796865828E+03 -0.16039698036E+02  0.16296262141E+03  0.00000000000E+00 0.  1.
<scales pt_clust_5="13000.00000" pt_clust_6="13000.00000" pt_clust_7="13000.00000" pt_clust_8="13000.00000" pt_clust_9="139.87746"></scales>
<clustering>
<clus scale="   80.368">  5  6 -1 -1</clus>
<clus scale="   86.486">  7  8 -1 -1</clus>
<clus scale="   99.663">  2  5  1 -1</clus>
<clus scale="  139.877">  1  9  2 -1</clus>
<clus scale="   99.663">  2  5  1 -1</clus>
</clustering>
</event>
<event>
 9    1  0.2802611E-005  0.1275083E+03  0.7546771E-02  0.1233251E+00
         -2   -1    0    0    0  501 -0.00000000000E+00  0.00000000000E+00  0.19752514876E+03  0.19752514876E+03  0.00000000000E+00 0.  1.
          1   -1    0    0  502    0  0.00000000000E+00 -0.00000000000E+00 -0.30070641061E+03  0.30070641061E+03  0.00000000000E+00 0. -1.
         23    2    1    2    0    0 -0.12232081339E+03 -0.16412798169E+02  0.93598499515E+02  0.17980344026E+03  0.91306279546E+02 0.  0.
        -24    2    1    2    0    0  0.85486128666E+02 -0.22064435249E+01 -0.23400066484E+03  0.26285055335E+03  0.83793529965E+02 0.  0.
         13    1    4    4    0    0  0.97219694485E+02  0.11070771437E+02 -0.16707407532E+03  0.19361812317E+03  0.00000000000E+00 0. -1.
        -14    1    4    4    0    0 -0.11733565818E+02 -0.13277214962E+02 -0.66926589519E+02  0.69232430180E+02  0.00000000000E+00 0.  1.
        -11    1    3    3    0    0 -0.92055942036E+02  0.15027943603E+02  0.98777272012E+02  0.13585685488E+03  0.00000000000E+00 0.  1.
         11    1    3    3    0    0 -0.30264871359E+02 -0.31440741772E+02 -0.51787724973E+01  0.43946585375E+02  0.00000000000E+00 0. -1.
         21    1    1    2  502  501  0.36834684729E+02  0.18619241694E+02  0.37220903477E+02  0.55577565761E+02  0.00000000000E+00 0.  1.
<scales pt_clust_5="13000.00000" pt_clust_6="13000.00000" pt_clust_7="13000.00000" pt_clust_8="13000.00000" pt_clust_9="41.27312"></scales>
<clustering>
<clus scale="   41.273">  1  9  2 -1</clus>
<clus scale="   83.794">  5  6 -1 -1</clus>
<clus scale="   91.306">  7  8 -1 -1</clus>
<clus scale="  122.241">  2  5  1 -1</clus>
<clus scale="  122.241">  2  5  1 -1</clus>
</clustering>
</event>
<event>
 9    1  0.2802611E-005  0.1100905E+03  0.7546771E-02  0.1267421E+00
         -2   -1    0    0    0  501 -0.00000000000E+00  0.00000000000E+00  0.17303168080E+02  0.17303168080E+02  0.00000000000E+00 0.  1.
          1   -1    0    0  502    0  0.00000000000E+00 -0.00000000000E+00 -0.87014742452E+03  0.87014742452E+03  0.00000000000E+00 0. -1.
        -24    2    1    2    0    0 -0.79306905198E+01  0.67496190663E+02 -0.26215984445E+03  0.28031628929E+03  0.72324313995E+02 0.  0.
         23    2    1    2    0    0  0.33750700538E+02 -0.49305278155E+02 -0.43262994692E+03  0.44595491211E+03  0.90205279390E+02 0.  0.
         13    1    3    3    0    0 -0.37541920633E+02  0.55473741315E+02 -0.18742912058E+03  0.19903870735E+03  0.00000000000E+00 0. -1.
        -14    1    3    3    0    0  0.29611230113E+02  0.12022449348E+02 -0.74730723868E+02  0.81277581946E+02  0.00000000000E+00 0.  1.
        -13    1    4    4    0    0 -0.25285013428E+02 -0.61520114246E+01 -0.49651095059E+02  0.56057206398E+02  0.00000000000E+00 0.  1.
         13    1    4    4    0    0  0.59035713966E+02 -0.43153266731E+02 -0.38297885186E+03  0.38989770572E+03  0.00000000000E+00 0. -1.
         21    1    1    2  502  501 -0.25820010018E+02 -0.18190912508E+02 -0.15805446507E+03  0.16117939119E+03  0.00000000000E+00 0. -1.
<scales pt_clust_5="13000.00000" pt_clust_6="13000.00000" pt_clust_7="13000.00000" pt_clust_8="13000.00000" pt_clust_9="31.58452"></scales>
<clustering>
<clus scale="   31.585">  2  9  1 -1</clus>
<clus scale="   72.324">  5  6 -1 -1</clus>
<clus scale="   90.205">  7  8 -1 -1</clus>
<clus scale="   95.988">  1  5  2 -1</clus>
<clus scale="   31.585">  2  5  1 -1</clus>
</clustering>
</event>
<event>
 9    1  0.2802611E-005  0.1849198E+03  0.7546771E-02  0.1190516E+00
         -2   -1    0    0    0  501 -0.00000000000E+00  0.00000000000E+00  0.15481373411E+03  0.15481373411E+03  0.00000000000E+00 0.  1.
          1   -1    0    0  502    0  0.00000000000E+00 -0.00000000000E+00 -0.43968029320E+03  0.43968029320E+03  0.00000000000E+00 0. -1.
        -24    2    1    2    0    0  0.91042629151E+02 -0.13052027711E+03 -0.41211394339E+02  0.18382048383E+03  0.82263528932E+02 0.  0.
         23    2    1    2    0    0 -0.25241041621E+02 -0.30046069314E+02 -0.21209881802E+03  0.23430120001E+03  0.91494629653E+02 0.  0.
         13    1    3    3    0    0  0.20341368643E+02 -0.22210739768E+02 -0.45316774586E+02  0.54412299144E+02  0.00000000000E+00 0. -1.
        -14    1    3    3    0    0  0.70701260508E+02 -0.10830953734E+03  0.41053802467E+01  0.12940818468E+03  0.00000000000E+00 0.  1.
        -13    1    4    4    0    0 -0.54619395281E+02  0.29425059513E+01 -0.10356922588E+03  0.11712609116E+03  0.00000000000E+00 0. -1.
         13    1    4    4    0    0  0.29378353660E+02 -0.32988575265E+02 -0.10852959215E+03  0.11717510885E+03  0.00000000000E+00 0.  1.
         21    1    1    2  502  501 -0.65801587530E+02  0.16056634642E+03 -0.31556346721E+02  0.17637234347E+03  0.00000000000E+00 0. -1.
<scales pt_clust_5="13000.00000" pt_clust_6="13000.00000" pt_clust_7="13000.00000" pt_clust_8="13000.00000" pt_clust_9="165.61412"></scales>
<clustering>
<clus scale="   82.264">  5  6 -1 -1</clus>
<clus scale="   91.495">  7  8 -1 -1</clus>
<clus scale="   99.555">  2  7  1 -1</clus>
<clus scale="  165.614">  2  9  1 -1</clus>
<clus scale="   99.555">  2  5  1 -1</clus>
</clustering>
</event>
<event>
 9    1  0.2802611E-005  0.1433206E+03  0.7546771E-02  0.1210393E+00
          1   -1    0    0  502    0  0.00000000000E+00  0.00000000000E+00  0.34818625527E+03  0.34818625527E+03  0.00000000000E+00 0. -1.
         -2   -1    0    0    0  501 -0.00000000000E+00 -0.00000000000E+00 -0.93353842496E+02  0.93353842496E+02  0.00000000000E+00 0.  1.
         23    2    1    2    0    0  0.11500166637E+03  0.38922562936E+02  0.11102154945E+03  0.18653651178E+03  0.87918920673E+02 0.  0.
        -24    2    1    2    0    0 -0.10977147562E+03 -0.35271830616E+01  0.16458973583E+03  0.21362787628E+03  0.80528693665E+02 0.  0.
         13    1    4    4    0    0 -0.33480370710E+02  0.29708231387E+00  0.12128118413E+03  0.12581792044E+03  0.00000000000E+00 0. -1.
        -14    1    4    4    0    0 -0.76291104908E+02 -0.38242653755E+01  0.43308551700E+02  0.87809955837E+02  0.00000000000E+00 0.  1.
        -11    1    3    3    0    0  0.58304656349E+02  0.49211251172E+02  0.20111738611E+02  0.78902865752E+02  0.00000000000E+00 0.  1.
         11    1    3    3    0    0  0.56697010017E+02 -0.10288688236E+02  0.90909810839E+02  0.10763364603E+03  0.00000000000E+00 0. -1.
         21    1    1    2  502  501 -0.52301907476E+01 -0.35395379875E+02 -0.20778872501E+02  0.41375709711E+02  0.00000000000E+00 0. -1.
<scales pt_clust_5="13000.00000" pt_clust_6="13000.00000" pt_clust_7="13000.00000" pt_clust_8="13000.00000" pt_clust_9="35.77971"></scales>
<clustering>
<clus scale="   35.780">  2  9  1 -1</clus>
<clus scale="   80.529">  5  6 -1 -1</clus>
<clus scale="   87.919">  7  8 -1 -1</clus>
<clus scale="  138.910">  1  5  2 -1</clus>
<clus scale="  138.910">  1  5  2 -1</clus>
</clustering>
</event>
<event>
 9    1  0.2802611E-005  0.1068176E+03  0.7546771E-02  0.1267782E+00
          1   -1    0    0  502    0  0.00000000000E+00  0.00000000000E+00  0.52074754145E+03  0.52074754145E+03  0.00000000000E+00 0. -1.
         -2   -1    0    0    0  501 -0.00000000000E+00 -0.00000000000E+00 -0.27719791342E+02  0.27719791342E+02  0.00000000000E+00 0.  1.
        -24    2    1    2    0    0 -0.71761451906E+02 -0.46215972851E+01  0.24058756835E+03  0.26536643014E+03  0.85824816101E+02 0.  0.
         23    2    1    2    0    0  0.48276424529E+02  0.40237661161E+01  0.22672643906E+03  0.24827131069E+03  0.88808567618E+02 0.  0.
         11    1    3    3    0    0 -0.39211330818E+02 -0.35091906865E+02  0.62110555300E+02  0.81404492944E+02  0.00000000000E+00 0. -1.
        -12    1    3    3    0    0 -0.32550121089E+02  0.30470309580E+02  0.17847701305E+03  0.18396193720E+03  0.00000000000E+00 0.  1.
        -13    1    4    4    0    0  0.39398557128E+02  0.44081040618E+02  0.11621116619E+03  0.13038565716E+03  0.00000000000E+00 0.  1.
         13    1    4    4    0    0  0.88778674008E+01 -0.40057274502E+02  0.11051527287E+03  0.11788565353E+03  0.00000000000E+00 0. -1.
         21    1    1    2  502  501  0.23485027378E+02  0.59783116901E+00  0.25713742700E+02  0.34829591968E+02  0.00000000000E+00 0.  1.
<scales pt_clust_5="13000.00000" pt_clust_6="13000.00000" pt_clust_7="13000.00000" pt_clust_8="13000.00000" pt_clust_9="23.49264"></scales>
<clustering>
<clus scale="   23.493">  2  9  1 -1</clus>
<clus scale="   85.825">  5  6 -1 -1</clus>
<clus scale="   88.809">  7  8 -1 -1</clus>
<clus scale="  104.350">  2  5  1 -1</clus>
<clus scale="  106.818">  1  5  2 -1</clus>
</clustering>
</event>
<event>
 9    1  0.2802611E-005  0.1167100E+03  0.7546771E-02  0.1251737E+00
         -2   -1    0    0    0  501 -0.00000000000E+00  0.00000000000E+00  0.75588756775E+02  0.75588756775E+02  0.00000000000E+00 0.  1.
          1   -1    0    0  502    0  0.00000000000E+00 -0.00000000000E+00 -0.44020244555E+03  0.44020244555E+03  0.00000000000E+00 0. -1.
        -24    2    1    2    0    0 -0.54274947752E+02 -0.20693300505E+02 -0.74950830706E+02  0.12451361627E+03  0.80697155914E+02 0.  0.
         23    2    1    2    0    0  0.82842439940E+02  0.10998133314E+01 -0.32164701549E+03  0.34412896280E+03  0.90021447563E+02 0.  0.
         11    1    3    3    0    0  0.20860389174E+02 -0.19746200631E+00 -0.22115480291E+02  0.30402126508E+02  0.00000000000E+00 0. -1.
        -12    1    3    3    0    0 -0.75135336926E+02 -0.20495838499E+02 -0.52835350415E+02  0.94111489757E+02  0.00000000000E+00 0.  1.
        -13    1    4    4    0    0 -0.48302055466E-01  0.31008258378E+02 -0.53071138406E+02  0.61465926759E+02  0.00000000000E+00 0.  1.
         13    1    4    4    0    0  0.82890741995E+02 -0.29908445046E+02 -0.26857587708E+03  0.28266303604E+03  0.00000000000E+00 0. -1.
         21    1    1    2  502  501 -0.28567492188E+02  0.19593487174E+02  0.31984157419E+02  0.47148623260E+02  0.00000000000E+00 0.  1.
<scales pt_clust_5="13000.00000" pt_clust_6="13000.00000" pt_clust_7="13000.00000" pt_clust_8="13000.00000" pt_clust_9="34.64111"></scales>
<clustering>
<clus scale="   34.641">  1  9  2 -1</clus>
<clus scale="   80.697">  5  6 -1 -1</clus>
<clus scale="   90.021">  7  8 -1 -1</clus>
<clus scale="  109.679">  1  5  2 -1</clus>
<clus scale="  116.710">  2  5  1 -1</clus>
</clustering>
</event>
<event>
 9    1  0.2802611E-005  0.2328104E+03  0.7546771E-02  0.1125377E+00
         -2   -1    0    0    0  501 -0.00000000000E+00  0.00000000000E+00  0.23127884237E+03  0.23127884237E+03  0.00000000000E+00 0.  1.
          1   -1    0    0  502    0  0.00000000000E+00 -0.00000000000E+00 -0.71835002438E+03  0.71835002438E+03  0.00000000000E+00 0. -1.
         23    2    1    2    0    0 -0.17662423520E+03  0.15170793091E+03  0.70910380265E+02  0.25972162892E+03  0.90640089036E+02 0.  0.
        -24    2    1    2    0    0  0.13797188302E+03 -0.16151192277E+03 -0.59419021452E+03  0.63604455052E+03  0.79801738748E+02 0.  0.
         11    1    4    4    0    0  0.13495969928E+03 -0.10956778576E+03 -0.43008536045E+03  0.46388860449E+03  0.00000000000E+00 0. -1.
        -12    1    4    4    0    0  0.30121837374E+01 -0.51944137013E+02 -0.16410485408E+03  0.17215594603E+03  0.00000000000E+00 0.  1.
        -11    1    3    3    0    0 -0.16596323036E+03  0.13193863325E+03  0.31479180051E+02  0.21434209935E+03  0.00000000000E+00 0.  1.
         11    1    3    3    0    0 -0.10661004836E+02  0.19769297659E+02  0.39431200213E+02  0.45379529573E+02  0.00000000000E+00 0. -1.
         21    1    1    2  502  501  0.38652352181E+02  0.98039918632E+01  0.36208652253E+02  0.53862687304E+02  0.00000000000E+00 0.  1.
<scales pt_clust_5="13000.00000" pt_clust_6="13000.00000" pt_clust_7="13000.00000" pt_clust_8="13000.00000" pt_clust_9="39.87634"></scales>
<clustering>
<clus scale="   39.876">  1  9  2 -1</clus>
<clus scale="   79.802">  5  6 -1 -1</clus>
<clus scale="   90.640">  7  8 -1 -1</clus>
<clus scale="  228.809">  2  5  1 -1</clus>
<clus scale="  228.809">  2  5  1 -1</clus>
</clustering>
</event>
<event>
 9    1  0.2802611E-005  0.1315454E+03  0.7546771E-02  0.1242942E+00
          1   -1    0    0  502    0  0.00000000000E+00  0.00000000000E+00  0.26867795493E+03  0.26867795493E+03  0.00000000000E+00 0. -1.
         -2   -1    0    0    0  501 -0.00000000000E+00 -0.00000000000E+00 -0.13109418426E+03  0.13109418426E+03  0.00000000000E+00 0.  1.
        -24    2    1    2    0    0  0.10668129839E+03 -0.94873055038E+01  0.71006950448E+02  0.15123907471E+03  0.79751879700E+02 0.  0.
         23    2    1    2    0    0 -0.46195766472E+01 -0.10112395992E+02  0.10366081429E+03  0.13818830493E+03  0.90701941318E+02 0.  0.
         13    1    3    3    0    0  0.89218283018E+02 -0.34313671334E+01  0.88555079013E+02  0.12575244858E+03  0.00000000000E+00 0. -1.
        -14    1    3    3    0    0  0.17463015373E+02 -0.60559383704E+01 -0.17548128564E+02  0.25486626132E+02  0.00000000000E+00 0.  1.
        -13    1    4    4    0    0  0.34939926325E+00 -0.40983513951E+02  0.14126823124E+02  0.43351327859E+02  0.00000000000E+00 0.  1.
         13    1    4    4    0    0 -0.49689759104E+01  0.30871117958E+02  0.89533991169E+02  0.94836977072E+02  0.00000000000E+00 0. -1.
         21    1    1    2  502  501 -0.10206172174E+03  0.19599701496E+02 -0.37083994073E+02  0.11034475955E+03  0.00000000000E+00 0.  1.
<scales pt_clust_5="13000.00000" pt_clust_6="13000.00000" pt_clust_7="13000.00000" pt_clust_8="13000.00000" pt_clust_9="104.61282"></scales>
<clustering>
<clus scale="   79.752">  5  6 -1 -1</clus>
<clus scale="   90.702">  7  8 -1 -1</clus>
<clus scale="   91.381">  1  7  2 -1</clus>
<clus scale="  104.613">  2  9  1 -1</clus>
<clus scale="   91.381">  1  5  2 -1</clus>
</clustering>
</event>
<event>
 9    1  0.2802611E-005  0.1243775E+03  0.7546771E-02  0.1240841E+00
         -2   -1    0    0    0  501 -0.00000000000E+00  0.00000000000E+00  0.21659021749E+03  0.21659021749E+03  0.00000000000E+00 0.  1.
          1   -1    0    0  502    0  0.00000000000E+00 -0.00000000000E+00 -0.32270704585E+03  0.32270704585E+03  0.00000000000E+00 0. -1.
         23    2    1    2    0    0 -0.39082590370E+02 -0.63190880939E+02  0.26531648403E+01  0.96835823118E+02  0.62045153328E+02 0.  0.
        -24    2    1    2    0    0  0.30551179226E+02  0.96171373834E+02 -0.25837717418E+03  0.28902478720E+03  0.81205023137E+02 0.  0.
         13    1    4    4    0    0  0.28566994184E+02  0.10788250962E+03 -0.19616429702E+03  0.22568814870E+03  0.00000000000E+00 0. -1.
        -14    1    4    4    0    0  0.19841850425E+01 -0.11711135790E+02 -0.62212877164E+02  0.63336638502E+02  0.00000000000E+00 0.  1.
        -13    1    3    3    0    0 -0.18839436424E+02 -0.46728106021E+02 -0.27143658332E+02  0.57229524240E+02  0.00000000000E+00 0. -1.
         13    1    3    3    0    0 -0.20243153946E+02 -0.16462774917E+02  0.29796823172E+02  0.39606298878E+02  0.00000000000E+00 0.  1.
         21    1    1    2  502  501  0.85314111432E+01 -0.32980492896E+02  0.14960718098E+03  0.15343665301E+03  0.00000000000E+00 0.  1.
<scales pt_clust_5="13000.00000" pt_clust_6="13000.00000" pt_clust_7="13000.00000" pt_clust_8="13000.00000" pt_clust_9="34.06608"></scales>
<clustering>
<clus scale="   34.066">  1  9  2 -1</clus>
<clus scale="   62.045">  7  8 -1 -1</clus>
<clus scale="   81.205">  5  6 -1 -1</clus>
<clus scale="  112.806">  1  7  2 -1</clus>
<clus scale="  124.378">  2  5  1 -1</clus>
</clustering>
</event>
<event>
 9    1  0.2802611E-005  0.1190851E+03  0.7546771E-02  0.1245326E+00
          1   -1    0    0  502    0  0.00000000000E+00  0.00000000000E+00  0.36894945120E+03  0.36894945120E+03  0.00000000000E+00 0. -1.
         -2   -1    0    0    0  501 -0.00000000000E+00 -0.00000000000E+00 -0.80397714763E+02  0.80397714763E+02  0.00000000000E+00 0.  1.
         23    2    1    2    0    0 -0.66007118418E+02 -0.18484372771E+02  0.13292780617E+02  0.11522981377E+03  0.91665698315E+02 0.  0.
        -24    2    1    2    0    0  0.92249436889E+02  0.56281714135E+02  0.23107958019E+03  0.27032773294E+03  0.89452338498E+02 0.  0.
         13    1    4    4    0    0  0.42163272206E+02  0.75490673142E+02  0.13602817912E+03  0.16118389737E+03  0.00000000000E+00 0. -1.
        -14    1    4    4    0    0  0.50086164683E+02 -0.19208959007E+02  0.95051401065E+02  0.10914383557E+03  0.00000000000E+00 0.  1.
        -13    1    3    3    0    0 -0.24866245027E+02 -0.43652665524E+02 -0.22622925321E+02  0.55097024413E+02  0.00000000000E+00 0.  1.
         13    1    3    3    0    0 -0.41140873390E+02  0.25168292752E+02  0.35915705938E+02  0.60132789362E+02  0.00000000000E+00 0. -1.
         21    1    1    2  502  501 -0.26242318471E+02 -0.37797341364E+02  0.44179375632E+02  0.63789619251E+02  0.00000000000E+00 0.  1.
<scales pt_clust_5="13000.00000" pt_clust_6="13000.00000" pt_clust_7="13000.00000" pt_clust_8="13000.00000" pt_clust_9="46.01411"></scales>
<clustering>
<clus scale="   46.014">  1  9  2 -1</clus>
<clus scale="   89.452">  5  6 -1 -1</clus>
<clus scale="   91.666">  7  8 -1 -1</clus>
<clus scale="  117.390">  1  5  2 -1</clus>
<clus scale="   46.014">  1  5  2 -1</clus>
</clustering>
</event>
<event>
 9    1  0.2802611E-005  0.1019331E+03  0.7546771E-02  0.1284496E+00
          1   -1    0    0  502    0  0.00000000000E+00  0.00000000000E+00  0.49086035357E+02  0.49086035357E+02  0.00000000000E+00 0. -1.
         -2   -1    0    0    0  501 -0.00000000000E+00 -0.00000000000E+00 -0.32581429954E+03  0.32581429954E+03  0.00000000000E+00 0.  1.
        -24    2    1    2    0    0 -0.17630896815E+01  0.37890385190E+02 -0.21279684636E+03  0.22964605157E+03  0.77563015699E+02 0.  0.
         23    2    1    2    0    0 -0.18758823709E+02 -0.47589134665E+02 -0.46090329594E+02  0.11638355248E+03  0.93830664503E+02 0.  0.
         13    1    3    3    0    0  0.25564097904E+02  0.39692441889E+02 -0.18377465258E+03  0.18974228832E+03  0.00000000000E+00 0. -1.
        -14    1    3    3    0    0 -0.27327187586E+02 -0.18020566983E+01 -0.29022193779E+02  0.39903763249E+02  0.00000000000E+00 0.  1.
        -13    1    4    4    0    0 -0.30099052200E+02 -0.17841968926E+02 -0.68862427361E+02  0.77241974991E+02  0.00000000000E+00 0.  1.
         13    1    4    4    0    0  0.11340228492E+02 -0.29747165739E+02  0.22772097767E+02  0.39141577491E+02  0.00000000000E+00 0. -1.
         21    1    1    2  502  501  0.20521913390E+02  0.96987494751E+01 -0.17841088228E+02  0.28870730849E+02  0.00000000000E+00 0. -1.
<scales pt_clust_5="13000.00000" pt_clust_6="13000.00000" pt_clust_7="13000.00000" pt_clust_8="13000.00000" pt_clust_9="22.69834"></scales>
<clustering>
<clus scale="   22.698">  1  9  2 -1</clus>
<clus scale="   77.563">  5  6 -1 -1</clus>
<clus scale="   87.191">  2  5  1 -1</clus>
<clus scale="   93.831">  7  8 -1 -1</clus>
<clus scale="   22.698">  1  5  2 -1</clus>
</clustering>
</event>
<event>
 9    1  0.2802611E-005  0.1162849E+03  0.7546771E-02  0.1254281E+00
         -2   -1    0    0    0  501 -0.00000000000E+00  0.00000000000E+00  0.50999133175E+02  0.50999133175E+02  0.00000000000E+00 0.  1.
          1   -1    0    0  502    0  0.00000000000E+00 -0.00000000000E+00 -0.53954679677E+03  0.53954679677E+03  0.00000000000E+00 0. -1.
        -24    2    1    2    0    0 -0.69404832326E+02 -0.38752518779E+02 -0.46366479151E+02  0.12192968694E+03  0.79988809878E+02 0.  0.
         23    2    1    2    0    0  0.66480536119E+02  0.10014670187E+02 -0.40720664198E+03  0.42325509146E+03  0.93849176156E+02 0.  0.
         13    1    3    3    0    0  0.69952604423E+01 -0.27302561850E+02 -0.33220833246E+02  0.43565896223E+02  0.00000000000E+00 0. -1.
        -14    1    3    3    0    0 -0.76400092769E+02 -0.11449956930E+02 -0.13145645905E+02  0.78363790714E+02  0.00000000000E+00 0.  1.
        -11    1    4    4    0    0  0.88182322330E+02 -0.28086377592E+01 -0.34576313967E+03  0.35684192463E+03  0.00000000000E+00 0. -1.
         11    1    4    4    0    0 -0.21701786211E+02  0.12823307946E+02 -0.61443502314E+02  0.66413166827E+02  0.00000000000E+00 0.  1.
         21    1    1    2  502  501  0.29242962077E+01  0.28737848592E+02 -0.34974542463E+02  0.45361151556E+02  0.00000000000E+00 0. -1.
<scales pt_clust_5="13000.00000" pt_clust_6="13000.00000" pt_clust_7="13000.00000" pt_clust_8="13000.00000" pt_clust_9="28.88625"></scales>
<clustering>
<clus scale="   28.886">  1  9  2 -1</clus>
<clus scale="   79.989">  5  6 -1 -1</clus>
<clus scale="   93.849">  7  8 -1 -1</clus>
<clus scale="  105.417">  1  5  2 -1</clus>
<clus scale="  116.285">  2  5  1 -1</clus>
</clustering>
</event>
<event>
 9    1  0.2802611E-005  0.8837508E+02  0.7546771E-02  0.1309691E+00
          1   -1    0    0  502    0  0.00000000000E+00  0.00000000000E+00  0.13998340131E+03  0.13998340131E+03  0.00000000000E+00 0. -1.
         -2   -1    0    0    0  501 -0.00000000000E+00 -0.00000000000E+00 -0.17271968209E+03  0.17271968209E+03  0.00000000000E+00 0.  1.
        -24    2    1    2    0    0  0.10808550148E+01 -0.22329920422E+02 -0.12470265185E+03  0.15186974483E+03  0.83748877155E+02 0.  0.
         23    2    1    2    0    0 -0.53975998481E+01 -0.16160972616E+01  0.10158376633E+03  0.13466961672E+03  0.88232070310E+02 0.  0.
         11    1    3    3    0    0 -0.81936911762E+01  0.20844479088E+02 -0.97421828316E+02  0.99963200809E+02  0.00000000000E+00 0. -1.
        -12    1    3    3    0    0  0.92745461910E+01 -0.43174399510E+02 -0.27280823530E+02  0.51906544025E+02  0.00000000000E+00 0.  1.
        -13    1    4    4    0    0 -0.35508271064E+02  0.48692073672E+01  0.97150819407E+02  0.10355108983E+03  0.00000000000E+00 0. -1.
         13    1    4    4    0    0  0.30110671216E+02 -0.64853046288E+01  0.44329469258E+01  0.31118526888E+02  0.00000000000E+00 0.  1.
         21    1    1    2  502  501  0.43167448333E+01  0.23946017683E+02 -0.96173952665E+01  0.26163721841E+02  0.00000000000E+00 0.  1.
<scales pt_clust_5="13000.00000" pt_clust_6="13000.00000" pt_clust_7="13000.00000" pt_clust_8="13000.00000" pt_clust_9="24.33200"></scales>
<clustering>
<clus scale="   24.332">  2  9  1 -1</clus>
<clus scale="   83.749">  5  6 -1 -1</clus>
<clus scale="   83.900">  2  5  1 -1</clus>
<clus scale="   88.232">  7  8 -1 -1</clus>
<clus scale="   88.375">  1  5  2 -1</clus>
</clustering>
</event>
<event>
 9    1  0.2802611E-005  0.1820793E+03  0.7546771E-02  0.1188479E+00
          1   -1    0    0  502    0  0.00000000000E+00  0.00000000000E+00  0.63740753786E+03  0.63740753786E+03  0.00000000000E+00 0. -1.
         -2   -1    0    0    0  501 -0.00000000000E+00 -0.00000000000E+00 -0.19432855480E+03  0.19432855480E+03  0.00000000000E+00 0.  1.
        -24    2    1    2    0    0 -0.50747891143E+02  0.51579910790E+02 -0.82475305492E+02  0.13675972115E+03  0.81640735307E+02 0.  0.
         23    2    1    2    0    0 -0.71003378277E+02 -0.14828672658E+03  0.50503958534E+03  0.53814387209E+03  0.86622233335E+02 0.  0.
         13    1    3    3    0    0  0.95281019604E+01  0.18438056332E+02 -0.61406421102E+02  0.64818941683E+02  0.00000000000E+00 0. -1.
        -14    1    3    3    0    0 -0.60275993103E+02  0.33141854458E+02 -0.21068884390E+02  0.71940779471E+02  0.00000000000E+00 0.  1.
        -11    1    4    4    0    0 -0.77921538027E+02 -0.11345423020E+03  0.30018990677E+03  0.33023871452E+03  0.00000000000E+00 0.  1.
         11    1    4    4    0    0  0.69181597497E+01 -0.34832496380E+02  0.20484967856E+03  0.20790515758E+03  0.00000000000E+00 0. -1.
         21    1    1    2  502  501  0.12175126942E+03  0.96706815789E+02  0.20514703218E+02  0.15683249942E+03  0.00000000000E+00 0.  1.
<scales pt_clust_5="13000.00000" pt_clust_6="13000.00000" pt_clust_7="13000.00000" pt_clust_8="13000.00000" pt_clust_9="160.15446"></scales>
<clustering>
<clus scale="   81.641">  5  6 -1 -1</clus>
<clus scale="   86.622">  7  8 -1 -1</clus>
<clus scale="  109.092">  2  5  1 -1</clus>
<clus scale="  160.154">  2  9  1 -1</clus>
<clus scale="  182.079">  1  5  2 -1</clus>
</clustering>
</event>
<event>
 9    1  0.2802611E-005  0.1556329E+03  0.7546771E-02  0.1195618E+00
          1   -1    0    0  502    0  0.00000000000E+00  0.00000000000E+00  0.57598258045E+03  0.57598258045E+03  0.00000000000E+00 0. -1.
         -2   -1    0    0    0  501 -0.00000000000E+00 -0.00000000000E+00 -0.85489921791E+02  0.85489921791E+02  0.00000000000E+00 0.  1.
        -24    2    1    2    0    0  0.37591874405E+02 -0.91191104500E+02  0.14529569016E+03  0.19269640547E+03  0.79322761823E+02 0.  0.
         23    2    1    2    0    0  0.12123202595E+02  0.16056301321E+03  0.33529716093E+03  0.38285720018E+03  0.90708303638E+02 0.  0.
         11    1    3    3    0    0  0.21963130540E+02 -0.60239336810E+01  0.82891434278E+02  0.85963112768E+02  0.00000000000E+00 0. -1.
        -12    1    3    3    0    0  0.15628743865E+02 -0.85167170819E+02  0.62404255880E+02  0.10673329271E+03  0.00000000000E+00 0.  1.
        -13    1    4    4    0    0 -0.24665465270E+02  0.12961787712E+03  0.28036163924E+03  0.30985775447E+03  0.00000000000E+00 0.  1.
         13    1    4    4    0    0  0.36788667865E+02  0.30945136096E+02  0.54935521690E+02  0.72999445715E+02  0.00000000000E+00 0. -1.
         21    1    1    2  502  501 -0.49715077000E+02 -0.69371908714E+02  0.98998075667E+01  0.85918896581E+02  0.00000000000E+00 0. -1.
<scales pt_clust_5="13000.00000" pt_clust_6="13000.00000" pt_clust_7="13000.00000" pt_clust_8="13000.00000" pt_clust_9="85.34665"></scales>
<clustering>
<clus scale="   79.323">  5  6 -1 -1</clus>
<clus scale="   85.347">  2  9  1 -1</clus>
<clus scale="   90.708">  7  8 -1 -1</clus>
<clus scale="  149.284">  2  5  1 -1</clus>
<clus scale="  155.633">  1  5  2 -1</clus>
</clustering>
</event>
<event>
 9    1  0.2802611E-005  0.9857500E+02  0.7546771E-02  0.1288794E+00
         -2   -1    0    0    0  501 -0.00000000000E+00  0.00000000000E+00  0.11132565211E+03  0.11132565211E+03  0.00000000000E+00 0.  1.
          1   -1    0    0  502    0  0.00000000000E+00 -0.00000000000E+00 -0.23901749041E+03  0.23901749041E+03  0.00000000000E+00 0. -1.
         23    2    1    2    0    0  0.63038845331E+02  0.51181233947E+02 -0.24336384648E+02  0.12468079582E+03  0.91430993104E+02 0.  0.
        -24    2    1    2    0    0 -0.29566409070E+02  0.84263068766E+01 -0.12667863987E+03  0.15343053981E+03  0.80921428280E+02 0.  0.
         11    1    4    4    0    0 -0.32683620685E+02  0.33924536675E+02 -0.11674129881E+03  0.12588734685E+03  0.00000000000E+00 0. -1.
        -12    1    4    4    0    0  0.31172116144E+01 -0.25498229798E+02 -0.99373410589E+01  0.27543192959E+02  0.00000000000E+00 0.  1.
        -13    1    3    3    0    0  0.29402649011E+02  0.34844097229E+01  0.31976217426E+02  0.43579070216E+02  0.00000000000E+00 0.  1.
         13    1    3    3    0    0  0.33636196320E+02  0.47696824224E+02 -0.56312602074E+02  0.81101725606E+02  0.00000000000E+00 0. -1.
         21    1    1    2  502  501 -0.33472436261E+02 -0.59607540824E+02  0.23323186215E+02  0.72231806897E+02  0.00000000000E+00 0.  1.
<scales pt_clust_5="13000.00000" pt_clust_6="13000.00000" pt_clust_7="13000.00000" pt_clust_8="13000.00000" pt_clust_9="68.36273"></scales>
<clustering>
<clus scale="   68.363">  1  9  2 -1</clus>
<clus scale="   80.921">  5  6 -1 -1</clus>
<clus scale="   88.914">  2  5  1 -1</clus>
<clus scale="   91.431">  7  8 -1 -1</clus>
<clus scale="   88.914">  2  5  1 -1</clus>
</clustering>
</event>
<event>
 9    1  0.2802611E-005  0.9390601E+02  0.7546771E-02  0.1303839E+00
         -2   -1    0    0    0  501 -0.00000000000E+00  0.00000000000E+00  0.69036260298E+02  0.69036260298E+02  0.00000000000E+00 0.  1.
          1   -1    0    0  502    0  0.00000000000E+00 -0.00000000000E+00 -0.39108729663E+03  0.39108729663E+03  0.00000000000E+00 0. -1.
        -24    2    1    2    0    0  0.25196440072E+00 -0.95747355325E+01 -0.71171681485E+02  0.10533068018E+03  0.77054557916E+02 0.  0.
         23    2    1    2    0    0  0.12407066664E+01 -0.19876633118E+02 -0.29029661443E+03  0.30556553133E+03  0.93282097382E+02 0.  0.
         11    1    3    3    0    0 -0.22271734614E+02 -0.34614313425E+02 -0.52859656665E+02  0.66994956224E+02  0.00000000000E+00 0. -1.
        -12    1    3    3    0    0  0.22523699015E+02  0.25039577893E+02 -0.18312024820E+02  0.38335723958E+02  0.00000000000E+00 0.  1.
        -13    1    4    4    0    0  0.39591353376E+02 -0.29099327929E+02 -0.10246187833E+03  0.11363398549E+03  0.00000000000E+00 0.  1.
         13    1    4    4    0    0 -0.38350646710E+02  0.92226948107E+01 -0.18783473611E+03  0.19193154585E+03  0.00000000000E+00 0. -1.
         21    1    1    2  502  501 -0.14926710671E+01  0.29451368651E+02  0.39417259589E+02  0.49227345407E+02  0.00000000000E+00 0.  1.
<scales pt_clust_5="13000.00000" pt_clust_6="13000.00000" pt_clust_7="13000.00000" pt_clust_8="13000.00000" pt_clust_9="29.48917"></scales>
<clustering>
<clus scale="   29.489">  1  9  2 -1</clus>
<clus scale="   77.055">  5  6 -1 -1</clus>
<clus scale="   77.809">  1  5  2 -1</clus>
<clus scale="   93.282">  7  8 -1 -1</clus>
<clus scale="   93.906">  2  5  1 -1</clus>
</clustering>
</event>
<event>
 9    1  0.2802611E-005  0.8842520E+02  0.7546771E-02  0.1310512E+00
          1   -1    0    0  502    0  0.00000000000E+00  0.00000000000E+00  0.33184483640E+03  0.33184483640E+03  0.00000000000E+00 0. -1.
         -2   -1    0    0    0  501 -0.00000000000E+00 -0.00000000000E+00 -0.43917474304E+02  0.43917474304E+02  0.00000000000E+00 0.  1.
        -24    2    1    2    0    0 -0.11607437535E+02 -0.28970494712E+01  0.69830589440E+02  0.10801573702E+03  0.81535039829E+02 0.  0.
         23    2    1    2    0    0 -0.10431479476E+02  0.16388563325E+02  0.22397425277E+03  0.24124601555E+03  0.87508704378E+02 0.  0.
         13    1    3    3    0    0 -0.20535405572E+02  0.10759065470E+02  0.83544920481E+02  0.86701869126E+02  0.00000000000E+00 0. -1.
        -14    1    3    3    0    0  0.89279680370E+01 -0.13656114941E+02 -0.13714331041E+02  0.21313867890E+02  0.00000000000E+00 0.  1.
        -13    1    4    4    0    0 -0.42100160477E+02  0.16719120265E+02  0.65498735691E+02  0.79636906467E+02  0.00000000000E+00 0. -1.
         13    1    4    4    0    0  0.31668681000E+02 -0.33055694039E+00  0.15847551708E+03  0.16160910908E+03  0.00000000000E+00 0.  1.
         21    1    1    2  502  501  0.22038917011E+02 -0.13491513854E+02 -0.58774801166E+01  0.26500558138E+02  0.00000000000E+00 0. -1.
<scales pt_clust_5="13000.00000" pt_clust_6="13000.00000" pt_clust_7="13000.00000" pt_clust_8="13000.00000" pt_clust_9="25.84057"></scales>
<clustering>
<clus scale="   25.841">  2  9  1 -1</clus>
<clus scale="   81.535">  5  6 -1 -1</clus>
<clus scale="   82.518">  2  5  1 -1</clus>
<clus scale="   87.509">  7  8 -1 -1</clus>
<clus scale="   88.425">  1  5  2 -1</clus>
</clustering>
</event>
<event>
 9    1  0.2802611E-005  0.9631382E+02  0.7546771E-02  0.1292147E+00
         -2   -1    0    0    0  501 -0.00000000000E+00  0.00000000000E+00  0.16236854083E+03  0.16236854083E+03  0.00000000000E+00 0.  1.
          1   -1    0    0  502    0  0.00000000000E+00 -0.00000000000E+00 -0.36446151977E+03  0.36446151977E+03  0.00000000000E+00 0. -1.
        -24    2    1    2    0    0 -0.45059012357E+02 -0.58639869583E+02 -0.15669526651E+03  0.19139755279E+03  0.81306013122E+02 0.  0.
         23    2    1    2    0    0 -0.22873722877E+02  0.32857772051E+00 -0.16222499972E+03  0.18824664460E+03  0.92717492993E+02 0.  0.
         11    1    3    3    0    0 -0.49520648230E+02  0.84949214742E+00 -0.82086686257E+02  0.95870956492E+02  0.00000000000E+00 0. -1.
        -12    1    3    3    0    0  0.44616358737E+01 -0.59489361730E+02 -0.74608580251E+02  0.95526596301E+02  0.00000000000E+00 0.  1.
        -13    1    4    4    0    0 -0.47654589521E+02  0.28182654564E+02 -0.11842866124E+03  0.13073090578E+03  0.00000000000E+00 0. -1.
         13    1    4    4    0    0  0.24780866644E+02 -0.27854076844E+02 -0.43796338473E+02  0.57515738821E+02  0.00000000000E+00 0.  1.
         21    1    1    2  502  501  0.67932735233E+02  0.58311291862E+02  0.11682728729E+03  0.14718586321E+03  0.00000000000E+00 0.  1.
<scales pt_clust_5="13000.00000" pt_clust_6="13000.00000" pt_clust_7="13000.00000" pt_clust_8="13000.00000" pt_clust_9="89.52689"></scales>
<clustering>
<clus scale="   81.306">  5  6 -1 -1</clus>
<clus scale="   89.527">  1  9  2 -1</clus>
<clus scale="   89.527">  1  5  2 -1</clus>
<clus scale="   92.717">  7  8 -1 -1</clus>
<clus scale="   96.314">  2  5  1 -1</clus>
</clustering>
</event>
<event>
 9    1  0.2802611E-005  0.1535907E+03  0.7546771E-02  0.1197835E+00
         -4   -1    0    0    0  501 -0.00000000000E+00  0.00000000000E+00  0.38794878664E+02  0.38794878664E+02  0.00000000000E+00 0.  1.
          3   -1    0    0  502    0  0.00000000000E+00 -0.00000000000E+00 -0.81270920818E+03  0.81270920818E+03  0.00000000000E+00 0. -1.
         23    2    1    2    0    0 -0.11557098693E+03 -0.84714630535E+02 -0.37479291788E+03  0.41088246159E+03  0.88438929816E+02 0.  0.
        -24    2    1    2    0    0  0.92834458697E+02  0.65680614983E+02 -0.38244751606E+03  0.40660306771E+03  0.78280088265E+02 0.  0.
         13    1    4    4    0    0  0.22836168373E+01  0.45150107619E+02 -0.12456398302E+03  0.13251389735E+03  0.00000000000E+00 0. -1.
        -14    1    4    4    0    0  0.90550841860E+02  0.20530507364E+02 -0.25788353304E+03  0.27408917036E+03  0.00000000000E+00 0.  1.
        -11    1    3    3    0    0 -0.11393137351E+03 -0.35768105363E+02 -0.26619890436E+03  0.29175601436E+03  0.00000000000E+00 0.  1.
         11    1    3    3    0    0 -0.16396134119E+01 -0.48946525172E+02 -0.10859401352E+03  0.11912644724E+03  0.00000000000E+00 0. -1.
         21    1    1    2  502  501  0.22736528229E+02  0.19034015552E+02 -0.16673895575E+02  0.34018557547E+02  0.00000000000E+00 0.  1.
<scales pt_clust_5="13000.00000" pt_clust_6="13000.00000" pt_clust_7="13000.00000" pt_clust_8="13000.00000" pt_clust_9="29.65204"></scales>
<clustering>
<clus scale="   29.652">  1  9  2 -1</clus>
<clus scale="   78.280">  5  6 -1 -1</clus>
<clus scale="   88.439">  7  8 -1 -1</clus>
<clus scale="  147.974">  2  5  1 -1</clus>
<clus scale="  147.974">  2  5  1 -1</clus>
</clustering>
</event>
<event>
 9    1  0.2802611E-005  0.2052082E+03  0.7546771E-02  0.1151223E+00
          3   -1    0    0  502    0  0.00000000000E+00  0.00000000000E+00  0.20000987886E+03  0.20000987886E+03  0.00000000000E+00 0. -1.
         -4   -1    0    0    0  501 -0.00000000000E+00 -0.00000000000E+00 -0.54547966261E+03  0.54547966261E+03  0.00000000000E+00 0.  1.
         23    2    1    2    0    0  0.70793918429E+02 -0.21430773329E+03 -0.24282547686E+03  0.35460690758E+03  0.12586605283E+03 0.  0.
        -24    2    1    2    0    0  0.11405051440E+02  0.15232602920E+03  0.74548933519E+02  0.18595375176E+03  0.75418564916E+02 0.  0.
         13    1    4    4    0    0  0.28999215440E+02  0.14924926460E+03  0.62372448987E+02  0.16433690965E+03  0.00000000000E+00 0. -1.
        -14    1    4    4    0    0 -0.17594164000E+02  0.30767645990E+01  0.12176484532E+02  0.21616842111E+02  0.00000000000E+00 0.  1.
        -11    1    3    3    0    0  0.53098135208E+02 -0.11156163521E+03 -0.21287326601E+03  0.24613093628E+03  0.00000000000E+00 0.  1.
         11    1    3    3    0    0  0.17695783222E+02 -0.10274609808E+03 -0.29952210855E+02  0.10847597130E+03  0.00000000000E+00 0. -1.
         21    1    1    2  502  501 -0.82198969869E+02  0.61981704091E+02 -0.17719324040E+03  0.20492888214E+03  0.00000000000E+00 0.  1.
<scales pt_clust_5="13000.00000" pt_clust_6="13000.00000" pt_clust_7="13000.00000" pt_clust_8="13000.00000" pt_clust_9="102.94854"></scales>
<clustering>
<clus scale="   75.419">  5  6 -1 -1</clus>
<clus scale="  102.949">  2  9  1 -1</clus>
<clus scale="  125.866">  7  8 -1 -1</clus>
<clus scale="  178.763">  1  5  2 -1</clus>
<clus scale="  178.763">  1  5  2 -1</clus>
</clustering>
</event>
<event>
 9    1  0.2802611E-005  0.1427185E+03  0.7546771E-02  0.1213039E+00
          1   -1    0    0  502    0  0.00000000000E+00  0.00000000000E+00  0.30014552319E+03  0.30014552319E+03  0.00000000000E+00 0. -1.
         -2   -1    0    0    0  501 -0.00000000000E+00 -0.00000000000E+00 -0.10259169327E+03  0.10259169327E+03  0.00000000000E+00 0.  1.
        -24    2    1    2    0    0  0.92735859477E+02 -0.34644833854E+02  0.54008391789E+02  0.13539363721E+03  0.74928809336E+02 0.  0.
         23    2    1    2    0    0 -0.11520599091E+03  0.24032168664E+02  0.17338874613E+03  0.22850856281E+03  0.91118277628E+02 0.  0.
         11    1    3    3    0    0  0.32356252190E+02 -0.11282569353E+02  0.61315228822E+02  0.70240876365E+02  0.00000000000E+00 0. -1.
        -12    1    3    3    0    0  0.60379607287E+02 -0.23362264501E+02 -0.73068370331E+01  0.65152760849E+02  0.00000000000E+00 0.  1.
        -13    1    4    4    0    0 -0.42354700429E+02  0.54541567692E+02  0.69143359969E+02  0.97721581458E+02  0.00000000000E+00 0.  1.
         13    1    4    4    0    0 -0.72851290484E+02 -0.30509399028E+02  0.10424538616E+03  0.13078698135E+03  0.00000000000E+00 0. -1.
         21    1    1    2  502  501  0.22470131436E+02  0.10612665189E+02 -0.29843308001E+02  0.38835016437E+02  0.00000000000E+00 0.  1.
<scales pt_clust_5="13000.00000" pt_clust_6="13000.00000" pt_clust_7="13000.00000" pt_clust_8="13000.00000" pt_clust_9="24.85026"></scales>
<clustering>
<clus scale="   24.850">  2  9  1 -1</clus>
<clus scale="   74.929">  5  6 -1 -1</clus>
<clus scale="   91.118">  7  8 -1 -1</clus>
<clus scale="  132.968">  2  5  1 -1</clus>
<clus scale="  142.719">  1  5  2 -1</clus>
</clustering>
</event>
<event>
 9    1  0.2802611E-005  0.1081027E+03  0.7546771E-02  0.1269232E+00
          1   -1    0    0  502    0  0.00000000000E+00  0.00000000000E+00  0.10227596135E+04  0.10227596135E+04  0.00000000000E+00 0. -1.
         -2   -1    0    0    0  501 -0.00000000000E+00 -0.00000000000E+00 -0.42436057179E+02  0.42436057179E+02  0.00000000000E+00 0.  1.
         23    2    1    2    0    0 -0.26813117446E+02 -0.57210122499E+02  0.49091519207E+02  0.12104257545E+03  0.90826132965E+02 0.  0.
        -24    2    1    2    0    0 -0.55455282828E+01  0.19890397005E+02  0.79717555159E+03  0.80128607603E+03  0.78384531699E+02 0.  0.
         11    1    4    4    0    0 -0.22695804244E+02  0.36727632389E+02  0.25897568694E+03  0.26254985229E+03  0.00000000000E+00 0. -1.
        -12    1    4    4    0    0  0.17150275961E+02 -0.16837235384E+02  0.53819986465E+03  0.53873622374E+03  0.00000000000E+00 0.  1.
        -13    1    3    3    0    0 -0.57422028775E+02 -0.24053204870E+02  0.13829219634E+02  0.63773767090E+02  0.00000000000E+00 0.  1.
         13    1    3    3    0    0  0.30608911330E+02 -0.33156917629E+02  0.35262299573E+02  0.57268808357E+02  0.00000000000E+00 0. -1.
         21    1    1    2  502  501  0.32358645728E+02  0.37319725494E+02  0.13405648550E+03  0.14286701918E+03  0.00000000000E+00 0. -1.
<scales pt_clust_5="13000.00000" pt_clust_6="13000.00000" pt_clust_7="13000.00000" pt_clust_8="13000.00000" pt_clust_9="49.39478"></scales>
<clustering>
<clus scale="   49.395">  1  9  2 -1</clus>
<clus scale="   78.385">  5  6 -1 -1</clus>
<clus scale="   90.826">  7  8 -1 -1</clus>
<clus scale="   97.882">  1  5  2 -1</clus>
<clus scale="   49.395">  1  5  2 -1</clus>
</clustering>
</event>
<event>
 9    1  0.2802611E-005  0.1071067E+03  0.7546771E-02  0.1271119E+00
         -2   -1    0    0    0  501 -0.00000000000E+00  0.00000000000E+00  0.99900472954E+02  0.99900472954E+02  0.00000000000E+00 0.  1.
          1   -1    0    0  502    0  0.00000000000E+00 -0.00000000000E+00 -0.48514102976E+03  0.48514102976E+03  0.00000000000E+00 0. -1.
         23    2    1    2    0    0 -0.33253748115E+02 -0.22143029250E+02  0.18853608082E+02  0.10236799211E+03  0.92345123112E+02 0.  0.
        -24    2    1    2    0    0  0.47059021343E+02 -0.34002419261E+02 -0.41248743900E+03  0.42424967979E+03  0.80443691249E+02 0.  0.
         11    1    4    4    0    0  0.54137217479E+02 -0.42705733188E+02 -0.20163935753E+03  0.21310337507E+03  0.00000000000E+00 0. -1.
        -12    1    4    4    0    0 -0.70781961361E+01  0.87033139278E+01 -0.21084808147E+03  0.21114630472E+03  0.00000000000E+00 0.  1.
        -13    1    3    3    0    0 -0.54420767854E+02 -0.19996418938E+01  0.38907581205E+02  0.66928457451E+02  0.00000000000E+00 0.  1.
         13    1    3    3    0    0  0.21167019739E+02 -0.20143387356E+02 -0.20053973123E+02  0.35439534658E+02  0.00000000000E+00 0. -1.
         21    1    1    2  502  501 -0.13805273227E+02  0.56145448510E+02  0.83932741112E+01  0.58423830819E+02  0.00000000000E+00 0. -1.
<scales pt_clust_5="13000.00000" pt_clust_6="13000.00000" pt_clust_7="13000.00000" pt_clust_8="13000.00000" pt_clust_9="57.81779"></scales>
<clustering>
<clus scale="   57.818">  1  9  2 -1</clus>
<clus scale="   80.444">  5  6 -1 -1</clus>
<clus scale="   92.345">  7  8 -1 -1</clus>
<clus scale="   97.033">  2  5  1 -1</clus>
<clus scale="   97.033">  2  5  1 -1</clus>
</clustering>
</event>
<event>
 9    1  0.2802611E-005  0.1578316E+03  0.7546771E-02  0.1192728E+00
          1   -1    0    0  502    0  0.00000000000E+00  0.00000000000E+00  0.11768141147E+03  0.11768141147E+03  0.00000000000E+00 0. -1.
         -2   -1    0    0    0  501 -0.00000000000E+00 -0.00000000000E+00 -0.39912647382E+03  0.39912647382E+03  0.00000000000E+00 0.  1.
         23    2    1    2    0    0  0.62615473755E+02  0.12568003369E+03 -0.64191328361E+02  0.17898629110E+03  0.90550523698E+02 0.  0.
        -24    2    1    2    0    0  0.16185932812E+02 -0.12893625245E+03 -0.64892835187E+02  0.16625787972E+03  0.80895370042E+02 0.  0.
         13    1    4    4    0    0 -0.19246141609E+02 -0.60901826889E+02  0.28288968828E+01  0.63933161527E+02  0.00000000000E+00 0. -1.
        -14    1    4    4    0    0  0.35432074421E+02 -0.68034425561E+02 -0.67721732070E+02  0.10232471819E+03  0.00000000000E+00 0.  1.
        -11    1    3    3    0    0  0.42202165565E+02  0.64411151689E+02  0.13265084551E+02  0.78139501588E+02  0.00000000000E+00 0. -1.
         11    1    3    3    0    0  0.20413308190E+02  0.61268882000E+02 -0.77456412912E+02  0.10084678951E+03  0.00000000000E+00 0.  1.
         21    1    1    2  502  501 -0.78801406567E+02  0.32562187605E+01 -0.15236089880E+03  0.17156371447E+03  0.00000000000E+00 0.  1.
<scales pt_clust_5="13000.00000" pt_clust_6="13000.00000" pt_clust_7="13000.00000" pt_clust_8="13000.00000" pt_clust_9="78.86865"></scales>
<clustering>
<clus scale="   78.869">  2  9  1 -1</clus>
<clus scale="   80.895">  5  6 -1 -1</clus>
<clus scale="   90.551">  7  8 -1 -1</clus>
<clus scale="  152.497">  1  5  2 -1</clus>
<clus scale="  152.497">  1  5  2 -1</clus>
</clustering>
</event>
<event>
 9    1  0.2802611E-005  0.9765897E+02  0.7546771E-02  0.1290276E+00
         -2   -1    0    0    0  501 -0.00000000000E+00  0.00000000000E+00  0.10002092658E+03  0.10002092658E+03  0.00000000000E+00 0.  1.
          1   -1    0    0  502    0  0.00000000000E+00 -0.00000000000E+00 -0.35238989006E+03  0.35238989006E+03  0.00000000000E+00 0. -1.
        -24    2    1    2    0    0  0.37831651392E+02  0.11315179694E+02 -0.12097060130E+02  0.89658940064E+02  0.79580899286E+02 0.  0.
         23    2    1    2    0    0 -0.25231686808E+02 -0.32352986198E+02 -0.29061186873E+03  0.30675669352E+03  0.89224755740E+02 0.  0.
         11    1    3    3    0    0  0.42590585121E+02  0.29116039905E+02 -0.33425640094E+02  0.61473369327E+02  0.00000000000E+00 0. -1.
        -12    1    3    3    0    0 -0.47589337296E+01 -0.17800860211E+02  0.21328579965E+02  0.28185570737E+02  0.00000000000E+00 0.  1.
        -13    1    4    4    0    0  0.18507861966E+02  0.21021468844E+02 -0.10701858975E+03  0.11062288036E+03  0.00000000000E+00 0.  1.
         13    1    4    4    0    0 -0.43739548774E+02 -0.53374455042E+02 -0.18359327898E+03  0.19613381316E+03  0.00000000000E+00 0. -1.
         21    1    1    2  502  501 -0.12599964584E+02  0.21037806505E+02  0.50339965382E+02  0.55995183049E+02  0.00000000000E+00 0.  1.
<scales pt_clust_5="13000.00000" pt_clust_6="13000.00000" pt_clust_7="13000.00000" pt_clust_8="13000.00000" pt_clust_9="24.52241"></scales>
<clustering>
<clus scale="   24.522">  1  9  2 -1</clus>
<clus scale="   79.581">  5  6 -1 -1</clus>
<clus scale="   88.934">  1  5  2 -1</clus>
<clus scale="   89.225">  7  8 -1 -1</clus>
<clus scale="   97.659">  2  5  1 -1</clus>
</clustering>
</event>
<event>
 9    1  0.2802611E-005  0.1020148E+03  0.7546771E-02  0.1280517E+00
         -2   -1    0    0    0  501 -0.00000000000E+00  0.00000000000E+00  0.11451324511E+03  0.11451324511E+03  0.00000000000E+00 0.  1.
          1   -1    0    0  502    0  0.00000000000E+00 -0.00000000000E+00 -0.26175153397E+03  0.26175153397E+03  0.00000000000E+00 0. -1.
        -24    2    1    2    0    0 -0.64590042620E+02  0.42464976086E+02  0.28755118151E+02  0.11548332289E+03  0.80835593929E+02 0.  0.
         23    2    1    2    0    0  0.42808174202E+01 -0.46057778479E+02 -0.17270543369E+03  0.20027590569E+03  0.90242047950E+02 0.  0.
         11    1    3    3    0    0 -0.48584112745E+02  0.59380348472E+02 -0.21901486484E+01  0.76754404089E+02  0.00000000000E+00 0. -1.
        -12    1    3    3    0    0 -0.16005929876E+02 -0.16915372386E+02  0.30945266800E+02  0.38728918800E+02  0.00000000000E+00 0.  1.
        -11    1    4    4    0    0  0.14179063783E+01  0.20348848658E+02 -0.67200460727E+01  0.21476617970E+02  0.00000000000E+00 0.  1.
         11    1    4    4    0    0  0.28629110419E+01 -0.66406627137E+02 -0.16598538762E+03  0.17879928772E+03  0.00000000000E+00 0. -1.
         21    1    1    2  502  501  0.60309225200E+02  0.35928023925E+01 -0.32879733190E+01  0.60505550504E+02  0.00000000000E+00 0. -1.
<scales pt_clust_5="13000.00000" pt_clust_6="13000.00000" pt_clust_7="13000.00000" pt_clust_8="13000.00000" pt_clust_9="60.41615"></scales>
<clustering>
<clus scale="   60.416">  1  9  2 -1</clus>
<clus scale="   80.836">  5  6 -1 -1</clus>
<clus scale="   90.242">  7  8 -1 -1</clus>
<clus scale="   93.796">  1  5  2 -1</clus>
<clus scale="  102.015">  2  5  1 -1</clus>
</clustering>
</event>
<event>
 9    1  0.2802611E-005  0.1393256E+03  0.7546771E-02  0.1214666E+00
          1   -1    0    0  502    0  0.00000000000E+00  0.00000000000E+00  0.88462636806E+02  0.88462636806E+02  0.00000000000E+00 0. -1.
         -2   -1    0    0    0  501 -0.00000000000E+00 -0.00000000000E+00 -0.66895621403E+03  0.66895621403E+03  0.00000000000E+00 0.  1.
        -24    2    1    2    0    0 -0.89657792469E+02 -0.49143554085E+02 -0.41723811360E+03  0.43684584728E+03  0.79328697134E+02 0.  0.
         23    2    1    2    0    0  0.82975468133E+02  0.79772431186E+02  0.12928798972E+02  0.14162140128E+03  0.81491707352E+02 0.  0.
         13    1    3    3    0    0 -0.37807271960E+02  0.16498974053E+02 -0.19664009669E+03  0.20092021696E+03  0.00000000000E+00 0. -1.
        -14    1    3    3    0    0 -0.51850520509E+02 -0.65642528138E+02 -0.22059801691E+03  0.23592563032E+03  0.00000000000E+00 0.  1.
        -11    1    4    4    0    0  0.36220734400E+02  0.30876990618E+01  0.33552836461E+02  0.49469872857E+02  0.00000000000E+00 0. -1.
         11    1    4    4    0    0  0.46754733734E+02  0.76684732124E+02 -0.20624037489E+02  0.92151528418E+02  0.00000000000E+00 0.  1.
         21    1    1    2  502  501  0.66823243354E+01 -0.30628877101E+02 -0.17618426260E+03  0.17895160228E+03  0.00000000000E+00 0.  1.
<scales pt_clust_5="13000.00000" pt_clust_6="13000.00000" pt_clust_7="13000.00000" pt_clust_8="13000.00000" pt_clust_9="31.34935"></scales>
<clustering>
<clus scale="   31.349">  2  9  1 -1</clus>
<clus scale="   79.329">  5  6 -1 -1</clus>
<clus scale="   81.492">  7  8 -1 -1</clus>
<clus scale="  138.072">  2  5  1 -1</clus>
<clus scale="  139.326">  1  5  2 -1</clus>
</clustering>
</event>
<event>
 9    1  0.2802611E-005  0.1216152E+03  0.7546771E-02  0.1243913E+00
         -2   -1    0    0    0  501 -0.00000000000E+00  0.00000000000E+00  0.68111635968E+03  0.68111635968E+03  0.00000000000E+00 0.  1.
          1   -1    0    0  502    0  0.00000000000E+00 -0.00000000000E+00 -0.22549119171E+03  0.22549119171E+03  0.00000000000E+00 0. -1.
        -24    2    1    2    0    0 -0.60639536238E+02 -0.24182103502E+02  0.52817507905E+03  0.53826265908E+03  0.80596827146E+02 0.  0.
         23    2    1    2    0    0  0.45407505484E+02  0.66580132561E+02 -0.19933894317E+03  0.23378982445E+03  0.91798214278E+02 0.  0.
         11    1    3    3    0    0 -0.35657766469E+02 -0.33609102560E+02  0.12585509831E+03  0.13505759458E+03  0.00000000000E+00 0. -1.
        -12    1    3    3    0    0 -0.24981769769E+02  0.94269990584E+01  0.40231998075E+03  0.40320506450E+03  0.00000000000E+00 0.  1.
        -13    1    4    4    0    0  0.58671754456E+02  0.51738489287E+01 -0.86659168327E+02  0.10478050839E+03  0.00000000000E+00 0.  1.
         13    1    4    4    0    0 -0.13264248972E+02  0.61406283632E+02 -0.11267977485E+03  0.12900931606E+03  0.00000000000E+00 0. -1.
         21    1    1    2  502  501  0.15232030754E+02 -0.42398029059E+02  0.12678903208E+03  0.13455506786E+03  0.00000000000E+00 0.  1.
<scales pt_clust_5="13000.00000" pt_clust_6="13000.00000" pt_clust_7="13000.00000" pt_clust_8="13000.00000" pt_clust_9="45.05117"></scales>
<clustering>
<clus scale="   45.051">  1  9  2 -1</clus>
<clus scale="   80.597">  5  6 -1 -1</clus>
<clus scale="   91.798">  7  8 -1 -1</clus>
<clus scale="  113.398">  1  5  2 -1</clus>
<clus scale="  121.615">  2  5  1 -1</clus>
</clustering>
</event>
<event>
 9    1  0.2802611E-005  0.2069186E+03  0.7546771E-02  0.1144796E+00
         -2   -1    0    0    0  501 -0.00000000000E+00  0.00000000000E+00  0.12339448350E+03  0.12339448350E+03  0.00000000000E+00 0.  1.
          1   -1    0    0  502    0  0.00000000000E+00 -0.00000000000E+00 -0.11740196348E+04  0.11740196348E+04  0.00000000000E+00 0. -1.
         23    2    1    2    0    0 -0.14408802492E+03  0.18795817228E+03 -0.25108035748E+03  0.35639984983E+03  0.88824960417E+02 0.  0.
        -24    2    1    2    0    0  0.15659051885E+03 -0.87156274254E+02 -0.81500399284E+03  0.83827030597E+03  0.79679299714E+02 0.  0.
         11    1    4    4    0    0  0.70931921071E+02 -0.81586943271E+02 -0.51513497336E+03  0.52635711025E+03  0.00000000000E+00 0. -1.
        -12    1    4    4    0    0  0.85658597776E+02 -0.55693309830E+01 -0.29986901948E+03  0.31191319572E+03  0.00000000000E+00 0.  1.
        -13    1    3    3    0    0 -0.13692585170E+03  0.15183477777E+03 -0.16485609469E+03  0.26264047776E+03  0.00000000000E+00 0.  1.
         13    1    3    3    0    0 -0.71621732258E+01  0.36123394510E+02 -0.86224262794E+02  0.93759372068E+02  0.00000000000E+00 0. -1.
         21    1    1    2  502  501 -0.12502493924E+02 -0.10080189803E+03  0.15459198983E+02  0.10274396252E+03  0.00000000000E+00 0. -1.
<scales pt_clust_5="13000.00000" pt_clust_6="13000.00000" pt_clust_7="13000.00000" pt_clust_8="13000.00000" pt_clust_9="101.57428"></scales>
<clustering>
<clus scale="   79.679">  5  6 -1 -1</clus>
<clus scale="   88.825">  7  8 -1 -1</clus>
<clus scale="  101.574">  1  9  2 -1</clus>
<clus scale="  203.161">  2  5  1 -1</clus>
<clus scale="  203.161">  2  5  1 -1</clus>
</clustering>
</event>
<event>
 9    1  0.2802611E-005  0.1070418E+03  0.7546771E-02  0.1277176E+00
         -2   -1    0    0    0  501 -0.00000000000E+00  0.00000000000E+00  0.15073554924E+03  0.15073554924E+03  0.00000000000E+00 0.  1.
          1   -1    0    0  502    0  0.00000000000E+00 -0.00000000000E+00 -0.23133719147E+03  0.23133719147E+03  0.00000000000E+00 0. -1.
         23    2    1    2    0    0  0.48110681690E+02  0.27126694313E+02  0.11077365360E+03  0.15358125252E+03  0.90917014668E+02 0.  0.
        -24    2    1    2    0    0 -0.50332147226E+02 -0.48438348093E+02 -0.18077628006E+03  0.20458624544E+03  0.65542885067E+02 0.  0.
         11    1    4    4    0    0 -0.17415362216E+02 -0.55918951779E+02 -0.86622857196E+02  0.10456454178E+03  0.00000000000E+00 0. -1.
        -12    1    4    4    0    0 -0.32916785010E+02  0.74806036866E+01 -0.94153422860E+02  0.10002170366E+03  0.00000000000E+00 0.  1.
        -13    1    3    3    0    0  0.65679939552E+02  0.85511526574E+01  0.10950976864E+03  0.12798189755E+03  0.00000000000E+00 0.  1.
         13    1    3    3    0    0 -0.17569257862E+02  0.18575541656E+02  0.12638849527E+01  0.25599354969E+02  0.00000000000E+00 0. -1.
         21    1    1    2  502  501  0.22214655361E+01  0.21311653780E+02 -0.10599015766E+02  0.23905242755E+02  0.00000000000E+00 0.  1.
<scales pt_clust_5="13000.00000" pt_clust_6="13000.00000" pt_clust_7="13000.00000" pt_clust_8="13000.00000" pt_clust_9="21.42712"></scales>
<clustering>
<clus scale="   21.427">  2  9  1 -1</clus>
<clus scale="   65.543">  5  6 -1 -1</clus>
<clus scale="   86.533">  2  5  1 -1</clus>
<clus scale="   90.917">  7  8 -1 -1</clus>
<clus scale="   21.427">  2  5  1 -1</clus>
</clustering>
</event>
<event>
 9    1  0.2802611E-005  0.1192701E+03  0.7546771E-02  0.1259936E+00
         -4   -1    0    0    0  501 -0.00000000000E+00  0.00000000000E+00  0.24781472563E+03  0.24781472563E+03  0.00000000000E+00 0.  1.
          3   -1    0    0  502    0  0.00000000000E+00 -0.00000000000E+00 -0.99986794562E+02  0.99986794562E+02  0.00000000000E+00 0. -1.
        -24    2    1    2    0    0  0.60615841966E+02  0.16725494328E+02  0.12823486119E+03  0.16472262645E+03  0.82069126851E+02 0.  0.
         23    2    1    2    0    0 -0.12467072498E+02 -0.17487096877E+02 -0.21980725122E+02  0.11946077942E+03  0.11544045689E+03 0.  0.
         13    1    3    3    0    0 -0.68184105325E+01  0.31207159916E+02  0.58426343064E+02  0.66588400762E+02  0.00000000000E+00 0. -1.
        -14    1    3    3    0    0  0.67434252498E+02 -0.14481665588E+02  0.69808518128E+02  0.98134225688E+02  0.00000000000E+00 0.  1.
        -11    1    4    4    0    0  0.42283598736E+02 -0.39985163754E+02 -0.94864368327E+01  0.58963620363E+02  0.00000000000E+00 0. -1.
         11    1    4    4    0    0 -0.54750671234E+02  0.22498066877E+02 -0.12494288289E+02  0.60497159054E+02  0.00000000000E+00 0.  1.
         21    1    1    2  502  501 -0.48148769468E+02  0.76160254847E+00  0.41573795000E+02  0.63618114326E+02  0.00000000000E+00 0.  1.
<scales pt_clust_5="13000.00000" pt_clust_6="13000.00000" pt_clust_7="13000.00000" pt_clust_8="13000.00000" pt_clust_9="48.15479"></scales>
<clustering>
<clus scale="   48.155">  1  9  2 -1</clus>
<clus scale="   82.069">  5  6 -1 -1</clus>
<clus scale="   87.374">  1  5  2 -1</clus>
<clus scale="  115.440">  7  8 -1 -1</clus>
<clus scale="  119.270">  2  5  1 -1</clus>
</clustering>
</event>
<event>
 9    1  0.2802611E-005  0.1841584E+03  0.7546771E-02  0.1189153E+00
         -2   -1    0    0    0  501 -0.00000000000E+00  0.00000000000E+00  0.10458292976E+03  0.10458292976E+03  0.00000000000E+00 0.  1.
          1   -1    0    0  502    0  0.00000000000E+00 -0.00000000000E+00 -0.81634277274E+03  0.81634277274E+03  0.00000000000E+00 0. -1.
        -24    2    1    2    0    0  0.33386242879E+02  0.56731168478E+02 -0.37099311404E+00  0.10387722528E+03  0.80357162749E+02 0.  0.
         23    2    1    2    0    0 -0.19944849461E+01  0.14502318329E+03 -0.47542223753E+03  0.50500600726E+03  0.89269601583E+02 0.  0.
         13    1    3    3    0    0  0.20629598629E+02  0.64013765392E+01  0.34946302744E+02  0.41082867921E+02  0.00000000000E+00 0. -1.
        -14    1    3    3    0    0  0.12756644250E+02  0.50329791939E+02 -0.35317295858E+02  0.62794357357E+02  0.00000000000E+00 0.  1.
        -11    1    4    4    0    0  0.32946042613E+02  0.99928602190E+02 -0.22823345107E+03  0.25131986680E+03  0.00000000000E+00 0. -1.
         11    1    4    4    0    0 -0.34940527559E+02  0.45094581104E+02 -0.24718878646E+03  0.25368614046E+03  0.00000000000E+00 0.  1.
         21    1    1    2  502  501 -0.31391757933E+02 -0.20175435177E+03 -0.23596661233E+03  0.31204246996E+03  0.00000000000E+00 0. -1.
<scales pt_clust_5="13000.00000" pt_clust_6="13000.00000" pt_clust_7="13000.00000" pt_clust_8="13000.00000" pt_clust_9="161.07535"></scales>
<clustering>
<clus scale="   80.357">  5  6 -1 -1</clus>
<clus scale="   89.270">  7  8 -1 -1</clus>
<clus scale="  103.877">  1  5  2 -1</clus>
<clus scale="  161.075">  1  9  2 -1</clus>
<clus scale="  184.158">  2  5  1 -1</clus>
</clustering>
</event>
<event>
 9    1  0.2802611E-005  0.1015903E+03  0.7546771E-02  0.1279294E+00
         -4   -1    0    0    0  501 -0.00000000000E+00  0.00000000000E+00  0.14421661465E+03  0.14421661465E+03  0.00000000000E+00 0.  1.
          3   -1    0    0  502    0  0.00000000000E+00 -0.00000000000E+00 -0.23818414609E+03  0.23818414609E+03  0.00000000000E+00 0. -1.
        -24    2    1    2    0    0 -0.55277572713E+02 -0.37540971430E+02  0.74196582799E+02  0.12670010528E+03  0.77992622722E+02 0.  0.
         23    2    1    2    0    0  0.32171296268E+02  0.47613263328E+02 -0.19447682353E+03  0.21926290380E+03  0.83384476648E+02 0.  0.
         11    1    3    3    0    0 -0.24187110973E+02 -0.58878450981E+02  0.36473409254E+02  0.73362101318E+02  0.00000000000E+00 0. -1.
        -12    1    3    3    0    0 -0.31090461740E+02  0.21337479551E+02  0.37723173544E+02  0.53338003966E+02  0.00000000000E+00 0.  1.
        -11    1    4    4    0    0  0.19055351328E+02 -0.22751748874E+02 -0.58580392313E+02  0.65668948937E+02  0.00000000000E+00 0.  1.
         11    1    4    4    0    0  0.13115944940E+02  0.70365012202E+02 -0.13589643122E+03  0.15359395487E+03  0.00000000000E+00 0. -1.
         21    1    1    2  502  501  0.23106276445E+02 -0.10072291898E+02  0.26312709292E+02  0.36437751653E+02  0.00000000000E+00 0. -1.
<scales pt_clust_5="13000.00000" pt_clust_6="13000.00000" pt_clust_7="13000.00000" pt_clust_8="13000.00000" pt_clust_9="25.20617"></scales>
<clustering>
<clus scale="   25.206">  1  9  2 -1</clus>
<clus scale="   77.993">  5  6 -1 -1</clus>
<clus scale="   83.384">  7  8 -1 -1</clus>
<clus scale="   97.214">  1  5  2 -1</clus>
<clus scale="  101.590">  2  5  1 -1</clus>
</clustering>
</event>
<event>
 9    1  0.2802611E-005  0.4379582E+03  0.7546771E-02  0.1031540E+00
          1   -1    0    0  502    0  0.00000000000E+00  0.00000000000E+00  0.19024171957E+04  0.19024171957E+04  0.00000000000E+00 0. -1.
         -2   -1    0    0    0  501 -0.00000000000E+00 -0.00000000000E+00 -0.17724001724E+03  0.17724001724E+03  0.00000000000E+00 0.  1.
        -24    2    1    2    0    0  0.40964325974E+03 -0.15576853616E+03  0.31622058759E+03  0.54700873740E+03  0.84567497750E+02 0.  0.
         23    2    1    2    0    0 -0.40574161162E+03  0.12559217988E+03  0.14305830527E+04  0.14953183377E+04  0.94917908424E+02 0.  0.
         13    1    3    3    0    0  0.20326046053E+03 -0.80244637169E+02  0.20938805058E+03  0.30265057795E+03  0.00000000000E+00 0. -1.
        -14    1    3    3    0    0  0.20638279920E+03 -0.75523898995E+02  0.10683253701E+03  0.24435815945E+03  0.00000000000E+00 0.  1.
        -13    1    4    4    0    0 -0.31856119435E+03  0.66952395801E+02  0.98005114627E+03  0.10326974906E+04  0.00000000000E+00 0. -1.
         13    1    4    4    0    0 -0.87180417278E+02  0.58639784079E+02  0.45053190641E+03  0.46262084705E+03  0.00000000000E+00 0.  1.
         21    1    1    2  502  501 -0.39016481119E+01  0.30176356284E+02 -0.21626461852E+02  0.37330137808E+02  0.00000000000E+00 0.  1.
<scales pt_clust_5="13000.00000" pt_clust_6="13000.00000" pt_clust_7="13000.00000" pt_clust_8="13000.00000" pt_clust_9="30.42754"></scales>
<clustering>
<clus scale="   30.428">  2  9  1 -1</clus>
<clus scale="   84.567">  5  6 -1 -1</clus>
<clus scale="   94.918">  7  8 -1 -1</clus>
<clus scale="  435.832">  2  5  1 -1</clus>
<clus scale="  437.958">  1  5  2 -1</clus>
</clustering>
</event>
<event>
 9    1  0.2802611E-005  0.2393149E+03  0.7546771E-02  0.1151095E+00
         -2   -1    0    0    0  501 -0.00000000000E+00  0.00000000000E+00  0.80871645777E+03  0.80871645777E+03  0.00000000000E+00 0.  1.
          1   -1    0    0  502    0  0.00000000000E+00 -0.00000000000E+00 -0.12216449159E+03  0.12216449159E+03  0.00000000000E+00 0. -1.
        -24    2    1    2    0    0 -0.22545831776E+03 -0.56848227640E+02  0.42735887242E+03  0.49337333224E+03  0.81966243606E+02 0.  0.
         23    2    1    2    0    0  0.35964826086E+02 -0.54817839023E+02  0.24141676357E+02  0.11559728386E+03  0.92094773517E+02 0.  0.
         11    1    3    3    0    0 -0.76716355828E+02 -0.59395380325E+02  0.18781814245E+03  0.21139741032E+03  0.00000000000E+00 0. -1.
        -12    1    3    3    0    0 -0.14874196193E+03  0.25471526851E+01  0.23954072997E+03  0.28197592192E+03  0.00000000000E+00 0.  1.
        -13    1    4    4    0    0  0.76113018547E+00 -0.37858867307E+02  0.54326297071E+02  0.66220991433E+02  0.00000000000E+00 0.  1.
         13    1    4    4    0    0  0.35203695900E+02 -0.16958971715E+02 -0.30184620713E+02  0.49376292432E+02  0.00000000000E+00 0. -1.
         21    1    1    2  502  501  0.18949349168E+03  0.11166606666E+03  0.23505141741E+03  0.32191033326E+03  0.00000000000E+00 0.  1.
<scales pt_clust_5="13000.00000" pt_clust_6="13000.00000" pt_clust_7="13000.00000" pt_clust_8="13000.00000" pt_clust_9="224.84027"></scales>
<clustering>
<clus scale="   81.966">  5  6 -1 -1</clus>
<clus scale="   92.095">  7  8 -1 -1</clus>
<clus scale="  113.048">  2  7  1 -1</clus>
<clus scale="  224.840">  2  9  1 -1</clus>
<clus scale="  113.048">  2  5  1 -1</clus>
</clustering>
</event>
<event>
 9    1  0.2802611E-005  0.1266891E+03  0.7546771E-02  0.1236322E+00
         -2   -1    0    0    0  501 -0.00000000000E+00  0.00000000000E+00  0.97062801790E+02  0.97062801790E+02  0.00000000000E+00 0.  1.
          1   -1    0    0  502    0  0.00000000000E+00 -0.00000000000E+00 -0.48553270969E+03  0.48553270969E+03  0.00000000000E+00 0. -1.
        -24    2    1    2    0    0  0.85210611783E+02  0.59442824763E+02 -0.72372047484E+02  0.14865622562E+03  0.77888782142E+02 0.  0.
         23    2    1    2    0    0 -0.55676979073E+02 -0.62096779833E+02 -0.36011419953E+03  0.38086653345E+03  0.91766788835E+02 0.  0.
         13    1    3    3    0    0  0.53375199863E+02  0.78395240560E+01 -0.69465206024E+02  0.87953311171E+02  0.00000000000E+00 0. -1.
        -14    1    3    3    0    0  0.31835411920E+02  0.51603300707E+02 -0.29068414600E+01  0.60702914454E+02  0.00000000000E+00 0.  1.
        -11    1    4    4    0    0 -0.78704603201E+02 -0.32501268365E+02 -0.22258264879E+03  0.23831446149E+03  0.00000000000E+00 0.  1.
         11    1    4    4    0    0  0.23027624128E+02 -0.29595511468E+02 -0.13753155074E+03  0.14255207196E+03  0.00000000000E+00 0. -1.
         21    1    1    2  502  501 -0.29533632711E+02  0.26539550707E+01  0.44016339116E+02  0.53072752405E+02  0.00000000000E+00 0.  1.
<scales pt_clust_5="13000.00000" pt_clust_6="13000.00000" pt_clust_7="13000.00000" pt_clust_8="13000.00000" pt_clust_9="29.65264"></scales>
<clustering>
<clus scale="   29.653">  1  9  2 -1</clus>
<clus scale="   77.889">  5  6 -1 -1</clus>
<clus scale="   91.767">  7  8 -1 -1</clus>
<clus scale="  117.028">  1  5  2 -1</clus>
<clus scale="  126.689">  2  5  1 -1</clus>
</clustering>
</event>
<event>
 9    1  0.2802611E-005  0.1130317E+03  0.7546771E-02  0.1258981E+00
          1   -1    0    0  502    0  0.00000000000E+00  0.00000000000E+00  0.62007438754E+03  0.62007438754E+03  0.00000000000E+00 0. -1.
         -2   -1    0    0    0  501 -0.00000000000E+00 -0.00000000000E+00 -0.60916939809E+02  0.60916939809E+02  0.00000000000E+00 0.  1.
        -24    2    1    2    0    0  0.49930811633E+02 -0.15963364167E+02  0.49739412395E+02  0.10775169264E+03  0.79928112548E+02 0.  0.
         23    2    1    2    0    0 -0.12053554520E+03  0.75764663482E+02  0.35781970277E+03  0.39563536044E+03  0.90682395475E+02 0.  0.
         11    1    3    3    0    0 -0.58304681358E+01 -0.28110094329E+02  0.40948704816E+02  0.50009680943E+02  0.00000000000E+00 0. -1.
        -12    1    3    3    0    0  0.55761279769E+02  0.12146730162E+02  0.87907075789E+01  0.57742011697E+02  0.00000000000E+00 0.  1.
        -13    1    4    4    0    0 -0.85105937863E+02  0.28031782127E+02  0.29849035106E+03  0.31164930795E+03  0.00000000000E+00 0. -1.
         13    1    4    4    0    0 -0.35429607341E+02  0.47732881355E+02  0.59329351713E+02  0.83986052494E+02  0.00000000000E+00 0.  1.
         21    1    1    2  502  501  0.70604733571E+02 -0.59801299315E+02  0.15159833257E+03  0.17760427427E+03  0.00000000000E+00 0. -1.
<scales pt_clust_5="13000.00000" pt_clust_6="13000.00000" pt_clust_7="13000.00000" pt_clust_8="13000.00000" pt_clust_9="92.52688"></scales>
<clustering>
<clus scale="   79.928">  5  6 -1 -1</clus>
<clus scale="   90.682">  7  8 -1 -1</clus>
<clus scale="   92.527">  1  9  2 -1</clus>
<clus scale="  104.601">  2  5  1 -1</clus>
<clus scale="   92.527">  1  5  2 -1</clus>
</clustering>
</event>
<event>
 9    1  0.2802611E-005  0.9896627E+02  0.7546771E-02  0.1288736E+00
          1   -1    0    0  502    0  0.00000000000E+00  0.00000000000E+00  0.75908139395E+02  0.75908139395E+02  0.00000000000E+00 0. -1.
         -2   -1    0    0    0  501 -0.00000000000E+00 -0.00000000000E+00 -0.51695265388E+03  0.51695265388E+03  0.00000000000E+00 0.  1.
        -24    2    1    2    0    0  0.45124124890E+02  0.12873259396E+02 -0.28832156459E+03  0.30306352624E+03  0.80723409698E+02 0.  0.
         23    2    1    2    0    0 -0.30658186346E+02  0.16689179591E+02  0.30572335814E+02  0.10357062303E+03  0.92594563184E+02 0.  0.
         11    1    3    3    0    0  0.30018721160E+02  0.95716390575E+01 -0.27608464893E+02  0.41892328989E+02  0.00000000000E+00 0. -1.
        -12    1    3    3    0    0  0.15105403729E+02  0.33016203389E+01 -0.26071309970E+03  0.26117119725E+03  0.00000000000E+00 0.  1.
        -13    1    4    4    0    0  0.26569420222E+02  0.21030023295E+02 -0.74916102807E+01  0.34703316777E+02  0.00000000000E+00 0.  1.
         13    1    4    4    0    0 -0.57227606569E+02 -0.43408437039E+01  0.38063946094E+02  0.68867306248E+02  0.00000000000E+00 0. -1.
         21    1    1    2  502  501 -0.14465938543E+02 -0.29562438987E+02 -0.18329528571E+03  0.18622664401E+03  0.00000000000E+00 0.  1.
<scales pt_clust_5="13000.00000" pt_clust_6="13000.00000" pt_clust_7="13000.00000" pt_clust_8="13000.00000" pt_clust_9="32.91202"></scales>
<clustering>
<clus scale="   32.912">  2  9  1 -1</clus>
<clus scale="   80.723">  5  6 -1 -1</clus>
<clus scale="   87.959">  2  5  1 -1</clus>
<clus scale="   92.595">  7  8 -1 -1</clus>
<clus scale="   98.966">  1  5  2 -1</clus>
</clustering>
</event>
<event>
 9    1  0.2802611E-005  0.1517619E+03  0.7546771E-02  0.1200685E+00
         -2   -1    0    0    0  501 -0.00000000000E+00  0.00000000000E+00  0.31399106545E+03  0.31399106545E+03  0.00000000000E+00 0.  1.
          1   -1    0    0  502    0  0.00000000000E+00 -0.00000000000E+00 -0.52996304339E+03  0.52996304339E+03  0.00000000000E+00 0. -1.
         23    2    1    2    0    0 -0.14250019452E+03 -0.39064812320E+02 -0.42710881855E+02  0.17963091190E+03  0.92793750218E+02 0.  0.
        -24    2    1    2    0    0  0.79943009367E+02  0.87451771020E+02 -0.39970743384E+03  0.42446356492E+03  0.79778369739E+02 0.  0.
         13    1    4    4    0    0 -0.16487436219E+02  0.13242602743E+02 -0.61296557398E+02  0.64841884838E+02  0.00000000000E+00 0. -1.
        -14    1    4    4    0    0  0.96430445586E+02  0.74209168276E+02 -0.33841087644E+03  0.35962168008E+03  0.00000000000E+00 0.  1.
        -11    1    3    3    0    0 -0.28032324499E+02  0.25779973248E+02 -0.27963537890E+02  0.47248044285E+02  0.00000000000E+00 0. -1.
         11    1    3    3    0    0 -0.11446787002E+03 -0.64844785568E+02 -0.14747343965E+02  0.13238286761E+03  0.00000000000E+00 0.  1.
         21    1    1    2  502  501  0.62557185154E+02 -0.48386958700E+02  0.22644633776E+03  0.23985963202E+03  0.00000000000E+00 0.  1.
<scales pt_clust_5="13000.00000" pt_clust_6="13000.00000" pt_clust_7="13000.00000" pt_clust_8="13000.00000" pt_clust_9="79.08666"></scales>
<clustering>
<clus scale="   79.087">  1  9  2 -1</clus>
<clus scale="   79.778">  5  6 -1 -1</clus>
<clus scale="   92.794">  7  8 -1 -1</clus>
<clus scale="  144.172">  2  5  1 -1</clus>
<clus scale="  144.172">  2  5  1 -1</clus>
</clustering>
</event>
<event>
 9    1  0.2802611E-005  0.2024074E+03  0.7546771E-02  0.1148330E+00
         -2   -1    0    0    0  501 -0.00000000000E+00  0.00000000000E+00  0.36055379788E+03  0.36055379788E+03  0.00000000000E+00 0.  1.
          1   -1    0    0  502    0  0.00000000000E+00 -0.00000000000E+00 -0.30339339468E+03  0.30339339468E+03  0.00000000000E+00 0. -1.
        -24    2    1    2    0    0  0.12523914311E+03 -0.68320947079E+02  0.25391649775E+03  0.30216891113E+03  0.80497628846E+02 0.  0.
         23    2    1    2    0    0 -0.16072128072E+03  0.98261338021E+02 -0.22598285539E+03  0.30691834480E+03  0.87429965219E+02 0.  0.
         13    1    3    3    0    0  0.44757536316E+02 -0.58827723363E+02  0.17067444783E+03  0.18599383117E+03  0.00000000000E+00 0. -1.
        -14    1    3    3    0    0  0.80481606791E+02 -0.94932237156E+01  0.83242049916E+02  0.11617507995E+03  0.00000000000E+00 0.  1.
        -13    1    4    4    0    0 -0.12559132959E+03  0.11258197646E+03 -0.17161712986E+03  0.24062485897E+03  0.00000000000E+00 0. -1.
         13    1    4    4    0    0 -0.35129951129E+02 -0.14320638435E+02 -0.54365725525E+02  0.66293485829E+02  0.00000000000E+00 0.  1.
         21    1    1    2  502  501  0.35482137609E+02 -0.29940390942E+02  0.29226760842E+02  0.54859936642E+02  0.00000000000E+00 0.  1.
<scales pt_clust_5="13000.00000" pt_clust_6="13000.00000" pt_clust_7="13000.00000" pt_clust_8="13000.00000" pt_clust_9="46.42638"></scales>
<clustering>
<clus scale="   46.426">  1  9  2 -1</clus>
<clus scale="   80.498">  5  6 -1 -1</clus>
<clus scale="   87.430">  7  8 -1 -1</clus>
<clus scale="  199.511">  1  5  2 -1</clus>
<clus scale="  202.407">  2  5  1 -1</clus>
</clustering>
</event>
<event>
 9    1  0.2802611E-005  0.1069203E+03  0.7546771E-02  0.1271686E+00
          1   -1    0    0  502    0  0.00000000000E+00  0.00000000000E+00  0.47625086896E+02  0.47625086896E+02  0.00000000000E+00 0. -1.
         -2   -1    0    0    0  501 -0.00000000000E+00 -0.00000000000E+00 -0.52254078586E+03  0.52254078586E+03  0.00000000000E+00 0.  1.
        -24    2    1    2    0    0  0.68581527775E+02  0.26490968824E+02 -0.27095944882E+03  0.29177744788E+03  0.79434619708E+02 0.  0.
         23    2    1    2    0    0 -0.44752806935E+02 -0.21851397940E+02 -0.38774636201E+02  0.11143244522E+03  0.91833654592E+02 0.  0.
         11    1    3    3    0    0  0.59400122355E+02 -0.21877943385E+01 -0.86981964761E+02  0.10535190161E+03  0.00000000000E+00 0. -1.
        -12    1    3    3    0    0  0.91814054198E+01  0.28678763162E+02 -0.18397748406E+03  0.18642554627E+03  0.00000000000E+00 0.  1.
        -13    1    4    4    0    0 -0.57865373799E+01  0.31083633520E+02 -0.32597745315E+02  0.45412435381E+02  0.00000000000E+00 0.  1.
         13    1    4    4    0    0 -0.38966269555E+02 -0.52935031460E+02 -0.61768908865E+01  0.66020009844E+02  0.00000000000E+00 0. -1.
         21    1    1    2  502  501 -0.23828720839E+02 -0.46395708834E+01 -0.16518161394E+03  0.16695597965E+03  0.00000000000E+00 0.  1.
<scales pt_clust_5="13000.00000" pt_clust_6="13000.00000" pt_clust_7="13000.00000" pt_clust_8="13000.00000" pt_clust_9="24.27619"></scales>
<clustering>
<clus scale="   24.276">  2  9  1 -1</clus>
<clus scale="   79.435">  5  6 -1 -1</clus>
<clus scale="   91.834">  7  8 -1 -1</clus>
<clus scale="   96.480">  2  5  1 -1</clus>
<clus scale="  106.920">  1  5  2 -1</clus>
</clustering>
</event>
<event>
 9    1  0.2802611E-005  0.1122850E+03  0.7546771E-02  0.1257331E+00
         -2   -1    0    0    0  501 -0.00000000000E+00  0.00000000000E+00  0.22713890644E+03  0.22713890644E+03  0.00000000000E+00 0.  1.
          1   -1    0    0  502    0  0.00000000000E+00 -0.00000000000E+00 -0.14151249434E+03  0.14151249434E+03  0.00000000000E+00 0. -1.
         23    2    1    2    0    0  0.58661199443E+00  0.66725816183E+02  0.92217727508E+02  0.14543139359E+03  0.90517966820E+02 0.  0.
        -24    2    1    2    0    0  0.66374002277E+02 -0.35173567172E+02 -0.61552035336E+02  0.13102483910E+03  0.87955485346E+02 0.  0.
         13    1    4    4    0    0  0.28220029307E+02  0.29227450908E+02 -0.18149409038E+02  0.44497359350E+02  0.00000000000E+00 0. -1.
        -14    1    4    4    0    0  0.38153972969E+02 -0.64401018080E+02 -0.43402626298E+02  0.86527479754E+02  0.00000000000E+00 0.  1.
        -13    1    3    3    0    0 -0.38804492048E+02  0.21782498261E+02  0.67300918261E+02  0.80682584443E+02  0.00000000000E+00 0.  1.
         13    1    3    3    0    0  0.39391104042E+02  0.44943317923E+02  0.24916809247E+02  0.64748809152E+02  0.00000000000E+00 0. -1.
         21    1    1    2  502  501 -0.66960614271E+02 -0.31552249012E+02  0.54960719927E+02  0.92195168074E+02  0.00000000000E+00 0.  1.
<scales pt_clust_5="13000.00000" pt_clust_6="13000.00000" pt_clust_7="13000.00000" pt_clust_8="13000.00000" pt_clust_9="74.02208"></scales>
<clustering>
<clus scale="   74.022">  1  9  2 -1</clus>
<clus scale="   87.955">  5  6 -1 -1</clus>
<clus scale="   90.518">  7  8 -1 -1</clus>
<clus scale="  110.230">  2  5  1 -1</clus>
<clus scale="  110.230">  2  5  1 -1</clus>
</clustering>
</event>
<event>
 9    1  0.2802611E-005  0.1974865E+03  0.7546771E-02  0.1181444E+00
          1   -1    0    0  502    0  0.00000000000E+00  0.00000000000E+00  0.13791480332E+04  0.13791480332E+04  0.00000000000E+00 0. -1.
         -2   -1    0    0    0  501 -0.00000000000E+00 -0.00000000000E+00 -0.73413023748E+02  0.73413023748E+02  0.00000000000E+00 0.  1.
         23    2    1    2    0    0 -0.37123861947E+02 -0.36182789366E+01  0.91190833535E+02  0.13534436924E+03  0.92795781674E+02 0.  0.
        -24    2    1    2    0    0  0.23301667224E+02 -0.17869960394E+03  0.10586791426E+04  0.10769568864E+04  0.80982048322E+02 0.  0.
         11    1    4    4    0    0 -0.86291425033E+01 -0.15668533414E+03  0.78370984729E+03  0.79926583861E+03  0.00000000000E+00 0. -1.
        -12    1    4    4    0    0  0.31930809727E+02 -0.22014269796E+02  0.27496929531E+03  0.27769104784E+03  0.00000000000E+00 0.  1.
        -11    1    3    3    0    0 -0.50439888813E+02  0.32270667542E+02  0.42602645146E+02  0.73488527951E+02  0.00000000000E+00 0.  1.
         11    1    3    3    0    0  0.13316026866E+02 -0.35888946479E+02  0.48588188390E+02  0.61855841291E+02  0.00000000000E+00 0. -1.
         21    1    1    2  502  501  0.13822194723E+02  0.18231788288E+03  0.15586503328E+03  0.24025980122E+03  0.00000000000E+00 0.  1.
<scales pt_clust_5="13000.00000" pt_clust_6="13000.00000" pt_clust_7="13000.00000" pt_clust_8="13000.00000" pt_clust_9="180.11892"></scales>
<clustering>
<clus scale="   80.982">  5  6 -1 -1</clus>
<clus scale="   92.796">  7  8 -1 -1</clus>
<clus scale="  100.012">  2  7  1 -1</clus>
<clus scale="  180.119">  2  9  1 -1</clus>
<clus scale="  197.487">  1  5  2 -1</clus>
</clustering>
</event>
<event>
 9    1  0.2802611E-005  0.1521624E+03  0.7546771E-02  0.1210182E+00
         -2   -1    0    0    0  501 -0.00000000000E+00  0.00000000000E+00  0.71232073390E+03  0.71232073390E+03  0.00000000000E+00 0.  1.
          1   -1    0    0  502    0  0.00000000000E+00 -0.00000000000E+00 -0.81798195236E+02  0.81798195236E+02  0.00000000000E+00 0. -1.
        -24    2    1    2    0    0 -0.84018300124E+02  0.58271463854E+02  0.29431723064E+03  0.32178240379E+03  0.80415451795E+02 0.  0.
         23    2    1    2    0    0 -0.60385996356E+02  0.40188663381E+02  0.31026939630E+02  0.12065366532E+03  0.91285479411E+02 0.  0.
         13    1    3    3    0    0 -0.65050127666E+02  0.24338077084E+02  0.89392150607E+02  0.11320255163E+03  0.00000000000E+00 0. -1.
        -14    1    3    3    0    0 -0.18968172458E+02  0.33933386769E+02  0.20492508003E+03  0.20857985216E+03  0.00000000000E+00 0.  1.
        -13    1    4    4    0    0 -0.64977959501E+02 -0.28923108917E+01 -0.36725624644E+01  0.65145900856E+02  0.00000000000E+00 0.  1.
         13    1    4    4    0    0  0.45919631456E+01  0.43080974272E+02  0.34699502095E+02  0.55507764460E+02  0.00000000000E+00 0. -1.
         21    1    1    2  502  501  0.14440429648E+03 -0.98460127234E+02  0.30517836840E+03  0.35168286003E+03  0.00000000000E+00 0. -1.
<scales pt_clust_5="13000.00000" pt_clust_6="13000.00000" pt_clust_7="13000.00000" pt_clust_8="13000.00000" pt_clust_9="129.17718"></scales>
<clustering>
<clus scale="   80.415">  5  6 -1 -1</clus>
<clus scale="   91.285">  7  8 -1 -1</clus>
<clus scale="  116.596">  2  7  1 -1</clus>
<clus scale="  129.177">  2  9  1 -1</clus>
<clus scale="  116.596">  2  5  1 -1</clus>
</clustering>
</event>
<event>
 9    1  0.2802611E-005  0.9423691E+02  0.7546771E-02  0.1299344E+00
          1   -1    0    0  502    0  0.00000000000E+00  0.00000000000E+00  0.85207748989E+02  0.85207748989E+02  0.00000000000E+00 0. -1.
         -2   -1    0    0    0  501 -0.00000000000E+00 -0.00000000000E+00 -0.21567533926E+03  0.21567533926E+03  0.00000000000E+00 0.  1.
        -24    2    1    2    0    0 -0.30814567654E+02 -0.22400093767E+02 -0.12018912953E+03  0.14940116904E+03  0.80149739056E+02 0.  0.
         23    2    1    2    0    0  0.21087529320E+02 -0.13382933648E+02  0.27602156281E+02  0.98472660858E+02  0.91165778115E+02 0.  0.
         11    1    3    3    0    0  0.23771620595E+02  0.93410178611E+01 -0.32204269742E+02  0.41103035776E+02  0.00000000000E+00 0. -1.
        -12    1    3    3    0    0 -0.54586188249E+02 -0.31741111628E+02 -0.87984859792E+02  0.10829813326E+03  0.00000000000E+00 0.  1.
        -11    1    4    4    0    0  0.45183551741E+02 -0.35910537880E+02  0.30643287435E+02  0.65346240471E+02  0.00000000000E+00 0. -1.
         11    1    4    4    0    0 -0.24096022422E+02  0.22527604232E+02 -0.30411311547E+01  0.33126420387E+02  0.00000000000E+00 0.  1.
         21    1    1    2  502  501  0.97270383341E+01  0.35783027415E+02 -0.37880617021E+02  0.53009258358E+02  0.00000000000E+00 0. -1.
<scales pt_clust_5="13000.00000" pt_clust_6="13000.00000" pt_clust_7="13000.00000" pt_clust_8="13000.00000" pt_clust_9="37.08154"></scales>
<clustering>
<clus scale="   37.082">  2  9  1 -1</clus>
<clus scale="   80.150">  5  6 -1 -1</clus>
<clus scale="   83.626">  2  5  1 -1</clus>
<clus scale="   91.166">  7  8 -1 -1</clus>
<clus scale="   94.237">  1  5  2 -1</clus>
</clustering>
</event>
<event>
 9    1  0.2802611E-005  0.1039699E+03  0.7546771E-02  0.1277197E+00
         -4   -1    0    0    0  501 -0.00000000000E+00  0.00000000000E+00  0.16843233803E+03  0.16843233803E+03  0.00000000000E+00 0.  1.
          3   -1    0    0  502    0  0.00000000000E+00 -0.00000000000E+00 -0.19510382215E+03  0.19510382215E+03  0.00000000000E+00 0. -1.
         23    2    1    2    0    0 -0.36016196385E+02 -0.21342084388E+02  0.71975949315E+02  0.12494285398E+03  0.93153252829E+02 0.  0.
        -24    2    1    2    0    0  0.47582723510E+02 -0.38564267465E+01 -0.15149906502E+03  0.17891044037E+03  0.82328557423E+02 0.  0.
         13    1    4    4    0    0  0.61223587265E+02  0.59665428816E+01 -0.60174448235E+02  0.86051679193E+02  0.00000000000E+00 0. -1.
        -14    1    4    4    0    0 -0.13640863755E+02 -0.98229696280E+01 -0.91324616788E+02  0.92858761179E+02  0.00000000000E+00 0.  1.
        -13    1    3    3    0    0 -0.53120563899E+02  0.19567007549E+02  0.49652550347E+02  0.75299653713E+02  0.00000000000E+00 0.  1.
         13    1    3    3    0    0  0.17104367514E+02 -0.40909091937E+02  0.22323398968E+02  0.49643200266E+02  0.00000000000E+00 0. -1.
         21    1    1    2  502  501 -0.11566527125E+02  0.25198511134E+02  0.52851631587E+02  0.59682865837E+02  0.00000000000E+00 0.  1.
<scales pt_clust_5="13000.00000" pt_clust_6="13000.00000" pt_clust_7="13000.00000" pt_clust_8="13000.00000" pt_clust_9="27.72633"></scales>
<clustering>
<clus scale="   27.726">  1  9  2 -1</clus>
<clus scale="   82.329">  5  6 -1 -1</clus>
<clus scale="   93.153">  7  8 -1 -1</clus>
<clus scale="   94.394">  2  5  1 -1</clus>
<clus scale="   94.394">  2  5  1 -1</clus>
</clustering>
</event>
<event>
 9    1  0.2802611E-005  0.1315943E+03  0.7546771E-02  0.1227519E+00
         -2   -1    0    0    0  501 -0.00000000000E+00  0.00000000000E+00  0.26684552619E+03  0.26684552619E+03  0.00000000000E+00 0.  1.
          1   -1    0    0  502    0  0.00000000000E+00 -0.00000000000E+00 -0.25610143868E+03  0.25610143868E+03  0.00000000000E+00 0. -1.
        -24    2    1    2    0    0 -0.14292083660E+03  0.80251867545E+02  0.10358007414E+03  0.21070430808E+03  0.82466635107E+02 0.  0.
         23    2    1    2    0    0  0.86695491154E+02  0.13233094943E+02 -0.14375616331E+03  0.19185332140E+03  0.91927359669E+02 0.  0.
         11    1    3    3    0    0 -0.26070029466E+02  0.59184649463E+02  0.39514131908E+02  0.75788097937E+02  0.00000000000E+00 0. -1.
        -12    1    3    3    0    0 -0.11685080713E+03  0.21067218082E+02  0.64065942236E+02  0.13491621014E+03  0.00000000000E+00 0.  1.
        -13    1    4    4    0    0  0.17446407368E+02 -0.37397242961E+02 -0.46529883504E+02  0.62192933441E+02  0.00000000000E+00 0.  1.
         13    1    4    4    0    0  0.69249083786E+02  0.50630337904E+02 -0.97226279805E+02  0.12966038796E+03  0.00000000000E+00 0. -1.
         21    1    1    2  502  501  0.56225345442E+02 -0.93484962489E+02  0.50920176681E+02  0.12038933539E+03  0.00000000000E+00 0.  1.
<scales pt_clust_5="13000.00000" pt_clust_6="13000.00000" pt_clust_7="13000.00000" pt_clust_8="13000.00000" pt_clust_9="109.09046"></scales>
<clustering>
<clus scale="   82.467">  5  6 -1 -1</clus>
<clus scale="   91.927">  7  8 -1 -1</clus>
<clus scale="  109.090">  1  9  2 -1</clus>
<clus scale="  125.169">  1  5  2 -1</clus>
<clus scale="  131.594">  2  5  1 -1</clus>
</clustering>
</event>
<event>
 9    1  0.2802611E-005  0.3833847E+03  0.7546771E-02  0.1049871E+00
         -2   -1    0    0    0  501 -0.00000000000E+00  0.00000000000E+00  0.15183904686E+03  0.15183904686E+03  0.00000000000E+00 0.  1.
          1   -1    0    0  502    0  0.00000000000E+00 -0.00000000000E+00 -0.15198838654E+04  0.15198838654E+04  0.00000000000E+00 0. -1.
        -24    2    1    2    0    0  0.12672077030E+03 -0.31043525930E+03 -0.26881151854E+03  0.43740769961E+03  0.81471831582E+02 0.  0.
         23    2    1    2    0    0 -0.13118350824E+03  0.36520613394E+03 -0.11090958680E+04  0.11784847999E+04  0.90267081739E+02 0.  0.
         13    1    3    3    0    0  0.67835188653E+02 -0.17779021372E+03 -0.20239670695E+03  0.27780460741E+03  0.00000000000E+00 0. -1.
        -14    1    3    3    0    0  0.58885581643E+02 -0.13264504558E+03 -0.66414811589E+02  0.15960309220E+03  0.00000000000E+00 0.  1.
        -13    1    4    4    0    0 -0.15991101398E+02  0.44120472217E+02 -0.65682914224E+02  0.80725315815E+02  0.00000000000E+00 0.  1.
         13    1    4    4    0    0 -0.11519240684E+03  0.32108566172E+03 -0.10434129538E+04  0.10977594841E+04  0.00000000000E+00 0. -1.
         21    1    1    2  502  501  0.44627379395E+01 -0.54770874636E+02  0.98625680199E+01  0.55830412736E+02  0.00000000000E+00 0.  1.
<scales pt_clust_5="13000.00000" pt_clust_6="13000.00000" pt_clust_7="13000.00000" pt_clust_8="13000.00000" pt_clust_9="54.95239"></scales>
<clustering>
<clus scale="   54.952">  1  9  2 -1</clus>
<clus scale="   81.472">  5  6 -1 -1</clus>
<clus scale="   90.267">  7  8 -1 -1</clus>
<clus scale="  381.410">  1  5  2 -1</clus>
<clus scale="  383.385">  2  5  1 -1</clus>
</clustering>
</event>
<event>
 9    1  0.2802611E-005  0.1689694E+03  0.7546771E-02  0.1180300E+00
          3   -1    0    0  502    0  0.00000000000E+00  0.00000000000E+00  0.13900907117E+03  0.13900907117E+03  0.00000000000E+00 0. -1.
         -4   -1    0    0    0  501 -0.00000000000E+00 -0.00000000000E+00 -0.58557913398E+03  0.58557913398E+03  0.00000000000E+00 0.  1.
         23    2    1    2    0    0  0.72284010372E+02 -0.97317118616E+02 -0.39595483228E+03  0.42360799109E+03  0.89263100887E+02 0.  0.
        -24    2    1    2    0    0 -0.95667094371E+02  0.11101596908E+03  0.67574631842E+02  0.17972317019E+03  0.79103405093E+02 0.  0.
         13    1    4    4    0    0 -0.10475643873E+03  0.95078362296E+02  0.74772116991E+02  0.16001461156E+03  0.00000000000E+00 0. -1.
        -14    1    4    4    0    0  0.90893443577E+01  0.15937606786E+02 -0.71974851488E+01  0.19708558633E+02  0.00000000000E+00 0.  1.
        -11    1    3    3    0    0  0.78839776972E+02 -0.47113304696E+02 -0.31507262410E+03  0.32818612458E+03  0.00000000000E+00 0.  1.
         11    1    3    3    0    0 -0.65557666000E+01 -0.50203813920E+02 -0.80882208185E+02  0.95421866512E+02  0.00000000000E+00 0. -1.
         21    1    1    2  502  501  0.23383083998E+02 -0.13698850466E+02 -0.11818986237E+03  0.12125704387E+03  0.00000000000E+00 0. -1.
<scales pt_clust_5="13000.00000" pt_clust_6="13000.00000" pt_clust_7="13000.00000" pt_clust_8="13000.00000" pt_clust_9="27.10032"></scales>
<clustering>
<clus scale="   27.100">  2  9  1 -1</clus>
<clus scale="   79.103">  5  6 -1 -1</clus>
<clus scale="   89.263">  7  8 -1 -1</clus>
<clus scale="  163.829">  1  5  2 -1</clus>
<clus scale="  163.829">  1  5  2 -1</clus>
</clustering>
</event>
<event>
 9    1  0.2802611E-005  0.1299457E+03  0.7546771E-02  0.1239091E+00
         -2   -1    0    0    0  501 -0.00000000000E+00  0.00000000000E+00  0.19260135005E+03  0.19260135005E+03  0.00000000000E+00 0.  1.
          1   -1    0    0  502    0  0.00000000000E+00 -0.00000000000E+00 -0.28230137788E+03  0.28230137788E+03  0.00000000000E+00 0. -1.
         23    2    1    2    0    0  0.34225257043E+02 -0.99565510045E+02  0.10978592871E+03  0.18966602938E+03  0.11329427853E+03 0.  0.
        -24    2    1    2    0    0 -0.39657664541E+02  0.46254740115E+02 -0.20783389940E+03  0.23100352243E+03  0.80345916481E+02 0.  0.
         11    1    4    4    0    0 -0.62120933386E+02  0.21772020823E+02 -0.15738017296E+03  0.17059176445E+03  0.00000000000E+00 0. -1.
        -12    1    4    4    0    0  0.22463268845E+02  0.24482719291E+02 -0.50453726436E+02  0.60411757981E+02  0.00000000000E+00 0.  1.
        -13    1    3    3    0    0  0.65456996015E+01 -0.59065804385E+02 -0.99650181349E+01  0.60257091013E+02  0.00000000000E+00 0. -1.
         13    1    3    3    0    0  0.27679557442E+02 -0.40499705659E+02  0.11975094684E+03  0.12940893836E+03  0.00000000000E+00 0.  1.
         21    1    1    2  502  501  0.54324074972E+01  0.53310769930E+02  0.83479428572E+01  0.54233176117E+02  0.00000000000E+00 0. -1.
<scales pt_clust_5="13000.00000" pt_clust_6="13000.00000" pt_clust_7="13000.00000" pt_clust_8="13000.00000" pt_clust_9="53.58684"></scales>
<clustering>
<clus scale="   53.587">  1  9  2 -1</clus>
<clus scale="   80.346">  5  6 -1 -1</clus>
<clus scale="  102.498">  2  5  1 -1</clus>
<clus scale="  113.294">  7  8 -1 -1</clus>
<clus scale="  102.498">  2  5  1 -1</clus>
</clustering>
</event>
<event>
 9    1  0.2802611E-005  0.1234977E+03  0.7546771E-02  0.1239156E+00
          1   -1    0    0  502    0  0.00000000000E+00  0.00000000000E+00  0.20745116062E+03  0.20745116062E+03  0.00000000000E+00 0. -1.
         -2   -1    0    0    0  501 -0.00000000000E+00 -0.00000000000E+00 -0.13999812456E+03  0.13999812456E+03  0.00000000000E+00 0.  1.
        -24    2    1    2    0    0  0.63836188268E+02  0.27407358137E+02 -0.70729800310E+01  0.10897520300E+03  0.83662091828E+02 0.  0.
         23    2    1    2    0    0 -0.76285529335E+02 -0.52689969271E+02  0.12568541795E+03  0.18006619815E+03  0.89617501557E+02 0.  0.
         11    1    3    3    0    0  0.52919198371E+02  0.30837927013E+02  0.31405531178E+02  0.68831146201E+02  0.00000000000E+00 0. -1.
        -12    1    3    3    0    0  0.10916989897E+02 -0.34305688764E+01 -0.38478511209E+02  0.40144056796E+02  0.00000000000E+00 0.  1.
        -13    1    4    4    0    0 -0.83739547044E+02 -0.91101978855E+01  0.74745928966E+02  0.11261554662E+03  0.00000000000E+00 0. -1.
         13    1    4    4    0    0  0.74540177089E+01 -0.43579771386E+02  0.50939488981E+02  0.67450651529E+02  0.00000000000E+00 0.  1.
         21    1    1    2  502  501  0.12449341066E+02  0.25282611135E+02 -0.51159401853E+02  0.58407884029E+02  0.00000000000E+00 0.  1.
<scales pt_clust_5="13000.00000" pt_clust_6="13000.00000" pt_clust_7="13000.00000" pt_clust_8="13000.00000" pt_clust_9="28.18149"></scales>
<clustering>
<clus scale="   28.181">  2  9  1 -1</clus>
<clus scale="   83.662">  5  6 -1 -1</clus>
<clus scale="   89.618">  7  8 -1 -1</clus>
<clus scale="  119.247">  2  5  1 -1</clus>
<clus scale="  123.498">  1  5  2 -1</clus>
</clustering>
</event>
<event>
 9    1  0.2802611E-005  0.1072188E+03  0.7546771E-02  0.1271767E+00
         -2   -1    0    0    0  501 -0.00000000000E+00  0.00000000000E+00  0.11173118633E+03  0.11173118633E+03  0.00000000000E+00 0.  1.
          1   -1    0    0  502    0  0.00000000000E+00 -0.00000000000E+00 -0.25610035393E+03  0.25610035393E+03  0.00000000000E+00 0. -1.
         23    2    1    2    0    0 -0.23609297740E+02  0.26611242433E+01  0.64943775781E+01  0.94839327639E+02  0.91585154938E+02 0.  0.
        -24    2    1    2    0    0  0.64378322591E+01 -0.69938709252E+02 -0.17119311781E+03  0.20064289200E+03  0.77573305907E+02 0.  0.
         13    1    4    4    0    0 -0.61205012188E+01 -0.74260874097E+02 -0.83346354950E+02  0.11179782127E+03  0.00000000000E+00 0. -1.
        -14    1    4    4    0    0  0.12558333478E+02  0.43221648455E+01 -0.87846762859E+02  0.88845070733E+02  0.00000000000E+00 0.  1.
        -11    1    3    3    0    0 -0.48500050969E+02  0.65367663152E+01  0.32410485878E+02  0.58697732943E+02  0.00000000000E+00 0.  1.
         11    1    3    3    0    0  0.24890753228E+02 -0.38756420719E+01 -0.25916108300E+02  0.36141594696E+02  0.00000000000E+00 0. -1.
         21    1    1    2  502  501  0.17171465481E+02  0.67277585009E+02  0.20329572628E+02  0.72349320623E+02  0.00000000000E+00 0. -1.
<scales pt_clust_5="13000.00000" pt_clust_6="13000.00000" pt_clust_7="13000.00000" pt_clust_8="13000.00000" pt_clust_9="69.43438"></scales>
<clustering>
<clus scale="   69.434">  1  9  2 -1</clus>
<clus scale="   77.573">  5  6 -1 -1</clus>
<clus scale="   91.585">  7  8 -1 -1</clus>
<clus scale="   95.528">  2  5  1 -1</clus>
<clus scale="   95.528">  2  5  1 -1</clus>
</clustering>
</event>
<event>
 9    1  0.2802611E-005  0.1176412E+03  0.7546771E-02  0.1251096E+00
         -2   -1    0    0    0  501 -0.00000000000E+00  0.00000000000E+00  0.49985235508E+02  0.49985235508E+02  0.00000000000E+00 0.  1.
          1   -1    0    0  502    0  0.00000000000E+00 -0.00000000000E+00 -0.39437406337E+03  0.39437406337E+03  0.00000000000E+00 0. -1.
         23    2    1    2    0    0 -0.15530357640E+02 -0.56872778846E+02 -0.51025900314E+02  0.11997767427E+03  0.91188238486E+02 0.  0.
        -24    2    1    2    0    0  0.16996377549E+02  0.77383772143E+02 -0.27469763265E+03  0.29661035719E+03  0.79004997102E+02 0.  0.
         13    1    4    4    0    0  0.46615714130E+01  0.70550411243E+02 -0.27346274812E+03  0.28245524492E+03  0.00000000000E+00 0. -1.
        -14    1    4    4    0    0  0.12334806136E+02  0.68333609000E+01 -0.12348845348E+01  0.14155112271E+02  0.00000000000E+00 0.  1.
        -11    1    3    3    0    0  0.28759047433E+02 -0.56553627574E+02 -0.37351371987E+02  0.73624184820E+02  0.00000000000E+00 0. -1.
         11    1    3    3    0    0 -0.44289405073E+02 -0.31915127106E+00 -0.13674528327E+02  0.46353489450E+02  0.00000000000E+00 0.  1.
         21    1    1    2  502  501 -0.14660199088E+01 -0.20510993298E+02 -0.18665294896E+02  0.27771267418E+02  0.00000000000E+00 0.  1.
<scales pt_clust_5="13000.00000" pt_clust_6="13000.00000" pt_clust_7="13000.00000" pt_clust_8="13000.00000" pt_clust_9="20.56332"></scales>
<clustering>
<clus scale="   20.563">  1  9  2 -1</clus>
<clus scale="   79.005">  5  6 -1 -1</clus>
<clus scale="   91.188">  7  8 -1 -1</clus>
<clus scale="  108.471">  2  5  1 -1</clus>
<clus scale="  108.471">  2  5  1 -1</clus>
</clustering>
</event>
<event>
 9    1  0.2802611E-005  0.9963261E+02  0.7546771E-02  0.1291441E+00
          1   -1    0    0  502    0  0.00000000000E+00  0.00000000000E+00  0.56215262449E+02  0.56215262449E+02  0.00000000000E+00 0. -1.
         -2   -1    0    0    0  501 -0.00000000000E+00 -0.00000000000E+00 -0.21229650632E+03  0.21229650632E+03  0.00000000000E+00 0.  1.
        -24    2    1    2    0    0 -0.20681438731E+02  0.14468366498E+02 -0.85848015448E+02  0.12028992611E+03  0.80391100440E+02 0.  0.
         23    2    1    2    0    0 -0.89797399409E+01 -0.16146106362E+02 -0.47296101032E+02  0.11068902843E+03  0.98355515154E+02 0.  0.
         13    1    3    3    0    0  0.16458296778E+02 -0.23909161151E+02 -0.42701150057E+02  0.51632467847E+02  0.00000000000E+00 0. -1.
        -14    1    3    3    0    0 -0.37139735508E+02  0.38377527649E+02 -0.43146865391E+02  0.68657458263E+02  0.00000000000E+00 0.  1.
        -13    1    4    4    0    0 -0.20877385067E+02  0.15423698776E+02 -0.66837570089E+02  0.71700881909E+02  0.00000000000E+00 0.  1.
         13    1    4    4    0    0  0.11897645126E+02 -0.31569805138E+02  0.19541469057E+02  0.38988146518E+02  0.00000000000E+00 0. -1.
         21    1    1    2  502  501  0.29661178671E+02  0.16777398642E+01 -0.22937127391E+02  0.37532814232E+02  0.00000000000E+00 0. -1.
<scales pt_clust_5="13000.00000" pt_clust_6="13000.00000" pt_clust_7="13000.00000" pt_clust_8="13000.00000" pt_clust_9="29.70859"></scales>
<clustering>
<clus scale="   29.709">  2  9  1 -1</clus>
<clus scale="   80.391">  5  6 -1 -1</clus>
<clus scale="   81.949">  2  5  1 -1</clus>
<clus scale="   98.356">  7  8 -1 -1</clus>
<clus scale="   99.633">  1  5  2 -1</clus>
</clustering>
</event>
<event>
 9    1  0.2802611E-005  0.1137379E+03  0.7546771E-02  0.1258259E+00
          1   -1    0    0  502    0  0.00000000000E+00  0.00000000000E+00  0.23318740039E+03  0.23318740039E+03  0.00000000000E+00 0. -1.
         -2   -1    0    0    0  501 -0.00000000000E+00 -0.00000000000E+00 -0.31551549073E+03  0.31551549073E+03  0.00000000000E+00 0.  1.
        -24    2    1    2    0    0  0.85878526416E+01 -0.39229980493E+01 -0.17674953817E+03  0.19414494546E+03  0.79766656432E+02 0.  0.
         23    2    1    2    0    0 -0.70557457539E+02 -0.14379225236E+02  0.19951801100E+03  0.23118659203E+03  0.91949370256E+02 0.  0.
         13    1    3    3    0    0 -0.33784060886E+02  0.83675468046E+01 -0.60382040219E+02  0.69694830443E+02  0.00000000000E+00 0. -1.
        -14    1    3    3    0    0  0.42371913528E+02 -0.12290544854E+02 -0.11636749795E+03  0.12445011502E+03  0.00000000000E+00 0.  1.
        -11    1    4    4    0    0 -0.29335958894E+02 -0.52727459257E+02  0.10905096773E+03  0.12463104351E+03  0.00000000000E+00 0.  1.
         11    1    4    4    0    0 -0.41221498645E+02  0.38348234021E+02  0.90467043267E+02  0.10655554852E+03  0.00000000000E+00 0. -1.
         21    1    1    2  502  501  0.61969604898E+02  0.18302223285E+02 -0.10509656316E+03  0.12337135363E+03  0.00000000000E+00 0.  1.
<scales pt_clust_5="13000.00000" pt_clust_6="13000.00000" pt_clust_7="13000.00000" pt_clust_8="13000.00000" pt_clust_9="64.61581"></scales>
<clustering>
<clus scale="   64.616">  2  9  1 -1</clus>
<clus scale="   79.767">  5  6 -1 -1</clus>
<clus scale="   91.949">  7  8 -1 -1</clus>
<clus scale="  104.136">  2  5  1 -1</clus>
<clus scale="  113.738">  1  5  2 -1</clus>
</clustering>
</event>
<event>
 9    1  0.2802611E-005  0.1839291E+03  0.7546771E-02  0.1164654E+00
         -2   -1    0    0    0  501 -0.00000000000E+00  0.00000000000E+00  0.25866250523E+03  0.25866250523E+03  0.00000000000E+00 0.  1.
          1   -1    0    0  502    0  0.00000000000E+00 -0.00000000000E+00 -0.59780464117E+03  0.59780464117E+03  0.00000000000E+00 0. -1.
        -24    2    1    2    0    0  0.13820902642E+03 -0.17254647432E+02  0.82585376421E+02  0.18120038723E+03  0.81325138141E+02 0.  0.
         23    2    1    2    0    0 -0.15979154457E+03  0.41236498062E+02 -0.53023192879E+03  0.56206718924E+03  0.86832254504E+02 0.  0.
         11    1    3    3    0    0  0.34266840134E+02 -0.42221995732E+02  0.26896994235E+02  0.60665983510E+02  0.00000000000E+00 0. -1.
        -12    1    3    3    0    0  0.10394218628E+03  0.24967348300E+02  0.55688382186E+02  0.12053440372E+03  0.00000000000E+00 0.  1.
        -13    1    4    4    0    0 -0.10835015396E+03  0.30357811826E+02 -0.46428233663E+03  0.47772318419E+03  0.00000000000E+00 0. -1.
         13    1    4    4    0    0 -0.51441390611E+02  0.10878686236E+02 -0.65949592155E+02  0.84344005048E+02  0.00000000000E+00 0.  1.
         21    1    1    2  502  501  0.21582518151E+02 -0.23981850630E+02  0.10850441643E+03  0.11319956994E+03  0.00000000000E+00 0.  1.
<scales pt_clust_5="13000.00000" pt_clust_6="13000.00000" pt_clust_7="13000.00000" pt_clust_8="13000.00000" pt_clust_9="32.26351"></scales>
<clustering>
<clus scale="   32.264">  1  9  2 -1</clus>
<clus scale="   81.325">  5  6 -1 -1</clus>
<clus scale="   86.832">  7  8 -1 -1</clus>
<clus scale="  181.394">  1  5  2 -1</clus>
<clus scale="  183.929">  2  5  1 -1</clus>
</clustering>
</event>
<event>
 9    1  0.2802611E-005  0.1022639E+03  0.7546771E-02  0.1282315E+00
         -2   -1    0    0    0  501 -0.00000000000E+00  0.00000000000E+00  0.56070658076E+02  0.56070658076E+02  0.00000000000E+00 0.  1.
          1   -1    0    0  502    0  0.00000000000E+00 -0.00000000000E+00 -0.44993787030E+03  0.44993787030E+03  0.00000000000E+00 0. -1.
         23    2    1    2    0    0 -0.22244780098E+01  0.37626036835E+02 -0.35260010303E+02  0.10581958039E+03  0.92378830457E+02 0.  0.
        -24    2    1    2    0    0  0.23393254055E+02 -0.38946176748E+02 -0.36649003383E+03  0.37756155557E+03  0.78573114570E+02 0.  0.
         11    1    4    4    0    0  0.49006319379E+02 -0.93815676162E+01 -0.24121622258E+03  0.24632275410E+03  0.00000000000E+00 0. -1.
        -12    1    4    4    0    0 -0.25613065324E+02 -0.29564609132E+02 -0.12527381125E+03  0.13123880148E+03  0.00000000000E+00 0.  1.
        -11    1    3    3    0    0 -0.35992394244E+02  0.47600122621E+02 -0.58859277386E+01  0.59965558967E+02  0.00000000000E+00 0.  1.
         11    1    3    3    0    0  0.33767916234E+02 -0.99740857853E+01 -0.29374082564E+02  0.45854021421E+02  0.00000000000E+00 0. -1.
         21    1    1    2  502  501 -0.21168776045E+02  0.13201399126E+01  0.78828319059E+01  0.22627392415E+02  0.00000000000E+00 0.  1.
<scales pt_clust_5="13000.00000" pt_clust_6="13000.00000" pt_clust_7="13000.00000" pt_clust_8="13000.00000" pt_clust_9="21.20990"></scales>
<clustering>
<clus scale="   21.210">  1  9  2 -1</clus>
<clus scale="   78.573">  5  6 -1 -1</clus>
<clus scale="   89.988">  2  5  1 -1</clus>
<clus scale="   92.379">  7  8 -1 -1</clus>
<clus scale="   89.988">  2  5  1 -1</clus>
</clustering>
</event>
<event>
 9    1  0.2802611E-005  0.1255099E+03  0.7546771E-02  0.1237412E+00
         -2   -1    0    0    0  501 -0.00000000000E+00  0.00000000000E+00  0.25342851487E+03  0.25342851487E+03  0.00000000000E+00 0.  1.
          1   -1    0    0  502    0  0.00000000000E+00 -0.00000000000E+00 -0.56715622879E+03  0.56715622879E+03  0.00000000000E+00 0. -1.
        -24    2    1    2    0    0  0.83435044136E+02  0.43024232487E+01  0.11319776340E+03  0.16113929639E+03  0.78563488768E+02 0.  0.
         23    2    1    2    0    0 -0.66420755135E+02 -0.58979357705E+02 -0.52820285563E+03  0.54310044070E+03  0.89830677650E+02 0.  0.
         11    1    3    3    0    0  0.29232381548E+02 -0.61241802132E+01  0.10003040382E+03  0.10439405827E+03  0.00000000000E+00 0. -1.
        -12    1    3    3    0    0  0.54202662588E+02  0.10426603462E+02  0.13167359584E+02  0.56745238124E+02  0.00000000000E+00 0.  1.
        -13    1    4    4    0    0 -0.58708301824E+02 -0.79903822301E+02 -0.47787564223E+03  0.48805370089E+03  0.00000000000E+00 0. -1.
         13    1    4    4    0    0 -0.77124533101E+01  0.20924464596E+02 -0.50327213406E+02  0.55046739812E+02  0.00000000000E+00 0.  1.
         21    1    1    2  502  501 -0.17014289002E+02  0.54676934456E+02  0.10127737831E+03  0.11634500655E+03  0.00000000000E+00 0.  1.
<scales pt_clust_5="13000.00000" pt_clust_6="13000.00000" pt_clust_7="13000.00000" pt_clust_8="13000.00000" pt_clust_9="57.26302"></scales>
<clustering>
<clus scale="   57.263">  1  9  2 -1</clus>
<clus scale="   78.563">  5  6 -1 -1</clus>
<clus scale="   89.831">  7  8 -1 -1</clus>
<clus scale="  117.709">  1  5  2 -1</clus>
<clus scale="  125.510">  2  5  1 -1</clus>
</clustering>
</event>
<event>
 9    1  0.2802611E-005  0.1189536E+03  0.7546771E-02  0.1247676E+00
          1   -1    0    0  502    0  0.00000000000E+00  0.00000000000E+00  0.18785033432E+03  0.18785033432E+03  0.00000000000E+00 0. -1.
         -2   -1    0    0    0  501 -0.00000000000E+00 -0.00000000000E+00 -0.23929189318E+03  0.23929189318E+03  0.00000000000E+00 0.  1.
         23    2    1    2    0    0 -0.18893764211E+02  0.80086309953E+02 -0.10145858194E+03  0.15846249909E+03  0.89697984369E+02 0.  0.
        -24    2    1    2    0    0 -0.37728031440E+01 -0.77825237667E+02  0.13796580930E+03  0.17782889066E+03  0.80731333164E+02 0.  0.
         11    1    4    4    0    0 -0.13104292905E+02 -0.73350816860E+02  0.14653584741E+03  0.16439227294E+03  0.00000000000E+00 0. -1.
        -12    1    4    4    0    0  0.93314897613E+01 -0.44744208067E+01 -0.85700381017E+01  0.13436617721E+02  0.00000000000E+00 0.  1.
        -11    1    3    3    0    0 -0.45968466121E+02  0.25874268500E+02 -0.18861168437E+02  0.56020722262E+02  0.00000000000E+00 0. -1.
         11    1    3    3    0    0  0.27074701909E+02  0.54212041452E+02 -0.82597413502E+02  0.10244177683E+03  0.00000000000E+00 0.  1.
         21    1    1    2  502  501  0.22666567355E+02 -0.22610722858E+01 -0.87948786217E+02  0.90850837754E+02  0.00000000000E+00 0.  1.
<scales pt_clust_5="13000.00000" pt_clust_6="13000.00000" pt_clust_7="13000.00000" pt_clust_8="13000.00000" pt_clust_9="22.77906"></scales>
<clustering>
<clus scale="   22.779">  2  9  1 -1</clus>
<clus scale="   80.731">  5  6 -1 -1</clus>
<clus scale="   89.698">  7  8 -1 -1</clus>
<clus scale="  112.347">  1  5  2 -1</clus>
<clus scale="  112.347">  1  5  2 -1</clus>
</clustering>
</event>
<event>
 9    1  0.2802611E-005  0.1467994E+03  0.7546771E-02  0.1223988E+00
         -2   -1    0    0    0  501 -0.00000000000E+00  0.00000000000E+00  0.18838915396E+03  0.18838915396E+03  0.00000000000E+00 0.  1.
          1   -1    0    0  502    0  0.00000000000E+00 -0.00000000000E+00 -0.89628457220E+03  0.89628457220E+03  0.00000000000E+00 0. -1.
        -24    2    1    2    0    0 -0.12840535406E+03 -0.50035148121E+02 -0.46227167879E+03  0.48912096900E+03  0.80949158736E+02 0.  0.
         23    2    1    2    0    0  0.78696588688E+01  0.31830783877E+02 -0.39270833691E+03  0.40451838459E+03  0.91324450529E+02 0.  0.
         11    1    3    3    0    0 -0.68526155162E+02 -0.67393089869E+02 -0.24833871268E+03  0.26628890086E+03  0.00000000000E+00 0. -1.
        -12    1    3    3    0    0 -0.59879198897E+02  0.17357941748E+02 -0.21393296611E+03  0.22283206814E+03  0.00000000000E+00 0.  1.
        -11    1    4    4    0    0 -0.98784755044E+01  0.60848006186E+02 -0.21897276905E+03  0.22748436808E+03  0.00000000000E+00 0.  1.
         11    1    4    4    0    0  0.17748134373E+02 -0.29017222309E+02 -0.17373556786E+03  0.17703401652E+03  0.00000000000E+00 0. -1.
         21    1    1    2  502  501  0.12053569519E+03  0.18204364245E+02  0.14708459747E+03  0.19103437257E+03  0.00000000000E+00 0.  1.
<scales pt_clust_5="13000.00000" pt_clust_6="13000.00000" pt_clust_7="13000.00000" pt_clust_8="13000.00000" pt_clust_9="122.46343"></scales>
<clustering>
<clus scale="   80.949">  5  6 -1 -1</clus>
<clus scale="   91.324">  7  8 -1 -1</clus>
<clus scale="   97.032">  2  7  1 -1</clus>
<clus scale="  122.463">  1  9  2 -1</clus>
<clus scale="   97.032">  2  5  1 -1</clus>
</clustering>
</event>
<event>
 9    1  0.2802611E-005  0.1085840E+03  0.7546771E-02  0.1274018E+00
         -2   -1    0    0    0  501 -0.00000000000E+00  0.00000000000E+00  0.91725945299E+02  0.91725945299E+02  0.00000000000E+00 0.  1.
          1   -1    0    0  502    0  0.00000000000E+00 -0.00000000000E+00 -0.51169525315E+03  0.51169525315E+03  0.00000000000E+00 0. -1.
        -24    2    1    2    0    0  0.18805763271E+02  0.11498303189E+02  0.48453397885E+02  0.96627259696E+02  0.80642593220E+02 0.  0.
         23    2    1    2    0    0 -0.16150879281E+02  0.35403201904E+02 -0.43626418301E+03  0.44986441941E+03  0.10265145332E+03 0.  0.
         11    1    3    3    0    0 -0.18443356460E+02  0.31287988826E+02  0.60537649445E+01  0.36820425205E+02  0.00000000000E+00 0. -1.
        -12    1    3    3    0    0  0.37249119731E+02 -0.19789685637E+02  0.42399632940E+02  0.59806834491E+02  0.00000000000E+00 0.  1.
        -13    1    4    4    0    0 -0.36357650307E+02 -0.26254133880E+02 -0.18498125039E+03  0.19033975223E+03  0.00000000000E+00 0.  1.
         13    1    4    4    0    0  0.20206771026E+02  0.61657335784E+02 -0.25128293261E+03  0.25952466718E+03  0.00000000000E+00 0. -1.
         21    1    1    2  502  501 -0.26548839905E+01 -0.46901505093E+02 -0.32158522735E+02  0.56929519351E+02  0.00000000000E+00 0. -1.
<scales pt_clust_5="13000.00000" pt_clust_6="13000.00000" pt_clust_7="13000.00000" pt_clust_8="13000.00000" pt_clust_9="46.97659"></scales>
<clustering>
<clus scale="   46.977">  1  9  2 -1</clus>
<clus scale="   80.643">  5  6 -1 -1</clus>
<clus scale="   88.070">  1  5  2 -1</clus>
<clus scale="  102.651">  7  8 -1 -1</clus>
<clus scale="  108.584">  2  5  1 -1</clus>
</clustering>
</event>
<event>
 9    1  0.2802611E-005  0.2787639E+03  0.7546771E-02  0.1096887E+00
         -2   -1    0    0    0  501 -0.00000000000E+00  0.00000000000E+00  0.22459463525E+03  0.22459463525E+03  0.00000000000E+00 0.  1.
          1   -1    0    0  502    0  0.00000000000E+00 -0.00000000000E+00 -0.85428421434E+03  0.85428421434E+03  0.00000000000E+00 0. -1.
        -24    2    1    2    0    0  0.23642261326E+03 -0.13566543190E+03  0.20164617400E+02  0.28466159709E+03  0.79528935551E+02 0.  0.
         23    2    1    2    0    0 -0.23517123822E+03  0.11480679958E+03 -0.69292075982E+03  0.74634891892E+03  0.91713776829E+02 0.  0.
         13    1    3    3    0    0  0.15390634858E+03 -0.10087607336E+03 -0.22640251639E+02  0.18540692356E+03  0.00000000000E+00 0. -1.
        -14    1    3    3    0    0  0.82516264684E+02 -0.34789358546E+02  0.42804869039E+02  0.99254673537E+02  0.00000000000E+00 0.  1.
        -11    1    4    4    0    0 -0.18192872396E+03  0.53628223941E+02 -0.55300568321E+03  0.58462751618E+03  0.00000000000E+00 0. -1.
         11    1    4    4    0    0 -0.53242514260E+02  0.61178575638E+02 -0.13991507661E+03  0.16172140274E+03  0.00000000000E+00 0.  1.
         21    1    1    2  502  501 -0.12513750457E+01  0.20858632322E+02  0.43066563336E+02  0.47868333577E+02  0.00000000000E+00 0. -1.
<scales pt_clust_5="13000.00000" pt_clust_6="13000.00000" pt_clust_7="13000.00000" pt_clust_8="13000.00000" pt_clust_9="20.89614"></scales>
<clustering>
<clus scale="   20.896">  1  9  2 -1</clus>
<clus scale="   79.529">  5  6 -1 -1</clus>
<clus scale="   91.714">  7  8 -1 -1</clus>
<clus scale="  274.996">  1  5  2 -1</clus>
<clus scale="  278.764">  2  5  1 -1</clus>
</clustering>
</event>
<event>
 9    1  0.2802611E-005  0.1732155E+03  0.7546771E-02  0.1175690E+00
         -2   -1    0    0    0  501 -0.00000000000E+00  0.00000000000E+00  0.39991792724E+03  0.39991792724E+03  0.00000000000E+00 0.  1.
          1   -1    0    0  502    0  0.00000000000E+00 -0.00000000000E+00 -0.18871209288E+03  0.18871209288E+03  0.00000000000E+00 0. -1.
        -24    2    1    2    0    0  0.17963255760E+02  0.13931846963E+03  0.29435154009E+03  0.33631540316E+03  0.82054291258E+02 0.  0.
         23    2    1    2    0    0 -0.39679785403E+02 -0.14325456036E+03 -0.11844312421E+03  0.21068520161E+03  0.90901738552E+02 0.  0.
         11    1    3    3    0    0  0.42889853378E+02  0.56155629127E+02  0.91050378585E+02  0.11525261665E+03  0.00000000000E+00 0. -1.
        -12    1    3    3    0    0 -0.24926597618E+02  0.83162840508E+02  0.20330116150E+03  0.22106278651E+03  0.00000000000E+00 0.  1.
        -11    1    4    4    0    0  0.12719032562E+02 -0.80077770114E+02 -0.95868042005E+02  0.12555837102E+03  0.00000000000E+00 0. -1.
         11    1    4    4    0    0 -0.52398817965E+02 -0.63176790247E+02 -0.22575082209E+02  0.85126830593E+02  0.00000000000E+00 0.  1.
         21    1    1    2  502  501  0.21716529644E+02  0.39360907260E+01  0.35297418488E+02  0.41629415344E+02  0.00000000000E+00 0.  1.
<scales pt_clust_5="13000.00000" pt_clust_6="13000.00000" pt_clust_7="13000.00000" pt_clust_8="13000.00000" pt_clust_9="22.07035"></scales>
<clustering>
<clus scale="   22.070">  1  9  2 -1</clus>
<clus scale="   82.054">  5  6 -1 -1</clus>
<clus scale="   90.902">  7  8 -1 -1</clus>
<clus scale="  168.741">  1  5  2 -1</clus>
<clus scale="  173.216">  2  5  1 -1</clus>
</clustering>
</event>
<event>
 9    1  0.2802611E-005  0.9212671E+02  0.7546771E-02  0.1298059E+00
         -4   -1    0    0    0  501 -0.00000000000E+00  0.00000000000E+00  0.15619933533E+03  0.15619933533E+03  0.00000000000E+00 0.  1.
          3   -1    0    0  502    0  0.00000000000E+00 -0.00000000000E+00 -0.24838893060E+03  0.24838893060E+03  0.00000000000E+00 0. -1.
        -24    2    1    2    0    0  0.30491665470E+02  0.16965293468E+02  0.90359658906E+02  0.12561675639E+03  0.79982114769E+02 0.  0.
         23    2    1    2    0    0 -0.23337524622E+02 -0.39668316220E+02 -0.21763492680E+03  0.23657323839E+03  0.80521552339E+02 0.  0.
         11    1    3    3    0    0  0.27477809209E+02 -0.69108287916E+01 -0.36573088585E+01  0.28568609725E+02  0.00000000000E+00 0. -1.
        -12    1    3    3    0    0  0.30138562612E+01  0.23876122260E+02  0.94016967765E+02  0.97048146667E+02  0.00000000000E+00 0.  1.
        -11    1    4    4    0    0  0.45713150504E+01 -0.56448384028E+02 -0.10467954388E+03  0.11901732599E+03  0.00000000000E+00 0. -1.
         11    1    4    4    0    0 -0.27908839673E+02  0.16780067807E+02 -0.11295538292E+03  0.11755591239E+03  0.00000000000E+00 0.  1.
         21    1    1    2  502  501 -0.71541408479E+01  0.22703022752E+02  0.35085672625E+02  0.42398271155E+02  0.00000000000E+00 0.  1.
<scales pt_clust_5="13000.00000" pt_clust_6="13000.00000" pt_clust_7="13000.00000" pt_clust_8="13000.00000" pt_clust_9="23.80355"></scales>
<clustering>
<clus scale="   23.804">  1  9  2 -1</clus>
<clus scale="   79.982">  5  6 -1 -1</clus>
<clus scale="   80.522">  7  8 -1 -1</clus>
<clus scale="   91.656">  1  5  2 -1</clus>
<clus scale="   92.127">  2  5  1 -1</clus>
</clustering>
</event>
<event>
 9    1  0.2802611E-005  0.1003277E+03  0.7546771E-02  0.1285395E+00
         -2   -1    0    0    0  501 -0.00000000000E+00  0.00000000000E+00  0.16302446138E+03  0.16302446138E+03  0.00000000000E+00 0.  1.
          1   -1    0    0  502    0  0.00000000000E+00 -0.00000000000E+00 -0.28830279444E+03  0.28830279444E+03  0.00000000000E+00 0. -1.
         23    2    1    2    0    0 -0.41900580101E+01 -0.97942179799E+01  0.26980569435E+02  0.96371993255E+02  0.91902810974E+02 0.  0.
        -24    2    1    2    0    0 -0.43774351239E+02  0.14181105775E+02 -0.23867633034E+03  0.25602194575E+03  0.80396196764E+02 0.  0.
         13    1    4    4    0    0 -0.43310695809E+02 -0.79217522590E+01 -0.22658606976E+03  0.23082421350E+03  0.00000000000E+00 0. -1.
        -14    1    4    4    0    0 -0.46365543013E+00  0.22102858034E+02 -0.12090260585E+02  0.25197732252E+02  0.00000000000E+00 0.  1.
        -13    1    3    3    0    0  0.25827394002E+02  0.26587480818E+02  0.31960912745E+02  0.48943317834E+02  0.00000000000E+00 0.  1.
         13    1    3    3    0    0 -0.30017452012E+02 -0.36381698798E+02 -0.49803433094E+01  0.47428675421E+02  0.00000000000E+00 0. -1.
         21    1    1    2  502  501  0.47964409249E+02 -0.43868877953E+01  0.86417427852E+02  0.98933316813E+02  0.00000000000E+00 0.  1.
<scales pt_clust_5="13000.00000" pt_clust_6="13000.00000" pt_clust_7="13000.00000" pt_clust_8="13000.00000" pt_clust_9="48.16461"></scales>
<clustering>
<clus scale="   48.165">  1  9  2 -1</clus>
<clus scale="   80.396">  5  6 -1 -1</clus>
<clus scale="   89.906">  2  5  1 -1</clus>
<clus scale="   91.903">  7  8 -1 -1</clus>
<clus scale="   89.906">  2  5  1 -1</clus>
</clustering>
</event>
<event>
 9    1  0.2802611E-005  0.9529923E+02  0.7546771E-02  0.1293742E+00
         -4   -1    0    0    0  501 -0.00000000000E+00  0.00000000000E+00  0.22772651220E+03  0.22772651220E+03  0.00000000000E+00 0.  1.
          3   -1    0    0  502    0  0.00000000000E+00 -0.00000000000E+00 -0.30953737737E+03  0.30953737737E+03  0.00000000000E+00 0. -1.
         23    2    1    2    0    0  0.25127280350E+02  0.25582795863E+02  0.14481066745E+03  0.17460197029E+03  0.90718570088E+02 0.  0.
        -24    2    1    2    0    0  0.56368066022E+01 -0.29006208725E+02 -0.28378157675E+03  0.29765869286E+03  0.84826767004E+02 0.  0.
         11    1    4    4    0    0  0.36841621093E+02 -0.35569423593E+02 -0.22531900968E+03  0.23106523984E+03  0.00000000000E+00 0. -1.
        -12    1    4    4    0    0 -0.31204814491E+02  0.65632148689E+01 -0.58462567067E+02  0.66593453018E+02  0.00000000000E+00 0.  1.
        -11    1    3    3    0    0  0.45020301055E+02  0.50296214181E+01  0.13793543811E+03  0.14518371013E+03  0.00000000000E+00 0.  1.
         11    1    3    3    0    0 -0.19893020705E+02  0.20553174445E+02  0.68752293392E+01  0.29418260162E+02  0.00000000000E+00 0. -1.
         21    1    1    2  502  501 -0.30764086952E+02  0.34234128618E+01  0.57160044124E+02  0.65003226427E+02  0.00000000000E+00 0.  1.
<scales pt_clust_5="13000.00000" pt_clust_6="13000.00000" pt_clust_7="13000.00000" pt_clust_8="13000.00000" pt_clust_9="30.95398"></scales>
<clustering>
<clus scale="   30.954">  1  9  2 -1</clus>
<clus scale="   84.827">  5  6 -1 -1</clus>
<clus scale="   89.709">  2  5  1 -1</clus>
<clus scale="   90.719">  7  8 -1 -1</clus>
<clus scale="   89.709">  2  5  1 -1</clus>
</clustering>
</event>
<event>
 9    1  0.2802611E-005  0.1180395E+03  0.7546771E-02  0.1252885E+00
          1   -1    0    0  502    0  0.00000000000E+00  0.00000000000E+00  0.84546114234E+02  0.84546114234E+02  0.00000000000E+00 0. -1.
         -2   -1    0    0    0  501 -0.00000000000E+00 -0.00000000000E+00 -0.21719036917E+03  0.21719036917E+03  0.00000000000E+00 0.  1.
        -24    2    1    2    0    0 -0.67852624485E+00  0.87682161763E+02 -0.77354531319E+02  0.13933613465E+03  0.75777391183E+02 0.  0.
         23    2    1    2    0    0 -0.44112743562E+01 -0.60551892666E+02 -0.14704634335E+02  0.11331769353E+03  0.94544605080E+02 0.  0.
         13    1    3    3    0    0 -0.33564022465E+02  0.59462877642E+02 -0.65007422766E+02  0.94278006110E+02  0.00000000000E+00 0. -1.
        -14    1    3    3    0    0  0.32885496220E+02  0.28219284121E+02 -0.12347108554E+02  0.45058128541E+02  0.00000000000E+00 0.  1.
        -13    1    4    4    0    0  0.14414513053E+02  0.22587501697E+02  0.11297720408E+00  0.26795264196E+02  0.00000000000E+00 0. -1.
         13    1    4    4    0    0 -0.18825787409E+02 -0.83139394363E+02 -0.14817611539E+02  0.86522429336E+02  0.00000000000E+00 0.  1.
         21    1    1    2  502  501  0.50898006010E+01 -0.27130269098E+02 -0.40585089277E+02  0.49082655216E+02  0.00000000000E+00 0.  1.
<scales pt_clust_5="13000.00000" pt_clust_6="13000.00000" pt_clust_7="13000.00000" pt_clust_8="13000.00000" pt_clust_9="27.60358"></scales>
<clustering>
<clus scale="   27.604">  2  9  1 -1</clus>
<clus scale="   75.777">  5  6 -1 -1</clus>
<clus scale="   94.545">  7  8 -1 -1</clus>
<clus scale="  103.619">  2  5  1 -1</clus>
<clus scale="  118.039">  1  5  2 -1</clus>
</clustering>
</event>
<event>
 9    1  0.2802611E-005  0.1363374E+03  0.7546771E-02  0.1221062E+00
          1   -1    0    0  502    0  0.00000000000E+00  0.00000000000E+00  0.70922730348E+02  0.70922730348E+02  0.00000000000E+00 0. -1.
         -2   -1    0    0    0  501 -0.00000000000E+00 -0.00000000000E+00 -0.47265022345E+03  0.47265022345E+03  0.00000000000E+00 0.  1.
        -24    2    1    2    0    0 -0.44928728590E+01 -0.11558779787E+03 -0.22410651575E+03  0.26419523243E+03  0.78706197424E+02 0.  0.
         23    2    1    2    0    0 -0.16888774086E+02  0.96058718858E+02 -0.40332544614E+02  0.13906851455E+03  0.90558431008E+02 0.  0.
         13    1    3    3    0    0 -0.35792174903E+02 -0.25820421130E+02 -0.59080712077E+02  0.73744860642E+02  0.00000000000E+00 0. -1.
        -14    1    3    3    0    0  0.31299302044E+02 -0.89767376743E+02 -0.16502580367E+03  0.19045037179E+03  0.00000000000E+00 0.  1.
        -11    1    4    4    0    0  0.35329352231E+02  0.24239954013E+02 -0.22887382370E+02  0.48575413239E+02  0.00000000000E+00 0.  1.
         11    1    4    4    0    0 -0.52218126317E+02  0.71818764845E+02 -0.17445162244E+02  0.90493101315E+02  0.00000000000E+00 0. -1.
         21    1    1    2  502  501  0.21381646945E+02  0.19529079016E+02 -0.13728843274E+03  0.14030920682E+03  0.00000000000E+00 0.  1.
<scales pt_clust_5="13000.00000" pt_clust_6="13000.00000" pt_clust_7="13000.00000" pt_clust_8="13000.00000" pt_clust_9="28.95790"></scales>
<clustering>
<clus scale="   28.958">  2  9  1 -1</clus>
<clus scale="   78.706">  5  6 -1 -1</clus>
<clus scale="   90.558">  7  8 -1 -1</clus>
<clus scale="  128.770">  2  5  1 -1</clus>
<clus scale="  136.337">  1  5  2 -1</clus>
</clustering>
</event>
<event>
 9    1  0.2802611E-005  0.1662916E+03  0.7546771E-02  0.1209945E+00
          1   -1    0    0  502    0  0.00000000000E+00  0.00000000000E+00  0.47164957580E+02  0.47164957580E+02  0.00000000000E+00 0. -1.
         -2   -1    0    0    0  501 -0.00000000000E+00 -0.00000000000E+00 -0.93742285388E+03  0.93742285388E+03  0.00000000000E+00 0.  1.
        -24    2    1    2    0    0 -0.34887334795E+02 -0.76385449163E+01 -0.19695580310E+03  0.21645461263E+03  0.82374373781E+02 0.  0.
         23    2    1    2    0    0  0.14308712130E+03  0.40695225668E+02 -0.22320168180E+03  0.28461036097E+03  0.95152725309E+02 0.  0.
         11    1    3    3    0    0  0.16203901050E+02  0.12167135869E+02 -0.12163114445E+03  0.12330750547E+03  0.00000000000E+00 0. -1.
        -12    1    3    3    0    0 -0.51091235845E+02 -0.19805680785E+02 -0.75324658645E+02  0.93147107156E+02  0.00000000000E+00 0.  1.
        -11    1    4    4    0    0  0.29940198190E+02  0.50021953834E+02 -0.10881321398E+03  0.12344604841E+03  0.00000000000E+00 0.  1.
         11    1    4    4    0    0  0.11314692311E+03 -0.93267281665E+01 -0.11438846783E+03  0.16116431255E+03  0.00000000000E+00 0. -1.
         21    1    1    2  502  501 -0.10819978651E+03 -0.33056680751E+02 -0.47010041140E+03  0.48352283787E+03  0.00000000000E+00 0.  1.
<scales pt_clust_5="13000.00000" pt_clust_6="13000.00000" pt_clust_7="13000.00000" pt_clust_8="13000.00000" pt_clust_9="136.37763"></scales>
<clustering>
<clus scale="   82.374">  5  6 -1 -1</clus>
<clus scale="   89.783">  2  5  1 -1</clus>
<clus scale="   95.153">  7  8 -1 -1</clus>
<clus scale="  136.378">  2  9  1 -1</clus>
<clus scale="  166.292">  1  5  2 -1</clus>
</clustering>
</event>
<event>
 9    1  0.2802611E-005  0.1183837E+03  0.7546771E-02  0.1249595E+00
          1   -1    0    0  502    0  0.00000000000E+00  0.00000000000E+00  0.17506693853E+03  0.17506693853E+03  0.00000000000E+00 0. -1.
         -2   -1    0    0    0  501 -0.00000000000E+00 -0.00000000000E+00 -0.11626697853E+03  0.11626697853E+03  0.00000000000E+00 0.  1.
        -24    2    1    2    0    0 -0.49491240536E+01 -0.78423557705E+02 -0.42880236523E+02  0.12068015380E+03  0.80933532024E+02 0.  0.
         23    2    1    2    0    0  0.21336498269E+02  0.59183511980E+02  0.83657917198E+02  0.13961301673E+03  0.92386216942E+02 0.  0.
         11    1    3    3    0    0  0.23376184705E+02 -0.49532013295E+02  0.83451819388E+01  0.55403144442E+02  0.00000000000E+00 0. -1.
        -12    1    3    3    0    0 -0.28325308759E+02 -0.28891544410E+02 -0.51225418462E+02  0.65277009362E+02  0.00000000000E+00 0.  1.
        -11    1    4    4    0    0 -0.24295139161E+02  0.49291778405E+02  0.15685172802E+02  0.57148559483E+02  0.00000000000E+00 0.  1.
         11    1    4    4    0    0  0.45631637429E+02  0.98917335751E+01  0.67972744397E+02  0.82464457243E+02  0.00000000000E+00 0. -1.
         21    1    1    2  502  501 -0.16387374215E+02  0.19240045725E+02  0.18022279321E+02  0.31040746529E+02  0.00000000000E+00 0. -1.
<scales pt_clust_5="13000.00000" pt_clust_6="13000.00000" pt_clust_7="13000.00000" pt_clust_8="13000.00000" pt_clust_9="25.27302"></scales>
<clustering>
<clus scale="   25.273">  1  9  2 -1</clus>
<clus scale="   80.934">  5  6 -1 -1</clus>
<clus scale="   92.386">  7  8 -1 -1</clus>
<clus scale="  109.680">  2  5  1 -1</clus>
<clus scale="   25.273">  1  5  2 -1</clus>
</clustering>
</event>
<event>
 9    1  0.2802611E-005  0.1078354E+03  0.7546771E-02  0.1269389E+00
         -2   -1    0    0    0  501 -0.00000000000E+00  0.00000000000E+00  0.61202438764E+03  0.61202438764E+03  0.00000000000E+00 0.  1.
          1   -1    0    0  502    0  0.00000000000E+00 -0.00000000000E+00 -0.23662429682E+02  0.23662429682E+02  0.00000000000E+00 0. -1.
        -24    2    1    2    0    0 -0.39901091878E+01 -0.43680777577E+02  0.25229293137E+03  0.26840260809E+03  0.80400904905E+02 0.  0.
         23    2    1    2    0    0  0.23089371559E+02  0.65101613658E+02  0.22586056212E+03  0.25340032239E+03  0.91800820727E+02 0.  0.
         13    1    3    3    0    0 -0.96163251567E+01 -0.58010688018E+02  0.10530224857E+03  0.12060794828E+03  0.00000000000E+00 0. -1.
        -14    1    3    3    0    0  0.56262159689E+01  0.14329910440E+02  0.14699068280E+03  0.14779465981E+03  0.00000000000E+00 0.  1.
        -11    1    4    4    0    0 -0.35751116384E+02  0.23530880531E+02  0.80892293816E+02  0.91517254439E+02  0.00000000000E+00 0. -1.
         11    1    4    4    0    0  0.58840487943E+02  0.41570733127E+02  0.14496826830E+03  0.16188306795E+03  0.00000000000E+00 0.  1.
         21    1    1    2  502  501 -0.19099262371E+02 -0.21420836081E+02  0.11020846447E+03  0.11388388684E+03  0.00000000000E+00 0. -1.
<scales pt_clust_5="13000.00000" pt_clust_6="13000.00000" pt_clust_7="13000.00000" pt_clust_8="13000.00000" pt_clust_9="28.69903"></scales>
<clustering>
<clus scale="   28.699">  1  9  2 -1</clus>
<clus scale="   80.401">  5  6 -1 -1</clus>
<clus scale="   91.801">  7  8 -1 -1</clus>
<clus scale="   98.313">  1  5  2 -1</clus>
<clus scale="  107.835">  2  5  1 -1</clus>
</clustering>
</event>
<event>
 9    1  0.2802611E-005  0.1211845E+03  0.7546771E-02  0.1245188E+00
         -2   -1    0    0    0  501 -0.00000000000E+00  0.00000000000E+00  0.27786490719E+03  0.27786490719E+03  0.00000000000E+00 0.  1.
          1   -1    0    0  502    0  0.00000000000E+00 -0.00000000000E+00 -0.17624051956E+03  0.17624051956E+03  0.00000000000E+00 0. -1.
        -24    2    1    2    0    0  0.32815481159E+02  0.49437754551E+02  0.12677750717E+03  0.16088022067E+03  0.79302974085E+02 0.  0.
         23    2    1    2    0    0 -0.74615625120E+02 -0.36937752180E+02 -0.12991549420E+03  0.17974103433E+03  0.92178710876E+02 0.  0.
         11    1    3    3    0    0  0.49234129426E+01  0.54234078728E+02  0.34751494719E+02  0.64600632162E+02  0.00000000000E+00 0. -1.
        -12    1    3    3    0    0  0.27892068217E+02 -0.47963241768E+01  0.92026012451E+02  0.96279588504E+02  0.00000000000E+00 0.  1.
        -11    1    4    4    0    0  0.19422714829E+02 -0.98819283938E+01 -0.75535180801E+01  0.23064041179E+02  0.00000000000E+00 0.  1.
         11    1    4    4    0    0 -0.94038339950E+02 -0.27055823787E+02 -0.12236197612E+03  0.15667699315E+03  0.00000000000E+00 0. -1.
         21    1    1    2  502  501  0.41800143961E+02 -0.12500002371E+02  0.10476237466E+03  0.11348417176E+03  0.00000000000E+00 0.  1.
<scales pt_clust_5="13000.00000" pt_clust_6="13000.00000" pt_clust_7="13000.00000" pt_clust_8="13000.00000" pt_clust_9="43.62914"></scales>
<clustering>
<clus scale="   43.629">  1  9  2 -1</clus>
<clus scale="   79.303">  5  6 -1 -1</clus>
<clus scale="   92.179">  7  8 -1 -1</clus>
<clus scale="  111.704">  1  5  2 -1</clus>
<clus scale="  121.184">  2  5  1 -1</clus>
</clustering>
</event>
<event>
 9    1  0.2802611E-005  0.9756365E+02  0.7546771E-02  0.1291570E+00
         -2   -1    0    0    0  501 -0.00000000000E+00  0.00000000000E+00  0.21790193544E+03  0.21790193544E+03  0.00000000000E+00 0.  1.
          1   -1    0    0  502    0  0.00000000000E+00 -0.00000000000E+00 -0.17998275375E+03  0.17998275375E+03  0.00000000000E+00 0. -1.
         23    2    1    2    0    0 -0.51943485703E+00 -0.18119889168E+02  0.16318617047E+03  0.18758874446E+03  0.90726019544E+02 0.  0.
        -24    2    1    2    0    0 -0.13466282624E+02  0.34631586941E+02 -0.15228464359E+03  0.17568106168E+03  0.79325501435E+02 0.  0.
         11    1    4    4    0    0 -0.24538218698E+02  0.19831727876E+02 -0.15392514591E+03  0.15712533898E+03  0.00000000000E+00 0. -1.
        -12    1    4    4    0    0  0.11071936074E+02  0.14799859066E+02  0.16405023230E+01  0.18555722693E+02  0.00000000000E+00 0.  1.
        -11    1    3    3    0    0 -0.37365903324E+02  0.11974958929E+02  0.42395080407E+02  0.57766367510E+02  0.00000000000E+00 0. -1.
         11    1    3    3    0    0  0.36846468467E+02 -0.30094848097E+02  0.12079109006E+03  0.12982237695E+03  0.00000000000E+00 0.  1.
         21    1    1    2  502  501  0.13985717481E+02 -0.16511697773E+02  0.27017654809E+02  0.34614883045E+02  0.00000000000E+00 0. -1.
<scales pt_clust_5="13000.00000" pt_clust_6="13000.00000" pt_clust_7="13000.00000" pt_clust_8="13000.00000" pt_clust_9="21.63877"></scales>
<clustering>
<clus scale="   21.639">  1  9  2 -1</clus>
<clus scale="   79.326">  5  6 -1 -1</clus>
<clus scale="   87.063">  2  5  1 -1</clus>
<clus scale="   90.726">  7  8 -1 -1</clus>
<clus scale="   87.063">  2  5  1 -1</clus>
</clustering>
</event>
<event>
 9    1  0.2802611E-005  0.1747187E+03  0.7546771E-02  0.1175338E+00
         -2   -1    0    0    0  501 -0.00000000000E+00  0.00000000000E+00  0.34714392180E+03  0.34714392180E+03  0.00000000000E+00 0.  1.
          1   -1    0    0  502    0  0.00000000000E+00 -0.00000000000E+00 -0.12738562296E+03  0.12738562296E+03  0.00000000000E+00 0. -1.
         23    2    1    2    0    0  0.72555715986E+02 -0.11812854557E+03  0.18640023590E+03  0.25180798000E+03  0.97177804292E+02 0.  0.
        -24    2    1    2    0    0 -0.10886342909E+03  0.12208007647E+03  0.17442762515E+02  0.18288237031E+03  0.79918209064E+02 0.  0.
         13    1    4    4    0    0 -0.69277581585E+02  0.37294235328E+02 -0.21449958583E+02  0.81549641459E+02  0.00000000000E+00 0. -1.
        -14    1    4    4    0    0 -0.39585847506E+02  0.84785841146E+02  0.38892721097E+02  0.10133272885E+03  0.00000000000E+00 0.  1.
        -11    1    3    3    0    0  0.91727940221E+02 -0.81877300757E+02  0.10944945814E+03  0.16461194150E+03  0.00000000000E+00 0. -1.
         11    1    3    3    0    0 -0.19172224235E+02 -0.36251244814E+02  0.76950777759E+02  0.87196038502E+02  0.00000000000E+00 0.  1.
         21    1    1    2  502  501  0.36307713105E+02 -0.39515309032E+01  0.15915300418E+02  0.39839194455E+02  0.00000000000E+00 0.  1.
<scales pt_clust_5="13000.00000" pt_clust_6="13000.00000" pt_clust_7="13000.00000" pt_clust_8="13000.00000" pt_clust_9="36.52211"></scales>
<clustering>
<clus scale="   36.522">  2  9  1 -1</clus>
<clus scale="   79.918">  5  6 -1 -1</clus>
<clus scale="   97.178">  7  8 -1 -1</clus>
<clus scale="  165.741">  2  5  1 -1</clus>
<clus scale="   36.522">  2  5  1 -1</clus>
</clustering>
</event>
<event>
 9    1  0.2802611E-005  0.3053350E+03  0.7546771E-02  0.1082997E+00
          1   -1    0    0  502    0  0.00000000000E+00  0.00000000000E+00  0.94658611565E+03  0.94658611565E+03  0.00000000000E+00 0. -1.
         -2   -1    0    0    0  501 -0.00000000000E+00 -0.00000000000E+00 -0.19690125846E+03  0.19690125846E+03  0.00000000000E+00 0.  1.
        -24    2    1    2    0    0 -0.13651941172E+03 -0.25195554745E+03  0.44993452188E+02  0.30125020535E+03  0.81290391900E+02 0.  0.
         23    2    1    2    0    0  0.18740321191E+03  0.22545534820E+03  0.71997995321E+03  0.78286409921E+03  0.92493172395E+02 0.  0.
         11    1    3    3    0    0 -0.41945334291E+02 -0.18896185321E+02  0.12268692317E+02  0.47612999272E+02  0.00000000000E+00 0. -1.
        -12    1    3    3    0    0 -0.94574077426E+02 -0.23305936213E+03  0.32724759871E+02  0.25363720608E+03  0.00000000000E+00 0.  1.
        -11    1    4    4    0    0  0.16328670221E+03  0.16656843830E+03  0.63652029110E+03  0.67791273239E+03  0.00000000000E+00 0. -1.
         11    1    4    4    0    0  0.24116509703E+02  0.58886909896E+02  0.83459662113E+02  0.10495136682E+03  0.00000000000E+00 0.  1.
         21    1    1    2  502  501 -0.50883800196E+02  0.26500199251E+02 -0.15288548209E+02  0.59373069561E+02  0.00000000000E+00 0.  1.
<scales pt_clust_5="13000.00000" pt_clust_6="13000.00000" pt_clust_7="13000.00000" pt_clust_8="13000.00000" pt_clust_9="57.37091"></scales>
<clustering>
<clus scale="   57.371">  2  9  1 -1</clus>
<clus scale="   81.290">  5  6 -1 -1</clus>
<clus scale="   92.493">  7  8 -1 -1</clus>
<clus scale="  302.130">  2  5  1 -1</clus>
<clus scale="  305.335">  1  5  2 -1</clus>
</clustering>
</event>
<event>
 9    1  0.2802611E-005  0.1417980E+03  0.7546771E-02  0.1213221E+00
          3   -1    0    0  502    0  0.00000000000E+00  0.00000000000E+00  0.45197101687E+03  0.45197101687E+03  0.00000000000E+00 0. -1.
         -4   -1    0    0    0  501 -0.00000000000E+00 -0.00000000000E+00 -0.92903922820E+02  0.92903922820E+02  0.00000000000E+00 0.  1.
        -24    2    1    2    0    0  0.90193878854E+02  0.16355213956E+02 -0.91302803341E+01  0.12227219348E+03  0.80403348640E+02 0.  0.
         23    2    1    2    0    0 -0.11226527294E+03 -0.64180163890E+00  0.36809038888E+03  0.39550903460E+03  0.91285040644E+02 0.  0.
         13    1    3    3    0    0  0.35375420765E+02  0.12002793694E+02  0.35435944601E+02  0.51489742868E+02  0.00000000000E+00 0. -1.
        -14    1    3    3    0    0  0.54818458089E+02  0.43524202616E+01 -0.44566224935E+02  0.70782450610E+02  0.00000000000E+00 0.  1.
        -13    1    4    4    0    0 -0.64170676349E+02  0.34140893130E+02  0.28005295449E+03  0.28933222013E+03  0.00000000000E+00 0. -1.
         13    1    4    4    0    0 -0.48094596589E+02 -0.34782694769E+02  0.88037434387E+02  0.10617681446E+03  0.00000000000E+00 0.  1.
         21    1    1    2  502  501  0.22071394084E+02 -0.15713412317E+02  0.10698550953E+00  0.27093711620E+02  0.00000000000E+00 0.  1.
<scales pt_clust_5="13000.00000" pt_clust_6="13000.00000" pt_clust_7="13000.00000" pt_clust_8="13000.00000" pt_clust_9="27.09350"></scales>
<clustering>
<clus scale="   27.094">  2  9  1 -1</clus>
<clus scale="   80.403">  5  6 -1 -1</clus>
<clus scale="   91.285">  7  8 -1 -1</clus>
<clus scale="  135.050">  2  5  1 -1</clus>
<clus scale="  141.798">  1  5  2 -1</clus>
</clustering>
</event>
<event>
 9    1  0.2802611E-005  0.9777497E+02  0.7546771E-02  0.1289784E+00
          1   -1    0    0  502    0  0.00000000000E+00  0.00000000000E+00  0.35291777215E+03  0.35291777215E+03  0.00000000000E+00 0. -1.
         -2   -1    0    0    0  501 -0.00000000000E+00 -0.00000000000E+00 -0.70663156777E+02  0.70663156777E+02  0.00000000000E+00 0.  1.
        -24    2    1    2    0    0 -0.39718651179E+02  0.43611193082E+02  0.38114684396E+02  0.10824748996E+03  0.82372826233E+02 0.  0.
         23    2    1    2    0    0 -0.28794665395E+01 -0.31991234764E+02  0.25246574720E+03  0.27040079738E+03  0.91355937330E+02 0.  0.
         11    1    3    3    0    0 -0.34451205739E+02  0.11740939796E+02  0.59327537507E+02  0.69602384663E+02  0.00000000000E+00 0. -1.
        -12    1    3    3    0    0 -0.52674454397E+01  0.31870253286E+02 -0.21212853111E+02  0.38645105293E+02  0.00000000000E+00 0.  1.
        -11    1    4    4    0    0  0.85922482926E+01  0.31246772518E+02  0.92137231595E+02  0.97670143696E+02  0.00000000000E+00 0.  1.
         11    1    4    4    0    0 -0.11471714832E+02 -0.63238007283E+02  0.16032851560E+03  0.17273065368E+03  0.00000000000E+00 0. -1.
         21    1    1    2  502  501  0.42598117718E+02 -0.11619958318E+02 -0.83258162246E+01  0.44932641590E+02  0.00000000000E+00 0. -1.
<scales pt_clust_5="13000.00000" pt_clust_6="13000.00000" pt_clust_7="13000.00000" pt_clust_8="13000.00000" pt_clust_9="44.15454"></scales>
<clustering>
<clus scale="   44.155">  2  9  1 -1</clus>
<clus scale="   82.373">  5  6 -1 -1</clus>
<clus scale="   89.439">  2  5  1 -1</clus>
<clus scale="   91.356">  7  8 -1 -1</clus>
<clus scale="   97.775">  1  5  2 -1</clus>
</clustering>
</event>
<event>
 9    1  0.2802611E-005  0.1245788E+03  0.7546771E-02  0.1241671E+00
         -4   -1    0    0    0  501 -0.00000000000E+00  0.00000000000E+00  0.27007181069E+03  0.27007181069E+03  0.00000000000E+00 0.  1.
          3   -1    0    0  502    0  0.00000000000E+00 -0.00000000000E+00 -0.77255386569E+02  0.77255386569E+02  0.00000000000E+00 0. -1.
        -24    2    1    2    0    0  0.51863945881E+02  0.86604416573E+02  0.14437669398E+03  0.19007249239E+03  0.71363357177E+02 0.  0.
         23    2    1    2    0    0 -0.35116621013E+02 -0.68535765526E+02  0.23320216093E+02  0.12207034717E+03  0.91798741554E+02 0.  0.
         13    1    3    3    0    0  0.45305439493E+02  0.17592305370E+02  0.32524829047E+02  0.58480223669E+02  0.00000000000E+00 0. -1.
        -14    1    3    3    0    0  0.65585063873E+01  0.69012111203E+02  0.11185186493E+03  0.13159226872E+03  0.00000000000E+00 0.  1.
        -11    1    4    4    0    0 -0.47667623355E+02 -0.14656915311E+02  0.40390762389E+02  0.64175082151E+02  0.00000000000E+00 0.  1.
         11    1    4    4    0    0  0.12551002341E+02 -0.53878850216E+02 -0.17070546296E+02  0.57895265015E+02  0.00000000000E+00 0. -1.
         21    1    1    2  502  501 -0.16747324867E+02 -0.18068651047E+02  0.25119514054E+02  0.35184357706E+02  0.00000000000E+00 0.  1.
<scales pt_clust_5="13000.00000" pt_clust_6="13000.00000" pt_clust_7="13000.00000" pt_clust_8="13000.00000" pt_clust_9="24.63634"></scales>
<clustering>
<clus scale="   24.636">  1  9  2 -1</clus>
<clus scale="   71.363">  5  6 -1 -1</clus>
<clus scale="   91.799">  7  8 -1 -1</clus>
<clus scale="  110.388">  1  5  2 -1</clus>
<clus scale="  124.579">  2  5  1 -1</clus>
</clustering>
</event>
<event>
 9    1  0.2802611E-005  0.1184191E+03  0.7546771E-02  0.1249606E+00
         -2   -1    0    0    0  501 -0.00000000000E+00  0.00000000000E+00  0.85548917245E+03  0.85548917245E+03  0.00000000000E+00 0.  1.
          1   -1    0    0  502    0  0.00000000000E+00 -0.00000000000E+00 -0.26560516849E+02  0.26560516849E+02  0.00000000000E+00 0. -1.
         23    2    1    2    0    0 -0.59696360532E+02 -0.54794938260E+02  0.63911014778E+03  0.65049519759E+03  0.90089291084E+02 0.  0.
        -24    2    1    2    0    0  0.32530550587E+02  0.57723272284E+02  0.12766712045E+03  0.16366228802E+03  0.78078409250E+02 0.  0.
         13    1    4    4    0    0  0.51982724849E+02  0.24586049017E+02  0.46839629152E+02  0.74166221072E+02  0.00000000000E+00 0. -1.
        -14    1    4    4    0    0 -0.19452174262E+02  0.33137223267E+02  0.80827491300E+02  0.89496066948E+02  0.00000000000E+00 0.  1.
        -13    1    3    3    0    0 -0.63496050542E+02  0.25212160280E+01  0.35343424895E+03  0.35910148050E+03  0.00000000000E+00 0. -1.
         13    1    3    3    0    0  0.37996900105E+01 -0.57316154288E+02  0.28567589883E+03  0.29139371709E+03  0.00000000000E+00 0.  1.
         21    1    1    2  502  501  0.27165809944E+02 -0.29283340236E+01  0.62151387364E+02  0.67892203686E+02  0.00000000000E+00 0. -1.
<scales pt_clust_5="13000.00000" pt_clust_6="13000.00000" pt_clust_7="13000.00000" pt_clust_8="13000.00000" pt_clust_9="27.32318"></scales>
<clustering>
<clus scale="   27.323">  2  9  1 -1</clus>
<clus scale="   78.078">  5  6 -1 -1</clus>
<clus scale="   90.089">  7  8 -1 -1</clus>
<clus scale="  109.559">  2  5  1 -1</clus>
<clus scale="   27.323">  2  5  1 -1</clus>
</clustering>
</event>
<event>
 9    1  0.2802611E-005  0.9528588E+02  0.7546771E-02  0.1297127E+00
         -4   -1    0    0    0  501 -0.00000000000E+00  0.00000000000E+00  0.13114666617E+03  0.13114666617E+03  0.00000000000E+00 0.  1.
          3   -1    0    0  502    0  0.00000000000E+00 -0.00000000000E+00 -0.80305913736E+02  0.80305913736E+02  0.00000000000E+00 0. -1.
        -24    2    1    2    0    0  0.91699167214E+01  0.23547885655E+02  0.37516308905E+02  0.91977147191E+02  0.80085778263E+02 0.  0.
         23    2    1    2    0    0  0.11808323636E+02 -0.28175485136E+02  0.58712052583E+01  0.96736655131E+02  0.91598116384E+02 0.  0.
         13    1    3    3    0    0  0.21824790852E+02  0.97806796355E+01 -0.20201116225E+02  0.31306042334E+02  0.00000000000E+00 0. -1.
        -14    1    3    3    0    0 -0.12654874131E+02  0.13767206020E+02  0.57717425130E+02  0.60671104857E+02  0.00000000000E+00 0.  1.
        -13    1    4    4    0    0  0.36334609578E+02 -0.19269252186E+02  0.37552722303E+02  0.55693041624E+02  0.00000000000E+00 0.  1.
         13    1    4    4    0    0 -0.24526285942E+02 -0.89062329497E+01 -0.31681517044E+02  0.41043613507E+02  0.00000000000E+00 0. -1.
         21    1    1    2  502  501 -0.20978240357E+02  0.46275994810E+01  0.74532382757E+01  0.22738777589E+02  0.00000000000E+00 0. -1.
<scales pt_clust_5="13000.00000" pt_clust_6="13000.00000" pt_clust_7="13000.00000" pt_clust_8="13000.00000" pt_clust_9="21.48258"></scales>
<clustering>
<clus scale="   21.483">  1  9  2 -1</clus>
<clus scale="   80.086">  5  6 -1 -1</clus>
<clus scale="   84.279">  1  5  2 -1</clus>
<clus scale="   91.598">  7  8 -1 -1</clus>
<clus scale="   95.286">  2  5  1 -1</clus>
</clustering>
</event>
<event>
 9    1  0.2802611E-005  0.1560275E+03  0.7546771E-02  0.1195059E+00
          1   -1    0    0  502    0  0.00000000000E+00  0.00000000000E+00  0.29959058248E+03  0.29959058248E+03  0.00000000000E+00 0. -1.
         -2   -1    0    0    0  501 -0.00000000000E+00 -0.00000000000E+00 -0.43315757539E+03  0.43315757539E+03  0.00000000000E+00 0.  1.
         23    2    1    2    0    0 -0.34714591953E+02 -0.14089234730E+03 -0.30920520865E+02  0.17410421166E+03  0.91106758728E+02 0.  0.
        -24    2    1    2    0    0 -0.87244776720E+01  0.12333057839E+03  0.20218747147E+03  0.25023009825E+03  0.80304298585E+02 0.  0.
         13    1    4    4    0    0  0.15033587391E+02  0.34461378208E+02  0.12376207641E+03  0.12934700188E+03  0.00000000000E+00 0. -1.
        -14    1    4    4    0    0 -0.23758065063E+02  0.88869200186E+02  0.78425395065E+02  0.12088309637E+03  0.00000000000E+00 0.  1.
        -11    1    3    3    0    0 -0.62595004308E+02 -0.11482050005E+03 -0.35892568562E+02  0.13561031772E+03  0.00000000000E+00 0.  1.
         11    1    3    3    0    0  0.27880412355E+02 -0.26071847250E+02  0.49720476965E+01  0.38493893937E+02  0.00000000000E+00 0. -1.
         21    1    1    2  502  501  0.43439069625E+02  0.17561768902E+02 -0.30483394351E+03  0.30841384796E+03  0.00000000000E+00 0.  1.
<scales pt_clust_5="13000.00000" pt_clust_6="13000.00000" pt_clust_7="13000.00000" pt_clust_8="13000.00000" pt_clust_9="46.85476"></scales>
<clustering>
<clus scale="   46.855">  2  9  1 -1</clus>
<clus scale="   80.304">  5  6 -1 -1</clus>
<clus scale="   91.107">  7  8 -1 -1</clus>
<clus scale="  149.976">  1  5  2 -1</clus>
<clus scale="  149.976">  1  5  2 -1</clus>
</clustering>
</event>
<event>
 9    1  0.2802611E-005  0.1343226E+03  0.7546771E-02  0.1236736E+00
         -2   -1    0    0    0  501 -0.00000000000E+00  0.00000000000E+00  0.58347458467E+02  0.58347458467E+02  0.00000000000E+00 0.  1.
          1   -1    0    0  502    0  0.00000000000E+00 -0.00000000000E+00 -0.34350969318E+03  0.34350969318E+03  0.00000000000E+00 0. -1.
         23    2    1    2    0    0  0.19667311799E+02  0.28608047826E+02 -0.96825969344E+02  0.15991180657E+03  0.12243893984E+03 0.  0.
        -24    2    1    2    0    0 -0.42185805205E+02 -0.48022751453E+02 -0.18565880460E+03  0.21209267252E+03  0.80176575081E+02 0.  0.
         13    1    4    4    0    0 -0.14982631884E+02 -0.61019479459E+02 -0.16203630682E+03  0.17379188951E+03  0.00000000000E+00 0. -1.
        -14    1    4    4    0    0 -0.27203173321E+02  0.12996728006E+02 -0.23622497783E+02  0.38300783009E+02  0.00000000000E+00 0.  1.
        -13    1    3    3    0    0  0.71622342308E+02  0.21632727762E+02 -0.55329717316E+02  0.93054352108E+02  0.00000000000E+00 0. -1.
         13    1    3    3    0    0 -0.51955030509E+02  0.69753200631E+01 -0.41496252028E+02  0.66857454465E+02  0.00000000000E+00 0.  1.
         21    1    1    2  502  501  0.22518493406E+02  0.19414703627E+02 -0.26774607605E+01  0.29852672549E+02  0.00000000000E+00 0.  1.
<scales pt_clust_5="13000.00000" pt_clust_6="13000.00000" pt_clust_7="13000.00000" pt_clust_8="13000.00000" pt_clust_9="29.73236"></scales>
<clustering>
<clus scale="   29.732">  1  9  2 -1</clus>
<clus scale="   80.177">  5  6 -1 -1</clus>
<clus scale="   97.363">  2  5  1 -1</clus>
<clus scale="  122.439">  7  8 -1 -1</clus>
<clus scale="   97.363">  2  5  1 -1</clus>
</clustering>
</event>
<event>
 9    1  0.2802611E-005  0.9032811E+02  0.7546771E-02  0.1312214E+00
         -2   -1    0    0    0  501 -0.00000000000E+00  0.00000000000E+00  0.79399963006E+02  0.79399963006E+02  0.00000000000E+00 0.  1.
          1   -1    0    0  502    0  0.00000000000E+00 -0.00000000000E+00 -0.28452507385E+03  0.28452507385E+03  0.00000000000E+00 0. -1.
        -24    2    1    2    0    0 -0.32659657733E+02 -0.91910931264E+01  0.30039052613E+02  0.92457513967E+02  0.80591052673E+02 0.  0.
         23    2    1    2    0    0  0.40451282282E+02 -0.10838262901E+02 -0.23804973911E+03  0.24978317225E+03  0.63009369667E+02 0.  0.
         13    1    3    3    0    0  0.34497044404E+01  0.32149936150E+02  0.80122827041E+01  0.33312393029E+02  0.00000000000E+00 0. -1.
        -14    1    3    3    0    0 -0.36109362173E+02 -0.41341029276E+02  0.22026769909E+02  0.59145120938E+02  0.00000000000E+00 0.  1.
        -13    1    4    4    0    0 -0.28778615944E+00 -0.25763328397E+02 -0.44414195121E+02  0.51346398503E+02  0.00000000000E+00 0.  1.
         13    1    4    4    0    0  0.40739068442E+02  0.14925065496E+02 -0.19363554399E+03  0.19843677375E+03  0.00000000000E+00 0. -1.
         21    1    1    2  502  501 -0.77916245497E+01  0.20029356027E+02  0.28855756530E+01  0.21684350644E+02  0.00000000000E+00 0. -1.
<scales pt_clust_5="13000.00000" pt_clust_6="13000.00000" pt_clust_7="13000.00000" pt_clust_8="13000.00000" pt_clust_9="21.49150"></scales>
<clustering>
<clus scale="   21.491">  1  9  2 -1</clus>
<clus scale="   63.009">  7  8 -1 -1</clus>
<clus scale="   75.063">  2  7  1 -1</clus>
<clus scale="   80.591">  5  6 -1 -1</clus>
<clus scale="   75.063">  2  5  1 -1</clus>
</clustering>
</event>
<event>
 9    1  0.2802611E-005  0.1231124E+03  0.7546771E-02  0.1240742E+00
         -2   -1    0    0    0  501 -0.00000000000E+00  0.00000000000E+00  0.97329447674E+02  0.97329447674E+02  0.00000000000E+00 0.  1.
          1   -1    0    0  502    0  0.00000000000E+00 -0.00000000000E+00 -0.54303381350E+03  0.54303381350E+03  0.00000000000E+00 0. -1.
         23    2    1    2    0    0  0.92694188275E+02  0.76379071504E+00 -0.13070014455E+03  0.18363033450E+03  0.89692675543E+02 0.  0.
        -24    2    1    2    0    0 -0.76362658921E+02  0.33979544930E+02 -0.37107022907E+03  0.38878283136E+03  0.80455639350E+02 0.  0.
         11    1    4    4    0    0 -0.59512900824E+02  0.33468842922E+02 -0.36425624316E+03  0.37060026915E+03  0.00000000000E+00 0. -1.
        -12    1    4    4    0    0 -0.16849758097E+02  0.51070200880E+00 -0.68139859102E+01  0.18182562208E+02  0.00000000000E+00 0.  1.
        -13    1    3    3    0    0  0.81164826497E+02  0.27736368268E+02 -0.53611840107E+02  0.10114971372E+03  0.00000000000E+00 0.  1.
         13    1    3    3    0    0  0.11529361778E+02 -0.26972577553E+02 -0.77088304441E+02  0.82480620781E+02  0.00000000000E+00 0. -1.
         21    1    1    2  502  501 -0.16331529354E+02 -0.34743335645E+02  0.56066007800E+02  0.67950095316E+02  0.00000000000E+00 0.  1.
<scales pt_clust_5="13000.00000" pt_clust_6="13000.00000" pt_clust_7="13000.00000" pt_clust_8="13000.00000" pt_clust_9="38.39034"></scales>
<clustering>
<clus scale="   38.390">  1  9  2 -1</clus>
<clus scale="   80.456">  5  6 -1 -1</clus>
<clus scale="   89.693">  7  8 -1 -1</clus>
<clus scale="  116.555">  2  5  1 -1</clus>
<clus scale="  116.555">  2  5  1 -1</clus>
</clustering>
</event>
<event>
 9    1  0.2802611E-005  0.1035499E+03  0.7546771E-02  0.1276013E+00
         -2   -1    0    0    0  501 -0.00000000000E+00  0.00000000000E+00  0.38411778012E+02  0.38411778012E+02  0.00000000000E+00 0.  1.
          1   -1    0    0  502    0  0.00000000000E+00 -0.00000000000E+00 -0.48374799040E+03  0.48374799040E+03  0.00000000000E+00 0. -1.
         23    2    1    2    0    0  0.45554234210E+02 -0.92136645125E+01 -0.14575024722E+03  0.17874795110E+03  0.92453315737E+02 0.  0.
        -24    2    1    2    0    0 -0.24446160732E+02  0.81591656880E+00 -0.30378076382E+03  0.32031053440E+03  0.98578930249E+02 0.  0.
         11    1    4    4    0    0 -0.39606082113E+01 -0.39063880440E+02 -0.55324194140E+02  0.67841282636E+02  0.00000000000E+00 0. -1.
        -12    1    4    4    0    0 -0.20485552520E+02  0.39879797009E+02 -0.24845656968E+03  0.25246925177E+03  0.00000000000E+00 0.  1.
        -13    1    3    3    0    0  0.35280536590E+02  0.34822412743E+02 -0.11149820817E+03  0.12202117487E+03  0.00000000000E+00 0. -1.
         13    1    3    3    0    0  0.10273697620E+02 -0.44036077255E+02 -0.34252039048E+02  0.56726776233E+02  0.00000000000E+00 0.  1.
         21    1    1    2  502  501 -0.21108073479E+02  0.83977479437E+01  0.41947986445E+01  0.23101282912E+02  0.00000000000E+00 0.  1.
<scales pt_clust_5="13000.00000" pt_clust_6="13000.00000" pt_clust_7="13000.00000" pt_clust_8="13000.00000" pt_clust_9="22.71724"></scales>
<clustering>
<clus scale="   22.717">  1  9  2 -1</clus>
<clus scale="   92.453">  7  8 -1 -1</clus>
<clus scale="   97.736">  1  7  2 -1</clus>
<clus scale="   98.579">  5  6 -1 -1</clus>
<clus scale="  103.550">  2  5  1 -1</clus>
</clustering>
</event>
<event>
 9    1  0.2802611E-005  0.1274546E+03  0.7546771E-02  0.1245502E+00
         -2   -1    0    0    0  501 -0.00000000000E+00  0.00000000000E+00  0.12014475122E+03  0.12014475122E+03  0.00000000000E+00 0.  1.
          1   -1    0    0  502    0  0.00000000000E+00 -0.00000000000E+00 -0.45648079948E+03  0.45648079948E+03  0.00000000000E+00 0. -1.
        -24    2    1    2    0    0 -0.15867470983E+02  0.46610045862E+02  0.52873970726E+02  0.10908096863E+03  0.81723484550E+02 0.  0.
         23    2    1    2    0    0  0.80158280869E+02  0.42157277850E+02 -0.30432525172E+03  0.32891424734E+03  0.85837854097E+02 0.  0.
         11    1    3    3    0    0 -0.47617368727E+01  0.36788572532E+02 -0.14698391343E+02  0.39901327234E+02  0.00000000000E+00 0. -1.
        -12    1    3    3    0    0 -0.11105734111E+02  0.98214733303E+01  0.67572362069E+02  0.69179641399E+02  0.00000000000E+00 0.  1.
        -13    1    4    4    0    0  0.34198704838E+01  0.47417987997E+02 -0.12792543834E+03  0.13647372962E+03  0.00000000000E+00 0.  1.
         13    1    4    4    0    0  0.76738410386E+02 -0.52607101470E+01 -0.17639981338E+03  0.19244051772E+03  0.00000000000E+00 0. -1.
         21    1    1    2  502  501 -0.64290809886E+02 -0.88767323712E+02 -0.84884767256E+02  0.13863033473E+03  0.00000000000E+00 0. -1.
<scales pt_clust_5="13000.00000" pt_clust_6="13000.00000" pt_clust_7="13000.00000" pt_clust_8="13000.00000" pt_clust_9="94.21540"></scales>
<clustering>
<clus scale="   81.723">  5  6 -1 -1</clus>
<clus scale="   85.838">  7  8 -1 -1</clus>
<clus scale="   95.410">  1  5  2 -1</clus>
<clus scale="   94.215">  1  9  2 -1</clus>
<clus scale="  127.455">  2  5  1 -1</clus>
</clustering>
</event>
<event>
 9    1  0.2802611E-005  0.1433792E+03  0.7546771E-02  0.1232682E+00
         -2   -1    0    0    0  501 -0.00000000000E+00  0.00000000000E+00  0.12923677337E+03  0.12923677337E+03  0.00000000000E+00 0.  1.
          1   -1    0    0  502    0  0.00000000000E+00 -0.00000000000E+00 -0.63830458553E+03  0.63830458553E+03  0.00000000000E+00 0. -1.
         23    2    1    2    0    0  0.18136584598E+02 -0.19075693619E+02  0.22173112087E+02  0.89768969081E+02  0.82909608143E+02 0.  0.
        -24    2    1    2    0    0 -0.35079419974E+02  0.11606419231E+03 -0.55717899899E+03  0.57595582795E+03  0.81087707999E+02 0.  0.
         11    1    4    4    0    0  0.10397054743E+02  0.67162493008E+02 -0.17038040997E+03  0.18343495663E+03  0.00000000000E+00 0. -1.
        -12    1    4    4    0    0 -0.45476474717E+02  0.48901699302E+02 -0.38679858902E+03  0.39252087131E+03  0.00000000000E+00 0.  1.
        -13    1    3    3    0    0 -0.27012628654E+02 -0.16896456051E+02  0.30153590541E+02  0.43868113207E+02  0.00000000000E+00 0. -1.
         13    1    3    3    0    0  0.45149213252E+02 -0.21792375685E+01 -0.79804784535E+01  0.45900855874E+02  0.00000000000E+00 0.  1.
         21    1    1    2  502  501  0.16942835376E+02 -0.96988498691E+02  0.25938074740E+02  0.10181656187E+03  0.00000000000E+00 0.  1.
<scales pt_clust_5="13000.00000" pt_clust_6="13000.00000" pt_clust_7="13000.00000" pt_clust_8="13000.00000" pt_clust_9="118.24708"></scales>
<clustering>
<clus scale="   81.088">  5  6 -1 -1</clus>
<clus scale="   82.910">  7  8 -1 -1</clus>
<clus scale="   86.987">  1  7  2 -1</clus>
<clus scale="  118.247">  1  9  2 -1</clus>
<clus scale="  143.379">  2  5  1 -1</clus>
</clustering>
</event>
<event>
 9    1  0.2802611E-005  0.9289008E+02  0.7546771E-02  0.1296494E+00
         -2   -1    0    0    0  501 -0.00000000000E+00  0.00000000000E+00  0.16751261340E+03  0.16751261340E+03  0.00000000000E+00 0.  1.
          1   -1    0    0  502    0  0.00000000000E+00 -0.00000000000E+00 -0.23077461462E+03  0.23077461462E+03  0.00000000000E+00 0. -1.
        -24    2    1    2    0    0  0.14239009982E+02 -0.39606778526E+02  0.12290873772E+03  0.15690263720E+03  0.87979733140E+02 0.  0.
         23    2    1    2    0    0  0.75630925371E+00  0.26117772620E+02 -0.19757781102E+03  0.21821275074E+03  0.88865646503E+02 0.  0.
         13    1    3    3    0    0 -0.25105340548E+02  0.12580221289E+02  0.59729537126E+02  0.66001194664E+02  0.00000000000E+00 0. -1.
        -14    1    3    3    0    0  0.39344350530E+02 -0.52186999815E+02  0.63179200594E+02  0.90901442541E+02  0.00000000000E+00 0.  1.
        -13    1    4    4    0    0  0.18106294200E+02  0.55307235326E+02 -0.11385544725E+03  0.12786630141E+03  0.00000000000E+00 0. -1.
         13    1    4    4    0    0 -0.17349984946E+02 -0.29189462706E+02 -0.83722363771E+02  0.90346449328E+02  0.00000000000E+00 0.  1.
         21    1    1    2  502  501 -0.14995319236E+02  0.13489005906E+02  0.11407072069E+02  0.23171840076E+02  0.00000000000E+00 0.  1.
<scales pt_clust_5="13000.00000" pt_clust_6="13000.00000" pt_clust_7="13000.00000" pt_clust_8="13000.00000" pt_clust_9="20.16960"></scales>
<clustering>
<clus scale="   20.170">  1  9  2 -1</clus>
<clus scale="   87.980">  5  6 -1 -1</clus>
<clus scale="   88.866">  7  8 -1 -1</clus>
<clus scale="   92.043">  1  5  2 -1</clus>
<clus scale="   92.890">  2  5  1 -1</clus>
</clustering>
</event>
<event>
 9    1  0.2802611E-005  0.9835381E+02  0.7546771E-02  0.1288566E+00
         -4   -1    0    0    0  501 -0.00000000000E+00  0.00000000000E+00  0.21479857761E+03  0.21479857761E+03  0.00000000000E+00 0.  1.
          3   -1    0    0  502    0  0.00000000000E+00 -0.00000000000E+00 -0.15024591756E+03  0.15024591756E+03  0.00000000000E+00 0. -1.
        -24    2    1    2    0    0  0.63166200276E+01 -0.16193717743E+02  0.11022222594E+03  0.13896327099E+03  0.82823398929E+02 0.  0.
         23    2    1    2    0    0 -0.41204682848E+01  0.37407477931E+02 -0.11592292060E+03  0.15266201313E+03  0.91930784117E+02 0.  0.
         13    1    3    3    0    0 -0.83162222234E+01  0.20314792581E+02  0.18517803985E-01  0.21951097754E+02  0.00000000000E+00 0. -1.
        -14    1    3    3    0    0  0.14632842251E+02 -0.36508510324E+02  0.11020370814E+03  0.11701217324E+03  0.00000000000E+00 0.  1.
        -13    1    4    4    0    0 -0.30812884839E+01 -0.28392287087E+02 -0.15214860801E+02  0.32359052736E+02  0.00000000000E+00 0.  1.
         13    1    4    4    0    0 -0.10391798010E+01  0.65799765018E+02 -0.10070805980E+03  0.12030296039E+03  0.00000000000E+00 0. -1.
         21    1    1    2  502  501 -0.21961517428E+01 -0.21213760189E+02  0.70253354704E+02  0.73419211049E+02  0.00000000000E+00 0.  1.
<scales pt_clust_5="13000.00000" pt_clust_6="13000.00000" pt_clust_7="13000.00000" pt_clust_8="13000.00000" pt_clust_9="21.32714"></scales>
<clustering>
<clus scale="   21.327">  1  9  2 -1</clus>
<clus scale="   82.823">  5  6 -1 -1</clus>
<clus scale="   89.899">  1  5  2 -1</clus>
<clus scale="   91.931">  7  8 -1 -1</clus>
<clus scale="   98.354">  2  5  1 -1</clus>
</clustering>
</event>
<event>
 9    1  0.2802611E-005  0.1528838E+03  0.7546771E-02  0.1198883E+00
          1   -1    0    0  502    0  0.00000000000E+00  0.00000000000E+00  0.13616358749E+03  0.13616358749E+03  0.00000000000E+00 0. -1.
         -2   -1    0    0    0  501 -0.00000000000E+00 -0.00000000000E+00 -0.63199118871E+03  0.63199118871E+03  0.00000000000E+00 0.  1.
        -24    2    1    2    0    0 -0.86737693343E+02  0.46213477016E+02 -0.34527718626E+03  0.36763091100E+03  0.79227763195E+02 0.  0.
         23    2    1    2    0    0  0.10474333451E+03 -0.71700685959E+02  0.74974947294E+02  0.17284977807E+03  0.90242166241E+02 0.  0.
         13    1    3    3    0    0  0.46822967730E+01  0.31969189428E+02 -0.11524869521E+03  0.11969216651E+03  0.00000000000E+00 0. -1.
        -14    1    3    3    0    0 -0.91419990116E+02  0.14244287588E+02 -0.23002849105E+03  0.24793874449E+03  0.00000000000E+00 0.  1.
        -13    1    4    4    0    0  0.66995915430E+02 -0.16950736234E+01  0.54963784361E+01  0.67242368599E+02  0.00000000000E+00 0.  1.
         13    1    4    4    0    0  0.37747419076E+02 -0.70005612335E+02  0.69478568857E+02  0.10560740947E+03  0.00000000000E+00 0. -1.
         21    1    1    2  502  501 -0.18005641163E+02  0.25487208943E+02 -0.22552536225E+03  0.22767408713E+03  0.00000000000E+00 0.  1.
<scales pt_clust_5="13000.00000" pt_clust_6="13000.00000" pt_clust_7="13000.00000" pt_clust_8="13000.00000" pt_clust_9="31.20578"></scales>
<clustering>
<clus scale="   31.206">  2  9  1 -1</clus>
<clus scale="   79.228">  5  6 -1 -1</clus>
<clus scale="   90.242">  7  8 -1 -1</clus>
<clus scale="  146.652">  2  5  1 -1</clus>
<clus scale="  152.884">  1  5  2 -1</clus>
</clustering>
</event>
<event>
 9    1  0.2802611E-005  0.1822784E+03  0.7546771E-02  0.1166785E+00
          1   -1    0    0  502    0  0.00000000000E+00  0.00000000000E+00  0.65401744461E+02  0.65401744461E+02  0.00000000000E+00 0. -1.
         -2   -1    0    0    0  501 -0.00000000000E+00 -0.00000000000E+00 -0.81799287355E+03  0.81799287355E+03  0.00000000000E+00 0.  1.
        -24    2    1    2    0    0 -0.12457681150E+03  0.75942240028E+02 -0.38518947910E+03  0.41947276424E+03  0.79371653300E+02 0.  0.
         23    2    1    2    0    0  0.12800062027E+03 -0.10420805562E+03 -0.13881816358E+03  0.23357192636E+03  0.89676555463E+02 0.  0.
         11    1    3    3    0    0 -0.84069009931E+01  0.36663774596E+02 -0.50101273611E+02  0.62650187305E+02  0.00000000000E+00 0. -1.
        -12    1    3    3    0    0 -0.11616991051E+03  0.39278465431E+02 -0.33508820549E+03  0.35682257693E+03  0.00000000000E+00 0.  1.
        -11    1    4    4    0    0  0.99924467247E+02 -0.92405600019E+02 -0.59372120554E+02  0.14848819067E+03  0.00000000000E+00 0. -1.
         11    1    4    4    0    0  0.28076153020E+02 -0.11802455601E+02 -0.79446043027E+02  0.85083735692E+02  0.00000000000E+00 0.  1.
         21    1    1    2  502  501 -0.34238087624E+01  0.28265815592E+02 -0.22858348641E+03  0.23034992740E+03  0.00000000000E+00 0.  1.
<scales pt_clust_5="13000.00000" pt_clust_6="13000.00000" pt_clust_7="13000.00000" pt_clust_8="13000.00000" pt_clust_9="28.47242"></scales>
<clustering>
<clus scale="   28.472">  2  9  1 -1</clus>
<clus scale="   79.372">  5  6 -1 -1</clus>
<clus scale="   89.677">  7  8 -1 -1</clus>
<clus scale="  177.436">  2  5  1 -1</clus>
<clus scale="  182.278">  1  5  2 -1</clus>
</clustering>
</event>
<event>
 9    1  0.2802611E-005  0.1107322E+03  0.7546771E-02  0.1263192E+00
         -2   -1    0    0    0  501 -0.00000000000E+00  0.00000000000E+00  0.71761157358E+03  0.71761157358E+03  0.00000000000E+00 0.  1.
          1   -1    0    0  502    0  0.00000000000E+00 -0.00000000000E+00 -0.95333747380E+02  0.95333747380E+02  0.00000000000E+00 0. -1.
        -24    2    1    2    0    0 -0.11784258443E+02 -0.91782499449E+01  0.55484499405E+03  0.56102723552E+03  0.81703626327E+02 0.  0.
         23    2    1    2    0    0  0.50261852760E+02 -0.42446137551E+02 -0.45571705217E+02  0.12185799120E+03  0.91894838084E+02 0.  0.
         11    1    3    3    0    0 -0.31901147957E+01 -0.43327628031E+02  0.21382498565E+03  0.21819391530E+03  0.00000000000E+00 0. -1.
        -12    1    3    3    0    0 -0.85941436476E+01  0.34149378086E+02  0.34102000840E+03  0.34283332022E+03  0.00000000000E+00 0.  1.
        -13    1    4    4    0    0 -0.18653146312E+02 -0.37205489511E+02 -0.55374562028E+01  0.41986327992E+02  0.00000000000E+00 0.  1.
         13    1    4    4    0    0  0.68914999072E+02 -0.52406480406E+01 -0.40034249014E+02  0.79871663205E+02  0.00000000000E+00 0. -1.
         21    1    1    2  502  501 -0.38477594316E+02  0.51624387496E+02  0.11300453736E+03  0.13006009424E+03  0.00000000000E+00 0.  1.
<scales pt_clust_5="13000.00000" pt_clust_6="13000.00000" pt_clust_7="13000.00000" pt_clust_8="13000.00000" pt_clust_9="64.38635"></scales>
<clustering>
<clus scale="   64.386">  1  9  2 -1</clus>
<clus scale="   81.704">  5  6 -1 -1</clus>
<clus scale="   91.895">  7  8 -1 -1</clus>
<clus scale="  102.433">  1  5  2 -1</clus>
<clus scale="  110.732">  2  5  1 -1</clus>
</clustering>
</event>
<event>
 9    1  0.2802611E-005  0.1108344E+03  0.7546771E-02  0.1263774E+00
          1   -1    0    0  502    0  0.00000000000E+00  0.00000000000E+00  0.70272635481E+03  0.70272635481E+03  0.00000000000E+00 0. -1.
         -2   -1    0    0    0  501 -0.00000000000E+00 -0.00000000000E+00 -0.59676543127E+02  0.59676543127E+02  0.00000000000E+00 0.  1.
        -24    2    1    2    0    0 -0.59251333322E+02 -0.43671900428E+02  0.29562508510E+02  0.11339276321E+03  0.81030990687E+02 0.  0.
         23    2    1    2    0    0 -0.35182288846E+02  0.14028445914E+02  0.41800113884E+03  0.42989536152E+03  0.93007951505E+02 0.  0.
         11    1    3    3    0    0  0.34922678841E+01 -0.24072834363E+02 -0.19656824997E+02  0.31274399406E+02  0.00000000000E+00 0. -1.
        -12    1    3    3    0    0 -0.62743601207E+02 -0.19599066065E+02  0.49219333507E+02  0.82118363804E+02  0.00000000000E+00 0.  1.
        -13    1    4    4    0    0  0.23535085798E+02  0.30082975565E+02  0.19674264873E+03  0.20041595623E+03  0.00000000000E+00 0. -1.
         13    1    4    4    0    0 -0.58717374643E+02 -0.16054529651E+02  0.22125849011E+03  0.22947940529E+03  0.00000000000E+00 0.  1.
         21    1    1    2  502  501  0.94433622168E+02  0.29643454513E+02  0.19548616433E+03  0.21911477321E+03  0.00000000000E+00 0. -1.
<scales pt_clust_5="13000.00000" pt_clust_6="13000.00000" pt_clust_7="13000.00000" pt_clust_8="13000.00000" pt_clust_9="98.97698"></scales>
<clustering>
<clus scale="   81.031">  5  6 -1 -1</clus>
<clus scale="   93.008">  7  8 -1 -1</clus>
<clus scale="   98.977">  1  9  2 -1</clus>
<clus scale="  100.994">  2  5  1 -1</clus>
<clus scale="   98.977">  1  5  2 -1</clus>
</clustering>
</event>
<event>
 9    1  0.2802611E-005  0.2047365E+03  0.7546771E-02  0.1146165E+00
         -2   -1    0    0    0  501 -0.00000000000E+00  0.00000000000E+00  0.11499648610E+03  0.11499648610E+03  0.00000000000E+00 0.  1.
          1   -1    0    0  502    0  0.00000000000E+00 -0.00000000000E+00 -0.10055246997E+04  0.10055246997E+04  0.00000000000E+00 0. -1.
        -24    2    1    2    0    0 -0.33399235312E+02  0.15232453068E+03 -0.18311107978E+03  0.25447064880E+03  0.83110600976E+02 0.  0.
         23    2    1    2    0    0 -0.46575787513E+02 -0.19838794442E+03 -0.73661057336E+03  0.76925126391E+03  0.87322905169E+02 0.  0.
         11    1    3    3    0    0 -0.31024056711E+01  0.50358937626E+02 -0.12146482946E+03  0.13152700223E+03  0.00000000000E+00 0. -1.
        -12    1    3    3    0    0 -0.30296829640E+02  0.10196559305E+03 -0.61646250323E+02  0.12294364657E+03  0.00000000000E+00 0.  1.
        -13    1    4    4    0    0 -0.57503736333E+02 -0.79748873105E+02 -0.40893642893E+03  0.42058954499E+03  0.00000000000E+00 0.  1.
         13    1    4    4    0    0  0.10927948820E+02 -0.11863907132E+03 -0.32767414443E+03  0.34866171891E+03  0.00000000000E+00 0. -1.
         21    1    1    2  502  501  0.79975022824E+02  0.46063413744E+02  0.29193439529E+02  0.96799273102E+02  0.00000000000E+00 0.  1.
<scales pt_clust_5="13000.00000" pt_clust_6="13000.00000" pt_clust_7="13000.00000" pt_clust_8="13000.00000" pt_clust_9="92.29216"></scales>
<clustering>
<clus scale="   83.111">  5  6 -1 -1</clus>
<clus scale="   87.323">  7  8 -1 -1</clus>
<clus scale="   92.292">  1  9  2 -1</clus>
<clus scale="  202.976">  1  5  2 -1</clus>
<clus scale="  204.737">  2  5  1 -1</clus>
</clustering>
</event>
<event>
 9    1  0.2802611E-005  0.1089186E+03  0.7546771E-02  0.1267360E+00
          1   -1    0    0  502    0  0.00000000000E+00  0.00000000000E+00  0.56854357360E+02  0.56854357360E+02  0.00000000000E+00 0. -1.
         -2   -1    0    0    0  501 -0.00000000000E+00 -0.00000000000E+00 -0.53515805918E+03  0.53515805918E+03  0.00000000000E+00 0.  1.
         23    2    1    2    0    0 -0.73370086455E+02 -0.17952671385E+02 -0.44108931182E+03  0.45700024621E+03  0.92649749271E+02 0.  0.
        -24    2    1    2    0    0  0.53776480673E+02  0.12151293629E+02 -0.66519883310E+01  0.98247706952E+02  0.81048128678E+02 0.  0.
         11    1    4    4    0    0  0.50735927515E+02 -0.27584751267E+02  0.53627614199E+00  0.57752406316E+02  0.00000000000E+00 0. -1.
        -12    1    4    4    0    0  0.30405531583E+01  0.39736044896E+02 -0.71882644730E+01  0.40495300636E+02  0.00000000000E+00 0.  1.
        -13    1    3    3    0    0 -0.75106675528E+02  0.58122603848E+01 -0.41452697261E+03  0.42131627799E+03  0.00000000000E+00 0.  1.
         13    1    3    3    0    0  0.17365890730E+01 -0.23764931770E+02 -0.26562339209E+02  0.35683968219E+02  0.00000000000E+00 0. -1.
         21    1    1    2  502  501  0.19593605782E+02  0.58013777561E+01 -0.30562401665E+02  0.36764463371E+02  0.00000000000E+00 0. -1.
<scales pt_clust_5="13000.00000" pt_clust_6="13000.00000" pt_clust_7="13000.00000" pt_clust_8="13000.00000" pt_clust_9="20.43442"></scales>
<clustering>
<clus scale="   20.434">  2  9  1 -1</clus>
<clus scale="   81.048">  5  6 -1 -1</clus>
<clus scale="   92.650">  7  8 -1 -1</clus>
<clus scale="   99.237">  1  5  2 -1</clus>
<clus scale="   99.237">  1  5  2 -1</clus>
</clustering>
</event>
<event>
 9    1  0.2802611E-005  0.9303596E+02  0.7546771E-02  0.1297505E+00
         -2   -1    0    0    0  501 -0.00000000000E+00  0.00000000000E+00  0.16622292879E+03  0.16622292879E+03  0.00000000000E+00 0.  1.
          1   -1    0    0  502    0  0.00000000000E+00 -0.00000000000E+00 -0.81195296445E+02  0.81195296445E+02  0.00000000000E+00 0. -1.
         23    2    1    2    0    0  0.49448707428E+02  0.76822745110E+00  0.66269430676E+02  0.11783726011E+03  0.83953663341E+02 0.  0.
        -24    2    1    2    0    0 -0.33409056257E+02  0.17821782590E+02 -0.12519911491E+02  0.89816920487E+02  0.80477015646E+02 0.  0.
         13    1    4    4    0    0 -0.41114588268E+02 -0.16607572288E+02 -0.26736779660E+02  0.51779109806E+02  0.00000000000E+00 0. -1.
        -14    1    4    4    0    0  0.77055320103E+01  0.34429354878E+02  0.14216868168E+02  0.38037810681E+02  0.00000000000E+00 0.  1.
        -11    1    3    3    0    0  0.31984180640E+02 -0.37068805007E+02  0.57009650565E+02  0.75147750288E+02  0.00000000000E+00 0.  1.
         11    1    3    3    0    0  0.17464526788E+02  0.37837032458E+02  0.92597801114E+01  0.42689509822E+02  0.00000000000E+00 0. -1.
         21    1    1    2  502  501 -0.16039651170E+02 -0.18590010041E+02  0.31278113159E+02  0.39764044636E+02  0.00000000000E+00 0. -1.
<scales pt_clust_5="13000.00000" pt_clust_6="13000.00000" pt_clust_7="13000.00000" pt_clust_8="13000.00000" pt_clust_9="24.55318"></scales>
<clustering>
<clus scale="   24.553">  1  9  2 -1</clus>
<clus scale="   80.477">  5  6 -1 -1</clus>
<clus scale="   83.954">  7  8 -1 -1</clus>
<clus scale="   89.911">  2  5  1 -1</clus>
<clus scale="   89.911">  2  5  1 -1</clus>
</clustering>
</event>
<event>
 9    1  0.2802611E-005  0.9929757E+02  0.7546771E-02  0.1287663E+00
          3   -1    0    0  502    0  0.00000000000E+00  0.00000000000E+00  0.31024977588E+03  0.31024977588E+03  0.00000000000E+00 0. -1.
         -4   -1    0    0    0  501 -0.00000000000E+00 -0.00000000000E+00 -0.55009595385E+02  0.55009595385E+02  0.00000000000E+00 0.  1.
        -24    2    1    2    0    0 -0.20309534252E+02 -0.12180962371E+02  0.80484232178E+01  0.85624818227E+02  0.81890044293E+02 0.  0.
         23    2    1    2    0    0  0.38340316650E+02 -0.22523360618E+01  0.22920426407E+03  0.25036034716E+03  0.93116356598E+02 0.  0.
         11    1    3    3    0    0  0.24932856854E+02 -0.26892170788E+02  0.99990788302E+01  0.38010758714E+02  0.00000000000E+00 0. -1.
        -12    1    3    3    0    0 -0.45242391105E+02  0.14711208417E+02 -0.19506556124E+01  0.47614059513E+02  0.00000000000E+00 0.  1.
        -11    1    4    4    0    0 -0.26714290290E+02 -0.18677957312E+02  0.58948797966E+02  0.67360820784E+02  0.00000000000E+00 0.  1.
         11    1    4    4    0    0  0.65054606939E+02  0.16425621250E+02  0.17025546610E+03  0.18299952638E+03  0.00000000000E+00 0. -1.
         21    1    1    2  502  501 -0.18030782398E+02  0.14433298433E+02  0.17987493207E+02  0.29274205872E+02  0.00000000000E+00 0.  1.
<scales pt_clust_5="13000.00000" pt_clust_6="13000.00000" pt_clust_7="13000.00000" pt_clust_8="13000.00000" pt_clust_9="23.09609"></scales>
<clustering>
<clus scale="   23.096">  2  9  1 -1</clus>
<clus scale="   81.890">  5  6 -1 -1</clus>
<clus scale="   88.856">  2  5  1 -1</clus>
<clus scale="   93.116">  7  8 -1 -1</clus>
<clus scale="   99.298">  1  5  2 -1</clus>
</clustering>
</event>
<event>
 9    1  0.2802611E-005  0.9006074E+02  0.7546771E-02  0.1308201E+00
         -2   -1    0    0    0  501 -0.00000000000E+00  0.00000000000E+00  0.85242323878E+02  0.85242323878E+02  0.00000000000E+00 0.  1.
          1   -1    0    0  502    0  0.00000000000E+00 -0.00000000000E+00 -0.24718532735E+03  0.24718532735E+03  0.00000000000E+00 0. -1.
        -24    2    1    2    0    0  0.26663798846E+02  0.14999483001E+02  0.33945092408E+02  0.92287199451E+02  0.80179269295E+02 0.  0.
         23    2    1    2    0    0  0.37557617393E+00 -0.13788696435E+02 -0.19297226434E+03  0.21291737555E+03  0.88911443574E+02 0.  0.
         13    1    3    3    0    0  0.46996254200E+02 -0.12747386888E+02  0.83373058165E+01  0.49402980169E+02  0.00000000000E+00 0. -1.
        -14    1    3    3    0    0 -0.20332455353E+02  0.27746869889E+02  0.25607786592E+02  0.42884219283E+02  0.00000000000E+00 0.  1.
        -13    1    4    4    0    0  0.17058299869E+02 -0.36295391049E+02 -0.37381180162E+02  0.54824206662E+02  0.00000000000E+00 0.  1.
         13    1    4    4    0    0 -0.16682723695E+02  0.22506694615E+02 -0.15559108418E+03  0.15809316889E+03  0.00000000000E+00 0. -1.
         21    1    1    2  502  501 -0.27039375020E+02 -0.12107865664E+01 -0.29158315353E+01  0.27223076225E+02  0.00000000000E+00 0. -1.
<scales pt_clust_5="13000.00000" pt_clust_6="13000.00000" pt_clust_7="13000.00000" pt_clust_8="13000.00000" pt_clust_9="27.06647"></scales>
<clustering>
<clus scale="   27.066">  1  9  2 -1</clus>
<clus scale="   80.179">  5  6 -1 -1</clus>
<clus scale="   81.452">  1  5  2 -1</clus>
<clus scale="   88.911">  7  8 -1 -1</clus>
<clus scale="   90.061">  2  5  1 -1</clus>
</clustering>
</event>
<event>
 9    1  0.2802611E-005  0.1580440E+03  0.7546771E-02  0.1219012E+00
         -2   -1    0    0    0  501 -0.00000000000E+00  0.00000000000E+00  0.43859356870E+02  0.43859356870E+02  0.00000000000E+00 0.  1.
          1   -1    0    0  502    0  0.00000000000E+00 -0.00000000000E+00 -0.89945939012E+03  0.89945939012E+03  0.00000000000E+00 0. -1.
        -24    2    1    2    0    0 -0.12902381222E+02  0.27057679445E+02 -0.12756475210E+03  0.15401542905E+03  0.80928344523E+02 0.  0.
         23    2    1    2    0    0 -0.46424330696E+02 -0.12562527071E+03 -0.57418726239E+03  0.59719802997E+03  0.94960768647E+02 0.  0.
         13    1    3    3    0    0  0.12208560105E+02  0.40819888674E+02 -0.11519714650E+03  0.12282383650E+03  0.00000000000E+00 0. -1.
        -14    1    3    3    0    0 -0.25110941326E+02 -0.13762209229E+02 -0.12367605604E+02  0.31191592546E+02  0.00000000000E+00 0.  1.
        -13    1    4    4    0    0 -0.75913689281E+02 -0.95356768969E+02 -0.42090953089E+03  0.43820159151E+03  0.00000000000E+00 0.  1.
         13    1    4    4    0    0  0.29489358586E+02 -0.30268501738E+02 -0.15327773150E+03  0.15899643846E+03  0.00000000000E+00 0. -1.
         21    1    1    2  502  501  0.59326711917E+02  0.98567591262E+02 -0.15384801876E+03  0.19210528798E+03  0.00000000000E+00 0. -1.
<scales pt_clust_5="13000.00000" pt_clust_6="13000.00000" pt_clust_7="13000.00000" pt_clust_8="13000.00000" pt_clust_9="126.33427"></scales>
<clustering>
<clus scale="   80.928">  5  6 -1 -1</clus>
<clus scale="   86.302">  1  5  2 -1</clus>
<clus scale="   94.961">  7  8 -1 -1</clus>
<clus scale="  126.334">  1  9  2 -1</clus>
<clus scale="  158.044">  2  5  1 -1</clus>
</clustering>
</event>
<event>
 9    1  0.2802611E-005  0.4356991E+03  0.7546771E-02  0.1032284E+00
         -2   -1    0    0    0  501 -0.00000000000E+00  0.00000000000E+00  0.16632790313E+03  0.16632790313E+03  0.00000000000E+00 0.  1.
          1   -1    0    0  502    0  0.00000000000E+00 -0.00000000000E+00 -0.28353602779E+04  0.28353602779E+04  0.00000000000E+00 0. -1.
         23    2    1    2    0    0 -0.17330979370E+03  0.36718432861E+03 -0.16494985924E+03  0.44828956397E+03  0.94310451904E+02 0.  0.
        -24    2    1    2    0    0  0.18067021050E+03 -0.38794479943E+03 -0.24887144399E+04  0.25265406455E+04  0.81025785003E+02 0.  0.
         11    1    4    4    0    0  0.14236724047E+03 -0.28837852104E+03 -0.16482448812E+04  0.16793277795E+04  0.00000000000E+00 0. -1.
        -12    1    4    4    0    0  0.38302970026E+02 -0.99566278397E+02 -0.84046955867E+03  0.84721286602E+03  0.00000000000E+00 0.  1.
        -13    1    3    3    0    0 -0.43389333077E+02  0.15357938425E+03 -0.24302879050E+02  0.16143076355E+03  0.00000000000E+00 0.  1.
         13    1    3    3    0    0 -0.12992046063E+03  0.21360494435E+03 -0.14064698019E+03  0.28685880042E+03  0.00000000000E+00 0. -1.
         21    1    1    2  502  501 -0.73604167955E+01  0.20760470827E+02 -0.15368075608E+02  0.26857971485E+02  0.00000000000E+00 0.  1.
<scales pt_clust_5="13000.00000" pt_clust_6="13000.00000" pt_clust_7="13000.00000" pt_clust_8="13000.00000" pt_clust_9="22.02664"></scales>
<clustering>
<clus scale="   22.027">  1  9  2 -1</clus>
<clus scale="   81.026">  5  6 -1 -1</clus>
<clus scale="   94.310">  7  8 -1 -1</clus>
<clus scale="  433.018">  2  5  1 -1</clus>
<clus scale="  433.018">  2  5  1 -1</clus>
</clustering>
</event>
<event>
 9    1  0.2802611E-005  0.1916132E+03  0.7546771E-02  0.1157826E+00
         -2   -1    0    0    0  501 -0.00000000000E+00  0.00000000000E+00  0.84156128104E+03  0.84156128104E+03  0.00000000000E+00 0.  1.
          1   -1    0    0  502    0  0.00000000000E+00 -0.00000000000E+00 -0.12285563946E+03  0.12285563946E+03  0.00000000000E+00 0. -1.
        -24    2    1    2    0    0  0.54817318024E+02 -0.18672324913E+03  0.66478057934E+03  0.69727051398E+03  0.79890180150E+02 0.  0.
         23    2    1    2    0    0 -0.35877607612E+02  0.16325927701E+03 -0.17388936761E+02  0.18971929840E+03  0.88035463342E+02 0.  0.
         11    1    3    3    0    0  0.68314622012E+02 -0.94744081728E+02  0.34391952866E+03  0.36321339568E+03  0.00000000000E+00 0. -1.
        -12    1    3    3    0    0 -0.13497303989E+02 -0.91979167406E+02  0.32086105068E+03  0.33405711831E+03  0.00000000000E+00 0.  1.
        -13    1    4    4    0    0 -0.18576459273E+02  0.43189986331E+02  0.33951762026E+02  0.57992947012E+02  0.00000000000E+00 0.  1.
         13    1    4    4    0    0 -0.17301148339E+02  0.12006929068E+03 -0.51340698787E+02  0.13172635139E+03  0.00000000000E+00 0. -1.
         21    1    1    2  502  501 -0.18939710412E+02  0.23463972120E+02  0.71313998998E+02  0.77427108116E+02  0.00000000000E+00 0. -1.
<scales pt_clust_5="13000.00000" pt_clust_6="13000.00000" pt_clust_7="13000.00000" pt_clust_8="13000.00000" pt_clust_9="30.15411"></scales>
<clustering>
<clus scale="   30.154">  1  9  2 -1</clus>
<clus scale="   79.890">  5  6 -1 -1</clus>
<clus scale="   88.035">  7  8 -1 -1</clus>
<clus scale="  188.010">  1  5  2 -1</clus>
<clus scale="  191.613">  2  5  1 -1</clus>
</clustering>
</event>
<event>
 9    1  0.2802611E-005  0.1649843E+03  0.7546771E-02  0.1185173E+00
          1   -1    0    0  502    0  0.00000000000E+00  0.00000000000E+00  0.60716424292E+03  0.60716424292E+03  0.00000000000E+00 0. -1.
         -2   -1    0    0    0  501 -0.00000000000E+00 -0.00000000000E+00 -0.17225984368E+03  0.17225984368E+03  0.00000000000E+00 0.  1.
        -24    2    1    2    0    0 -0.86813938802E+02  0.87792721392E+02 -0.78949351219E+02  0.16734013066E+03  0.80780550697E+02 0.  0.
         23    2    1    2    0    0  0.50555577845E+02 -0.12816940099E+03  0.52986781107E+03  0.55550308345E+03  0.94024021979E+02 0.  0.
         13    1    3    3    0    0 -0.58467328512E+02  0.39391445625E+02 -0.64403473642E-02  0.70499039236E+02  0.00000000000E+00 0. -1.
        -14    1    3    3    0    0 -0.28346610290E+02  0.48401275768E+02 -0.78942910871E+02  0.96841091422E+02  0.00000000000E+00 0.  1.
        -13    1    4    4    0    0  0.74097203431E+02 -0.11190165755E+03  0.47533015657E+03  0.49391409603E+03  0.00000000000E+00 0. -1.
         13    1    4    4    0    0 -0.23541625586E+02 -0.16267743435E+02  0.54537654503E+02  0.61588987412E+02  0.00000000000E+00 0.  1.
         21    1    1    2  502  501  0.36258360958E+02  0.40376679593E+02 -0.16014060613E+02  0.56580872489E+02  0.00000000000E+00 0.  1.
<scales pt_clust_5="13000.00000" pt_clust_6="13000.00000" pt_clust_7="13000.00000" pt_clust_8="13000.00000" pt_clust_9="54.26735"></scales>
<clustering>
<clus scale="   54.267">  2  9  1 -1</clus>
<clus scale="   80.781">  5  6 -1 -1</clus>
<clus scale="   94.024">  7  8 -1 -1</clus>
<clus scale="  157.813">  2  5  1 -1</clus>
<clus scale="  164.984">  1  5  2 -1</clus>
</clustering>
</event>
<event>
 9    1  0.2802611E-005  0.3432558E+03  0.7546771E-02  0.1066454E+00
          1   -1    0    0  502    0  0.00000000000E+00  0.00000000000E+00  0.12445755649E+03  0.12445755649E+03  0.00000000000E+00 0. -1.
         -2   -1    0    0    0  501 -0.00000000000E+00 -0.00000000000E+00 -0.15177173510E+04  0.15177173510E+04  0.00000000000E+00 0.  1.
        -24    2    1    2    0    0  0.28592435431E+03  0.55569879488E+02 -0.98108240667E+03  0.10265846614E+04  0.80700870773E+02 0.  0.
         23    2    1    2    0    0 -0.31798088423E+03 -0.10400612177E+03 -0.22375789438E+03  0.41842129263E+03  0.11436637063E+03 0.  0.
         11    1    3    3    0    0  0.14546903863E+03 -0.63171681271E-01 -0.38236764061E+03  0.40910421383E+03  0.00000000000E+00 0. -1.
        -12    1    3    3    0    0  0.14045531568E+03  0.55633051169E+02 -0.59871476606E+03  0.61748044761E+03  0.00000000000E+00 0.  1.
        -11    1    4    4    0    0 -0.17744091344E+02 -0.95879153509E+01 -0.60688010629E+02  0.63951665596E+02  0.00000000000E+00 0.  1.
         11    1    4    4    0    0 -0.30023679288E+03 -0.94418206417E+02 -0.16306988375E+03  0.35446962704E+03  0.00000000000E+00 0. -1.
         21    1    1    2  502  501  0.32056529921E+02  0.48436242280E+02 -0.18841949347E+03  0.19716895342E+03  0.00000000000E+00 0. -1.
<scales pt_clust_5="13000.00000" pt_clust_6="13000.00000" pt_clust_7="13000.00000" pt_clust_8="13000.00000" pt_clust_9="58.08348"></scales>
<clustering>
<clus scale="   58.083">  2  9  1 -1</clus>
<clus scale="   80.701">  5  6 -1 -1</clus>
<clus scale="  114.366">  7  8 -1 -1</clus>
<clus scale="  333.553">  2  5  1 -1</clus>
<clus scale="  343.256">  1  5  2 -1</clus>
</clustering>
</event>
<event>
 9    1  0.2802611E-005  0.2009454E+03  0.7546771E-02  0.1149174E+00
          1   -1    0    0  502    0  0.00000000000E+00  0.00000000000E+00  0.27484247207E+03  0.27484247207E+03  0.00000000000E+00 0. -1.
         -2   -1    0    0    0  501 -0.00000000000E+00 -0.00000000000E+00 -0.19727579842E+03  0.19727579842E+03  0.00000000000E+00 0.  1.
        -24    2    1    2    0    0  0.18930996577E+03 -0.64231990016E+02 -0.12682819515E+02  0.21935380285E+03  0.89393653186E+02 0.  0.
         23    2    1    2    0    0 -0.15222775345E+03  0.71893284026E+02  0.96026544639E+02  0.21446094013E+03  0.91817560175E+02 0.  0.
         13    1    3    3    0    0  0.14719986958E+03 -0.82894116731E+02  0.74186538217E+01  0.16909841105E+03  0.00000000000E+00 0. -1.
        -14    1    3    3    0    0  0.42110096189E+02  0.18662126715E+02 -0.20101473337E+02  0.50255391799E+02  0.00000000000E+00 0.  1.
        -11    1    4    4    0    0 -0.63640989425E+02 -0.15377731364E+02  0.47880407136E+02  0.81112166439E+02  0.00000000000E+00 0.  1.
         11    1    4    4    0    0 -0.88586764023E+02  0.87271015390E+02  0.48146137503E+02  0.13334877369E+03  0.00000000000E+00 0. -1.
         21    1    1    2  502  501 -0.37082212324E+02 -0.76612940105E+01 -0.57770514707E+01  0.38303527520E+02  0.00000000000E+00 0.  1.
<scales pt_clust_5="13000.00000" pt_clust_6="13000.00000" pt_clust_7="13000.00000" pt_clust_8="13000.00000" pt_clust_9="37.86537"></scales>
<clustering>
<clus scale="   37.865">  2  9  1 -1</clus>
<clus scale="   89.394">  5  6 -1 -1</clus>
<clus scale="   91.818">  7  8 -1 -1</clus>
<clus scale="  199.849">  2  5  1 -1</clus>
<clus scale="  200.945">  1  5  2 -1</clus>
</clustering>
</event>
<event>
 9    1  0.2802611E-005  0.2092987E+03  0.7546771E-02  0.1143402E+00
         -2   -1    0    0    0  501 -0.00000000000E+00  0.00000000000E+00  0.45176101253E+03  0.45176101253E+03  0.00000000000E+00 0.  1.
          1   -1    0    0  502    0  0.00000000000E+00 -0.00000000000E+00 -0.27153669930E+03  0.27153669930E+03  0.00000000000E+00 0. -1.
        -24    2    1    2    0    0  0.78988187363E+02  0.14588532645E+03  0.36515402018E+03  0.40932786035E+03  0.81793499684E+02 0.  0.
         23    2    1    2    0    0 -0.10156405154E+03 -0.15843632986E+03 -0.19362146867E+03  0.28671652046E+03  0.96435277725E+02 0.  0.
         11    1    3    3    0    0  0.44479496660E+02  0.12972042604E+02  0.72215769317E+02  0.85801030591E+02  0.00000000000E+00 0. -1.
        -12    1    3    3    0    0  0.34508690704E+02  0.13291328384E+03  0.29293825087E+03  0.32352682976E+03  0.00000000000E+00 0.  1.
        -13    1    4    4    0    0 -0.74142325783E+02 -0.16192679673E+03 -0.14053599371E+03  0.22686502044E+03  0.00000000000E+00 0. -1.
         13    1    4    4    0    0 -0.27421725758E+02  0.34904668743E+01 -0.53085474956E+02  0.59851500014E+02  0.00000000000E+00 0.  1.
         21    1    1    2  502  501  0.22575864178E+02  0.12551003408E+02  0.86917617070E+01  0.27253331017E+02  0.00000000000E+00 0. -1.
<scales pt_clust_5="13000.00000" pt_clust_6="13000.00000" pt_clust_7="13000.00000" pt_clust_8="13000.00000" pt_clust_9="25.83016"></scales>
<clustering>
<clus scale="   25.830">  1  9  2 -1</clus>
<clus scale="   81.793">  5  6 -1 -1</clus>
<clus scale="   96.435">  7  8 -1 -1</clus>
<clus scale="  202.969">  1  5  2 -1</clus>
<clus scale="  209.299">  2  5  1 -1</clus>
</clustering>
</event>
<event>
 9    1  0.2802611E-005  0.1118516E+03  0.7546771E-02  0.1262575E+00
         -2   -1    0    0    0  501 -0.00000000000E+00  0.00000000000E+00  0.33408585097E+03  0.33408585097E+03  0.00000000000E+00 0.  1.
          1   -1    0    0  502    0  0.00000000000E+00 -0.00000000000E+00 -0.12525387820E+03  0.12525387820E+03  0.00000000000E+00 0. -1.
        -24    2    1    2    0    0  0.91282901143E+02  0.99522063477E+00  0.40857892398E+02  0.12785067894E+03  0.79642138527E+02 0.  0.
         23    2    1    2    0    0 -0.69581779088E+02  0.30581426399E+02 -0.49715640472E+02  0.11045322079E+03  0.62860332920E+02 0.  0.
         13    1    3    3    0    0  0.53722489675E+02  0.39948458579E+02  0.20191599320E+02  0.69926289211E+02  0.00000000000E+00 0. -1.
        -14    1    3    3    0    0  0.37560411468E+02 -0.38953237944E+02  0.20666293078E+02  0.57924389730E+02  0.00000000000E+00 0.  1.
        -13    1    4    4    0    0 -0.16166395723E+02 -0.14738543728E+02 -0.31006588852E+02  0.37947141844E+02  0.00000000000E+00 0.  1.
         13    1    4    4    0    0 -0.53415383364E+02  0.45319970127E+02 -0.18709051620E+02  0.72506078951E+02  0.00000000000E+00 0. -1.
         21    1    1    2  502  501 -0.21701122055E+02 -0.31576647034E+02  0.21768972084E+03  0.22103582944E+03  0.00000000000E+00 0.  1.
<scales pt_clust_5="13000.00000" pt_clust_6="13000.00000" pt_clust_7="13000.00000" pt_clust_8="13000.00000" pt_clust_9="38.31479"></scales>
<clustering>
<clus scale="   38.315">  1  9  2 -1</clus>
<clus scale="   62.860">  7  8 -1 -1</clus>
<clus scale="   79.642">  5  6 -1 -1</clus>
<clus scale="  100.595">  2  7  1 -1</clus>
<clus scale="  100.595">  2  5  1 -1</clus>
</clustering>
</event>
<event>
 9    1  0.2802611E-005  0.1282844E+03  0.7546771E-02  0.1231795E+00
          1   -1    0    0  502    0  0.00000000000E+00  0.00000000000E+00  0.24555892710E+02  0.24555892710E+02  0.00000000000E+00 0. -1.
         -2   -1    0    0    0  501 -0.00000000000E+00 -0.00000000000E+00 -0.10294817601E+04  0.10294817601E+04  0.00000000000E+00 0.  1.
         23    2    1    2    0    0 -0.98746383159E+02  0.59138584509E+02 -0.39602093044E+03  0.42168379436E+03  0.87956948061E+02 0.  0.
        -24    2    1    2    0    0  0.60642422535E+02 -0.48739257254E+02 -0.29004427534E+03  0.31105620931E+03  0.81100339604E+02 0.  0.
         13    1    4    4    0    0  0.72417022426E+02 -0.11575676033E+02 -0.19431862975E+03  0.20769677725E+03  0.00000000000E+00 0. -1.
        -14    1    4    4    0    0 -0.11774599891E+02 -0.37163581221E+02 -0.95725645591E+02  0.10335943206E+03  0.00000000000E+00 0.  1.
        -13    1    3    3    0    0 -0.62641573345E+02 -0.12954441971E+02 -0.18794461814E+03  0.19853202201E+03  0.00000000000E+00 0.  1.
         13    1    3    3    0    0 -0.36104809814E+02  0.72093026480E+02 -0.20807631231E+03  0.22315177235E+03  0.00000000000E+00 0. -1.
         21    1    1    2  502  501  0.38103960624E+02 -0.10399327255E+02 -0.31886066163E+03  0.32129764917E+03  0.00000000000E+00 0. -1.
<scales pt_clust_5="13000.00000" pt_clust_6="13000.00000" pt_clust_7="13000.00000" pt_clust_8="13000.00000" pt_clust_9="39.49757"></scales>
<clustering>
<clus scale="   39.498">  2  9  1 -1</clus>
<clus scale="   81.100">  5  6 -1 -1</clus>
<clus scale="   87.957">  7  8 -1 -1</clus>
<clus scale="  123.684">  1  5  2 -1</clus>
<clus scale="  123.684">  1  5  2 -1</clus>
</clustering>
</event>
<event>
 9    1  0.2802611E-005  0.1542678E+03  0.7546771E-02  0.1196565E+00
         -2   -1    0    0    0  501 -0.00000000000E+00  0.00000000000E+00  0.78439188949E+03  0.78439188949E+03  0.00000000000E+00 0.  1.
          1   -1    0    0  502    0  0.00000000000E+00 -0.00000000000E+00 -0.14957866686E+03  0.14957866686E+03  0.00000000000E+00 0. -1.
        -24    2    1    2    0    0 -0.59954582822E+02  0.51007508800E+02  0.50719947348E+03  0.51962589965E+03  0.81015132741E+02 0.  0.
         23    2    1    2    0    0  0.12958871724E+03 -0.22832155971E+02 -0.91267748002E+02  0.18293188052E+03  0.88429226531E+02 0.  0.
         11    1    3    3    0    0  0.15885774058E+02  0.27689747010E+02  0.18939401823E+03  0.19206554623E+03  0.00000000000E+00 0. -1.
        -12    1    3    3    0    0 -0.75840356880E+02  0.23317761790E+02  0.31780545525E+03  0.32756035343E+03  0.00000000000E+00 0.  1.
        -11    1    4    4    0    0  0.56907765850E+02 -0.54821174287E+02 -0.42104386986E+02  0.89535659755E+02  0.00000000000E+00 0.  1.
         11    1    4    4    0    0  0.72680951389E+02  0.31989018316E+02 -0.49163361016E+02  0.93396220770E+02  0.00000000000E+00 0. -1.
         21    1    1    2  502  501 -0.69634134418E+02 -0.28175352829E+02  0.21888149715E+03  0.23141277617E+03  0.00000000000E+00 0.  1.
<scales pt_clust_5="13000.00000" pt_clust_6="13000.00000" pt_clust_7="13000.00000" pt_clust_8="13000.00000" pt_clust_9="75.11833"></scales>
<clustering>
<clus scale="   75.118">  1  9  2 -1</clus>
<clus scale="   81.015">  5  6 -1 -1</clus>
<clus scale="   88.429">  7  8 -1 -1</clus>
<clus scale="  150.141">  1  5  2 -1</clus>
<clus scale="  154.268">  2  5  1 -1</clus>
</clustering>
</event>
<event>
 9    1  0.2802611E-005  0.1530575E+03  0.7546771E-02  0.1199466E+00
          1   -1    0    0  502    0  0.00000000000E+00  0.00000000000E+00  0.62475947730E+03  0.62475947730E+03  0.00000000000E+00 0. -1.
         -2   -1    0    0    0  501 -0.00000000000E+00 -0.00000000000E+00 -0.13687684920E+03  0.13687684920E+03  0.00000000000E+00 0.  1.
        -24    2    1    2    0    0  0.10949549323E+03  0.54785053004E+02 -0.22000888359E+02  0.14715494236E+03  0.78612167637E+02 0.  0.
         23    2    1    2    0    0 -0.11670591877E+03 -0.32311161047E+02  0.54836343441E+03  0.56933971667E+03  0.93706852319E+02 0.  0.
         13    1    3    3    0    0  0.38412912425E+02  0.63123383366E+02 -0.12866885362E+02  0.75004467250E+02  0.00000000000E+00 0. -1.
        -14    1    3    3    0    0  0.71082580806E+02 -0.83383303619E+01 -0.91340029972E+01  0.72150475106E+02  0.00000000000E+00 0.  1.
        -11    1    4    4    0    0 -0.31758613207E+02  0.27319999433E+02  0.24889849220E+03  0.25239938848E+03  0.00000000000E+00 0. -1.
         11    1    4    4    0    0 -0.84947305565E+02 -0.59631160480E+02  0.29946494221E+03  0.31694032819E+03  0.00000000000E+00 0.  1.
         21    1    1    2  502  501  0.72104255408E+01 -0.22473891956E+02 -0.38479917955E+02  0.45141667470E+02  0.00000000000E+00 0.  1.
<scales pt_clust_5="13000.00000" pt_clust_6="13000.00000" pt_clust_7="13000.00000" pt_clust_8="13000.00000" pt_clust_9="23.60225"></scales>
<clustering>
<clus scale="   23.602">  2  9  1 -1</clus>
<clus scale="   78.612">  5  6 -1 -1</clus>
<clus scale="   93.707">  7  8 -1 -1</clus>
<clus scale="  144.310">  2  5  1 -1</clus>
<clus scale="  153.057">  1  5  2 -1</clus>
</clustering>
</event>
<event>
 9    1  0.2802611E-005  0.9756505E+02  0.7546771E-02  0.1293975E+00
          1   -1    0    0  502    0  0.00000000000E+00  0.00000000000E+00  0.15003457554E+03  0.15003457554E+03  0.00000000000E+00 0. -1.
         -2   -1    0    0    0  501 -0.00000000000E+00 -0.00000000000E+00 -0.82370184570E+02  0.82370184570E+02  0.00000000000E+00 0.  1.
        -24    2    1    2    0    0 -0.45669207718E+02 -0.14839690075E+02 -0.87583093858E+00  0.89234105238E+02  0.75206818325E+02 0.  0.
         23    2    1    2    0    0  0.24010034899E+02  0.17931215657E+02  0.73655195015E+02  0.12070200454E+03  0.90806805238E+02 0.  0.
         11    1    3    3    0    0 -0.13569020169E+02 -0.43448386834E+02  0.51777885047E+01  0.45811462765E+02  0.00000000000E+00 0. -1.
        -12    1    3    3    0    0 -0.32100187549E+02  0.28608696759E+02 -0.60536194433E+01  0.43422642473E+02  0.00000000000E+00 0.  1.
        -13    1    4    4    0    0 -0.19350454631E+02 -0.25486084457E+02  0.38208040248E+02  0.49838087192E+02  0.00000000000E+00 0. -1.
         13    1    4    4    0    0  0.43360489530E+02  0.43417300114E+02  0.35447154767E+02  0.70863917352E+02  0.00000000000E+00 0.  1.
         21    1    1    2  502  501  0.21659172819E+02 -0.30915255818E+01 -0.51149731068E+01  0.22468650327E+02  0.00000000000E+00 0.  1.
<scales pt_clust_5="13000.00000" pt_clust_6="13000.00000" pt_clust_7="13000.00000" pt_clust_8="13000.00000" pt_clust_9="21.87870"></scales>
<clustering>
<clus scale="   21.879">  2  9  1 -1</clus>
<clus scale="   75.207">  5  6 -1 -1</clus>
<clus scale="   83.241">  2  5  1 -1</clus>
<clus scale="   90.807">  7  8 -1 -1</clus>
<clus scale="   97.565">  1  5  2 -1</clus>
</clustering>
</event>
<event>
 9    1  0.2802611E-005  0.1089031E+03  0.7546771E-02  0.1264645E+00
          1   -1    0    0  502    0  0.00000000000E+00  0.00000000000E+00  0.80746423448E+02  0.80746423448E+02  0.00000000000E+00 0. -1.
         -2   -1    0    0    0  501 -0.00000000000E+00 -0.00000000000E+00 -0.39855323389E+03  0.39855323389E+03  0.00000000000E+00 0.  1.
        -24    2    1    2    0    0  0.22856787009E+02 -0.15924541022E+02 -0.19003587358E+03  0.20865442931E+03  0.81529221175E+02 0.  0.
         23    2    1    2    0    0 -0.64751407022E+02 -0.51037013959E+02  0.75277409463E+00  0.11978982272E+03  0.86899444495E+02 0.  0.
         11    1    3    3    0    0 -0.24286418790E+02  0.23727338206E+01 -0.11888445892E+03  0.12136298685E+03  0.00000000000E+00 0. -1.
        -12    1    3    3    0    0  0.47143205799E+02 -0.18297274843E+02 -0.71151414653E+02  0.87291442460E+02  0.00000000000E+00 0.  1.
        -11    1    4    4    0    0 -0.75700606870E+02 -0.19230911579E+02  0.20543697954E+02  0.80761707302E+02  0.00000000000E+00 0. -1.
         11    1    4    4    0    0  0.10949199849E+02 -0.31806102380E+02 -0.19790923859E+02  0.39028115419E+02  0.00000000000E+00 0.  1.
         21    1    1    2  502  501  0.41894620013E+02  0.66961554981E+02 -0.12852371096E+03  0.15085540531E+03  0.00000000000E+00 0.  1.
<scales pt_clust_5="13000.00000" pt_clust_6="13000.00000" pt_clust_7="13000.00000" pt_clust_8="13000.00000" pt_clust_9="78.98740"></scales>
<clustering>
<clus scale="   78.987">  2  9  1 -1</clus>
<clus scale="   81.529">  5  6 -1 -1</clus>
<clus scale="   86.899">  7  8 -1 -1</clus>
<clus scale="  104.668">  2  5  1 -1</clus>
<clus scale="  108.903">  1  5  2 -1</clus>
</clustering>
</event>
<event>
 9    1  0.2802611E-005  0.2010783E+03  0.7546771E-02  0.1149727E+00
         -2   -1    0    0    0  501 -0.00000000000E+00  0.00000000000E+00  0.69877518269E+02  0.69877518269E+02  0.00000000000E+00 0.  1.
          1   -1    0    0  502    0  0.00000000000E+00 -0.00000000000E+00 -0.98598232157E+03  0.98598232157E+03  0.00000000000E+00 0. -1.
         23    2    1    2    0    0 -0.11043830834E+03 -0.12685010368E+03 -0.16829422439E+03  0.25522265332E+03  0.92347647773E+02 0.  0.
        -24    2    1    2    0    0  0.10280781932E+03  0.18497823205E+03 -0.58381560974E+03  0.62647791004E+03  0.82749692148E+02 0.  0.
         13    1    4    4    0    0  0.11020226936E+03  0.18270477768E+03 -0.57969036933E+03  0.61771069301E+03  0.00000000000E+00 0. -1.
        -14    1    4    4    0    0 -0.73944500386E+01  0.22734543701E+01 -0.41252404088E+01  0.87672170371E+01  0.00000000000E+00 0.  1.
        -13    1    3    3    0    0 -0.30995213298E+02 -0.97021825354E+02 -0.62110393405E+02  0.11929643252E+03  0.00000000000E+00 0.  1.
         13    1    3    3    0    0 -0.79443095044E+02 -0.29828278329E+02 -0.10618383098E+03  0.13592622080E+03  0.00000000000E+00 0. -1.
         21    1    1    2  502  501  0.76304890189E+01 -0.58128128365E+02 -0.16399496917E+03  0.17415927648E+03  0.00000000000E+00 0.  1.
<scales pt_clust_5="13000.00000" pt_clust_6="13000.00000" pt_clust_7="13000.00000" pt_clust_8="13000.00000" pt_clust_9="58.62682"></scales>
<clustering>
<clus scale="   58.627">  2  9  1 -1</clus>
<clus scale="   82.750">  5  6 -1 -1</clus>
<clus scale="   92.348">  7  8 -1 -1</clus>
<clus scale="  196.855">  2  5  1 -1</clus>
<clus scale="   58.627">  2  5  1 -1</clus>
</clustering>
</event>
<event>
 9    1  0.2802611E-005  0.1516428E+03  0.7546771E-02  0.1200594E+00
         -2   -1    0    0    0  501 -0.00000000000E+00  0.00000000000E+00  0.25955571636E+03  0.25955571636E+03  0.00000000000E+00 0.  1.
          1   -1    0    0  502    0  0.00000000000E+00 -0.00000000000E+00 -0.36294921515E+03  0.36294921515E+03  0.00000000000E+00 0. -1.
         23    2    1    2    0    0  0.38618930220E+02 -0.14644119349E+03 -0.12565430581E+03  0.21760897939E+03  0.92888203885E+02 0.  0.
        -24    2    1    2    0    0  0.11920753348E+02  0.10573211053E+03 -0.16164270252E+03  0.20987803019E+03  0.81234479868E+02 0.  0.
         11    1    4    4    0    0 -0.14623239107E+02  0.51320426613E+02 -0.13218642425E+03  0.14255131029E+03  0.00000000000E+00 0. -1.
        -12    1    4    4    0    0  0.26543992455E+02  0.54411683921E+02 -0.29456278269E+02  0.67326719897E+02  0.00000000000E+00 0.  1.
        -11    1    3    3    0    0 -0.74669299653E+01 -0.10768576477E+03 -0.11262289814E+03  0.15599966719E+03  0.00000000000E+00 0. -1.
         11    1    3    3    0    0  0.46085860186E+02 -0.38755428720E+02 -0.13031407669E+02  0.61609312203E+02  0.00000000000E+00 0.  1.
         21    1    1    2  502  501 -0.50539683569E+02  0.40709082960E+02  0.18390350955E+03  0.19501792193E+03  0.00000000000E+00 0.  1.
<scales pt_clust_5="13000.00000" pt_clust_6="13000.00000" pt_clust_7="13000.00000" pt_clust_8="13000.00000" pt_clust_9="64.89599"></scales>
<clustering>
<clus scale="   64.896">  1  9  2 -1</clus>
<clus scale="   81.234">  5  6 -1 -1</clus>
<clus scale="   92.888">  7  8 -1 -1</clus>
<clus scale="  144.798">  2  5  1 -1</clus>
<clus scale="  144.798">  2  5  1 -1</clus>
</clustering>
</event>
<event>
 9    1  0.2802611E-005  0.2252049E+03  0.7546771E-02  0.1130697E+00
         -2   -1    0    0    0  501 -0.00000000000E+00  0.00000000000E+00  0.47604519888E+03  0.47604519888E+03  0.00000000000E+00 0.  1.
          1   -1    0    0  502    0  0.00000000000E+00 -0.00000000000E+00 -0.18138983372E+03  0.18138983372E+03  0.00000000000E+00 0. -1.
         23    2    1    2    0    0 -0.20589895426E+03 -0.80180082599E+02  0.25290515753E+03  0.34874430638E+03  0.94012485969E+02 0.  0.
        -24    2    1    2    0    0  0.19085509914E+03  0.59429591478E+02 -0.41776792305E+02  0.22131990629E+03  0.85320896213E+02 0.  0.
         13    1    4    4    0    0  0.18706967806E+03  0.48078594553E+02 -0.57532530333E+02  0.20153562402E+03  0.00000000000E+00 0. -1.
        -14    1    4    4    0    0  0.37854210877E+01  0.11350996925E+02  0.15755738028E+02  0.19784282267E+02  0.00000000000E+00 0.  1.
        -11    1    3    3    0    0 -0.14590251071E+03 -0.85934029631E+02  0.13586937770E+03  0.21710063997E+03  0.00000000000E+00 0.  1.
         11    1    3    3    0    0 -0.59996443552E+02  0.57539470320E+01  0.11703577983E+03  0.13164366641E+03  0.00000000000E+00 0. -1.
         21    1    1    2  502  501  0.15043855119E+02  0.20750491121E+02  0.83526999933E+02  0.87370819937E+02  0.00000000000E+00 0. -1.
<scales pt_clust_5="13000.00000" pt_clust_6="13000.00000" pt_clust_7="13000.00000" pt_clust_8="13000.00000" pt_clust_9="25.63007"></scales>
<clustering>
<clus scale="   25.630">  1  9  2 -1</clus>
<clus scale="   85.321">  5  6 -1 -1</clus>
<clus scale="   94.012">  7  8 -1 -1</clus>
<clus scale="  221.717">  2  5  1 -1</clus>
<clus scale="  221.717">  2  5  1 -1</clus>
</clustering>
</event>
<event>
 9    1  0.2802611E-005  0.1022329E+03  0.7546771E-02  0.1279277E+00
         -2   -1    0    0    0  501 -0.00000000000E+00  0.00000000000E+00  0.27355013608E+02  0.27355013608E+02  0.00000000000E+00 0.  1.
          1   -1    0    0  502    0  0.00000000000E+00 -0.00000000000E+00 -0.66802476130E+03  0.66802476130E+03  0.00000000000E+00 0. -1.
         23    2    1    2    0    0 -0.51304958750E+02 -0.28070248720E+02 -0.30104222544E+03  0.31890214427E+03  0.87475816469E+02 0.  0.
        -24    2    1    2    0    0  0.50936783701E+02  0.34155094631E+01 -0.33890687690E+03  0.35180961388E+03  0.79409769987E+02 0.  0.
         13    1    4    4    0    0  0.35008398465E+02 -0.33362894556E+02 -0.12207913105E+03  0.13130873899E+03  0.00000000000E+00 0. -1.
        -14    1    4    4    0    0  0.15928385236E+02  0.36778404019E+02 -0.21682774585E+03  0.22050087489E+03  0.00000000000E+00 0.  1.
        -13    1    3    3    0    0 -0.56128774986E+02 -0.53739754107E+02 -0.20075521567E+03  0.21526973120E+03  0.00000000000E+00 0.  1.
         13    1    3    3    0    0  0.48238162363E+01  0.25669505387E+02 -0.10028700977E+03  0.10363241307E+03  0.00000000000E+00 0. -1.
         21    1    1    2  502  501  0.36817504864E+00  0.24654739257E+02 -0.72064534486E+00  0.24668016751E+02  0.00000000000E+00 0.  1.
<scales pt_clust_5="13000.00000" pt_clust_6="13000.00000" pt_clust_7="13000.00000" pt_clust_8="13000.00000" pt_clust_9="24.65749"></scales>
<clustering>
<clus scale="   24.657">  1  9  2 -1</clus>
<clus scale="   79.410">  5  6 -1 -1</clus>
<clus scale="   87.476">  7  8 -1 -1</clus>
<clus scale="   95.423">  2  5  1 -1</clus>
<clus scale="   95.423">  2  5  1 -1</clus>
</clustering>
</event>
<event>
 9    1  0.2802611E-005  0.2491963E+03  0.7546771E-02  0.1113814E+00
         -4   -1    0    0    0  501 -0.00000000000E+00  0.00000000000E+00  0.55913057996E+03  0.55913057996E+03  0.00000000000E+00 0.  1.
          3   -1    0    0  502    0  0.00000000000E+00 -0.00000000000E+00 -0.85870538843E+02  0.85870538843E+02  0.00000000000E+00 0. -1.
        -24    2    1    2    0    0  0.10303105071E+03  0.12207451024E+02  0.58496851128E+02  0.14293058755E+03  0.79011720624E+02 0.  0.
         23    2    1    2    0    0  0.57553771379E+02  0.29719336937E+02  0.11932343229E+03  0.16320478931E+03  0.90565148767E+02 0.  0.
         13    1    3    3    0    0  0.86746637687E+02  0.16239988436E+02  0.67262560316E+01  0.88509654246E+02  0.00000000000E+00 0. -1.
        -14    1    3    3    0    0  0.16284413020E+02 -0.40325374130E+01  0.51770595097E+02  0.54420933308E+02  0.00000000000E+00 0.  1.
        -13    1    4    4    0    0  0.43293860269E+00 -0.25857363671E+02  0.95852498355E+01  0.27580204971E+02  0.00000000000E+00 0.  1.
         13    1    4    4    0    0  0.57120832776E+02  0.55576700609E+02  0.10973818246E+03  0.13562458434E+03  0.00000000000E+00 0. -1.
         21    1    1    2  502  501 -0.16058482209E+03 -0.41926787961E+02  0.29543975770E+03  0.33886574194E+03  0.00000000000E+00 0.  1.
<scales pt_clust_5="13000.00000" pt_clust_6="13000.00000" pt_clust_7="13000.00000" pt_clust_8="13000.00000" pt_clust_9="165.96789"></scales>
<clustering>
<clus scale="   79.012">  5  6 -1 -1</clus>
<clus scale="   90.565">  7  8 -1 -1</clus>
<clus scale="  101.668">  5  7 -1 -1</clus>
<clus scale="  165.968">  1  9  2 -1</clus>
<clus scale="  249.196">  2  5  1 -1</clus>
</clustering>
</event>
<event>
 9    1  0.2802611E-005  0.1088591E+03  0.7546771E-02  0.1268072E+00
          1   -1    0    0  502    0  0.00000000000E+00  0.00000000000E+00  0.67619568568E+03  0.67619568568E+03  0.00000000000E+00 0. -1.
         -2   -1    0    0    0  501 -0.00000000000E+00 -0.00000000000E+00 -0.25607385131E+02  0.25607385131E+02  0.00000000000E+00 0.  1.
        -24    2    1    2    0    0 -0.13598857639E+02  0.33869375496E+02  0.18275641539E+03  0.20324466929E+03  0.81095158314E+02 0.  0.
         23    2    1    2    0    0  0.18336558265E+02 -0.66455113001E+02  0.44087508910E+03  0.45600320267E+03  0.93891241560E+02 0.  0.
         13    1    3    3    0    0 -0.19741583858E+02  0.28232215209E+02  0.18944760338E+03  0.19255436255E+03  0.00000000000E+00 0. -1.
        -14    1    3    3    0    0  0.61427262188E+01  0.56371602871E+01 -0.66911879906E+01  0.10690306742E+02  0.00000000000E+00 0.  1.
        -11    1    4    4    0    0 -0.58222858216E+01 -0.82163440072E+02  0.37753456994E+03  0.38641568472E+03  0.00000000000E+00 0. -1.
         11    1    4    4    0    0  0.24158844086E+02  0.15708327071E+02  0.63340519163E+02  0.69587517953E+02  0.00000000000E+00 0.  1.
         21    1    1    2  502  501 -0.47377006258E+01  0.32585737505E+02  0.26956796060E+02  0.42555198857E+02  0.00000000000E+00 0.  1.
<scales pt_clust_5="13000.00000" pt_clust_6="13000.00000" pt_clust_7="13000.00000" pt_clust_8="13000.00000" pt_clust_9="32.92835"></scales>
<clustering>
<clus scale="   32.928">  2  9  1 -1</clus>
<clus scale="   81.095">  5  6 -1 -1</clus>
<clus scale="   93.891">  7  8 -1 -1</clus>
<clus scale="   98.037">  2  5  1 -1</clus>
<clus scale="  108.859">  1  5  2 -1</clus>
</clustering>
</event>
<event>
 9    1  0.2802611E-005  0.1208868E+03  0.7546771E-02  0.1250691E+00
         -2   -1    0    0    0  501 -0.00000000000E+00  0.00000000000E+00  0.22802239172E+03  0.22802239172E+03  0.00000000000E+00 0.  1.
          1   -1    0    0  502    0  0.00000000000E+00 -0.00000000000E+00 -0.19369738415E+03  0.19369738415E+03  0.00000000000E+00 0. -1.
         23    2    1    2    0    0 -0.29572634627E+02 -0.10402595242E+02  0.19171842416E+02  0.11072099409E+03  0.10444531719E+03 0.  0.
        -24    2    1    2    0    0  0.68617965389E+02  0.12916132560E+02 -0.12576319430E+03  0.16475147039E+03  0.80320696593E+02 0.  0.
         11    1    4    4    0    0  0.82592772195E+02  0.24228131130E+02 -0.88918539643E+02  0.12375409104E+03  0.00000000000E+00 0. -1.
        -12    1    4    4    0    0 -0.13974806805E+02 -0.11311998570E+02 -0.36844654660E+02  0.40997379354E+02  0.00000000000E+00 0.  1.
        -13    1    3    3    0    0  0.33840038882E+02 -0.19884370757E+02 -0.96572809281E+01  0.40420285834E+02  0.00000000000E+00 0. -1.
         13    1    3    3    0    0 -0.63412673509E+02  0.94817755152E+01  0.28829123344E+02  0.70300708255E+02  0.00000000000E+00 0.  1.
         21    1    1    2  502  501 -0.39045330763E+02 -0.25135373183E+01  0.14091635946E+03  0.14624731139E+03  0.00000000000E+00 0.  1.
<scales pt_clust_5="13000.00000" pt_clust_6="13000.00000" pt_clust_7="13000.00000" pt_clust_8="13000.00000" pt_clust_9="39.12615"></scales>
<clustering>
<clus scale="   39.126">  1  9  2 -1</clus>
<clus scale="   80.321">  5  6 -1 -1</clus>
<clus scale="  100.778">  2  5  1 -1</clus>
<clus scale="  104.445">  7  8 -1 -1</clus>
<clus scale="  100.778">  2  5  1 -1</clus>
</clustering>
</event>
<event>
 9    1  0.2802611E-005  0.1188916E+03  0.7546771E-02  0.1248707E+00
          1   -1    0    0  502    0  0.00000000000E+00  0.00000000000E+00  0.21379371110E+03  0.21379371110E+03  0.00000000000E+00 0. -1.
         -2   -1    0    0    0  501 -0.00000000000E+00 -0.00000000000E+00 -0.12441884707E+03  0.12441884707E+03  0.00000000000E+00 0.  1.
        -24    2    1    2    0    0  0.62750652137E+02 -0.70927888157E+02 -0.44688375051E+02  0.13159644750E+03  0.79700467172E+02 0.  0.
         23    2    1    2    0    0 -0.45194361304E+02  0.55737685373E+02  0.14072986759E+03  0.18246223844E+03  0.91314582408E+02 0.  0.
         13    1    3    3    0    0 -0.12799448377E+02 -0.39242793775E+02 -0.21016517076E+02  0.46319722927E+02  0.00000000000E+00 0. -1.
        -14    1    3    3    0    0  0.75550100514E+02 -0.31685094382E+02 -0.23671857975E+02  0.85276724571E+02  0.00000000000E+00 0.  1.
        -13    1    4    4    0    0 -0.68135641864E+01  0.34390061714E+02  0.20796028596E-01  0.35058542954E+02  0.00000000000E+00 0.  1.
         13    1    4    4    0    0 -0.38380797118E+02  0.21347623659E+02  0.14070907156E+03  0.14740369548E+03  0.00000000000E+00 0. -1.
         21    1    1    2  502  501 -0.17556290833E+02  0.15190202784E+02 -0.66666285038E+01  0.24153872237E+02  0.00000000000E+00 0.  1.
<scales pt_clust_5="13000.00000" pt_clust_6="13000.00000" pt_clust_7="13000.00000" pt_clust_8="13000.00000" pt_clust_9="23.21563"></scales>
<clustering>
<clus scale="   23.216">  2  9  1 -1</clus>
<clus scale="   79.700">  5  6 -1 -1</clus>
<clus scale="   91.315">  7  8 -1 -1</clus>
<clus scale="  110.223">  2  5  1 -1</clus>
<clus scale="  118.892">  1  5  2 -1</clus>
</clustering>
</event>
<event>
 9    1  0.2802611E-005  0.1000365E+03  0.7546771E-02  0.1287377E+00
         -2   -1    0    0    0  501 -0.00000000000E+00  0.00000000000E+00  0.64763941149E+02  0.64763941149E+02  0.00000000000E+00 0.  1.
          1   -1    0    0  502    0  0.00000000000E+00 -0.00000000000E+00 -0.32206586749E+03  0.32206586749E+03  0.00000000000E+00 0. -1.
        -24    2    1    2    0    0  0.26324894055E+02  0.21091263082E+02 -0.49935424372E+01  0.86356004997E+02  0.79338406258E+02 0.  0.
         23    2    1    2    0    0 -0.38643143476E+02 -0.67024282010E+00 -0.25709248824E+03  0.27615004999E+03  0.93105106399E+02 0.  0.
         13    1    3    3    0    0  0.53611604297E+02  0.13015516930E+02 -0.13226601919E+02  0.56732272954E+02  0.00000000000E+00 0. -1.
        -14    1    3    3    0    0 -0.27286710242E+02  0.80757461519E+01  0.82330594814E+01  0.29623732043E+02  0.00000000000E+00 0.  1.
        -11    1    4    4    0    0 -0.95506422464E+01  0.45317336101E+02 -0.11279826861E+03  0.12193574177E+03  0.00000000000E+00 0.  1.
         11    1    4    4    0    0 -0.29092501230E+02 -0.45987578921E+02 -0.14429421963E+03  0.15421430822E+03  0.00000000000E+00 0. -1.
         21    1    1    2  502  501  0.12318249422E+02 -0.20421020262E+02  0.47841043364E+01  0.24323753650E+02  0.00000000000E+00 0. -1.
<scales pt_clust_5="13000.00000" pt_clust_6="13000.00000" pt_clust_7="13000.00000" pt_clust_8="13000.00000" pt_clust_9="23.84863"></scales>
<clustering>
<clus scale="   23.849">  1  9  2 -1</clus>
<clus scale="   79.338">  5  6 -1 -1</clus>
<clus scale="   87.369">  1  5  2 -1</clus>
<clus scale="   93.105">  7  8 -1 -1</clus>
<clus scale="  100.037">  2  5  1 -1</clus>
</clustering>
</event>
<event>
 9    1  0.2802611E-005  0.8865351E+02  0.7546771E-02  0.1322529E+00
          1   -1    0    0  502    0  0.00000000000E+00  0.00000000000E+00  0.45525442212E+03  0.45525442212E+03  0.00000000000E+00 0. -1.
         -2   -1    0    0    0  501 -0.00000000000E+00 -0.00000000000E+00 -0.12544743882E+03  0.12544743882E+03  0.00000000000E+00 0.  1.
        -24    2    1    2    0    0 -0.12851276939E+02 -0.42656700543E+02  0.49550995575E+02  0.90486552251E+02  0.61218996690E+02 0.  0.
         23    2    1    2    0    0  0.16257552710E+02  0.13264576609E+02  0.37802460739E+03  0.38806736375E+03  0.85167000680E+02 0.  0.
         11    1    3    3    0    0 -0.35321505071E+01 -0.54228254225E+02  0.52248343691E+02  0.75386133087E+02  0.00000000000E+00 0. -1.
        -12    1    3    3    0    0 -0.93191264319E+01  0.11571553682E+02 -0.26973481155E+01  0.15100419164E+02  0.00000000000E+00 0.  1.
        -13    1    4    4    0    0  0.44685208751E+02  0.28974003420E+02  0.27257843266E+03  0.27773235805E+03  0.00000000000E+00 0. -1.
         13    1    4    4    0    0 -0.28427656041E+02 -0.15709426811E+02  0.10544617473E+03  0.11033500570E+03  0.00000000000E+00 0.  1.
         21    1    1    2  502  501 -0.34062757712E+01  0.29392123934E+02 -0.97768619662E+02  0.10214794494E+03  0.00000000000E+00 0.  1.
<scales pt_clust_5="13000.00000" pt_clust_6="13000.00000" pt_clust_7="13000.00000" pt_clust_8="13000.00000" pt_clust_9="29.58884"></scales>
<clustering>
<clus scale="   29.589">  2  9  1 -1</clus>
<clus scale="   61.219">  5  6 -1 -1</clus>
<clus scale="   65.983">  2  5  1 -1</clus>
<clus scale="   85.167">  7  8 -1 -1</clus>
<clus scale="   88.654">  1  5  2 -1</clus>
</clustering>
</event>
<event>
 9    1  0.2802611E-005  0.9418845E+02  0.7546771E-02  0.1299384E+00
         -2   -1    0    0    0  501 -0.00000000000E+00  0.00000000000E+00  0.94223434206E+02  0.94223434206E+02  0.00000000000E+00 0.  1.
          1   -1    0    0  502    0  0.00000000000E+00 -0.00000000000E+00 -0.24641047698E+03  0.24641047698E+03  0.00000000000E+00 0. -1.
        -24    2    1    2    0    0  0.20857913615E+02 -0.86586917644E+01  0.56359053994E+02  0.10120582591E+03  0.80970678200E+02 0.  0.
         23    2    1    2    0    0 -0.17300788097E+01  0.16925535516E+02 -0.18930304851E+03  0.21106420549E+03  0.91776836619E+02 0.  0.
         13    1    3    3    0    0  0.30066714533E+02 -0.19162692704E+02 -0.69917400890E+01  0.36333187913E+02  0.00000000000E+00 0. -1.
        -14    1    3    3    0    0 -0.92088009175E+01  0.10504000939E+02  0.63350794083E+02  0.64872638000E+02  0.00000000000E+00 0.  1.
        -11    1    4    4    0    0 -0.37625361888E+02 -0.10637999363E+02 -0.13408215713E+03  0.13966696012E+03  0.00000000000E+00 0.  1.
         11    1    4    4    0    0  0.35895283078E+02  0.27563534879E+02 -0.55220891373E+02  0.71397245370E+02  0.00000000000E+00 0. -1.
         21    1    1    2  502  501 -0.19127834806E+02 -0.82668437518E+01 -0.19243048261E+02  0.28363879783E+02  0.00000000000E+00 0.  1.
<scales pt_clust_5="13000.00000" pt_clust_6="13000.00000" pt_clust_7="13000.00000" pt_clust_8="13000.00000" pt_clust_9="20.83782"></scales>
<clustering>
<clus scale="   20.838">  2  9  1 -1</clus>
<clus scale="   80.971">  5  6 -1 -1</clus>
<clus scale="   83.694">  1  5  2 -1</clus>
<clus scale="   91.777">  7  8 -1 -1</clus>
<clus scale="   20.838">  2  5  1 -1</clus>
</clustering>
</event>
<event>
 9    1  0.2802611E-005  0.1542543E+03  0.7546771E-02  0.1198524E+00
          1   -1    0    0  502    0  0.00000000000E+00  0.00000000000E+00  0.47734544816E+03  0.47734544816E+03  0.00000000000E+00 0. -1.
         -2   -1    0    0    0  501 -0.00000000000E+00 -0.00000000000E+00 -0.10262773266E+03  0.10262773266E+03  0.00000000000E+00 0.  1.
         23    2    1    2    0    0  0.79527727084E+02  0.99526046262E+02  0.14421252008E+02  0.15912491730E+03  0.94247936510E+02 0.  0.
        -24    2    1    2    0    0 -0.95098568833E+02 -0.75812401443E+02  0.36491323751E+03  0.39210626175E+03  0.76120901128E+02 0.  0.
         13    1    4    4    0    0 -0.63379401513E+02 -0.77723609349E+02  0.32997458091E+03  0.34487843080E+03  0.00000000000E+00 0. -1.
        -14    1    4    4    0    0 -0.31719167320E+02  0.19112079065E+01  0.34938656600E+02  0.47227830949E+02  0.00000000000E+00 0.  1.
        -13    1    3    3    0    0  0.26541723082E+02  0.38577456676E+02 -0.40127943927E+02  0.61667942333E+02  0.00000000000E+00 0.  1.
         13    1    3    3    0    0  0.52986004002E+02  0.60948589585E+02  0.54549195934E+02  0.97456974967E+02  0.00000000000E+00 0. -1.
         21    1    1    2  502  501  0.15570841748E+02 -0.23713644819E+02 -0.46167740237E+01  0.28742001770E+02  0.00000000000E+00 0.  1.
<scales pt_clust_5="13000.00000" pt_clust_6="13000.00000" pt_clust_7="13000.00000" pt_clust_8="13000.00000" pt_clust_9="28.36879"></scales>
<clustering>
<clus scale="   28.369">  2  9  1 -1</clus>
<clus scale="   76.121">  5  6 -1 -1</clus>
<clus scale="   94.248">  7  8 -1 -1</clus>
<clus scale="  143.896">  1  5  2 -1</clus>
<clus scale="  143.896">  1  5  2 -1</clus>
</clustering>
</event>
<event>
 9    1  0.2802611E-005  0.1003412E+03  0.7546771E-02  0.1286679E+00
          1   -1    0    0  502    0  0.00000000000E+00  0.00000000000E+00  0.99785208746E+02  0.99785208746E+02  0.00000000000E+00 0. -1.
         -2   -1    0    0    0  501 -0.00000000000E+00 -0.00000000000E+00 -0.28277356616E+03  0.28277356616E+03  0.00000000000E+00 0.  1.
         23    2    1    2    0    0 -0.59112811554E+01 -0.21669437651E+02 -0.14217645865E+03  0.17175065989E+03  0.93699711874E+02 0.  0.
        -24    2    1    2    0    0  0.34436869508E+02 -0.26307869073E+02  0.50274629555E+02  0.10397980981E+03  0.80039118657E+02 0.  0.
         13    1    4    4    0    0  0.39050571223E+02  0.19419387828E+02  0.15272422085E+02  0.46209377974E+02  0.00000000000E+00 0. -1.
        -14    1    4    4    0    0 -0.46137017147E+01 -0.45727256901E+02  0.35002207470E+02  0.57770431840E+02  0.00000000000E+00 0.  1.
        -11    1    3    3    0    0 -0.23873159511E+02  0.25501652111E+02 -0.10015830513E+03  0.10607520018E+03  0.00000000000E+00 0. -1.
         11    1    3    3    0    0  0.17961878356E+02 -0.47171089762E+02 -0.42018153515E+02  0.65675459710E+02  0.00000000000E+00 0.  1.
         21    1    1    2  502  501 -0.28525588353E+02  0.47977306724E+02 -0.91086528320E+02  0.10682830520E+03  0.00000000000E+00 0. -1.
<scales pt_clust_5="13000.00000" pt_clust_6="13000.00000" pt_clust_7="13000.00000" pt_clust_8="13000.00000" pt_clust_9="55.81694"></scales>
<clustering>
<clus scale="   55.817">  2  9  1 -1</clus>
<clus scale="   80.039">  5  6 -1 -1</clus>
<clus scale="   87.721">  1  5  2 -1</clus>
<clus scale="   93.700">  7  8 -1 -1</clus>
<clus scale="   87.721">  1  5  2 -1</clus>
</clustering>
</event>
<event>
 9    1  0.2802611E-005  0.1765826E+03  0.7546771E-02  0.1172349E+00
         -2   -1    0    0    0  501 -0.00000000000E+00  0.00000000000E+00  0.20431235930E+03  0.20431235930E+03  0.00000000000E+00 0.  1.
          1   -1    0    0  502    0  0.00000000000E+00 -0.00000000000E+00 -0.31577842479E+03  0.31577842479E+03  0.00000000000E+00 0. -1.
        -24    2    1    2    0    0 -0.13194845037E+03  0.19099326218E+02 -0.49088813499E+02  0.16411243898E+03  0.82146230584E+02 0.  0.
         23    2    1    2    0    0  0.16562482996E+03  0.21174568601E+02 -0.15760787757E+03  0.24723572609E+03  0.91680502433E+02 0.  0.
         13    1    3    3    0    0 -0.73449741923E+02  0.33786018351E+02  0.77730012940E+01  0.81220558811E+02  0.00000000000E+00 0. -1.
        -14    1    3    3    0    0 -0.58498708446E+02 -0.14686692132E+02 -0.56861814793E+02  0.82891880165E+02  0.00000000000E+00 0.  1.
        -13    1    4    4    0    0  0.57557040954E+02  0.18039552059E+02 -0.11721325161E+03  0.13182255025E+03  0.00000000000E+00 0. -1.
         13    1    4    4    0    0  0.10806778901E+03  0.31350165418E+01 -0.40394625957E+02  0.11541317584E+03  0.00000000000E+00 0.  1.
         21    1    1    2  502  501 -0.33676379595E+02 -0.40273894819E+02  0.95230625574E+02  0.10874261903E+03  0.00000000000E+00 0.  1.
<scales pt_clust_5="13000.00000" pt_clust_6="13000.00000" pt_clust_7="13000.00000" pt_clust_8="13000.00000" pt_clust_9="52.49843"></scales>
<clustering>
<clus scale="   52.498">  1  9  2 -1</clus>
<clus scale="   82.146">  5  6 -1 -1</clus>
<clus scale="   91.681">  7  8 -1 -1</clus>
<clus scale="  171.826">  1  5  2 -1</clus>
<clus scale="  176.583">  2  5  1 -1</clus>
</clustering>
</event>
<event>
 9    1  0.2802611E-005  0.9862431E+02  0.7546771E-02  0.1289604E+00
         -2   -1    0    0    0  501 -0.00000000000E+00  0.00000000000E+00  0.39222767459E+02  0.39222767459E+02  0.00000000000E+00 0.  1.
          1   -1    0    0  502    0  0.00000000000E+00 -0.00000000000E+00 -0.38798796265E+03  0.38798796265E+03  0.00000000000E+00 0. -1.
         23    2    1    2    0    0  0.69253409068E+01 -0.40192405347E+02 -0.69308686766E+02  0.12249309974E+03  0.92398461181E+02 0.  0.
        -24    2    1    2    0    0 -0.21573538237E+02  0.26176191659E+02 -0.26708827558E+03  0.28096900694E+03  0.80354373531E+02 0.  0.
         13    1    4    4    0    0 -0.31957577101E+02  0.41313837924E+02 -0.99478479770E+02  0.11235696630E+03  0.00000000000E+00 0. -1.
        -14    1    4    4    0    0  0.10384038864E+02 -0.15137646265E+02 -0.16760979581E+03  0.16861204064E+03  0.00000000000E+00 0.  1.
        -11    1    3    3    0    0 -0.78352328920E+01  0.24422718580E+02  0.12593595817E+01  0.25679681537E+02  0.00000000000E+00 0.  1.
         11    1    3    3    0    0  0.14760573799E+02 -0.64615123926E+02 -0.70568046347E+02  0.96813418203E+02  0.00000000000E+00 0. -1.
         21    1    1    2  502  501  0.14648197330E+02  0.14016213687E+02 -0.12368232848E+02  0.23748623432E+02  0.00000000000E+00 0.  1.
<scales pt_clust_5="13000.00000" pt_clust_6="13000.00000" pt_clust_7="13000.00000" pt_clust_8="13000.00000" pt_clust_9="20.27373"></scales>
<clustering>
<clus scale="   20.274">  1  9  2 -1</clus>
<clus scale="   80.354">  5  6 -1 -1</clus>
<clus scale="   87.442">  2  5  1 -1</clus>
<clus scale="   92.398">  7  8 -1 -1</clus>
<clus scale="   87.442">  2  5  1 -1</clus>
</clustering>
</event>
<event>
 9    1  0.2802611E-005  0.1360169E+03  0.7546771E-02  0.1234635E+00
          1   -1    0    0  502    0  0.00000000000E+00  0.00000000000E+00  0.59526473215E+02  0.59526473215E+02  0.00000000000E+00 0. -1.
         -2   -1    0    0    0  501 -0.00000000000E+00 -0.00000000000E+00 -0.71211598076E+03  0.71211598076E+03  0.00000000000E+00 0.  1.
        -24    2    1    2    0    0 -0.97066277189E+02  0.50425305665E+01 -0.17401437859E+03  0.21726979007E+03  0.86474669350E+02 0.  0.
         23    2    1    2    0    0 -0.39705059333E+01  0.34900352819E+02 -0.45621380901E+02  0.10799523008E+03  0.91366622898E+02 0.  0.
         11    1    3    3    0    0 -0.66849114753E+02 -0.26533579632E+02 -0.55174109937E+02  0.90647765547E+02  0.00000000000E+00 0. -1.
        -12    1    3    3    0    0 -0.30217162436E+02  0.31576110198E+02 -0.11884026865E+03  0.12662202452E+03  0.00000000000E+00 0.  1.
        -13    1    4    4    0    0  0.15571253752E+02  0.62305220783E+02 -0.30487852248E+02  0.71090882783E+02  0.00000000000E+00 0. -1.
         13    1    4    4    0    0 -0.19541759685E+02 -0.27404867964E+02 -0.15133528653E+02  0.36904347294E+02  0.00000000000E+00 0.  1.
         21    1    1    2  502  501  0.10103678312E+03 -0.39942883386E+02 -0.43295374806E+03  0.44637743384E+03  0.00000000000E+00 0.  1.
<scales pt_clust_5="13000.00000" pt_clust_6="13000.00000" pt_clust_7="13000.00000" pt_clust_8="13000.00000" pt_clust_9="104.98923"></scales>
<clustering>
<clus scale="   86.475">  5  6 -1 -1</clus>
<clus scale="   91.367">  7  8 -1 -1</clus>
<clus scale="   97.886">  1  7  2 -1</clus>
<clus scale="  104.989">  2  9  1 -1</clus>
<clus scale="   97.886">  1  5  2 -1</clus>
</clustering>
</event>
<event>
 9    1  0.2802611E-005  0.1024606E+03  0.7546771E-02  0.1279473E+00
         -2   -1    0    0    0  501 -0.00000000000E+00  0.00000000000E+00  0.36948705240E+02  0.36948705240E+02  0.00000000000E+00 0.  1.
          1   -1    0    0  502    0  0.00000000000E+00 -0.00000000000E+00 -0.68226983668E+03  0.68226983668E+03  0.00000000000E+00 0. -1.
        -24    2    1    2    0    0 -0.24992556279E+02 -0.84229039857E+02 -0.16367421557E+03  0.20265624206E+03  0.81000892463E+02 0.  0.
         23    2    1    2    0    0  0.12984429277E+02  0.35482772171E+02 -0.44170795492E+03  0.45241002531E+03  0.90229103073E+02 0.  0.
         11    1    3    3    0    0  0.21805671665E+02 -0.10920800719E+02 -0.73211330098E+02  0.77166379077E+02  0.00000000000E+00 0. -1.
        -12    1    3    3    0    0 -0.46798227944E+02 -0.73308239138E+02 -0.90462885473E+02  0.12548986299E+03  0.00000000000E+00 0.  1.
        -11    1    4    4    0    0 -0.30896652264E+02 -0.81604729601E+01 -0.95249883977E+02  0.10046759098E+03  0.00000000000E+00 0.  1.
         11    1    4    4    0    0  0.43881081542E+02  0.43643245131E+02 -0.34645807094E+03  0.35194243433E+03  0.00000000000E+00 0. -1.
         21    1    1    2  502  501  0.12008127002E+02  0.48746267686E+02 -0.39938960955E+02  0.64152274548E+02  0.00000000000E+00 0. -1.
<scales pt_clust_5="13000.00000" pt_clust_6="13000.00000" pt_clust_7="13000.00000" pt_clust_8="13000.00000" pt_clust_9="50.20352"></scales>
<clustering>
<clus scale="   50.204">  1  9  2 -1</clus>
<clus scale="   81.001">  5  6 -1 -1</clus>
<clus scale="   90.229">  7  8 -1 -1</clus>
<clus scale="   94.435">  1  5  2 -1</clus>
<clus scale="  102.461">  2  5  1 -1</clus>
</clustering>
</event>
<event>
 9    1  0.2802611E-005  0.1147688E+03  0.7546771E-02  0.1267206E+00
          3   -1    0    0  502    0  0.00000000000E+00  0.00000000000E+00  0.74642421319E+02  0.74642421319E+02  0.00000000000E+00 0. -1.
         -4   -1    0    0    0  501 -0.00000000000E+00 -0.00000000000E+00 -0.21081593658E+03  0.21081593658E+03  0.00000000000E+00 0.  1.
        -24    2    1    2    0    0  0.30715848799E+02  0.15165422756E+01 -0.11296787476E+03  0.14253389729E+03  0.81292114498E+02 0.  0.
         23    2    1    2    0    0 -0.53353778362E+01 -0.13541847269E+02 -0.19207017032E+02  0.11455607581E+03  0.11199257617E+03 0.  0.
         13    1    3    3    0    0  0.25353745536E+02 -0.38046179436E+02 -0.48082739880E+02  0.66349634940E+02  0.00000000000E+00 0. -1.
        -14    1    3    3    0    0  0.53621032627E+01  0.39562721711E+02 -0.64885134883E+02  0.76184262347E+02  0.00000000000E+00 0.  1.
        -11    1    4    4    0    0 -0.55209073756E+02  0.96739056506E+01 -0.20075240582E+02  0.59536892427E+02  0.00000000000E+00 0.  1.
         11    1    4    4    0    0  0.49873695919E+02 -0.23215752919E+02  0.86822354912E+00  0.55019183385E+02  0.00000000000E+00 0. -1.
         21    1    1    2  502  501 -0.25380470962E+02  0.12025304993E+02 -0.39986234663E+01  0.28368384799E+02  0.00000000000E+00 0.  1.
<scales pt_clust_5="13000.00000" pt_clust_6="13000.00000" pt_clust_7="13000.00000" pt_clust_8="13000.00000" pt_clust_9="28.08516"></scales>
<clustering>
<clus scale="   28.085">  1  9  2 -1</clus>
<clus scale="   81.292">  5  6 -1 -1</clus>
<clus scale="   85.076">  2  5  1 -1</clus>
<clus scale="  111.993">  7  8 -1 -1</clus>
<clus scale="   28.085">  1  5  2 -1</clus>
</clustering>
</event>
<event>
 9    1  0.2802611E-005  0.2448654E+03  0.7546771E-02  0.1117255E+00
          1   -1    0    0  502    0  0.00000000000E+00  0.00000000000E+00  0.74718323962E+03  0.74718323962E+03  0.00000000000E+00 0. -1.
         -2   -1    0    0    0  501 -0.00000000000E+00 -0.00000000000E+00 -0.97587026302E+02  0.97587026302E+02  0.00000000000E+00 0.  1.
        -24    2    1    2    0    0  0.21399566594E+03  0.97731840969E+01  0.18423142219E+03  0.29382784388E+03  0.80646914071E+02 0.  0.
         23    2    1    2    0    0 -0.23444080294E+03  0.11828316596E+01  0.46370820266E+03  0.52768769793E+03  0.92006087606E+02 0.  0.
         11    1    3    3    0    0  0.18904586468E+03 -0.36428231540E+01  0.12084541470E+03  0.22439969556E+03  0.00000000000E+00 0. -1.
        -12    1    3    3    0    0  0.24949801253E+02  0.13416007251E+02  0.63386007489E+02  0.69428148316E+02  0.00000000000E+00 0.  1.
        -11    1    4    4    0    0 -0.12788776775E+03  0.22041722568E+02  0.33525039675E+03  0.35949123382E+03  0.00000000000E+00 0. -1.
         11    1    4    4    0    0 -0.10655303519E+03 -0.20858890908E+02  0.12845780591E+03  0.16819646411E+03  0.00000000000E+00 0.  1.
         21    1    1    2  502  501  0.20445137004E+02 -0.10956015757E+02  0.16565884696E+01  0.23254724116E+02  0.00000000000E+00 0.  1.
<scales pt_clust_5="13000.00000" pt_clust_6="13000.00000" pt_clust_7="13000.00000" pt_clust_8="13000.00000" pt_clust_9="23.19564"></scales>
<clustering>
<clus scale="   23.196">  2  9  1 -1</clus>
<clus scale="   80.647">  5  6 -1 -1</clus>
<clus scale="   92.006">  7  8 -1 -1</clus>
<clus scale="  240.827">  2  5  1 -1</clus>
<clus scale="  244.865">  1  5  2 -1</clus>
</clustering>
</event>
<event>
 9    1  0.2802611E-005  0.9198713E+02  0.7546771E-02  0.1304927E+00
         -2   -1    0    0    0  501 -0.00000000000E+00  0.00000000000E+00  0.52868490341E+03  0.52868490341E+03  0.00000000000E+00 0.  1.
          1   -1    0    0  502    0  0.00000000000E+00 -0.00000000000E+00 -0.10903239053E+03  0.10903239053E+03  0.00000000000E+00 0. -1.
        -24    2    1    2    0    0 -0.76261787097E+01 -0.50839776563E+01  0.44801742182E+03  0.45527099710E+03  0.80424281883E+02 0.  0.
         23    2    1    2    0    0  0.49683999262E+02  0.21990814502E+02 -0.64631496038E+02  0.12439488220E+03  0.91349661919E+02 0.  0.
         11    1    3    3    0    0  0.57587283739E+01 -0.19884358142E+02  0.28216289213E+02  0.34995851585E+02  0.00000000000E+00 0. -1.
        -12    1    3    3    0    0 -0.13384907084E+02  0.14800380486E+02  0.41980113261E+03  0.42027514552E+03  0.00000000000E+00 0.  1.
        -13    1    4    4    0    0 -0.17882799850E+02  0.13766442354E+02 -0.49881990709E+02  0.54749634360E+02  0.00000000000E+00 0.  1.
         13    1    4    4    0    0  0.67566799111E+02  0.82243721477E+01 -0.14749505330E+02  0.69645247841E+02  0.00000000000E+00 0. -1.
         21    1    1    2  502  501 -0.42057820552E+02 -0.16906836846E+02  0.36266587097E+02  0.58051414637E+02  0.00000000000E+00 0. -1.
<scales pt_clust_5="13000.00000" pt_clust_6="13000.00000" pt_clust_7="13000.00000" pt_clust_8="13000.00000" pt_clust_9="45.32881"></scales>
<clustering>
<clus scale="   45.329">  2  9  1 -1</clus>
<clus scale="   80.424">  5  6 -1 -1</clus>
<clus scale="   81.148">  1  5  2 -1</clus>
<clus scale="   91.350">  7  8 -1 -1</clus>
<clus scale="   45.329">  2  5  1 -1</clus>
</clustering>
</event>
<event>
 9    1  0.2802611E-005  0.1826499E+03  0.7546771E-02  0.1165446E+00
          1   -1    0    0  502    0  0.00000000000E+00  0.00000000000E+00  0.11778041863E+04  0.11778041863E+04  0.00000000000E+00 0. -1.
         -2   -1    0    0    0  501 -0.00000000000E+00 -0.00000000000E+00 -0.42170570876E+02  0.42170570876E+02  0.00000000000E+00 0.  1.
        -24    2    1    2    0    0  0.27373030104E+02  0.12748770244E+03  0.31279964466E+03  0.34932263608E+03  0.84736587885E+02 0.  0.
         23    2    1    2    0    0 -0.56930024306E+02 -0.17441846312E+03  0.76114482885E+03  0.78769633509E+03  0.86378457260E+02 0.  0.
         11    1    3    3    0    0  0.47667053250E+02  0.73033649044E+02  0.24481522730E+03  0.25988566212E+03  0.00000000000E+00 0. -1.
        -12    1    3    3    0    0 -0.20294023146E+02  0.54454053398E+02  0.67984417362E+02  0.89436973959E+02  0.00000000000E+00 0.  1.
        -13    1    4    4    0    0 -0.69240339299E+02 -0.83152263795E+02  0.47180035089E+03  0.48404968202E+03  0.00000000000E+00 0.  1.
         13    1    4    4    0    0  0.12310314993E+02 -0.91266199324E+02  0.28934447796E+03  0.30364665307E+03  0.00000000000E+00 0. -1.
         21    1    1    2  502  501  0.29556994202E+02  0.46930760678E+02  0.61689141944E+02  0.82955786042E+02  0.00000000000E+00 0. -1.
<scales pt_clust_5="13000.00000" pt_clust_6="13000.00000" pt_clust_7="13000.00000" pt_clust_8="13000.00000" pt_clust_9="55.46271"></scales>
<clustering>
<clus scale="   55.463">  2  9  1 -1</clus>
<clus scale="   84.737">  5  6 -1 -1</clus>
<clus scale="   86.378">  7  8 -1 -1</clus>
<clus scale="  181.879">  2  5  1 -1</clus>
<clus scale="  182.650">  1  5  2 -1</clus>
</clustering>
</event>
<event>
 9    1  0.2802611E-005  0.1506184E+03  0.7546771E-02  0.1204584E+00
          3   -1    0    0  502    0  0.00000000000E+00  0.00000000000E+00  0.24713343382E+03  0.24713343382E+03  0.00000000000E+00 0. -1.
         -4   -1    0    0    0  501 -0.00000000000E+00 -0.00000000000E+00 -0.13967245999E+03  0.13967245999E+03  0.00000000000E+00 0.  1.
         23    2    1    2    0    0  0.16933947068E+01 -0.12749832684E+03  0.28470253631E+02  0.16723845974E+03  0.10440046045E+03 0.  0.
        -24    2    1    2    0    0  0.38392698739E+02  0.95199775567E+02  0.99248196911E+02  0.16424603978E+03  0.81176107386E+02 0.  0.
         13    1    4    4    0    0  0.24842419035E+02  0.97776023113E+02  0.10809674809E+03  0.14785872794E+03  0.00000000000E+00 0. -1.
        -14    1    4    4    0    0  0.13550279704E+02 -0.25762475459E+01 -0.88485511831E+01  0.16387311845E+02  0.00000000000E+00 0.  1.
        -11    1    3    3    0    0 -0.35601061462E+02 -0.86987791838E+02  0.51933594342E+02  0.10738440170E+03  0.00000000000E+00 0. -1.
         11    1    3    3    0    0  0.37294456169E+02 -0.40510535005E+02 -0.23463340712E+02  0.59854058047E+02  0.00000000000E+00 0.  1.
         21    1    1    2  502  501 -0.40086093446E+02  0.32298551275E+02 -0.20257476713E+02  0.55321394279E+02  0.00000000000E+00 0.  1.
<scales pt_clust_5="13000.00000" pt_clust_6="13000.00000" pt_clust_7="13000.00000" pt_clust_8="13000.00000" pt_clust_9="51.47904"></scales>
<clustering>
<clus scale="   51.479">  2  9  1 -1</clus>
<clus scale="   81.176">  5  6 -1 -1</clus>
<clus scale="  104.400">  7  8 -1 -1</clus>
<clus scale="  135.558">  1  5  2 -1</clus>
<clus scale="  135.558">  1  5  2 -1</clus>
</clustering>
</event>
<event>
 9    1  0.2802611E-005  0.1060895E+03  0.7546771E-02  0.1273776E+00
         -2   -1    0    0    0  501 -0.00000000000E+00  0.00000000000E+00  0.12828265117E+03  0.12828265117E+03  0.00000000000E+00 0.  1.
          1   -1    0    0  502    0  0.00000000000E+00 -0.00000000000E+00 -0.12217723877E+03  0.12217723877E+03  0.00000000000E+00 0. -1.
         23    2    1    2    0    0  0.35110839478E+02  0.29168209372E+01  0.48678259411E+02  0.11160961729E+03  0.94052404751E+02 0.  0.
        -24    2    1    2    0    0 -0.52903158230E+02  0.13678731891E+02 -0.54216344095E+02  0.11187713778E+03  0.81186391310E+02 0.  0.
         13    1    4    4    0    0 -0.64773996783E+02 -0.12657258728E+02 -0.49742591473E+02  0.82645037747E+02  0.00000000000E+00 0. -1.
        -14    1    4    4    0    0  0.11870838553E+02  0.26335990619E+02 -0.44737526224E+01  0.29232100033E+02  0.00000000000E+00 0.  1.
        -11    1    3    3    0    0  0.48370010995E+02  0.33529452688E+02  0.51397494179E+02  0.78138240120E+02  0.00000000000E+00 0.  1.
         11    1    3    3    0    0 -0.13259171517E+02 -0.30612631751E+02 -0.27192347677E+01  0.33471377171E+02  0.00000000000E+00 0. -1.
         21    1    1    2  502  501  0.17792318752E+02 -0.16595552829E+02  0.11643497083E+02  0.26973134868E+02  0.00000000000E+00 0.  1.
<scales pt_clust_5="13000.00000" pt_clust_6="13000.00000" pt_clust_7="13000.00000" pt_clust_8="13000.00000" pt_clust_9="24.33062"></scales>
<clustering>
<clus scale="   24.331">  1  9  2 -1</clus>
<clus scale="   81.186">  5  6 -1 -1</clus>
<clus scale="   94.052">  7  8 -1 -1</clus>
<clus scale="   94.870">  2  5  1 -1</clus>
<clus scale="   94.870">  2  5  1 -1</clus>
</clustering>
</event>
<event>
 9    1  0.2802611E-005  0.8875301E+02  0.7546771E-02  0.1307671E+00
         -2   -1    0    0    0  501 -0.00000000000E+00  0.00000000000E+00  0.71901396760E+02  0.71901396760E+02  0.00000000000E+00 0.  1.
          1   -1    0    0  502    0  0.00000000000E+00 -0.00000000000E+00 -0.39732645685E+03  0.39732645685E+03  0.00000000000E+00 0. -1.
         23    2    1    2    0    0  0.46300634796E+02 -0.58815519653E+02 -0.43893731974E+02  0.12086222145E+03  0.84130866711E+02 0.  0.
        -24    2    1    2    0    0 -0.21291084372E+02  0.62830690251E+01 -0.27758049527E+03  0.29004972471E+03  0.81148778309E+02 0.  0.
         13    1    4    4    0    0 -0.24022403171E+02 -0.34228225964E+02 -0.16984164018E+03  0.17491377889E+03  0.00000000000E+00 0. -1.
        -14    1    4    4    0    0  0.27313187988E+01  0.40511294989E+02 -0.10773885509E+03  0.11513594582E+03  0.00000000000E+00 0.  1.
        -13    1    3    3    0    0 -0.32364357823E+01 -0.60937082019E+02 -0.35429698635E+02  0.70562497312E+02  0.00000000000E+00 0. -1.
         13    1    3    3    0    0  0.49537070578E+02  0.21215623658E+01 -0.84640333389E+01  0.50299724142E+02  0.00000000000E+00 0.  1.
         21    1    1    2  502  501 -0.25009550424E+02  0.52532450628E+02 -0.39508328502E+01  0.58315907449E+02  0.00000000000E+00 0.  1.
<scales pt_clust_5="13000.00000" pt_clust_6="13000.00000" pt_clust_7="13000.00000" pt_clust_8="13000.00000" pt_clust_9="58.18192"></scales>
<clustering>
<clus scale="   58.182">  1  9  2 -1</clus>
<clus scale="   81.149">  5  6 -1 -1</clus>
<clus scale="   84.131">  7  8 -1 -1</clus>
<clus scale="   85.931">  2  5  1 -1</clus>
<clus scale="   85.931">  2  5  1 -1</clus>
</clustering>
</event>
<event>
 9    1  0.2802611E-005  0.1174288E+03  0.7546771E-02  0.1249991E+00
          3   -1    0    0  502    0  0.00000000000E+00  0.00000000000E+00  0.50694406158E+03  0.50694406158E+03  0.00000000000E+00 0. -1.
         -4   -1    0    0    0  501 -0.00000000000E+00 -0.00000000000E+00 -0.48774209168E+02  0.48774209168E+02  0.00000000000E+00 0.  1.
        -24    2    1    2    0    0  0.54075533203E+01 -0.56989243283E+02  0.51428341946E+02  0.11184148480E+03  0.81158042635E+02 0.  0.
         23    2    1    2    0    0  0.39786278976E+01  0.82257866634E+02  0.39713022938E+03  0.41525895151E+03  0.89136926218E+02 0.  0.
         11    1    3    3    0    0 -0.15865548038E+01 -0.33470355587E+02  0.72262104639E+02  0.79652957422E+02  0.00000000000E+00 0. -1.
        -12    1    3    3    0    0  0.69941081241E+01 -0.23518887696E+02 -0.20833762693E+02  0.32188527379E+02  0.00000000000E+00 0.  1.
        -11    1    4    4    0    0 -0.23325307962E+02  0.89930798279E+02  0.29735766763E+03  0.31153362735E+03  0.00000000000E+00 0. -1.
         11    1    4    4    0    0  0.27303935859E+02 -0.76729316454E+01  0.99772561751E+02  0.10372532416E+03  0.00000000000E+00 0.  1.
         21    1    1    2  502  501 -0.93861812179E+01 -0.25268623351E+02  0.96112810829E+01  0.28617834439E+02  0.00000000000E+00 0.  1.
<scales pt_clust_5="13000.00000" pt_clust_6="13000.00000" pt_clust_7="13000.00000" pt_clust_8="13000.00000" pt_clust_9="26.95559"></scales>
<clustering>
<clus scale="   26.956">  2  9  1 -1</clus>
<clus scale="   81.158">  5  6 -1 -1</clus>
<clus scale="   89.137">  7  8 -1 -1</clus>
<clus scale="  111.493">  2  5  1 -1</clus>
<clus scale="  117.429">  1  5  2 -1</clus>
</clustering>
</event>
<event>
 9    1  0.2802611E-005  0.1027227E+03  0.7546771E-02  0.1277843E+00
         -2   -1    0    0    0  501 -0.00000000000E+00  0.00000000000E+00  0.30812741186E+03  0.30812741186E+03  0.00000000000E+00 0.  1.
          1   -1    0    0  502    0  0.00000000000E+00 -0.00000000000E+00 -0.13129411038E+03  0.13129411038E+03  0.00000000000E+00 0. -1.
        -24    2    1    2    0    0  0.38400747316E+02 -0.45449303824E+02  0.10977191372E+03  0.15015562411E+03  0.83406125667E+02 0.  0.
         23    2    1    2    0    0 -0.25874851431E+02 -0.50408467960E+02 -0.63790810746E+02  0.12657629079E+03  0.93497423906E+02 0.  0.
         13    1    3    3    0    0  0.42404716447E+02  0.12485684532E+02  0.51830354608E+02  0.68120760081E+02  0.00000000000E+00 0. -1.
        -14    1    3    3    0    0 -0.40039691312E+01 -0.57934988356E+02  0.57941559108E+02  0.82034864031E+02  0.00000000000E+00 0.  1.
        -13    1    4    4    0    0  0.11830952084E+02 -0.66966174840E+02 -0.42838313019E+02  0.80371394552E+02  0.00000000000E+00 0.  1.
         13    1    4    4    0    0 -0.37705803515E+02  0.16557706879E+02 -0.20952497727E+02  0.46204896243E+02  0.00000000000E+00 0. -1.
         21    1    1    2  502  501 -0.12525895886E+02  0.95857771784E+02  0.13085219851E+03  0.16268960733E+03  0.00000000000E+00 0. -1.
<scales pt_clust_5="13000.00000" pt_clust_6="13000.00000" pt_clust_7="13000.00000" pt_clust_8="13000.00000" pt_clust_9="96.67270"></scales>
<clustering>
<clus scale="   83.406">  5  6 -1 -1</clus>
<clus scale="   93.497">  7  8 -1 -1</clus>
<clus scale="   96.673">  1  9  2 -1</clus>
<clus scale="   96.673">  1  5  2 -1</clus>
<clus scale="  102.723">  2  5  1 -1</clus>
</clustering>
</event>
<event>
 9    1  0.2802611E-005  0.1147868E+03  0.7546771E-02  0.1255812E+00
          1   -1    0    0  502    0  0.00000000000E+00  0.00000000000E+00  0.83662622678E+02  0.83662622678E+02  0.00000000000E+00 0. -1.
         -2   -1    0    0    0  501 -0.00000000000E+00 -0.00000000000E+00 -0.46330631790E+03  0.46330631790E+03  0.00000000000E+00 0.  1.
        -24    2    1    2    0    0 -0.46088107643E+02  0.26587376392E+02 -0.23095240839E+03  0.25032457374E+03  0.80575275520E+02 0.  0.
         23    2    1    2    0    0  0.69123762675E+02 -0.22508529521E+02  0.26584983161E+02  0.11981380043E+03  0.91454124984E+02 0.  0.
         13    1    3    3    0    0 -0.19466634231E+01  0.43681312665E+02 -0.69803524065E+02  0.82367339076E+02  0.00000000000E+00 0. -1.
        -14    1    3    3    0    0 -0.44141444220E+02 -0.17093936273E+02 -0.16114888433E+03  0.16795723466E+03  0.00000000000E+00 0.  1.
        -13    1    4    4    0    0  0.69423580451E+02  0.15354891550E+02  0.37530846786E+02  0.80398822614E+02  0.00000000000E+00 0. -1.
         13    1    4    4    0    0 -0.29981777574E+00 -0.37863421071E+02 -0.10945863625E+02  0.39414977818E+02  0.00000000000E+00 0.  1.
         21    1    1    2  502  501 -0.23035655032E+02 -0.40788468706E+01 -0.17527626999E+03  0.17683056641E+03  0.00000000000E+00 0.  1.
<scales pt_clust_5="13000.00000" pt_clust_6="13000.00000" pt_clust_7="13000.00000" pt_clust_8="13000.00000" pt_clust_9="23.39398"></scales>
<clustering>
<clus scale="   23.394">  2  9  1 -1</clus>
<clus scale="   80.575">  5  6 -1 -1</clus>
<clus scale="   91.454">  7  8 -1 -1</clus>
<clus scale="  106.323">  2  5  1 -1</clus>
<clus scale="  114.787">  1  5  2 -1</clus>
</clustering>
</event>
<event>
 9    1  0.2802611E-005  0.1201292E+03  0.7546771E-02  0.1245780E+00
          1   -1    0    0  502    0  0.00000000000E+00  0.00000000000E+00  0.56823319217E+03  0.56823319217E+03  0.00000000000E+00 0. -1.
         -2   -1    0    0    0  501 -0.00000000000E+00 -0.00000000000E+00 -0.62692476480E+02  0.62692476480E+02  0.00000000000E+00 0.  1.
         23    2    1    2    0    0  0.13583063156E+02 -0.72315089446E+02  0.14267174013E+03  0.18458120759E+03  0.91109961020E+02 0.  0.
        -24    2    1    2    0    0 -0.55011584389E+02  0.62728292917E+02  0.38216216505E+03  0.39964910583E+03  0.81916874029E+02 0.  0.
         11    1    4    4    0    0 -0.68365804896E+02  0.56853388529E+02  0.37035871998E+03  0.38088288559E+03  0.00000000000E+00 0. -1.
        -12    1    4    4    0    0  0.13354220507E+02  0.58749043882E+01  0.11803445064E+02  0.18766220245E+02  0.00000000000E+00 0.  1.
        -11    1    3    3    0    0  0.39346529374E+02 -0.37413515898E+02  0.12757612169E+03  0.13864915208E+03  0.00000000000E+00 0. -1.
         11    1    3    3    0    0 -0.25763466218E+02 -0.34901573547E+02  0.15095618441E+02  0.45932055514E+02  0.00000000000E+00 0.  1.
         21    1    1    2  502  501  0.41428521233E+02  0.95867965291E+01 -0.19293189487E+02  0.46695355228E+02  0.00000000000E+00 0.  1.
<scales pt_clust_5="13000.00000" pt_clust_6="13000.00000" pt_clust_7="13000.00000" pt_clust_8="13000.00000" pt_clust_9="42.52328"></scales>
<clustering>
<clus scale="   42.523">  2  9  1 -1</clus>
<clus scale="   81.917">  5  6 -1 -1</clus>
<clus scale="   91.110">  7  8 -1 -1</clus>
<clus scale="  113.315">  1  5  2 -1</clus>
<clus scale="  113.315">  1  5  2 -1</clus>
</clustering>
</event>
<event>
 9    1  0.2802611E-005  0.1666247E+03  0.7546771E-02  0.1208310E+00
         -2   -1    0    0    0  501 -0.00000000000E+00  0.00000000000E+00  0.12469092554E+03  0.12469092554E+03  0.00000000000E+00 0.  1.
          1   -1    0    0  502    0  0.00000000000E+00 -0.00000000000E+00 -0.76443782215E+03  0.76443782215E+03  0.00000000000E+00 0. -1.
        -24    2    1    2    0    0 -0.90902996878E+01 -0.26475708936E+02  0.92287002324E+01  0.92880476430E+02  0.88079607639E+02 0.  0.
         23    2    1    2    0    0  0.80069902102E+01  0.14458899644E+03 -0.65624902401E+03  0.67790628807E+03  0.89017212452E+02 0.  0.
         11    1    3    3    0    0  0.22116239321E+02  0.23846908910E+02 -0.21063690650E+01  0.32592021982E+02  0.00000000000E+00 0. -1.
        -12    1    3    3    0    0 -0.31206539009E+02 -0.50322617846E+02  0.11335069297E+02  0.60288454448E+02  0.00000000000E+00 0.  1.
        -11    1    4    4    0    0 -0.26250295713E+02  0.12527557525E+03 -0.54756849374E+03  0.56232935466E+03  0.00000000000E+00 0. -1.
         11    1    4    4    0    0  0.34257285924E+02  0.19313421192E+02 -0.10868053026E+03  0.11557693341E+03  0.00000000000E+00 0.  1.
         21    1    1    2  502  501  0.10833094776E+01 -0.11811328750E+03  0.72734271654E+01  0.11834198320E+03  0.00000000000E+00 0.  1.
<scales pt_clust_5="13000.00000" pt_clust_6="13000.00000" pt_clust_7="13000.00000" pt_clust_8="13000.00000" pt_clust_9="140.85362"></scales>
<clustering>
<clus scale="   88.080">  5  6 -1 -1</clus>
<clus scale="   89.017">  7  8 -1 -1</clus>
<clus scale="   92.421">  1  5  2 -1</clus>
<clus scale="  140.854">  1  9  2 -1</clus>
<clus scale="  166.625">  2  5  1 -1</clus>
</clustering>
</event>
<event>
 9    1  0.2802611E-005  0.1265503E+03  0.7546771E-02  0.1235424E+00
          1   -1    0    0  502    0  0.00000000000E+00  0.00000000000E+00  0.63136451084E+03  0.63136451084E+03  0.00000000000E+00 0. -1.
         -2   -1    0    0    0  501 -0.00000000000E+00 -0.00000000000E+00 -0.36119824680E+02  0.36119824680E+02  0.00000000000E+00 0.  1.
         23    2    1    2    0    0 -0.97966531405E+02 -0.19573306449E+02  0.25242055630E+03  0.28587401988E+03  0.89594990916E+02 0.  0.
        -24    2    1    2    0    0  0.83843295668E+02 -0.16474216173E+02  0.30864801047E+03  0.32996830937E+03  0.79463153702E+02 0.  0.
         13    1    4    4    0    0  0.67779316113E+02 -0.45060604414E+02  0.24812650205E+03  0.26113455302E+03  0.00000000000E+00 0. -1.
        -14    1    4    4    0    0  0.16063979555E+02  0.28586388241E+02  0.60521508423E+02  0.68833756353E+02  0.00000000000E+00 0.  1.
        -11    1    3    3    0    0 -0.51149119772E+02  0.35171105588E+02  0.12193061526E+03  0.13682219871E+03  0.00000000000E+00 0. -1.
         11    1    3    3    0    0 -0.46817411633E+02 -0.54744412036E+02  0.13048994104E+03  0.14905182117E+03  0.00000000000E+00 0.  1.
         21    1    1    2  502  501  0.14123235737E+02  0.36047522622E+02  0.34176119382E+02  0.51642006263E+02  0.00000000000E+00 0. -1.
<scales pt_clust_5="13000.00000" pt_clust_6="13000.00000" pt_clust_7="13000.00000" pt_clust_8="13000.00000" pt_clust_9="38.71550"></scales>
<clustering>
<clus scale="   38.715">  2  9  1 -1</clus>
<clus scale="   79.463">  5  6 -1 -1</clus>
<clus scale="   89.595">  7  8 -1 -1</clus>
<clus scale="  119.591">  1  5  2 -1</clus>
<clus scale="  119.591">  1  5  2 -1</clus>
</clustering>
</event>
<event>
 9    1  0.2802611E-005  0.1211090E+03  0.7546771E-02  0.1243931E+00
          1   -1    0    0  502    0  0.00000000000E+00  0.00000000000E+00  0.37959236683E+03  0.37959236683E+03  0.00000000000E+00 0. -1.
         -2   -1    0    0    0  501 -0.00000000000E+00 -0.00000000000E+00 -0.90619940543E+02  0.90619940543E+02  0.00000000000E+00 0.  1.
         23    2    1    2    0    0 -0.37208731675E+02  0.55194754606E+02 -0.19618968037E+02  0.11210222497E+03  0.88040072059E+02 0.  0.
        -24    2    1    2    0    0  0.63208400218E+02 -0.58464946619E+02  0.31054865741E+03  0.33183256732E+03  0.79113413977E+02 0.  0.
         13    1    4    4    0    0  0.46802194451E+02 -0.62932761856E+02  0.30342485943E+03  0.31339691006E+03  0.00000000000E+00 0. -1.
        -14    1    4    4    0    0  0.16406205767E+02  0.44678152375E+01  0.71237979888E+01  0.18435657256E+02  0.00000000000E+00 0.  1.
        -11    1    3    3    0    0 -0.33050602248E+02  0.79096402784E+02 -0.19151187722E+02  0.87837072091E+02  0.00000000000E+00 0.  1.
         11    1    3    3    0    0 -0.41581294272E+01 -0.23901648178E+02 -0.46778031574E+00  0.24265152882E+02  0.00000000000E+00 0. -1.
         21    1    1    2  502  501 -0.25999668543E+02  0.32701920129E+01 -0.19572630867E+01  0.26277515083E+02  0.00000000000E+00 0. -1.
<scales pt_clust_5="13000.00000" pt_clust_6="13000.00000" pt_clust_7="13000.00000" pt_clust_8="13000.00000" pt_clust_9="26.20452"></scales>
<clustering>
<clus scale="   26.205">  2  9  1 -1</clus>
<clus scale="   79.113">  5  6 -1 -1</clus>
<clus scale="   88.040">  7  8 -1 -1</clus>
<clus scale="  114.784">  1  5  2 -1</clus>
<clus scale="  114.784">  1  5  2 -1</clus>
</clustering>
</event>
<event>
 9    1  0.2802611E-005  0.1129246E+03  0.7546771E-02  0.1261751E+00
          1   -1    0    0  502    0  0.00000000000E+00  0.00000000000E+00  0.47539816262E+03  0.47539816262E+03  0.00000000000E+00 0. -1.
         -2   -1    0    0    0  501 -0.00000000000E+00 -0.00000000000E+00 -0.60797637764E+02  0.60797637764E+02  0.00000000000E+00 0.  1.
         23    2    1    2    0    0 -0.77607270340E+02  0.53199518236E+02  0.77684644743E+02  0.15322153354E+03  0.92676087318E+02 0.  0.
        -24    2    1    2    0    0  0.57613433397E+02 -0.15971120328E+02  0.32513337226E+03  0.33910474875E+03  0.75537649390E+02 0.  0.
         13    1    4    4    0    0 -0.57948002713E+01 -0.28717264692E+02  0.13903030743E+03  0.14208338181E+03  0.00000000000E+00 0. -1.
        -14    1    4    4    0    0  0.63408233668E+02  0.12746144364E+02  0.18610306483E+03  0.19702136694E+03  0.00000000000E+00 0.  1.
        -13    1    3    3    0    0 -0.77971622840E+02 -0.88983889040E+00  0.46100319062E+02  0.90584795629E+02  0.00000000000E+00 0. -1.
         13    1    3    3    0    0  0.36435250001E+00  0.54089357126E+02  0.31584325680E+02  0.62636737908E+02  0.00000000000E+00 0.  1.
         21    1    1    2  502  501  0.19993836943E+02 -0.37228397908E+02  0.11782507848E+02  0.43869518092E+02  0.00000000000E+00 0. -1.
<scales pt_clust_5="13000.00000" pt_clust_6="13000.00000" pt_clust_7="13000.00000" pt_clust_8="13000.00000" pt_clust_9="42.25763"></scales>
<clustering>
<clus scale="   42.258">  2  9  1 -1</clus>
<clus scale="   75.538">  5  6 -1 -1</clus>
<clus scale="   92.676">  7  8 -1 -1</clus>
<clus scale="   99.343">  1  5  2 -1</clus>
<clus scale="   99.343">  1  5  2 -1</clus>
</clustering>
</event>
<event>
 9    1  0.2802611E-005  0.1219128E+03  0.7546771E-02  0.1253647E+00
          1   -1    0    0  502    0  0.00000000000E+00  0.00000000000E+00  0.41155860054E+03  0.41155860054E+03  0.00000000000E+00 0. -1.
         -2   -1    0    0    0  501 -0.00000000000E+00 -0.00000000000E+00 -0.11353117588E+03  0.11353117588E+03  0.00000000000E+00 0.  1.
        -24    2    1    2    0    0 -0.95910154656E+01  0.39497323448E+02 -0.36940401123E+02  0.96662252983E+02  0.79542264109E+02 0.  0.
         23    2    1    2    0    0 -0.52708387437E+02 -0.14810325794E+02  0.33900979090E+03  0.36129332249E+03  0.11228404471E+03 0.  0.
         11    1    3    3    0    0 -0.39958537314E+02  0.32036463210E+02 -0.41994454421E+01  0.51387304087E+02  0.00000000000E+00 0. -1.
        -12    1    3    3    0    0  0.30367521849E+02  0.74608602377E+01 -0.32740955681E+02  0.45274948897E+02  0.00000000000E+00 0.  1.
        -11    1    4    4    0    0 -0.58745501185E+02 -0.57227532331E+02  0.21713986830E+03  0.23211149642E+03  0.00000000000E+00 0. -1.
         11    1    4    4    0    0  0.60371137475E+01  0.42417206537E+02  0.12186992259E+03  0.12918182607E+03  0.00000000000E+00 0.  1.
         21    1    1    2  502  501  0.62299402903E+02 -0.24686997654E+02 -0.40419651183E+01  0.67134200950E+02  0.00000000000E+00 0.  1.
<scales pt_clust_5="13000.00000" pt_clust_6="13000.00000" pt_clust_7="13000.00000" pt_clust_8="13000.00000" pt_clust_9="67.01241"></scales>
<clustering>
<clus scale="   67.012">  2  9  1 -1</clus>
<clus scale="   79.542">  5  6 -1 -1</clus>
<clus scale="   92.639">  2  5  1 -1</clus>
<clus scale="  112.284">  7  8 -1 -1</clus>
<clus scale="  121.913">  1  5  2 -1</clus>
</clustering>
</event>
<event>
 9    1  0.2802611E-005  0.2186818E+03  0.7546771E-02  0.1135780E+00
         -2   -1    0    0    0  501 -0.00000000000E+00  0.00000000000E+00  0.88498515209E+02  0.88498515209E+02  0.00000000000E+00 0.  1.
          1   -1    0    0  502    0  0.00000000000E+00 -0.00000000000E+00 -0.90069010841E+03  0.90069010841E+03  0.00000000000E+00 0. -1.
        -24    2    1    2    0    0 -0.19220626240E+03 -0.99837246165E+02 -0.32291529722E+03  0.39694575488E+03  0.79880661680E+02 0.  0.
         23    2    1    2    0    0  0.12154827010E+03  0.15044804190E+03 -0.44687428588E+03  0.49553746567E+03  0.91935614559E+02 0.  0.
         11    1    3    3    0    0 -0.96017199569E+02 -0.77621415710E+01 -0.15712823501E+03  0.18430636368E+03  0.00000000000E+00 0. -1.
        -12    1    3    3    0    0 -0.96189062835E+02 -0.92075104594E+02 -0.16578706221E+03  0.21263939120E+03  0.00000000000E+00 0.  1.
        -13    1    4    4    0    0  0.62632339929E+02  0.35519398511E+02 -0.85507259093E+02  0.11178519147E+03  0.00000000000E+00 0.  1.
         13    1    4    4    0    0  0.58915930169E+02  0.11492864339E+03 -0.36136702679E+03  0.38375227420E+03  0.00000000000E+00 0. -1.
         21    1    1    2  502  501  0.70657992307E+02 -0.50610795733E+02 -0.42402010090E+02  0.96705403061E+02  0.00000000000E+00 0.  1.
<scales pt_clust_5="13000.00000" pt_clust_6="13000.00000" pt_clust_7="13000.00000" pt_clust_8="13000.00000" pt_clust_9="86.91378"></scales>
<clustering>
<clus scale="   79.881">  5  6 -1 -1</clus>
<clus scale="   86.914">  1  9  2 -1</clus>
<clus scale="   91.936">  7  8 -1 -1</clus>
<clus scale="  213.894">  1  5  2 -1</clus>
<clus scale="  218.682">  2  5  1 -1</clus>
</clustering>
</event>
<event>
 9    1  0.2802611E-005  0.1359121E+03  0.7546771E-02  0.1220443E+00
         -2   -1    0    0    0  501 -0.00000000000E+00  0.00000000000E+00  0.19409749124E+03  0.19409749124E+03  0.00000000000E+00 0.  1.
          1   -1    0    0  502    0  0.00000000000E+00 -0.00000000000E+00 -0.39342011612E+03  0.39342011612E+03  0.00000000000E+00 0. -1.
         23    2    1    2    0    0 -0.65215365772E+02  0.50606693608E+02  0.19968183915E+02  0.12367183692E+03  0.89899463339E+02 0.  0.
        -24    2    1    2    0    0  0.90274569555E+02 -0.54811124423E+02 -0.32677901360E+03  0.35339507961E+03  0.83365468251E+02 0.  0.
         13    1    4    4    0    0  0.24705785245E+02 -0.40366407986E+02 -0.51064451659E+02  0.69623278733E+02  0.00000000000E+00 0. -1.
        -14    1    4    4    0    0  0.65568784311E+02 -0.14444716437E+02 -0.27571456194E+03  0.28377180088E+03  0.00000000000E+00 0.  1.
        -11    1    3    3    0    0 -0.51184748495E+02 -0.15970232109E+02  0.13722471925E+02  0.55346481621E+02  0.00000000000E+00 0.  1.
         11    1    3    3    0    0 -0.14030617277E+02  0.66576925716E+02  0.62457119900E+01  0.68325355303E+02  0.00000000000E+00 0. -1.
         21    1    1    2  502  501 -0.25059203783E+02  0.42044308155E+01  0.10748820480E+03  0.11045069082E+03  0.00000000000E+00 0.  1.
<scales pt_clust_5="13000.00000" pt_clust_6="13000.00000" pt_clust_7="13000.00000" pt_clust_8="13000.00000" pt_clust_9="25.40947"></scales>
<clustering>
<clus scale="   25.409">  1  9  2 -1</clus>
<clus scale="   83.365">  5  6 -1 -1</clus>
<clus scale="   89.899">  7  8 -1 -1</clus>
<clus scale="  131.681">  2  5  1 -1</clus>
<clus scale="  131.681">  2  5  1 -1</clus>
</clustering>
</event>
<event>
 9    1  0.2802611E-005  0.1739800E+03  0.7546771E-02  0.1174749E+00
          1   -1    0    0  502    0  0.00000000000E+00  0.00000000000E+00  0.81746370405E+03  0.81746370405E+03  0.00000000000E+00 0. -1.
         -2   -1    0    0    0  501 -0.00000000000E+00 -0.00000000000E+00 -0.69224816630E+02  0.69224816630E+02  0.00000000000E+00 0.  1.
        -24    2    1    2    0    0  0.93014526627E+02  0.14063392732E+03  0.13059392724E+03  0.22803530371E+03  0.80720023725E+02 0.  0.
         23    2    1    2    0    0 -0.10221394682E+03 -0.10373142879E+03  0.58229651714E+03  0.60673081184E+03  0.88572817008E+02 0.  0.
         11    1    3    3    0    0  0.94227820636E+02  0.13086675199E+03  0.14063857172E+03  0.21397242068E+03  0.00000000000E+00 0. -1.
        -12    1    3    3    0    0 -0.12132940086E+01  0.97671753309E+01 -0.10044644481E+02  0.14062883028E+02  0.00000000000E+00 0.  1.
        -13    1    4    4    0    0 -0.11189724333E+03 -0.63292641369E+02  0.45517879644E+03  0.47298487105E+03  0.00000000000E+00 0.  1.
         13    1    4    4    0    0  0.96832965118E+01 -0.40438787423E+02  0.12711772070E+03  0.13374594078E+03  0.00000000000E+00 0. -1.
         21    1    1    2  502  501  0.91994201931E+01 -0.36902498525E+02  0.35348443036E+02  0.51922405129E+02  0.00000000000E+00 0. -1.
<scales pt_clust_5="13000.00000" pt_clust_6="13000.00000" pt_clust_7="13000.00000" pt_clust_8="13000.00000" pt_clust_9="38.03188"></scales>
<clustering>
<clus scale="   38.032">  2  9  1 -1</clus>
<clus scale="   80.720">  5  6 -1 -1</clus>
<clus scale="   88.573">  7  8 -1 -1</clus>
<clus scale="  170.116">  2  5  1 -1</clus>
<clus scale="  173.980">  1  5  2 -1</clus>
</clustering>
</event>
<event>
 9    1  0.2802611E-005  0.1472876E+03  0.7546771E-02  0.1205683E+00
          1   -1    0    0  502    0  0.00000000000E+00  0.00000000000E+00  0.79631801406E+02  0.79631801406E+02  0.00000000000E+00 0. -1.
         -2   -1    0    0    0  501 -0.00000000000E+00 -0.00000000000E+00 -0.39717275077E+03  0.39717275077E+03  0.00000000000E+00 0.  1.
        -24    2    1    2    0    0 -0.96042719097E+02 -0.71221784285E+01 -0.21700203726E+03  0.25073929479E+03  0.80655938782E+02 0.  0.
         23    2    1    2    0    0  0.12473101979E+03  0.66840136192E+01 -0.40264718620E+02  0.15931056477E+03  0.90311157372E+02 0.  0.
         13    1    3    3    0    0 -0.23133760849E+02  0.16141983651E+02 -0.13759166483E+03  0.14045355374E+03  0.00000000000E+00 0. -1.
        -14    1    3    3    0    0 -0.72908958248E+02 -0.23264162080E+02 -0.79410372429E+02  0.11028574105E+03  0.00000000000E+00 0.  1.
        -13    1    4    4    0    0  0.68285758932E+02  0.12562090863E+02  0.24104438530E+02  0.73496768341E+02  0.00000000000E+00 0. -1.
         13    1    4    4    0    0  0.56445260863E+02 -0.58780772435E+01 -0.64369157150E+02  0.85813796433E+02  0.00000000000E+00 0.  1.
         21    1    1    2  502  501 -0.28688300698E+02  0.43816480931E+00 -0.60274193487E+02  0.66754692613E+02  0.00000000000E+00 0.  1.
<scales pt_clust_5="13000.00000" pt_clust_6="13000.00000" pt_clust_7="13000.00000" pt_clust_8="13000.00000" pt_clust_9="28.69165"></scales>
<clustering>
<clus scale="   28.692">  2  9  1 -1</clus>
<clus scale="   80.656">  5  6 -1 -1</clus>
<clus scale="   90.311">  7  8 -1 -1</clus>
<clus scale="  141.573">  2  5  1 -1</clus>
<clus scale="  147.288">  1  5  2 -1</clus>
</clustering>
</event>
<event>
 9    1  0.2802611E-005  0.2175115E+03  0.7546771E-02  0.1148909E+00
         -2   -1    0    0    0  501 -0.00000000000E+00  0.00000000000E+00  0.27749776196E+03  0.27749776196E+03  0.00000000000E+00 0.  1.
          1   -1    0    0  502    0  0.00000000000E+00 -0.00000000000E+00 -0.35858962365E+03  0.35858962365E+03  0.00000000000E+00 0. -1.
         23    2    1    2    0    0 -0.13413442091E+03 -0.52582954158E+01 -0.13780140384E+03  0.21231214871E+03  0.89819424657E+02 0.  0.
        -24    2    1    2    0    0 -0.60069638456E+02 -0.11951007037E+03 -0.54336443484E+02  0.16762377253E+03  0.85171953375E+02 0.  0.
         13    1    4    4    0    0 -0.65019901001E+02 -0.12903947660E+03 -0.58791975902E+02  0.15599766177E+03  0.00000000000E+00 0. -1.
        -14    1    4    4    0    0  0.49502625449E+01  0.95294062259E+01  0.44555324179E+01  0.11626110760E+02  0.00000000000E+00 0.  1.
        -13    1    3    3    0    0 -0.42884835329E+02  0.17592261867E+02 -0.10916681006E+01  0.46365811953E+02  0.00000000000E+00 0. -1.
         13    1    3    3    0    0 -0.91249585577E+02 -0.22850557283E+02 -0.13670973574E+03  0.16594633676E+03  0.00000000000E+00 0.  1.
         21    1    1    2  502  501  0.19420405936E+03  0.12476836579E+03  0.11104598564E+03  0.25615146438E+03  0.00000000000E+00 0.  1.
<scales pt_clust_5="13000.00000" pt_clust_6="13000.00000" pt_clust_7="13000.00000" pt_clust_8="13000.00000" pt_clust_9="198.10026"></scales>
<clustering>
<clus scale="   85.172">  5  6 -1 -1</clus>
<clus scale="   89.819">  7  8 -1 -1</clus>
<clus scale="  158.573">  2  5  1 -1</clus>
<clus scale="  198.100">  1  9  2 -1</clus>
<clus scale="  158.573">  2  5  1 -1</clus>
</clustering>
</event>
<event>
 9    1  0.2802611E-005  0.2100774E+03  0.7546771E-02  0.1144789E+00
         -2   -1    0    0    0  501 -0.00000000000E+00  0.00000000000E+00  0.13730057810E+03  0.13730057810E+03  0.00000000000E+00 0.  1.
          1   -1    0    0  502    0  0.00000000000E+00 -0.00000000000E+00 -0.46350594832E+03  0.46350594832E+03  0.00000000000E+00 0. -1.
        -24    2    1    2    0    0  0.13360008667E+03  0.18035035453E+03 -0.17310522179E+03  0.29427001509E+03  0.79083439705E+02 0.  0.
         23    2    1    2    0    0 -0.90049238337E+02 -0.10468139779E+03 -0.10577486929E+03  0.20722815594E+03  0.11264157878E+03 0.  0.
         13    1    3    3    0    0  0.77602187322E+02  0.92384467310E+02 -0.44259380320E+02  0.12851413161E+03  0.00000000000E+00 0. -1.
        -14    1    3    3    0    0  0.55997899350E+02  0.87965887220E+02 -0.12884584147E+03  0.16575588348E+03  0.00000000000E+00 0.  1.
        -13    1    4    4    0    0 -0.72370437042E+02 -0.40891222478E+02 -0.11339247149E+03  0.14059667430E+03  0.00000000000E+00 0. -1.
         13    1    4    4    0    0 -0.17678801294E+02 -0.63790175315E+02  0.76176021980E+01  0.66631481638E+02  0.00000000000E+00 0.  1.
         21    1    1    2  502  501 -0.43550848335E+02 -0.75668956737E+02 -0.47325279146E+02  0.99308355392E+02  0.00000000000E+00 0. -1.
<scales pt_clust_5="13000.00000" pt_clust_6="13000.00000" pt_clust_7="13000.00000" pt_clust_8="13000.00000" pt_clust_9="87.30674"></scales>
<clustering>
<clus scale="   79.083">  5  6 -1 -1</clus>
<clus scale="   87.307">  1  9  2 -1</clus>
<clus scale="  112.642">  7  8 -1 -1</clus>
<clus scale="  194.161">  1  5  2 -1</clus>
<clus scale="  210.077">  2  5  1 -1</clus>
</clustering>
</event>
<event>
 9    1  0.2802611E-005  0.9194297E+02  0.7546771E-02  0.1307063E+00
          1   -1    0    0  502    0  0.00000000000E+00  0.00000000000E+00  0.10975772875E+03  0.10975772875E+03  0.00000000000E+00 0. -1.
         -2   -1    0    0    0  501 -0.00000000000E+00 -0.00000000000E+00 -0.21007817565E+03  0.21007817565E+03  0.00000000000E+00 0.  1.
        -24    2    1    2    0    0 -0.12332827410E+02 -0.92082194825E+01 -0.16192741822E+03  0.17980100367E+03  0.76622595973E+02 0.  0.
         23    2    1    2    0    0 -0.71088996055E+01  0.15330073494E+02  0.72157457578E+02  0.11708341698E+03  0.90643699400E+02 0.  0.
         13    1    3    3    0    0 -0.41262880567E+02  0.90275514010E+01 -0.70472545713E+02  0.82161436795E+02  0.00000000000E+00 0. -1.
        -14    1    3    3    0    0  0.28930053157E+02 -0.18235770883E+02 -0.91454872506E+02  0.97639566880E+02  0.00000000000E+00 0.  1.
        -13    1    4    4    0    0  0.14778406972E+02  0.48570094900E+02  0.29387924974E+02  0.58660937305E+02  0.00000000000E+00 0. -1.
         13    1    4    4    0    0 -0.21887306578E+02 -0.33240021406E+02  0.42769532604E+02  0.58422479676E+02  0.00000000000E+00 0.  1.
         21    1    1    2  502  501  0.19441727016E+02 -0.61218540120E+01 -0.10550486259E+02  0.22951483747E+02  0.00000000000E+00 0.  1.
<scales pt_clust_5="13000.00000" pt_clust_6="13000.00000" pt_clust_7="13000.00000" pt_clust_8="13000.00000" pt_clust_9="20.38278"></scales>
<clustering>
<clus scale="   20.383">  2  9  1 -1</clus>
<clus scale="   76.623">  5  6 -1 -1</clus>
<clus scale="   78.155">  2  5  1 -1</clus>
<clus scale="   90.644">  7  8 -1 -1</clus>
<clus scale="   91.943">  1  5  2 -1</clus>
</clustering>
</event>
<event>
 9    1  0.2802611E-005  0.9441675E+02  0.7546771E-02  0.1299474E+00
         -4   -1    0    0    0  501 -0.00000000000E+00  0.00000000000E+00  0.42087371670E+02  0.42087371670E+02  0.00000000000E+00 0.  1.
          3   -1    0    0  502    0  0.00000000000E+00 -0.00000000000E+00 -0.35211123428E+03  0.35211123428E+03  0.00000000000E+00 0. -1.
         23    2    1    2    0    0 -0.69998201580E+01 -0.85633833188E+01 -0.37943486841E+02  0.99001979615E+02  0.90770891579E+02 0.  0.
        -24    2    1    2    0    0  0.59736586231E+01  0.28933840332E+02 -0.25523262331E+03  0.26874184814E+03  0.78775867026E+02 0.  0.
         13    1    4    4    0    0  0.31582655740E+02 -0.12612987011E+02 -0.12886592070E+03  0.13327781925E+03  0.00000000000E+00 0. -1.
        -14    1    4    4    0    0 -0.25608997116E+02  0.41546827343E+02 -0.12636670261E+03  0.13546402889E+03  0.00000000000E+00 0.  1.
        -13    1    3    3    0    0 -0.28252359428E+02 -0.27270006380E+02 -0.53758304663E+02  0.66571798695E+02  0.00000000000E+00 0.  1.
         13    1    3    3    0    0  0.21252539270E+02  0.18706623061E+02  0.15814817822E+02  0.32430180920E+02  0.00000000000E+00 0. -1.
         21    1    1    2  502  501  0.10261615350E+01 -0.20370457013E+02 -0.16847752458E+02  0.26454778194E+02  0.00000000000E+00 0. -1.
<scales pt_clust_5="13000.00000" pt_clust_6="13000.00000" pt_clust_7="13000.00000" pt_clust_8="13000.00000" pt_clust_9="20.39629"></scales>
<clustering>
<clus scale="   20.396">  1  9  2 -1</clus>
<clus scale="   78.776">  5  6 -1 -1</clus>
<clus scale="   82.951">  2  5  1 -1</clus>
<clus scale="   90.771">  7  8 -1 -1</clus>
<clus scale="   82.951">  2  5  1 -1</clus>
</clustering>
</event>
<event>
 9    1  0.2802611E-005  0.8701976E+02  0.7546771E-02  0.1315101E+00
          1   -1    0    0  502    0  0.00000000000E+00  0.00000000000E+00  0.92623933792E+02  0.92623933792E+02  0.00000000000E+00 0. -1.
         -2   -1    0    0    0  501 -0.00000000000E+00 -0.00000000000E+00 -0.16016999244E+03  0.16016999244E+03  0.00000000000E+00 0.  1.
        -24    2    1    2    0    0 -0.33648841531E+02  0.29690459065E+02 -0.62189845530E+02  0.10935047736E+03  0.77949869245E+02 0.  0.
         23    2    1    2    0    0 -0.13172328457E+02 -0.11004195939E+02  0.16178487948E+02  0.88624275783E+02  0.85427842186E+02 0.  0.
         11    1    3    3    0    0 -0.30120760457E+02  0.36148639359E+02 -0.32970538906E+00  0.47054150122E+02  0.00000000000E+00 0. -1.
        -12    1    3    3    0    0 -0.35280810741E+01 -0.64581802933E+01 -0.61860140141E+02  0.62296327236E+02  0.00000000000E+00 0.  1.
        -13    1    4    4    0    0 -0.46566676972E+02 -0.22334008740E+02  0.64767174142E+01  0.52050083757E+02  0.00000000000E+00 0.  1.
         13    1    4    4    0    0  0.33394348515E+02  0.11329812801E+02  0.97017705334E+01  0.36574192026E+02  0.00000000000E+00 0. -1.
         21    1    1    2  502  501  0.46821169988E+02 -0.18686263126E+02 -0.21534701069E+02  0.54819173095E+02  0.00000000000E+00 0.  1.
<scales pt_clust_5="13000.00000" pt_clust_6="13000.00000" pt_clust_7="13000.00000" pt_clust_8="13000.00000" pt_clust_9="50.41228"></scales>
<clustering>
<clus scale="   50.412">  2  9  1 -1</clus>
<clus scale="   77.950">  5  6 -1 -1</clus>
<clus scale="   79.691">  2  5  1 -1</clus>
<clus scale="   85.428">  7  8 -1 -1</clus>
<clus scale="   87.020">  1  5  2 -1</clus>
</clustering>
</event>
<event>
 9    1  0.2802611E-005  0.1212247E+03  0.7546771E-02  0.1245268E+00
         -2   -1    0    0    0  501 -0.00000000000E+00  0.00000000000E+00  0.47296545110E+02  0.47296545110E+02  0.00000000000E+00 0.  1.
          1   -1    0    0  502    0  0.00000000000E+00 -0.00000000000E+00 -0.51934575873E+03  0.51934575873E+03  0.00000000000E+00 0. -1.
        -24    2    1    2    0    0 -0.22902763046E+02  0.91895049937E+02 -0.19736150508E+03  0.23237807963E+03  0.77966476442E+02 0.  0.
         23    2    1    2    0    0 -0.17782443757E+01 -0.70806323347E+02 -0.27851358846E+03  0.30157594077E+03  0.91441410301E+02 0.  0.
         11    1    3    3    0    0  0.24712813779E+02  0.33513775060E+02 -0.10647290155E+03  0.11432574097E+03  0.00000000000E+00 0. -1.
        -12    1    3    3    0    0 -0.47615576825E+02  0.58381274877E+02 -0.90888603533E+02  0.11805233867E+03  0.00000000000E+00 0.  1.
        -11    1    4    4    0    0 -0.17659537136E+02 -0.87804401894E+02 -0.24432815624E+03  0.26022628648E+03  0.00000000000E+00 0.  1.
         11    1    4    4    0    0  0.15881292760E+02  0.16998078548E+02 -0.34185432215E+02  0.41349654288E+02  0.00000000000E+00 0. -1.
         21    1    1    2  502  501  0.24681007421E+02 -0.21088726590E+02  0.38258799214E+01  0.32688283432E+02  0.00000000000E+00 0.  1.
<scales pt_clust_5="13000.00000" pt_clust_6="13000.00000" pt_clust_7="13000.00000" pt_clust_8="13000.00000" pt_clust_9="32.46362"></scales>
<clustering>
<clus scale="   32.464">  1  9  2 -1</clus>
<clus scale="   77.966">  5  6 -1 -1</clus>
<clus scale="   91.441">  7  8 -1 -1</clus>
<clus scale="  111.412">  1  5  2 -1</clus>
<clus scale="  121.225">  2  5  1 -1</clus>
</clustering>
</event>
<event>
 9    1  0.2802611E-005  0.2276824E+03  0.7546771E-02  0.1128931E+00
         -2   -1    0    0    0  501 -0.00000000000E+00  0.00000000000E+00  0.66675774146E+02  0.66675774146E+02  0.00000000000E+00 0.  1.
          1   -1    0    0  502    0  0.00000000000E+00 -0.00000000000E+00 -0.96032482585E+03  0.96032482585E+03  0.00000000000E+00 0. -1.
        -24    2    1    2    0    0  0.11250183049E+03 -0.15597619290E+03 -0.25612111622E+03  0.33053526509E+03  0.81671908787E+02 0.  0.
         23    2    1    2    0    0 -0.14347059053E+03  0.16511497703E+03 -0.60864316760E+03  0.65314200066E+03  0.91110930056E+02 0.  0.
         11    1    3    3    0    0  0.39015146331E+01 -0.64264398667E+02 -0.10418935834E+03  0.12247676165E+03  0.00000000000E+00 0. -1.
        -12    1    3    3    0    0  0.10860031585E+03 -0.91711794230E+02 -0.15193175787E+03  0.20805850344E+03  0.00000000000E+00 0.  1.
        -11    1    4    4    0    0 -0.54743585685E+02  0.88164756185E+02 -0.17112289530E+03  0.20013228051E+03  0.00000000000E+00 0.  1.
         11    1    4    4    0    0 -0.88727004842E+02  0.76950220842E+02 -0.43752027230E+03  0.45300972015E+03  0.00000000000E+00 0. -1.
         21    1    1    2  502  501  0.30968760041E+02 -0.91387841302E+01 -0.28884767883E+02  0.43323334238E+02  0.00000000000E+00 0.  1.
<scales pt_clust_5="13000.00000" pt_clust_6="13000.00000" pt_clust_7="13000.00000" pt_clust_8="13000.00000" pt_clust_9="32.28903"></scales>
<clustering>
<clus scale="   32.289">  1  9  2 -1</clus>
<clus scale="   81.672">  5  6 -1 -1</clus>
<clus scale="   91.111">  7  8 -1 -1</clus>
<clus scale="  224.072">  1  5  2 -1</clus>
<clus scale="  227.682">  2  5  1 -1</clus>
</clustering>
</event>
<event>
 9    1  0.2802611E-005  0.9790537E+02  0.7546771E-02  0.1287637E+00
         -2   -1    0    0    0  501 -0.00000000000E+00  0.00000000000E+00  0.83591751359E+02  0.83591751359E+02  0.00000000000E+00 0.  1.
          1   -1    0    0  502    0  0.00000000000E+00 -0.00000000000E+00 -0.33731471272E+03  0.33731471272E+03  0.00000000000E+00 0. -1.
        -24    2    1    2    0    0 -0.45606759411E+02  0.79745856516E+01  0.18998941127E+01  0.92919313523E+02  0.80540789093E+02 0.  0.
         23    2    1    2    0    0  0.36074309916E+02 -0.29914165098E+02 -0.27821938602E+03  0.29508098196E+03  0.86432320622E+02 0.  0.
         13    1    3    3    0    0 -0.55654995483E+02 -0.67207204635E+01 -0.24417561654E+02  0.61146250277E+02  0.00000000000E+00 0. -1.
        -14    1    3    3    0    0  0.10048236072E+02  0.14695306115E+02  0.26317455767E+02  0.31773063246E+02  0.00000000000E+00 0.  1.
        -11    1    4    4    0    0 -0.15219216187E+02  0.20929302487E+02 -0.82372717993E+02  0.86341907053E+02  0.00000000000E+00 0.  1.
         11    1    4    4    0    0  0.51293526104E+02 -0.50843467584E+02 -0.19584666802E+03  0.20873907490E+03  0.00000000000E+00 0. -1.
         21    1    1    2  502  501  0.95324494942E+01  0.21939579446E+02  0.22596530540E+02  0.32906168602E+02  0.00000000000E+00 0. -1.
<scales pt_clust_5="13000.00000" pt_clust_6="13000.00000" pt_clust_7="13000.00000" pt_clust_8="13000.00000" pt_clust_9="23.92097"></scales>
<clustering>
<clus scale="   23.921">  1  9  2 -1</clus>
<clus scale="   80.541">  5  6 -1 -1</clus>
<clus scale="   86.432">  7  8 -1 -1</clus>
<clus scale="   92.746">  1  5  2 -1</clus>
<clus scale="   97.905">  2  5  1 -1</clus>
</clustering>
</event>
<event>
 9    1  0.2802611E-005  0.1008520E+03  0.7546771E-02  0.1284194E+00
         -2   -1    0    0    0  501 -0.00000000000E+00  0.00000000000E+00  0.39147025538E+02  0.39147025538E+02  0.00000000000E+00 0.  1.
          1   -1    0    0  502    0  0.00000000000E+00 -0.00000000000E+00 -0.55688297706E+03  0.55688297706E+03  0.00000000000E+00 0. -1.
        -24    2    1    2    0    0 -0.31897041510E+02 -0.22846570639E+02 -0.38344547760E+02  0.96716764713E+02  0.79652000519E+02 0.  0.
         23    2    1    2    0    0  0.51094693949E+02  0.41718712517E+02 -0.39588565466E+03  0.41157545963E+03  0.91201911646E+02 0.  0.
         13    1    3    3    0    0 -0.39574578073E+02  0.59015068111E+01 -0.50623789329E+02  0.64527072290E+02  0.00000000000E+00 0. -1.
        -14    1    3    3    0    0  0.76775365636E+01 -0.28748077450E+02  0.12279241570E+02  0.32189692423E+02  0.00000000000E+00 0.  1.
        -13    1    4    4    0    0  0.60326458263E+02 -0.55752878279E+01 -0.16640766140E+03  0.17709284337E+03  0.00000000000E+00 0.  1.
         13    1    4    4    0    0 -0.92317643140E+01  0.47294000345E+02 -0.22947799326E+03  0.23448261627E+03  0.00000000000E+00 0. -1.
         21    1    1    2  502  501 -0.19197652439E+02 -0.18872141878E+02 -0.83505749103E+02  0.87737778245E+02  0.00000000000E+00 0.  1.
<scales pt_clust_5="13000.00000" pt_clust_6="13000.00000" pt_clust_7="13000.00000" pt_clust_8="13000.00000" pt_clust_9="26.92039"></scales>
<clustering>
<clus scale="   26.920">  2  9  1 -1</clus>
<clus scale="   79.652">  5  6 -1 -1</clus>
<clus scale="   90.542">  1  5  2 -1</clus>
<clus scale="   91.202">  7  8 -1 -1</clus>
<clus scale="   26.920">  2  5  1 -1</clus>
</clustering>
</event>
<event>
 9    1  0.2802611E-005  0.1376939E+03  0.7546771E-02  0.1231719E+00
         -2   -1    0    0    0  501 -0.00000000000E+00  0.00000000000E+00  0.14218700068E+03  0.14218700068E+03  0.00000000000E+00 0.  1.
          1   -1    0    0  502    0  0.00000000000E+00 -0.00000000000E+00 -0.41116994415E+03  0.41116994415E+03  0.00000000000E+00 0. -1.
         23    2    1    2    0    0 -0.11396956238E+01 -0.41532802880E+02  0.69910349317E+02  0.12216028553E+03  0.91155942197E+02 0.  0.
        -24    2    1    2    0    0  0.27494725426E+02 -0.78776285480E+02 -0.70549118761E+02  0.13593836548E+03  0.80872726995E+02 0.  0.
         11    1    4    4    0    0  0.47477592678E+02 -0.19547892293E+02 -0.18429164502E+02  0.54551590297E+02  0.00000000000E+00 0. -1.
        -12    1    4    4    0    0 -0.19982867252E+02 -0.59228393187E+02 -0.52119954259E+02  0.81386775185E+02  0.00000000000E+00 0.  1.
        -13    1    3    3    0    0 -0.46560830628E+01 -0.70481033593E+02  0.44516925779E+02  0.83492585818E+02  0.00000000000E+00 0.  1.
         13    1    3    3    0    0  0.35163874391E+01  0.28948230713E+02  0.25393423538E+02  0.38667699712E+02  0.00000000000E+00 0. -1.
         21    1    1    2  502  501 -0.26355029802E+02  0.12030908836E+03 -0.26834417402E+03  0.29525829382E+03  0.00000000000E+00 0. -1.
<scales pt_clust_5="13000.00000" pt_clust_6="13000.00000" pt_clust_7="13000.00000" pt_clust_8="13000.00000" pt_clust_9="111.44146"></scales>
<clustering>
<clus scale="   80.873">  5  6 -1 -1</clus>
<clus scale="   91.156">  7  8 -1 -1</clus>
<clus scale="  100.178">  1  7  2 -1</clus>
<clus scale="  111.441">  2  9  1 -1</clus>
<clus scale="  111.441">  2  5  1 -1</clus>
</clustering>
</event>
<event>
 9    1  0.2802611E-005  0.9903330E+02  0.7546771E-02  0.1288912E+00
         -2   -1    0    0    0  501 -0.00000000000E+00  0.00000000000E+00  0.11657814676E+03  0.11657814676E+03  0.00000000000E+00 0.  1.
          1   -1    0    0  502    0  0.00000000000E+00 -0.00000000000E+00 -0.13577232392E+03  0.13577232392E+03  0.00000000000E+00 0. -1.
        -24    2    1    2    0    0  0.16905345085E+02  0.25720760659E+01  0.30972296968E+02  0.86668386418E+02  0.79118390764E+02 0.  0.
         23    2    1    2    0    0 -0.33970881053E+02  0.39132907792E+02 -0.57515516863E+02  0.12002524879E+03  0.91720338183E+02 0.  0.
         11    1    3    3    0    0  0.45149181437E+02  0.13041712977E+02  0.56818143567E+01  0.47337277870E+02  0.00000000000E+00 0. -1.
        -12    1    3    3    0    0 -0.28243836351E+02 -0.10469636911E+02  0.25290482611E+02  0.39331108548E+02  0.00000000000E+00 0.  1.
        -11    1    4    4    0    0 -0.16814565317E+02  0.60609409276E+02 -0.66084646549E+02  0.91232727731E+02  0.00000000000E+00 0. -1.
         11    1    4    4    0    0 -0.17156315735E+02 -0.21476501485E+02  0.85691296863E+01  0.28792521064E+02  0.00000000000E+00 0.  1.
         21    1    1    2  502  501  0.17065535967E+02 -0.41704983857E+02  0.73490427325E+01  0.45656835474E+02  0.00000000000E+00 0.  1.
<scales pt_clust_5="13000.00000" pt_clust_6="13000.00000" pt_clust_7="13000.00000" pt_clust_8="13000.00000" pt_clust_9="45.06149"></scales>
<clustering>
<clus scale="   45.061">  1  9  2 -1</clus>
<clus scale="   79.118">  5  6 -1 -1</clus>
<clus scale="   87.491">  1  5  2 -1</clus>
<clus scale="   91.720">  7  8 -1 -1</clus>
<clus scale="   99.033">  2  5  1 -1</clus>
</clustering>
</event>
<event>
 9    1  0.2802611E-005  0.9653724E+02  0.7546771E-02  0.1292859E+00
         -2   -1    0    0    0  501 -0.00000000000E+00  0.00000000000E+00  0.55819345291E+03  0.55819345291E+03  0.00000000000E+00 0.  1.
          1   -1    0    0  502    0  0.00000000000E+00 -0.00000000000E+00 -0.72043863728E+02  0.72043863728E+02  0.00000000000E+00 0. -1.
        -24    2    1    2    0    0 -0.94504302315E+01  0.12023425454E+01  0.38324320539E+03  0.39220764134E+03  0.82829482628E+02 0.  0.
         23    2    1    2    0    0 -0.32488774328E+01  0.31659198081E+02 -0.28863408293E+02  0.10163161309E+03  0.92103357229E+02 0.  0.
         13    1    3    3    0    0 -0.46082019999E+02  0.43586375276E+01  0.23048465536E+03  0.23508663647E+03  0.00000000000E+00 0. -1.
        -14    1    3    3    0    0  0.36631589768E+02 -0.31562949821E+01  0.15275855003E+03  0.15712100487E+03  0.00000000000E+00 0.  1.
        -11    1    4    4    0    0  0.21166916706E+02 -0.15786912265E+02  0.16887048352E+02  0.31343856874E+02  0.00000000000E+00 0.  1.
         11    1    4    4    0    0 -0.24415794139E+02  0.47446110346E+02 -0.45750456644E+02  0.70287756214E+02  0.00000000000E+00 0. -1.
         21    1    1    2  502  501  0.12699307664E+02 -0.32861540626E+02  0.13176979209E+03  0.13639806221E+03  0.00000000000E+00 0.  1.
<scales pt_clust_5="13000.00000" pt_clust_6="13000.00000" pt_clust_7="13000.00000" pt_clust_8="13000.00000" pt_clust_9="35.23001"></scales>
<clustering>
<clus scale="   35.230">  1  9  2 -1</clus>
<clus scale="   82.829">  5  6 -1 -1</clus>
<clus scale="   87.733">  1  5  2 -1</clus>
<clus scale="   92.103">  7  8 -1 -1</clus>
<clus scale="   96.537">  2  5  1 -1</clus>
</clustering>
</event>
<event>
 9    1  0.2802611E-005  0.1024756E+03  0.7546771E-02  0.1280782E+00
          1   -1    0    0  502    0  0.00000000000E+00  0.00000000000E+00  0.64802978440E+03  0.64802978440E+03  0.00000000000E+00 0. -1.
         -2   -1    0    0    0  501 -0.00000000000E+00 -0.00000000000E+00 -0.13755673875E+03  0.13755673875E+03  0.00000000000E+00 0.  1.
         23    2    1    2    0    0  0.15639185442E+02  0.33654878816E+02 -0.77173524701E+02  0.12519264623E+03  0.91324754403E+02 0.  0.
        -24    2    1    2    0    0  0.15439649738E+02 -0.44558372223E+02  0.61231178341E+03  0.61924593772E+03  0.79473139878E+02 0.  0.
         11    1    4    4    0    0  0.11691143169E+02 -0.66783435349E+02  0.39588001237E+03  0.40164374047E+03  0.00000000000E+00 0. -1.
        -12    1    4    4    0    0  0.37485065694E+01  0.22225063126E+02  0.21643177105E+03  0.21760219726E+03  0.00000000000E+00 0.  1.
        -11    1    3    3    0    0  0.31321360616E+02  0.59497054043E+02 -0.44224569390E+02  0.80478193372E+02  0.00000000000E+00 0. -1.
         11    1    3    3    0    0 -0.15682175175E+02 -0.25842175227E+02 -0.32948955311E+02  0.44714452862E+02  0.00000000000E+00 0.  1.
         21    1    1    2  502  501 -0.31078835180E+02  0.10903493407E+02 -0.24665213060E+02  0.41147939194E+02  0.00000000000E+00 0.  1.
<scales pt_clust_5="13000.00000" pt_clust_6="13000.00000" pt_clust_7="13000.00000" pt_clust_8="13000.00000" pt_clust_9="32.93600"></scales>
<clustering>
<clus scale="   32.936">  2  9  1 -1</clus>
<clus scale="   79.473">  5  6 -1 -1</clus>
<clus scale="   91.325">  7  8 -1 -1</clus>
<clus scale="   92.071">  1  5  2 -1</clus>
<clus scale="   92.071">  1  5  2 -1</clus>
</clustering>
</event>
<event>
 9    1  0.2802611E-005  0.9696750E+02  0.7546771E-02  0.1294976E+00
          1   -1    0    0  502    0  0.00000000000E+00  0.00000000000E+00  0.41164601324E+03  0.41164601324E+03  0.00000000000E+00 0. -1.
         -2   -1    0    0    0  501 -0.00000000000E+00 -0.00000000000E+00 -0.10305620834E+03  0.10305620834E+03  0.00000000000E+00 0.  1.
        -24    2    1    2    0    0 -0.49773603732E+02 -0.29672999525E+02  0.67126938124E+02  0.11847749270E+03  0.78568390116E+02 0.  0.
         23    2    1    2    0    0  0.14393228903E+02  0.12468943729E+02  0.30614070584E+03  0.32052153657E+03  0.93001527051E+02 0.  0.
         11    1    3    3    0    0 -0.13578218518E+02  0.24888512181E+02  0.36432494097E+02  0.46164192648E+02  0.00000000000E+00 0. -1.
        -12    1    3    3    0    0 -0.36195385214E+02 -0.54561511706E+02  0.30694444027E+02  0.72313300053E+02  0.00000000000E+00 0.  1.
        -13    1    4    4    0    0  0.34560804292E+02 -0.29518723831E+02  0.11199898844E+03  0.12087008588E+03  0.00000000000E+00 0.  1.
         13    1    4    4    0    0 -0.20167575389E+02  0.41987667560E+02  0.19414171740E+03  0.19965145068E+03  0.00000000000E+00 0. -1.
         21    1    1    2  502  501  0.35380374829E+02  0.17204055797E+02 -0.64677839070E+02  0.75703192308E+02  0.00000000000E+00 0.  1.
<scales pt_clust_5="13000.00000" pt_clust_6="13000.00000" pt_clust_7="13000.00000" pt_clust_8="13000.00000" pt_clust_9="39.34146"></scales>
<clustering>
<clus scale="   39.341">  2  9  1 -1</clus>
<clus scale="   78.568">  5  6 -1 -1</clus>
<clus scale="   83.225">  2  5  1 -1</clus>
<clus scale="   93.002">  7  8 -1 -1</clus>
<clus scale="   96.967">  1  5  2 -1</clus>
</clustering>
</event>
<event>
 9    1  0.2802611E-005  0.1335012E+03  0.7546771E-02  0.1224896E+00
          1   -1    0    0  502    0  0.00000000000E+00  0.00000000000E+00  0.17046397841E+03  0.17046397841E+03  0.00000000000E+00 0. -1.
         -2   -1    0    0    0  501 -0.00000000000E+00 -0.00000000000E+00 -0.29298569900E+03  0.29298569900E+03  0.00000000000E+00 0.  1.
        -24    2    1    2    0    0 -0.44275336991E+00  0.13352557569E+03 -0.89151498769E+02  0.17893558896E+03  0.78997973825E+02 0.  0.
         23    2    1    2    0    0  0.24355729544E+02 -0.87724111522E+02  0.86287602283E+02  0.15417760309E+03  0.89646314378E+02 0.  0.
         11    1    3    3    0    0 -0.31948803362E+00  0.32974395088E+02  0.13141222540E+02  0.35497951122E+02  0.00000000000E+00 0. -1.
        -12    1    3    3    0    0 -0.12326533629E+00  0.10055118060E+03 -0.10229272131E+03  0.14343763784E+03  0.00000000000E+00 0.  1.
        -13    1    4    4    0    0 -0.33275146295E+02 -0.23141480332E+02  0.20268301611E+02  0.45316305267E+02  0.00000000000E+00 0.  1.
         13    1    4    4    0    0  0.57630875839E+02 -0.64582631191E+02  0.66019300672E+02  0.10886129782E+03  0.00000000000E+00 0. -1.
         21    1    1    2  502  501 -0.23912976174E+02 -0.45801464170E+02 -0.11965782410E+03  0.13033648537E+03  0.00000000000E+00 0. -1.
<scales pt_clust_5="13000.00000" pt_clust_6="13000.00000" pt_clust_7="13000.00000" pt_clust_8="13000.00000" pt_clust_9="51.66822"></scales>
<clustering>
<clus scale="   51.668">  2  9  1 -1</clus>
<clus scale="   78.998">  5  6 -1 -1</clus>
<clus scale="   89.646">  7  8 -1 -1</clus>
<clus scale="  126.597">  2  5  1 -1</clus>
<clus scale="  133.501">  1  5  2 -1</clus>
</clustering>
</event>
<event>
 9    1  0.2802611E-005  0.1323340E+03  0.7546771E-02  0.1228223E+00
          3   -1    0    0  502    0  0.00000000000E+00  0.00000000000E+00  0.95250687782E+02  0.95250687782E+02  0.00000000000E+00 0. -1.
         -4   -1    0    0    0  501 -0.00000000000E+00 -0.00000000000E+00 -0.28356649702E+03  0.28356649702E+03  0.00000000000E+00 0.  1.
         23    2    1    2    0    0  0.30453166375E+01  0.84510217176E+02 -0.16425235577E+03  0.20805414756E+03  0.95689295028E+02 0.  0.
        -24    2    1    2    0    0  0.27028485609E+02 -0.90615031613E+02  0.10987219690E+02  0.12417707336E+03  0.79734581983E+02 0.  0.
         11    1    4    4    0    0  0.44749276065E+02 -0.41408295329E+02  0.30729260208E+02  0.68274680983E+02  0.00000000000E+00 0. -1.
        -12    1    4    4    0    0 -0.17720790455E+02 -0.49206736284E+02 -0.19742040518E+02  0.55902392381E+02  0.00000000000E+00 0.  1.
        -13    1    3    3    0    0  0.43966551501E+02  0.33792287937E+02 -0.42164080494E+02  0.69661941251E+02  0.00000000000E+00 0. -1.
         13    1    3    3    0    0 -0.40921234864E+02  0.50717929239E+02 -0.12208827527E+03  0.13839220631E+03  0.00000000000E+00 0.  1.
         21    1    1    2  502  501 -0.30073802247E+02  0.61048144370E+01 -0.35050673156E+02  0.46585963869E+02  0.00000000000E+00 0. -1.
<scales pt_clust_5="13000.00000" pt_clust_6="13000.00000" pt_clust_7="13000.00000" pt_clust_8="13000.00000" pt_clust_9="30.68717"></scales>
<clustering>
<clus scale="   30.687">  2  9  1 -1</clus>
<clus scale="   79.735">  5  6 -1 -1</clus>
<clus scale="   95.689">  7  8 -1 -1</clus>
<clus scale="  121.299">  1  5  2 -1</clus>
<clus scale="  121.299">  1  5  2 -1</clus>
</clustering>
</event>
<event>
 9    1  0.2802611E-005  0.1341211E+03  0.7546771E-02  0.1224454E+00
         -2   -1    0    0    0  501 -0.00000000000E+00  0.00000000000E+00  0.16769774108E+03  0.16769774108E+03  0.00000000000E+00 0.  1.
          1   -1    0    0  502    0  0.00000000000E+00 -0.00000000000E+00 -0.22641964639E+03  0.22641964639E+03  0.00000000000E+00 0. -1.
        -24    2    1    2    0    0 -0.68498187567E+02  0.13351759064E+03 -0.22596907158E+02  0.17177989691E+03  0.80490770032E+02 0.  0.
         23    2    1    2    0    0  0.47372498720E+02 -0.56092763117E+02 -0.67518497494E+02  0.13616063493E+03  0.92684514836E+02 0.  0.
         13    1    3    3    0    0  0.15191369113E+02  0.29462479614E+02 -0.18977952040E+02  0.38196571367E+02  0.00000000000E+00 0. -1.
        -14    1    3    3    0    0 -0.83689556680E+02  0.10405511103E+03 -0.36189551176E+01  0.13358332555E+03  0.00000000000E+00 0.  1.
        -13    1    4    4    0    0  0.19124614461E+02 -0.60984416162E+02 -0.12146012463E+01  0.63924370541E+02  0.00000000000E+00 0.  1.
         13    1    4    4    0    0  0.28247884259E+02  0.48916530448E+01 -0.66303896247E+02  0.72236264385E+02  0.00000000000E+00 0. -1.
         21    1    1    2  502  501  0.21125688847E+02 -0.77424827523E+02  0.31393499335E+02  0.86176855633E+02  0.00000000000E+00 0.  1.
<scales pt_clust_5="13000.00000" pt_clust_6="13000.00000" pt_clust_7="13000.00000" pt_clust_8="13000.00000" pt_clust_9="80.25521"></scales>
<clustering>
<clus scale="   80.255">  1  9  2 -1</clus>
<clus scale="   80.491">  5  6 -1 -1</clus>
<clus scale="   92.685">  7  8 -1 -1</clus>
<clus scale="  126.003">  1  5  2 -1</clus>
<clus scale="  134.121">  2  5  1 -1</clus>
</clustering>
</event>
<event>
 9    1  0.2802611E-005  0.1035147E+03  0.7546771E-02  0.1278084E+00
         -2   -1    0    0    0  501 -0.00000000000E+00  0.00000000000E+00  0.50419120585E+02  0.50419120585E+02  0.00000000000E+00 0.  1.
          1   -1    0    0  502    0  0.00000000000E+00 -0.00000000000E+00 -0.68682593384E+03  0.68682593384E+03  0.00000000000E+00 0. -1.
        -24    2    1    2    0    0  0.31485901504E+02  0.88709029816E+01 -0.47693003698E+01  0.87744395573E+02  0.81279012144E+02 0.  0.
         23    2    1    2    0    0 -0.33944824173E+02 -0.35848970479E+02 -0.59405241869E+03  0.60317030452E+03  0.92080075668E+02 0.  0.
         13    1    3    3    0    0 -0.17243673298E+02 -0.22205783115E+02  0.65095434207E+01  0.28858538218E+02  0.00000000000E+00 0. -1.
        -14    1    3    3    0    0  0.48729574802E+02  0.31076686097E+02 -0.11278843790E+02  0.58885857354E+02  0.00000000000E+00 0.  1.
        -11    1    4    4    0    0  0.31950916554E+02 -0.14567979374E+02 -0.18655351912E+03  0.18982966730E+03  0.00000000000E+00 0.  1.
         11    1    4    4    0    0 -0.65895740727E+02 -0.21280991105E+02 -0.40749889957E+03  0.41334063722E+03  0.00000000000E+00 0. -1.
         21    1    1    2  502  501  0.24589226688E+01  0.26978067497E+02 -0.37585094200E+02  0.46330354333E+02  0.00000000000E+00 0. -1.
<scales pt_clust_5="13000.00000" pt_clust_6="13000.00000" pt_clust_7="13000.00000" pt_clust_8="13000.00000" pt_clust_9="27.08990"></scales>
<clustering>
<clus scale="   27.090">  1  9  2 -1</clus>
<clus scale="   81.279">  5  6 -1 -1</clus>
<clus scale="   92.080">  7  8 -1 -1</clus>
<clus scale="   94.036">  1  5  2 -1</clus>
<clus scale="  103.515">  2  5  1 -1</clus>
</clustering>
</event>
<event>
 9    1  0.2802611E-005  0.1062106E+03  0.7546771E-02  0.1268198E+00
         -2   -1    0    0    0  501 -0.00000000000E+00  0.00000000000E+00  0.72582183471E+03  0.72582183471E+03  0.00000000000E+00 0.  1.
          1   -1    0    0  502    0  0.00000000000E+00 -0.00000000000E+00 -0.55172082759E+02  0.55172082759E+02  0.00000000000E+00 0. -1.
        -24    2    1    2    0    0  0.40188660433E+02  0.39582967117E+01  0.54509508024E+03  0.55486232378E+03  0.95460752663E+02 0.  0.
         23    2    1    2    0    0 -0.34689221912E+02 -0.29556504668E+02  0.94462159230E+01  0.10710770710E+03  0.96467097191E+02 0.  0.
         11    1    3    3    0    0  0.59870004120E+02 -0.25681247152E+02  0.28535597506E+03  0.29269775597E+03  0.00000000000E+00 0. -1.
        -12    1    3    3    0    0 -0.19681343686E+02  0.29639543864E+02  0.25973910519E+03  0.26216456781E+03  0.00000000000E+00 0.  1.
        -11    1    4    4    0    0 -0.18219790261E+02 -0.65053966936E+02  0.57434957507E+01  0.67800937417E+02  0.00000000000E+00 0. -1.
         11    1    4    4    0    0 -0.16469431652E+02  0.35497462268E+02  0.37027201724E+01  0.39306769685E+02  0.00000000000E+00 0.  1.
         21    1    1    2  502  501 -0.54994385210E+01  0.25598207956E+02  0.11610845578E+03  0.11902388659E+03  0.00000000000E+00 0.  1.
<scales pt_clust_5="13000.00000" pt_clust_6="13000.00000" pt_clust_7="13000.00000" pt_clust_8="13000.00000" pt_clust_9="26.18229"></scales>
<clustering>
<clus scale="   26.182">  1  9  2 -1</clus>
<clus scale="   95.461">  5  6 -1 -1</clus>
<clus scale="   96.467">  7  8 -1 -1</clus>
<clus scale="  105.297">  1  5  2 -1</clus>
<clus scale="  106.211">  2  5  1 -1</clus>
</clustering>
</event>
<event>
 9    1  0.2802611E-005  0.9679875E+02  0.7546771E-02  0.1292623E+00
         -4   -1    0    0    0  501 -0.00000000000E+00  0.00000000000E+00  0.40640927363E+03  0.40640927363E+03  0.00000000000E+00 0.  1.
          3   -1    0    0  502    0  0.00000000000E+00 -0.00000000000E+00 -0.67288445597E+02  0.67288445597E+02  0.00000000000E+00 0. -1.
        -24    2    1    2    0    0  0.47451772314E+02  0.17544047408E+02  0.27351855173E+03  0.28940773702E+03  0.79906043649E+02 0.  0.
         23    2    1    2    0    0 -0.33591054010E+02 -0.81574460258E+00 -0.18083375534E+02  0.97830489090E+02  0.90082028042E+02 0.  0.
         13    1    3    3    0    0  0.51117895476E+01 -0.29919189405E+02  0.73522989933E+02  0.79541928162E+02  0.00000000000E+00 0. -1.
        -14    1    3    3    0    0  0.42339982766E+02  0.47463236813E+02  0.19999556180E+03  0.20986580886E+03  0.00000000000E+00 0.  1.
        -13    1    4    4    0    0 -0.14358110380E+02  0.44394387840E+02 -0.13008696693E+02  0.48438034591E+02  0.00000000000E+00 0.  1.
         13    1    4    4    0    0 -0.19232943630E+02 -0.45210132443E+02 -0.50746788410E+01  0.49392454499E+02  0.00000000000E+00 0. -1.
         21    1    1    2  502  501 -0.13860718304E+02 -0.16728302805E+02  0.83685651837E+02  0.86459493117E+02  0.00000000000E+00 0. -1.
<scales pt_clust_5="13000.00000" pt_clust_6="13000.00000" pt_clust_7="13000.00000" pt_clust_8="13000.00000" pt_clust_9="21.72454"></scales>
<clustering>
<clus scale="   21.725">  1  9  2 -1</clus>
<clus scale="   79.906">  5  6 -1 -1</clus>
<clus scale="   87.408">  1  5  2 -1</clus>
<clus scale="   90.082">  7  8 -1 -1</clus>
<clus scale="   96.799">  2  5  1 -1</clus>
</clustering>
</event>
<event>
 9    1  0.2802611E-005  0.9658635E+02  0.7546771E-02  0.1296273E+00
         -4   -1    0    0    0  501 -0.00000000000E+00  0.00000000000E+00  0.15078439977E+03  0.15078439977E+03  0.00000000000E+00 0.  1.
          3   -1    0    0  502    0  0.00000000000E+00 -0.00000000000E+00 -0.44534996904E+03  0.44534996904E+03  0.00000000000E+00 0. -1.
        -24    2    1    2    0    0 -0.39106543345E+02 -0.33785872740E+02 -0.64794448090E+02  0.11432100218E+03  0.78741120812E+02 0.  0.
         23    2    1    2    0    0  0.18412080706E+02 -0.49796613318E+00 -0.34597717291E+03  0.35890084143E+03  0.93650184853E+02 0.  0.
         13    1    3    3    0    0 -0.17185521244E+01 -0.39557634739E+02 -0.65438078559E+02  0.76484652140E+02  0.00000000000E+00 0. -1.
        -14    1    3    3    0    0 -0.37387991221E+02  0.57717619984E+01  0.64363046925E+00  0.37836350039E+02  0.00000000000E+00 0.  1.
        -11    1    4    4    0    0 -0.77122733401E+01  0.43552332436E+02 -0.16026010544E+03  0.16625157508E+03  0.00000000000E+00 0.  1.
         11    1    4    4    0    0  0.26124354046E+02 -0.44050298570E+02 -0.18571706747E+03  0.19264926635E+03  0.00000000000E+00 0. -1.
         21    1    1    2  502  501  0.20694462640E+02  0.34283838873E+02  0.11620605173E+03  0.12291252519E+03  0.00000000000E+00 0.  1.
<scales pt_clust_5="13000.00000" pt_clust_6="13000.00000" pt_clust_7="13000.00000" pt_clust_8="13000.00000" pt_clust_9="40.04550"></scales>
<clustering>
<clus scale="   40.046">  1  9  2 -1</clus>
<clus scale="   78.741">  5  6 -1 -1</clus>
<clus scale="   82.211">  1  5  2 -1</clus>
<clus scale="   93.650">  7  8 -1 -1</clus>
<clus scale="   96.586">  2  5  1 -1</clus>
</clustering>
</event>
<event>
 9    1  0.2802611E-005  0.1154981E+03  0.7546771E-02  0.1254357E+00
         -2   -1    0    0    0  501 -0.00000000000E+00  0.00000000000E+00  0.95554722320E+02  0.95554722320E+02  0.00000000000E+00 0.  1.
          1   -1    0    0  502    0  0.00000000000E+00 -0.00000000000E+00 -0.48370929063E+03  0.48370929063E+03  0.00000000000E+00 0. -1.
         23    2    1    2    0    0 -0.15921488498E+02 -0.58721033653E+02  0.10841159122E+02  0.11016371910E+03  0.91196823883E+02 0.  0.
        -24    2    1    2    0    0 -0.17168773440E+02  0.13760608453E+03 -0.27661972798E+03  0.31978953761E+03  0.80725913906E+02 0.  0.
         13    1    4    4    0    0 -0.20285945568E+02  0.29407186106E+02 -0.14520455289E+03  0.14953482658E+03  0.00000000000E+00 0. -1.
        -14    1    4    4    0    0  0.31171721281E+01  0.10819889842E+03 -0.13141517509E+03  0.17025471102E+03  0.00000000000E+00 0.  1.
        -13    1    3    3    0    0 -0.38541784421E+02 -0.27942985246E+02  0.39944076944E+02  0.62143453828E+02  0.00000000000E+00 0.  1.
         13    1    3    3    0    0  0.22620295923E+02 -0.30778048407E+02 -0.29102917822E+02  0.48020265276E+02  0.00000000000E+00 0. -1.
         21    1    1    2  502  501  0.33090261938E+02 -0.78885050873E+02 -0.12237599945E+03  0.14931075624E+03  0.00000000000E+00 0.  1.
<scales pt_clust_5="13000.00000" pt_clust_6="13000.00000" pt_clust_7="13000.00000" pt_clust_8="13000.00000" pt_clust_9="85.54424"></scales>
<clustering>
<clus scale="   80.726">  5  6 -1 -1</clus>
<clus scale="   85.544">  2  9  1 -1</clus>
<clus scale="   91.197">  7  8 -1 -1</clus>
<clus scale="  107.423">  2  5  1 -1</clus>
<clus scale="   85.544">  2  5  1 -1</clus>
</clustering>
</event>
<event>
 9    1  0.2802611E-005  0.1244465E+03  0.7546771E-02  0.1253531E+00
         -4   -1    0    0    0  501 -0.00000000000E+00  0.00000000000E+00  0.31533449662E+03  0.31533449662E+03  0.00000000000E+00 0.  1.
          3   -1    0    0  502    0  0.00000000000E+00 -0.00000000000E+00 -0.22844767660E+03  0.22844767660E+03  0.00000000000E+00 0. -1.
        -24    2    1    2    0    0 -0.26034384362E+02 -0.38239431570E+02  0.14453233884E+03  0.16885001713E+03  0.74031669027E+02 0.  0.
         23    2    1    2    0    0  0.48028054649E+02 -0.63491670419E+02 -0.17759373114E+03  0.21612248295E+03  0.93976103612E+02 0.  0.
         13    1    3    3    0    0  0.20273032592E+02  0.76495143169E+01  0.29115905711E+02  0.36293895977E+02  0.00000000000E+00 0. -1.
        -14    1    3    3    0    0 -0.46307416954E+02 -0.45888945887E+02  0.11541643313E+03  0.13255612115E+03  0.00000000000E+00 0.  1.
        -13    1    4    4    0    0  0.72231750961E+02 -0.53035241213E+02 -0.10052171213E+03  0.13466542714E+03  0.00000000000E+00 0.  1.
         13    1    4    4    0    0 -0.24203696312E+02 -0.10456429205E+02 -0.77072019004E+02  0.81457055804E+02  0.00000000000E+00 0. -1.
         21    1    1    2  502  501 -0.21993670287E+02  0.10173110199E+03  0.11994821232E+03  0.15880967314E+03  0.00000000000E+00 0.  1.
<scales pt_clust_5="13000.00000" pt_clust_6="13000.00000" pt_clust_7="13000.00000" pt_clust_8="13000.00000" pt_clust_9="81.58073"></scales>
<clustering>
<clus scale="   74.032">  5  6 -1 -1</clus>
<clus scale="   87.297">  1  5  2 -1</clus>
<clus scale="   81.581">  1  9  2 -1</clus>
<clus scale="   93.976">  7  8 -1 -1</clus>
<clus scale="  124.446">  2  5  1 -1</clus>
</clustering>
</event>
<event>
 9    1  0.2802611E-005  0.1034118E+03  0.7546771E-02  0.1273453E+00
         -2   -1    0    0    0  501 -0.00000000000E+00  0.00000000000E+00  0.19193777434E+03  0.19193777434E+03  0.00000000000E+00 0.  1.
          1   -1    0    0  502    0  0.00000000000E+00 -0.00000000000E+00 -0.15794877751E+03  0.15794877751E+03  0.00000000000E+00 0. -1.
         23    2    1    2    0    0 -0.17352227120E+02  0.70112611719E+02  0.60587883097E+02  0.13185715072E+03  0.92187518195E+02 0.  0.
        -24    2    1    2    0    0  0.61365630720E+02  0.23086334533E+02  0.15836030682E+02  0.10656664745E+03  0.82504248412E+02 0.  0.
         13    1    4    4    0    0  0.12575365465E+02  0.25689215815E+02 -0.28654032717E+02  0.40486160804E+02  0.00000000000E+00 0. -1.
        -14    1    4    4    0    0  0.48790265256E+02 -0.26028812822E+01  0.44490063398E+02  0.66080486650E+02  0.00000000000E+00 0.  1.
        -13    1    3    3    0    0  0.21329180109E+02  0.42712102274E+02 -0.80761176032E+01  0.48419843869E+02  0.00000000000E+00 0.  1.
         13    1    3    3    0    0 -0.38681407229E+02  0.27400509445E+02  0.68664000700E+02  0.83437306855E+02  0.00000000000E+00 0. -1.
         21    1    1    2  502  501 -0.44013403600E+02 -0.93198946252E+02 -0.42434916948E+02  0.11146275367E+03  0.00000000000E+00 0. -1.
<scales pt_clust_5="13000.00000" pt_clust_6="13000.00000" pt_clust_7="13000.00000" pt_clust_8="13000.00000" pt_clust_9="103.06902"></scales>
<clustering>
<clus scale="   82.504">  5  6 -1 -1</clus>
<clus scale="   92.188">  7  8 -1 -1</clus>
<clus scale="  103.069">  2  9  1 -1</clus>
<clus scale="  103.069">  2  5  1 -1</clus>
<clus scale="  103.069">  2  5  1 -1</clus>
</clustering>
</event>
<event>
 9    1  0.2802611E-005  0.9377478E+02  0.7546771E-02  0.1301897E+00
         -2   -1    0    0    0  501 -0.00000000000E+00  0.00000000000E+00  0.15826654350E+03  0.15826654350E+03  0.00000000000E+00 0.  1.
          1   -1    0    0  502    0  0.00000000000E+00 -0.00000000000E+00 -0.29781859748E+03  0.29781859748E+03  0.00000000000E+00 0. -1.
        -24    2    1    2    0    0 -0.18195729491E+02  0.73829460354E+01 -0.51232982168E+00  0.81618569335E+02  0.79219542504E+02 0.  0.
         23    2    1    2    0    0 -0.53595929030E+01 -0.18707685166E+02 -0.24647522755E+03  0.26389763243E+03  0.92267111599E+02 0.  0.
         11    1    3    3    0    0  0.50755098931E+01  0.28135232661E+02 -0.28025782316E+02  0.40034942138E+02  0.00000000000E+00 0. -1.
        -12    1    3    3    0    0 -0.23271239384E+02 -0.20752286626E+02  0.27513452495E+02  0.41583627197E+02  0.00000000000E+00 0.  1.
        -13    1    4    4    0    0  0.33551436500E+01 -0.54726266983E+02 -0.17497947313E+03  0.18336858320E+03  0.00000000000E+00 0.  1.
         13    1    4    4    0    0 -0.87147365530E+01  0.36018581817E+02 -0.71495754422E+02  0.80529049228E+02  0.00000000000E+00 0. -1.
         21    1    1    2  502  501  0.23555322394E+02  0.11324739130E+02  0.10743550339E+03  0.11056893922E+03  0.00000000000E+00 0.  1.
<scales pt_clust_5="13000.00000" pt_clust_6="13000.00000" pt_clust_7="13000.00000" pt_clust_8="13000.00000" pt_clust_9="26.13624"></scales>
<clustering>
<clus scale="   26.136">  1  9  2 -1</clus>
<clus scale="   79.220">  5  6 -1 -1</clus>
<clus scale="   80.971">  1  5  2 -1</clus>
<clus scale="   92.267">  7  8 -1 -1</clus>
<clus scale="   93.775">  2  5  1 -1</clus>
</clustering>
</event>
<event>
 9    1  0.2802611E-005  0.2178394E+03  0.7546771E-02  0.1136672E+00
         -4   -1    0    0    0  501 -0.00000000000E+00  0.00000000000E+00  0.18504565287E+04  0.18504565287E+04  0.00000000000E+00 0.  1.
          3   -1    0    0  502    0  0.00000000000E+00 -0.00000000000E+00 -0.46982365348E+02  0.46982365348E+02  0.00000000000E+00 0. -1.
        -24    2    1    2    0    0  0.32650432569E+02  0.17334190473E+03  0.14010082343E+04  0.14143799971E+04  0.80828441307E+02 0.  0.
         23    2    1    2    0    0 -0.20914633696E+02 -0.19909007212E+03  0.27937867880E+03  0.35676096240E+03  0.95664305804E+02 0.  0.
         11    1    3    3    0    0  0.34948621493E+02  0.38695099978E+02  0.24067672402E+03  0.24626003003E+03  0.00000000000E+00 0. -1.
        -12    1    3    3    0    0 -0.22981889240E+01  0.13464680475E+03  0.11603315103E+04  0.11681199670E+04  0.00000000000E+00 0.  1.
        -11    1    4    4    0    0 -0.40024602150E+02 -0.26383536211E+02  0.54772753950E+02  0.72788146944E+02  0.00000000000E+00 0.  1.
         11    1    4    4    0    0  0.19109968454E+02 -0.17270653591E+03  0.22460592485E+03  0.28397281546E+03  0.00000000000E+00 0. -1.
         21    1    1    2  502  501 -0.11735798872E+02  0.25748167386E+02  0.12308725031E+03  0.12629793462E+03  0.00000000000E+00 0.  1.
<scales pt_clust_5="13000.00000" pt_clust_6="13000.00000" pt_clust_7="13000.00000" pt_clust_8="13000.00000" pt_clust_9="28.29659"></scales>
<clustering>
<clus scale="   28.297">  1  9  2 -1</clus>
<clus scale="   80.828">  5  6 -1 -1</clus>
<clus scale="   95.664">  7  8 -1 -1</clus>
<clus scale="  211.744">  1  5  2 -1</clus>
<clus scale="  217.839">  2  5  1 -1</clus>
</clustering>
</event>
<event>
 9    1  0.2802611E-005  0.9412873E+02  0.7546771E-02  0.1298923E+00
         -2   -1    0    0    0  501 -0.00000000000E+00  0.00000000000E+00  0.19060682200E+03  0.19060682200E+03  0.00000000000E+00 0.  1.
          1   -1    0    0  502    0  0.00000000000E+00 -0.00000000000E+00 -0.11514939883E+03  0.11514939883E+03  0.00000000000E+00 0. -1.
        -24    2    1    2    0    0 -0.17452292134E+02  0.80214213417E+01  0.12582327795E+03  0.15093556646E+03  0.81124116323E+02 0.  0.
         23    2    1    2    0    0  0.49206973565E+02 -0.25874301539E+02 -0.51316291704E+02  0.11837907847E+03  0.91046354660E+02 0.  0.
         13    1    3    3    0    0  0.27116525593E+02  0.22991211794E+02  0.44013304352E+02  0.56578023472E+02  0.00000000000E+00 0. -1.
        -14    1    3    3    0    0 -0.44568817727E+02 -0.14969790452E+02  0.81809973593E+02  0.94357542990E+02  0.00000000000E+00 0.  1.
        -13    1    4    4    0    0  0.49707979327E+02  0.79075067867E+01 -0.64757539293E+02  0.82017990512E+02  0.00000000000E+00 0. -1.
         13    1    4    4    0    0 -0.50100576181E+00 -0.33781808325E+02  0.13441247589E+02  0.36361087955E+02  0.00000000000E+00 0.  1.
         21    1    1    2  502  501 -0.31754681432E+02  0.17852880197E+02  0.95043692878E+00  0.36441575906E+02  0.00000000000E+00 0.  1.
<scales pt_clust_5="13000.00000" pt_clust_6="13000.00000" pt_clust_7="13000.00000" pt_clust_8="13000.00000" pt_clust_9="36.42918"></scales>
<clustering>
<clus scale="   36.429">  2  9  1 -1</clus>
<clus scale="   81.124">  5  6 -1 -1</clus>
<clus scale="   84.569">  1  5  2 -1</clus>
<clus scale="   91.046">  7  8 -1 -1</clus>
<clus scale="   36.429">  2  5  1 -1</clus>
</clustering>
</event>
<event>
 9    1  0.2802611E-005  0.1021557E+03  0.7546771E-02  0.1281820E+00
         -2   -1    0    0    0  501 -0.00000000000E+00  0.00000000000E+00  0.12727691634E+03  0.12727691634E+03  0.00000000000E+00 0.  1.
          1   -1    0    0  502    0  0.00000000000E+00 -0.00000000000E+00 -0.30823551293E+03  0.30823551293E+03  0.00000000000E+00 0. -1.
        -24    2    1    2    0    0 -0.46422692787E+02  0.11979878480E+02  0.45758591894E+02  0.10341474825E+03  0.79386255297E+02 0.  0.
         23    2    1    2    0    0  0.29709443461E+02 -0.34184096061E+02 -0.26539871345E+03  0.28446764475E+03  0.91837684834E+02 0.  0.
         13    1    3    3    0    0  0.69441615242E+01 -0.23039113038E+02 -0.13222778299E+01  0.24099181055E+02  0.00000000000E+00 0. -1.
        -14    1    3    3    0    0 -0.53366854311E+02  0.35018991517E+02  0.47080869724E+02  0.79315567198E+02  0.00000000000E+00 0.  1.
        -11    1    4    4    0    0 -0.10702730695E+02  0.26670817929E+02 -0.61653146210E+02  0.68021992112E+02  0.00000000000E+00 0.  1.
         11    1    4    4    0    0  0.40412174156E+02 -0.60854913990E+02 -0.20374556724E+03  0.21644565264E+03  0.00000000000E+00 0. -1.
         21    1    1    2  502  501  0.16713249326E+02  0.22204217582E+02  0.38681524967E+02  0.47630036271E+02  0.00000000000E+00 0.  1.
<scales pt_clust_5="13000.00000" pt_clust_6="13000.00000" pt_clust_7="13000.00000" pt_clust_8="13000.00000" pt_clust_9="27.79137"></scales>
<clustering>
<clus scale="   27.791">  1  9  2 -1</clus>
<clus scale="   79.386">  5  6 -1 -1</clus>
<clus scale="   91.125">  1  5  2 -1</clus>
<clus scale="   91.838">  7  8 -1 -1</clus>
<clus scale="  102.156">  2  5  1 -1</clus>
</clustering>
</event>
<event>
 9    1  0.2802611E-005  0.1783530E+03  0.7546771E-02  0.1170996E+00
         -2   -1    0    0    0  501 -0.00000000000E+00  0.00000000000E+00  0.64620944744E+02  0.64620944744E+02  0.00000000000E+00 0.  1.
          1   -1    0    0  502    0  0.00000000000E+00 -0.00000000000E+00 -0.62596592345E+03  0.62596592345E+03  0.00000000000E+00 0. -1.
         23    2    1    2    0    0  0.12035881098E+03 -0.10063358267E+03 -0.17275942411E+03  0.25094612462E+03  0.92275552019E+02 0.  0.
        -24    2    1    2    0    0 -0.13354059662E+03  0.71664697075E+02 -0.35051897909E+03  0.39002199735E+03  0.79275998694E+02 0.  0.
         13    1    4    4    0    0 -0.79865680881E+02  0.83571437559E+02 -0.25057085045E+03  0.27595011008E+03  0.00000000000E+00 0. -1.
        -14    1    4    4    0    0 -0.53674915738E+02 -0.11906740484E+02 -0.99948128636E+02  0.11407188727E+03  0.00000000000E+00 0.  1.
        -13    1    3    3    0    0  0.95361312000E+02 -0.19817514754E+02 -0.90655781897E+02  0.13306007857E+03  0.00000000000E+00 0.  1.
         13    1    3    3    0    0  0.24997498985E+02 -0.80816067918E+02 -0.82103642208E+02  0.11788604605E+03  0.00000000000E+00 0. -1.
         21    1    1    2  502  501  0.13181785634E+02  0.28968885597E+02 -0.38066575517E+02  0.49618746224E+02  0.00000000000E+00 0. -1.
<scales pt_clust_5="13000.00000" pt_clust_6="13000.00000" pt_clust_7="13000.00000" pt_clust_8="13000.00000" pt_clust_9="31.82697"></scales>
<clustering>
<clus scale="   31.827">  1  9  2 -1</clus>
<clus scale="   79.276">  5  6 -1 -1</clus>
<clus scale="   92.276">  7  8 -1 -1</clus>
<clus scale="  171.987">  2  5  1 -1</clus>
<clus scale="  171.987">  2  5  1 -1</clus>
</clustering>
</event>
<event>
 9    1  0.2802611E-005  0.2153102E+03  0.7546771E-02  0.1141447E+00
         -4   -1    0    0    0  501 -0.00000000000E+00  0.00000000000E+00  0.12704487362E+04  0.12704487362E+04  0.00000000000E+00 0.  1.
          3   -1    0    0  502    0  0.00000000000E+00 -0.00000000000E+00 -0.17019400103E+03  0.17019400103E+03  0.00000000000E+00 0. -1.
        -24    2    1    2    0    0 -0.11706326040E+03 -0.37488279225E+02  0.10289235383E+04  0.10393473326E+04  0.80312215739E+02 0.  0.
         23    2    1    2    0    0  0.14766691514E+03  0.10756343001E+03 -0.78783185177E+02  0.23282749041E+03  0.12093982272E+03 0.  0.
         13    1    3    3    0    0 -0.40942223669E+02  0.55885952846E+01  0.13570628012E+03  0.14185800133E+03  0.00000000000E+00 0. -1.
        -14    1    3    3    0    0 -0.76121036734E+02 -0.43076874510E+02  0.89321725821E+03  0.89748933126E+03  0.00000000000E+00 0.  1.
        -13    1    4    4    0    0  0.56864461279E+02  0.44933059610E+02 -0.96939240553E+02  0.12103620599E+03  0.00000000000E+00 0. -1.
         13    1    4    4    0    0  0.90802453862E+02  0.62630370400E+02  0.18156055377E+02  0.11179128441E+03  0.00000000000E+00 0.  1.
         21    1    1    2  502  501 -0.30603654738E+02 -0.70075150784E+02  0.15011438200E+03  0.16846791422E+03  0.00000000000E+00 0. -1.
<scales pt_clust_5="13000.00000" pt_clust_6="13000.00000" pt_clust_7="13000.00000" pt_clust_8="13000.00000" pt_clust_9="76.46640"></scales>
<clustering>
<clus scale="   76.466">  1  9  2 -1</clus>
<clus scale="   80.312">  5  6 -1 -1</clus>
<clus scale="  120.940">  7  8 -1 -1</clus>
<clus scale="  195.402">  1  5  2 -1</clus>
<clus scale="  215.310">  2  5  1 -1</clus>
</clustering>
</event>
<event>
 9    1  0.2802611E-005  0.1571137E+03  0.7546771E-02  0.1193721E+00
          1   -1    0    0  502    0  0.00000000000E+00  0.00000000000E+00  0.70250733676E+02  0.70250733676E+02  0.00000000000E+00 0. -1.
         -2   -1    0    0    0  501 -0.00000000000E+00 -0.00000000000E+00 -0.42684871317E+03  0.42684871317E+03  0.00000000000E+00 0.  1.
         23    2    1    2    0    0 -0.13239449493E+03 -0.46042396182E+02 -0.19949611555E+03  0.26024397319E+03  0.90994620335E+02 0.  0.
        -24    2    1    2    0    0  0.11581917012E+03  0.14697995512E+02 -0.12492484711E+03  0.18897465016E+03  0.80467942302E+02 0.  0.
         11    1    4    4    0    0  0.48251583111E+02  0.46280227690E+02 -0.65691537900E+02  0.93730746819E+02  0.00000000000E+00 0. -1.
        -12    1    4    4    0    0  0.67567587011E+02 -0.31582232177E+02 -0.59233309211E+02  0.95243903342E+02  0.00000000000E+00 0.  1.
        -11    1    3    3    0    0 -0.13409045496E+03 -0.14328827096E+02 -0.15314420099E+03  0.20405565832E+03  0.00000000000E+00 0.  1.
         11    1    3    3    0    0  0.16959600279E+01 -0.31713569086E+02 -0.46351914556E+02  0.56188314867E+02  0.00000000000E+00 0. -1.
         21    1    1    2  502  501  0.16575324809E+02  0.31344400670E+02 -0.32177016840E+02  0.47880823496E+02  0.00000000000E+00 0. -1.
<scales pt_clust_5="13000.00000" pt_clust_6="13000.00000" pt_clust_7="13000.00000" pt_clust_8="13000.00000" pt_clust_9="35.45720"></scales>
<clustering>
<clus scale="   35.457">  1  9  2 -1</clus>
<clus scale="   80.468">  5  6 -1 -1</clus>
<clus scale="   90.995">  7  8 -1 -1</clus>
<clus scale="  151.261">  1  5  2 -1</clus>
<clus scale="   35.457">  1  5  2 -1</clus>
</clustering>
</event>
<event>
 9    1  0.2802611E-005  0.9089731E+02  0.7546771E-02  0.1306481E+00
          1   -1    0    0  502    0  0.00000000000E+00  0.00000000000E+00  0.20893555278E+03  0.20893555278E+03  0.00000000000E+00 0. -1.
         -2   -1    0    0    0  501 -0.00000000000E+00 -0.00000000000E+00 -0.17328773478E+03  0.17328773478E+03  0.00000000000E+00 0.  1.
        -24    2    1    2    0    0 -0.10737057542E+02  0.79793145483E+01 -0.11200599130E+03  0.13884753325E+03  0.80958887943E+02 0.  0.
         23    2    1    2    0    0 -0.12844044931E+02 -0.23465109011E+01  0.18070648825E+03  0.20238457896E+03  0.90189840330E+02 0.  0.
         13    1    3    3    0    0 -0.28481121150E+02  0.21117491988E+01 -0.35337796952E+01  0.28777097587E+02  0.00000000000E+00 0. -1.
        -14    1    3    3    0    0  0.17744063608E+02  0.58675653495E+01 -0.10847221160E+03  0.11007043566E+03  0.00000000000E+00 0.  1.
        -11    1    4    4    0    0  0.31773783646E+02  0.21183227408E+02  0.10186395663E+03  0.10878680118E+03  0.00000000000E+00 0.  1.
         11    1    4    4    0    0 -0.44617828577E+02 -0.23529738309E+02  0.78842531620E+02  0.93597777773E+02  0.00000000000E+00 0. -1.
         21    1    1    2  502  501  0.23581102473E+02 -0.56328036472E+01 -0.33052678963E+02  0.40991175360E+02  0.00000000000E+00 0.  1.
<scales pt_clust_5="13000.00000" pt_clust_6="13000.00000" pt_clust_7="13000.00000" pt_clust_8="13000.00000" pt_clust_9="24.24452"></scales>
<clustering>
<clus scale="   24.245">  2  9  1 -1</clus>
<clus scale="   80.959">  5  6 -1 -1</clus>
<clus scale="   81.746">  2  5  1 -1</clus>
<clus scale="   90.190">  7  8 -1 -1</clus>
<clus scale="   90.897">  1  5  2 -1</clus>
</clustering>
</event>
<event>
 9    1  0.2802611E-005  0.1142566E+03  0.7546771E-02  0.1255232E+00
          1   -1    0    0  502    0  0.00000000000E+00  0.00000000000E+00  0.13372337533E+03  0.13372337533E+03  0.00000000000E+00 0. -1.
         -2   -1    0    0    0  501 -0.00000000000E+00 -0.00000000000E+00 -0.27790855775E+03  0.27790855775E+03  0.00000000000E+00 0.  1.
        -24    2    1    2    0    0 -0.44474216505E+02  0.11076090281E+02 -0.16008075278E+03  0.18406760059E+03  0.78449974293E+02 0.  0.
         23    2    1    2    0    0  0.74789863981E+02 -0.31022666433E+02  0.87878845698E+02  0.14695108102E+03  0.85533613895E+02 0.  0.
         11    1    3    3    0    0 -0.34947755941E+02 -0.10296160116E+02 -0.19057444700E+02  0.41116210392E+02  0.00000000000E+00 0. -1.
        -12    1    3    3    0    0 -0.95264605642E+01  0.21372250397E+02 -0.14102330808E+03  0.14295139019E+03  0.00000000000E+00 0.  1.
        -13    1    4    4    0    0  0.86005987568E+02 -0.18710300965E+01  0.70383150766E+02  0.11114998229E+03  0.00000000000E+00 0.  1.
         13    1    4    4    0    0 -0.11216123587E+02 -0.29151636337E+02  0.17495694932E+02  0.35801098734E+02  0.00000000000E+00 0. -1.
         21    1    1    2  502  501 -0.30315647475E+02  0.19946576152E+02 -0.71983275347E+02  0.80613251465E+02  0.00000000000E+00 0. -1.
<scales pt_clust_5="13000.00000" pt_clust_6="13000.00000" pt_clust_7="13000.00000" pt_clust_8="13000.00000" pt_clust_9="36.28918"></scales>
<clustering>
<clus scale="   36.289">  2  9  1 -1</clus>
<clus scale="   78.450">  5  6 -1 -1</clus>
<clus scale="   85.534">  7  8 -1 -1</clus>
<clus scale="  109.055">  2  5  1 -1</clus>
<clus scale="  114.257">  1  5  2 -1</clus>
</clustering>
</event>
<event>
 9    1  0.2802611E-005  0.1257587E+03  0.7546771E-02  0.1237265E+00
          1   -1    0    0  502    0  0.00000000000E+00  0.00000000000E+00  0.11383086504E+04  0.11383086504E+04  0.00000000000E+00 0. -1.
         -2   -1    0    0    0  501 -0.00000000000E+00 -0.00000000000E+00 -0.46265213148E+02  0.46265213148E+02  0.00000000000E+00 0.  1.
         23    2    1    2    0    0  0.35056916421E+02 -0.58419146176E+02  0.17891954813E+03  0.21226664996E+03  0.91668653047E+02 0.  0.
        -24    2    1    2    0    0 -0.82191368848E+02  0.42619411292E+02  0.91444817181E+03  0.92257752474E+03  0.79762114381E+02 0.  0.
         13    1    4    4    0    0 -0.82347624619E+02  0.45740119144E+02  0.54258080157E+03  0.55069702742E+03  0.00000000000E+00 0. -1.
        -14    1    4    4    0    0  0.15625577050E+00 -0.31207078517E+01  0.37186737025E+03  0.37188049732E+03  0.00000000000E+00 0.  1.
        -13    1    3    3    0    0 -0.20453398093E+02 -0.16683466166E+02  0.76949626514E+01  0.27493489903E+02  0.00000000000E+00 0.  1.
         13    1    3    3    0    0  0.55510314514E+02 -0.41735680011E+02  0.17122458548E+03  0.18477316006E+03  0.00000000000E+00 0. -1.
         21    1    1    2  502  501  0.47134452427E+02  0.15799734884E+02 -0.13242826991E+01  0.49729688845E+02  0.00000000000E+00 0.  1.
<scales pt_clust_5="13000.00000" pt_clust_6="13000.00000" pt_clust_7="13000.00000" pt_clust_8="13000.00000" pt_clust_9="49.71205"></scales>
<clustering>
<clus scale="   49.712">  2  9  1 -1</clus>
<clus scale="   79.762">  5  6 -1 -1</clus>
<clus scale="   91.669">  7  8 -1 -1</clus>
<clus scale="  117.363">  1  5  2 -1</clus>
<clus scale="  117.363">  1  5  2 -1</clus>
</clustering>
</event>
<event>
 9    1  0.2802611E-005  0.1174332E+03  0.7546771E-02  0.1255040E+00
         -2   -1    0    0    0  501 -0.00000000000E+00  0.00000000000E+00  0.18021630133E+03  0.18021630133E+03  0.00000000000E+00 0.  1.
          1   -1    0    0  502    0  0.00000000000E+00 -0.00000000000E+00 -0.25000559270E+03  0.25000559270E+03  0.00000000000E+00 0. -1.
        -24    2    1    2    0    0  0.14478379541E+02 -0.16319124573E+02  0.11186704509E+03  0.15621810117E+03  0.10683595861E+03 0.  0.
         23    2    1    2    0    0  0.26174367004E+02  0.45685043531E+02 -0.19645904495E+03  0.22171494915E+03  0.88256113924E+02 0.  0.
         11    1    3    3    0    0  0.43968276604E+02 -0.46835776363E+02  0.51028143011E+02  0.82040664759E+02  0.00000000000E+00 0. -1.
        -12    1    3    3    0    0 -0.29489897063E+02  0.30516651790E+02  0.60838902083E+02  0.74177436407E+02  0.00000000000E+00 0.  1.
        -11    1    4    4    0    0  0.23443428639E+02 -0.20791562567E+02 -0.34411175620E+02  0.46540438630E+02  0.00000000000E+00 0.  1.
         11    1    4    4    0    0  0.27309383651E+01  0.66476606098E+02 -0.16204786933E+03  0.17517451052E+03  0.00000000000E+00 0. -1.
         21    1    1    2  502  501 -0.40652746545E+02 -0.29365918957E+02  0.14802708484E+02  0.52288843708E+02  0.00000000000E+00 0.  1.
<scales pt_clust_5="13000.00000" pt_clust_6="13000.00000" pt_clust_7="13000.00000" pt_clust_8="13000.00000" pt_clust_9="50.14981"></scales>
<clustering>
<clus scale="   50.150">  1  9  2 -1</clus>
<clus scale="   88.256">  7  8 -1 -1</clus>
<clus scale="  100.825">  2  7  1 -1</clus>
<clus scale="  106.836">  5  6 -1 -1</clus>
<clus scale="  100.825">  2  5  1 -1</clus>
</clustering>
</event>
<event>
 9    1  0.2802611E-005  0.9705216E+02  0.7546771E-02  0.1293791E+00
          1   -1    0    0  502    0  0.00000000000E+00  0.00000000000E+00  0.26858845309E+03  0.26858845309E+03  0.00000000000E+00 0. -1.
         -2   -1    0    0    0  501 -0.00000000000E+00 -0.00000000000E+00 -0.32754558616E+03  0.32754558616E+03  0.00000000000E+00 0.  1.
         23    2    1    2    0    0 -0.23703601241E+01  0.12496647331E+02 -0.25502849066E+03  0.27162439522E+03  0.92620171820E+02 0.  0.
        -24    2    1    2    0    0 -0.29057868137E+02 -0.64305491737E+01  0.24872636256E+03  0.26288918779E+03  0.79750924511E+02 0.  0.
         11    1    4    4    0    0 -0.53312771056E+02 -0.20448032097E+02  0.16503669836E+03  0.17463529248E+03  0.00000000000E+00 0. -1.
        -12    1    4    4    0    0  0.24254902919E+02  0.14017482923E+02  0.83689664199E+02  0.88253895307E+02  0.00000000000E+00 0.  1.
        -11    1    3    3    0    0 -0.14031271801E+02 -0.36056273509E+02 -0.70047598682E+02  0.80022481396E+02  0.00000000000E+00 0. -1.
         11    1    3    3    0    0  0.11660911677E+02  0.48552920840E+02 -0.18498089198E+03  0.19160191383E+03  0.00000000000E+00 0.  1.
         21    1    1    2  502  501  0.31428228261E+02 -0.60660981570E+01 -0.52655004970E+02  0.61620456238E+02  0.00000000000E+00 0.  1.
<scales pt_clust_5="13000.00000" pt_clust_6="13000.00000" pt_clust_7="13000.00000" pt_clust_8="13000.00000" pt_clust_9="32.00830"></scales>
<clustering>
<clus scale="   32.008">  2  9  1 -1</clus>
<clus scale="   79.751">  5  6 -1 -1</clus>
<clus scale="   84.858">  1  5  2 -1</clus>
<clus scale="   92.620">  7  8 -1 -1</clus>
<clus scale="   84.858">  1  5  2 -1</clus>
</clustering>
</event>
<event>
 9    1  0.2802611E-005  0.1365394E+03  0.7546771E-02  0.1219628E+00
          1   -1    0    0  502    0  0.00000000000E+00  0.00000000000E+00  0.20667192998E+03  0.20667192998E+03  0.00000000000E+00 0. -1.
         -2   -1    0    0    0  501 -0.00000000000E+00 -0.00000000000E+00 -0.41575373740E+03  0.41575373740E+03  0.00000000000E+00 0.  1.
        -24    2    1    2    0    0 -0.62474152713E+02 -0.39981762575E+02 -0.29465326711E+03  0.31475962299E+03  0.82167580917E+02 0.  0.
         23    2    1    2    0    0  0.10392510205E+03  0.22103527990E+02  0.16547288628E+03  0.21589431430E+03  0.89107160587E+02 0.  0.
         11    1    3    3    0    0 -0.38942666067E+02  0.20719928420E+01 -0.41059547011E+02  0.56627827042E+02  0.00000000000E+00 0. -1.
        -12    1    3    3    0    0 -0.23531486646E+02 -0.42053755417E+02 -0.25359372010E+03  0.25813179595E+03  0.00000000000E+00 0.  1.
        -11    1    4    4    0    0 -0.95196510344E+01  0.22830633715E+02  0.36933094806E+02  0.44451266389E+02  0.00000000000E+00 0.  1.
         11    1    4    4    0    0  0.11344475308E+03 -0.72710572448E+00  0.12853979147E+03  0.17144304791E+03  0.00000000000E+00 0. -1.
         21    1    1    2  502  501 -0.41450949337E+02  0.17878234585E+02 -0.79901426589E+02  0.91771730090E+02  0.00000000000E+00 0.  1.
<scales pt_clust_5="13000.00000" pt_clust_6="13000.00000" pt_clust_7="13000.00000" pt_clust_8="13000.00000" pt_clust_9="45.14214"></scales>
<clustering>
<clus scale="   45.142">  2  9  1 -1</clus>
<clus scale="   82.168">  5  6 -1 -1</clus>
<clus scale="   89.107">  7  8 -1 -1</clus>
<clus scale="  132.115">  2  5  1 -1</clus>
<clus scale="  136.539">  1  5  2 -1</clus>
</clustering>
</event>
<event>
 9    1  0.2802611E-005  0.4000407E+03  0.7546771E-02  0.1083741E+00
         -2   -1    0    0    0  501 -0.00000000000E+00  0.00000000000E+00  0.23262039132E+03  0.23262039132E+03  0.00000000000E+00 0.  1.
          1   -1    0    0  502    0  0.00000000000E+00 -0.00000000000E+00 -0.93580590913E+03  0.93580590913E+03  0.00000000000E+00 0. -1.
        -24    2    1    2    0    0  0.54406890706E+01 -0.10258600394E+03 -0.60704553024E+02  0.14501282449E+03  0.82402592243E+02 0.  0.
         23    2    1    2    0    0  0.35847096074E+03 -0.92979363471E+02 -0.26957822543E+03  0.46687600659E+03  0.90300576825E+02 0.  0.
         11    1    3    3    0    0 -0.33056027941E+02 -0.29483122037E+02 -0.40362430040E+02  0.59925630802E+02  0.00000000000E+00 0. -1.
        -12    1    3    3    0    0  0.38496717012E+02 -0.73102881899E+02 -0.20342122984E+02  0.85087193691E+02  0.00000000000E+00 0.  1.
        -13    1    4    4    0    0  0.92817553134E+02  0.14315226406E+02 -0.54063884011E+02  0.10836478871E+03  0.00000000000E+00 0. -1.
         13    1    4    4    0    0  0.26565340761E+03 -0.10729458988E+03 -0.21551434142E+03  0.35851121788E+03  0.00000000000E+00 0.  1.
         21    1    1    2  502  501 -0.36391164981E+03  0.19556536741E+03 -0.37290273935E+03  0.55653746937E+03  0.00000000000E+00 0. -1.
<scales pt_clust_5="13000.00000" pt_clust_6="13000.00000" pt_clust_7="13000.00000" pt_clust_8="13000.00000" pt_clust_9="389.71580"></scales>
<clustering>
<clus scale="   82.403">  5  6 -1 -1</clus>
<clus scale="   90.301">  7  8 -1 -1</clus>
<clus scale="  131.695">  1  5  2 -1</clus>
<clus scale="  389.716">  2  9  1 -1</clus>
<clus scale="  389.716">  2  5  1 -1</clus>
</clustering>
</event>
<event>
 9    1  0.2802611E-005  0.1003179E+03  0.7546771E-02  0.1282466E+00
         -2   -1    0    0    0  501 -0.00000000000E+00  0.00000000000E+00  0.14414304405E+03  0.14414304405E+03  0.00000000000E+00 0.  1.
          1   -1    0    0  502    0  0.00000000000E+00 -0.00000000000E+00 -0.15349972000E+03  0.15349972000E+03  0.00000000000E+00 0. -1.
         23    2    1    2    0    0  0.29979340402E+01 -0.26553635382E+02  0.83970745381E+02  0.12772404903E+03  0.92456819438E+02 0.  0.
        -24    2    1    2    0    0 -0.22886023223E+02  0.34622650098E+02 -0.10748606978E+03  0.14420660861E+03  0.86716738927E+02 0.  0.
         11    1    4    4    0    0 -0.19820358088E+02  0.61937876751E+02 -0.55902865712E+02  0.85757084640E+02  0.00000000000E+00 0. -1.
        -12    1    4    4    0    0 -0.30656651354E+01 -0.27315226653E+02 -0.51583204071E+02  0.58449523968E+02  0.00000000000E+00 0.  1.
        -11    1    3    3    0    0 -0.13054133497E+02 -0.47406360534E+02  0.88287649513E+02  0.10105682796E+03  0.00000000000E+00 0.  1.
         11    1    3    3    0    0  0.16052067538E+02  0.20852725152E+02 -0.43169041320E+01  0.26667221073E+02  0.00000000000E+00 0. -1.
         21    1    1    2  502  501  0.19888089183E+02 -0.80690147153E+01  0.14158648450E+02  0.25712106405E+02  0.00000000000E+00 0.  1.
<scales pt_clust_5="13000.00000" pt_clust_6="13000.00000" pt_clust_7="13000.00000" pt_clust_8="13000.00000" pt_clust_9="21.46264"></scales>
<clustering>
<clus scale="   21.463">  1  9  2 -1</clus>
<clus scale="   86.717">  5  6 -1 -1</clus>
<clus scale="   92.457">  7  8 -1 -1</clus>
<clus scale="   95.054">  2  5  1 -1</clus>
<clus scale="   95.054">  2  5  1 -1</clus>
</clustering>
</event>
<event>
 9    1  0.2802611E-005  0.1175194E+03  0.7546771E-02  0.1250419E+00
          1   -1    0    0  502    0  0.00000000000E+00  0.00000000000E+00  0.10314128355E+03  0.10314128355E+03  0.00000000000E+00 0. -1.
         -2   -1    0    0    0  501 -0.00000000000E+00 -0.00000000000E+00 -0.30573159550E+03  0.30573159550E+03  0.00000000000E+00 0.  1.
        -24    2    1    2    0    0 -0.88235645708E+02 -0.52218153450E+02 -0.17201301951E+03  0.21513455235E+03  0.78626535032E+02 0.  0.
         23    2    1    2    0    0  0.54431405746E+02  0.47348475901E+02  0.35329479262E+02  0.11950798954E+03  0.88483508953E+02 0.  0.
         11    1    3    3    0    0 -0.61959768316E+02 -0.43685619236E+02 -0.51875254839E+02  0.91861244725E+02  0.00000000000E+00 0. -1.
        -12    1    3    3    0    0 -0.26275877393E+02 -0.85325342138E+01 -0.12013776468E+03  0.12327330763E+03  0.00000000000E+00 0.  1.
        -11    1    4    4    0    0  0.74189941750E+02  0.53238901162E+02  0.37624030780E+02  0.98762825729E+02  0.00000000000E+00 0. -1.
         11    1    4    4    0    0 -0.19758536004E+02 -0.58904252610E+01 -0.22945515180E+01  0.20745163808E+02  0.00000000000E+00 0.  1.
         21    1    1    2  502  501  0.33804239963E+02  0.48696775487E+01 -0.65906771702E+02  0.74230337161E+02  0.00000000000E+00 0.  1.
<scales pt_clust_5="13000.00000" pt_clust_6="13000.00000" pt_clust_7="13000.00000" pt_clust_8="13000.00000" pt_clust_9="34.15319"></scales>
<clustering>
<clus scale="   34.153">  2  9  1 -1</clus>
<clus scale="   78.627">  5  6 -1 -1</clus>
<clus scale="   88.484">  7  8 -1 -1</clus>
<clus scale="  110.289">  2  5  1 -1</clus>
<clus scale="  117.519">  1  5  2 -1</clus>
</clustering>
</event>
<event>
 9    1  0.2802611E-005  0.1303566E+03  0.7546771E-02  0.1229512E+00
          1   -1    0    0  502    0  0.00000000000E+00  0.00000000000E+00  0.53094665825E+03  0.53094665825E+03  0.00000000000E+00 0. -1.
         -2   -1    0    0    0  501 -0.00000000000E+00 -0.00000000000E+00 -0.25753682088E+03  0.25753682088E+03  0.00000000000E+00 0.  1.
        -24    2    1    2    0    0  0.53714610042E+02  0.82402942045E+02 -0.62223362783E+02  0.14269065968E+03  0.82543160187E+02 0.  0.
         23    2    1    2    0    0 -0.65410525467E+02 -0.64107407275E+02  0.48127042581E+03  0.49854567167E+03  0.92402746011E+02 0.  0.
         11    1    3    3    0    0  0.39207166992E+02  0.30803450146E+02  0.11858979864E+02  0.51251242794E+02  0.00000000000E+00 0. -1.
        -12    1    3    3    0    0  0.14507443050E+02  0.51599491899E+02 -0.74082342647E+02  0.91439416884E+02  0.00000000000E+00 0.  1.
        -13    1    4    4    0    0 -0.32768222537E+02  0.18691580849E+02  0.96400457457E+02  0.10351898280E+03  0.00000000000E+00 0.  1.
         13    1    4    4    0    0 -0.32642302931E+02 -0.82798988124E+02  0.38486996836E+03  0.39502668887E+03  0.00000000000E+00 0. -1.
         21    1    1    2  502  501  0.11695915425E+02 -0.18295534771E+02 -0.14563722567E+03  0.14724714778E+03  0.00000000000E+00 0.  1.
<scales pt_clust_5="13000.00000" pt_clust_6="13000.00000" pt_clust_7="13000.00000" pt_clust_8="13000.00000" pt_clust_9="21.71453"></scales>
<clustering>
<clus scale="   21.715">  2  9  1 -1</clus>
<clus scale="   82.543">  5  6 -1 -1</clus>
<clus scale="   92.403">  7  8 -1 -1</clus>
<clus scale="  123.564">  2  5  1 -1</clus>
<clus scale="  130.357">  1  5  2 -1</clus>
</clustering>
</event>
<event>
 9    1  0.2802611E-005  0.2290547E+03  0.7546771E-02  0.1127977E+00
         -2   -1    0    0    0  501 -0.00000000000E+00  0.00000000000E+00  0.32381353854E+03  0.32381353854E+03  0.00000000000E+00 0.  1.
          1   -1    0    0  502    0  0.00000000000E+00 -0.00000000000E+00 -0.11719333829E+04  0.11719333829E+04  0.00000000000E+00 0. -1.
        -24    2    1    2    0    0  0.20513919203E+03 -0.81782046834E+02 -0.22755394384E+02  0.23607677277E+03  0.80274799128E+02 0.  0.
         23    2    1    2    0    0 -0.20555391586E+03  0.41388718090E+02 -0.10280024692E+04  0.10530449813E+04  0.90273017376E+02 0.  0.
         11    1    3    3    0    0  0.35914097088E+02 -0.27583807424E+01  0.24328767951E+02  0.43466308607E+02  0.00000000000E+00 0. -1.
        -12    1    3    3    0    0  0.16922509494E+03 -0.79023666091E+02 -0.47084162335E+02  0.19261046416E+03  0.00000000000E+00 0.  1.
        -13    1    4    4    0    0 -0.18107056212E+03  0.33111833744E+01 -0.87197852024E+03  0.89058635301E+03  0.00000000000E+00 0. -1.
         13    1    4    4    0    0 -0.24483353746E+02  0.38077534715E+02 -0.15602394892E+03  0.16245862826E+03  0.00000000000E+00 0.  1.
         21    1    1    2  502  501  0.41472383298E+00  0.40393328744E+02  0.20263801917E+03  0.20662516743E+03  0.00000000000E+00 0.  1.
<scales pt_clust_5="13000.00000" pt_clust_6="13000.00000" pt_clust_7="13000.00000" pt_clust_8="13000.00000" pt_clust_9="40.39546"></scales>
<clustering>
<clus scale="   40.395">  1  9  2 -1</clus>
<clus scale="   80.275">  5  6 -1 -1</clus>
<clus scale="   90.273">  7  8 -1 -1</clus>
<clus scale="  225.302">  1  5  2 -1</clus>
<clus scale="  229.055">  2  5  1 -1</clus>
</clustering>
</event>
<event>
 9    1  0.2802611E-005  0.1079136E+03  0.7546771E-02  0.1268382E+00
         -4   -1    0    0    0  501 -0.00000000000E+00  0.00000000000E+00  0.45306128129E+02  0.45306128129E+02  0.00000000000E+00 0.  1.
          3   -1    0    0  502    0  0.00000000000E+00 -0.00000000000E+00 -0.52750530981E+03  0.52750530981E+03  0.00000000000E+00 0. -1.
         23    2    1    2    0    0  0.94703927361E+00 -0.69615060075E+02 -0.25926497111E+03  0.28306882467E+03  0.89791317948E+02 0.  0.
        -24    2    1    2    0    0  0.27902942353E+02  0.48380287033E+02 -0.23290219193E+03  0.25255931489E+03  0.80147053404E+02 0.  0.
         11    1    4    4    0    0 -0.21337934747E+02  0.23101388065E+02 -0.14730987491E+03  0.15062928280E+03  0.00000000000E+00 0. -1.
        -12    1    4    4    0    0  0.49240877100E+02  0.25278898968E+02 -0.85592317013E+02  0.10193003209E+03  0.00000000000E+00 0.  1.
        -13    1    3    3    0    0 -0.26906967092E+02 -0.41657188044E+02 -0.51144099741E+02  0.71239210637E+02  0.00000000000E+00 0.  1.
         13    1    3    3    0    0  0.27854006366E+02 -0.27957872031E+02 -0.20812087137E+03  0.21182961403E+03  0.00000000000E+00 0. -1.
         21    1    1    2  502  501 -0.28849981627E+02  0.21234773042E+02  0.99679813603E+01  0.37183298380E+02  0.00000000000E+00 0.  1.
<scales pt_clust_5="13000.00000" pt_clust_6="13000.00000" pt_clust_7="13000.00000" pt_clust_8="13000.00000" pt_clust_9="35.82230"></scales>
<clustering>
<clus scale="   35.822">  1  9  2 -1</clus>
<clus scale="   80.147">  5  6 -1 -1</clus>
<clus scale="   89.791">  7  8 -1 -1</clus>
<clus scale="  100.032">  2  5  1 -1</clus>
<clus scale="  100.032">  2  5  1 -1</clus>
</clustering>
</event>
<event>
 9    1  0.2802611E-005  0.9480144E+02  0.7546771E-02  0.1293684E+00
          1   -1    0    0  502    0  0.00000000000E+00  0.00000000000E+00  0.74792612651E+03  0.74792612651E+03  0.00000000000E+00 0. -1.
         -2   -1    0    0    0  501 -0.00000000000E+00 -0.00000000000E+00 -0.14507861304E+03  0.14507861304E+03  0.00000000000E+00 0.  1.
         23    2    1    2    0    0  0.65042507400E+02 -0.61466479385E+01  0.80052423987E+02  0.13734919878E+03  0.90488136070E+02 0.  0.
        -24    2    1    2    0    0 -0.24174349936E+02 -0.93712599037E+00  0.63223693752E+03  0.63861749461E+03  0.86738006975E+02 0.  0.
         11    1    4    4    0    0  0.69334718416E+01  0.33456361973E+02  0.13630697572E+03  0.14052399375E+03  0.00000000000E+00 0. -1.
        -12    1    4    4    0    0 -0.31107821778E+02 -0.34393487963E+02  0.49592996180E+03  0.49809350087E+03  0.00000000000E+00 0.  1.
        -11    1    3    3    0    0  0.15319414462E+02  0.40548324796E+02  0.33138264701E+02  0.54561851972E+02  0.00000000000E+00 0. -1.
         11    1    3    3    0    0  0.49723092938E+02 -0.46694972734E+02  0.46914159285E+02  0.82787346808E+02  0.00000000000E+00 0.  1.
         21    1    1    2  502  501 -0.40868157464E+02  0.70837739289E+01 -0.10944184804E+03  0.11703804616E+03  0.00000000000E+00 0.  1.
<scales pt_clust_5="13000.00000" pt_clust_6="13000.00000" pt_clust_7="13000.00000" pt_clust_8="13000.00000" pt_clust_9="41.47754"></scales>
<clustering>
<clus scale="   41.478">  2  9  1 -1</clus>
<clus scale="   86.738">  5  6 -1 -1</clus>
<clus scale="   90.488">  7  8 -1 -1</clus>
<clus scale="   91.229">  1  5  2 -1</clus>
<clus scale="   91.229">  1  5  2 -1</clus>
</clustering>
</event>
<event>
 9    1  0.2802611E-005  0.1497155E+03  0.7546771E-02  0.1208490E+00
          1   -1    0    0  502    0  0.00000000000E+00  0.00000000000E+00  0.34546203142E+03  0.34546203142E+03  0.00000000000E+00 0. -1.
         -2   -1    0    0    0  501 -0.00000000000E+00 -0.00000000000E+00 -0.14209609613E+03  0.14209609613E+03  0.00000000000E+00 0.  1.
         23    2    1    2    0    0  0.66607818694E+02 -0.91676024731E+02 -0.12299541926E+02  0.16015619284E+03  0.11250614362E+03 0.  0.
        -24    2    1    2    0    0 -0.72761486882E+02  0.63686525359E+02  0.25181690341E+03  0.28126945891E+03  0.79690326830E+02 0.  0.
         11    1    4    4    0    0 -0.41098314261E+02  0.30493776835E+02  0.21891547299E+03  0.22481753974E+03  0.00000000000E+00 0. -1.
        -12    1    4    4    0    0 -0.31663172621E+02  0.33192748524E+02  0.32901430423E+02  0.56451919178E+02  0.00000000000E+00 0.  1.
        -11    1    3    3    0    0  0.35262731704E+02 -0.95100764275E+02 -0.48264750017E+02  0.11232587283E+03  0.00000000000E+00 0.  1.
         11    1    3    3    0    0  0.31345086990E+02  0.34247395439E+01  0.35965208091E+02  0.47830320011E+02  0.00000000000E+00 0. -1.
         21    1    1    2  502  501  0.61536681880E+01  0.27989499373E+02 -0.36151426191E+02  0.46132475795E+02  0.00000000000E+00 0.  1.
<scales pt_clust_5="13000.00000" pt_clust_6="13000.00000" pt_clust_7="13000.00000" pt_clust_8="13000.00000" pt_clust_9="28.65798"></scales>
<clustering>
<clus scale="   28.658">  2  9  1 -1</clus>
<clus scale="   79.690">  5  6 -1 -1</clus>
<clus scale="  112.506">  7  8 -1 -1</clus>
<clus scale="  126.916">  1  5  2 -1</clus>
<clus scale="  126.916">  1  5  2 -1</clus>
</clustering>
</event>
<event>
 9    1  0.2802611E-005  0.1045576E+03  0.7546771E-02  0.1276622E+00
          1   -1    0    0  502    0  0.00000000000E+00  0.00000000000E+00  0.84260879235E+02  0.84260879235E+02  0.00000000000E+00 0. -1.
         -2   -1    0    0    0  501 -0.00000000000E+00 -0.00000000000E+00 -0.32477339092E+03  0.32477339092E+03  0.00000000000E+00 0.  1.
        -24    2    1    2    0    0  0.33068720952E+01 -0.27268807298E+02 -0.23571405422E+03  0.25067408768E+03  0.80758031342E+02 0.  0.
         23    2    1    2    0    0 -0.54683592021E+01  0.50683584971E+02  0.35385310853E+02  0.11180205669E+03  0.92999198478E+02 0.  0.
         11    1    3    3    0    0 -0.37535563633E+02 -0.26860547493E+01 -0.10431820081E+03  0.11089824366E+03  0.00000000000E+00 0. -1.
        -12    1    3    3    0    0  0.40842435728E+02 -0.24582752548E+02 -0.13139585341E+03  0.13977584402E+03  0.00000000000E+00 0.  1.
        -11    1    4    4    0    0 -0.23709035793E+02  0.16832684153E+02  0.59631931868E+02  0.66343235769E+02  0.00000000000E+00 0. -1.
         11    1    4    4    0    0  0.18240676590E+02  0.33850900818E+02 -0.24246621015E+02  0.45458820919E+02  0.00000000000E+00 0.  1.
         21    1    1    2  502  501  0.21614871070E+01 -0.23414777673E+02 -0.40183768317E+02  0.46558125780E+02  0.00000000000E+00 0. -1.
<scales pt_clust_5="13000.00000" pt_clust_6="13000.00000" pt_clust_7="13000.00000" pt_clust_8="13000.00000" pt_clust_9="23.51433"></scales>
<clustering>
<clus scale="   23.514">  2  9  1 -1</clus>
<clus scale="   80.758">  5  6 -1 -1</clus>
<clus scale="   92.999">  7  8 -1 -1</clus>
<clus scale="   93.837">  2  5  1 -1</clus>
<clus scale="  104.558">  1  5  2 -1</clus>
</clustering>
</event>
<event>
 9    1  0.2802611E-005  0.1667828E+03  0.7546771E-02  0.1182322E+00
          1   -1    0    0  502    0  0.00000000000E+00  0.00000000000E+00  0.48364323024E+03  0.48364323024E+03  0.00000000000E+00 0. -1.
         -2   -1    0    0    0  501 -0.00000000000E+00 -0.00000000000E+00 -0.70523564837E+02  0.70523564837E+02  0.00000000000E+00 0.  1.
        -24    2    1    2    0    0 -0.19666543972E+01  0.14234396531E+03  0.11292263942E+03  0.20071008810E+03  0.85248723053E+02 0.  0.
         23    2    1    2    0    0  0.23000530134E+02 -0.13100829946E+03  0.27048836197E+03  0.31533157135E+03  0.92616667061E+02 0.  0.
         11    1    3    3    0    0  0.29251220652E+02  0.18372426787E+02  0.42459389135E+02  0.54735543310E+02  0.00000000000E+00 0. -1.
        -12    1    3    3    0    0 -0.31217875049E+02  0.12397153852E+03  0.70463250283E+02  0.14597454479E+03  0.00000000000E+00 0.  1.
        -13    1    4    4    0    0 -0.20677790807E+02 -0.11255149409E+03  0.19868816079E+03  0.22928670937E+03  0.00000000000E+00 0. -1.
         13    1    4    4    0    0  0.43678320941E+02 -0.18456805368E+02  0.71800201181E+02  0.86044861987E+02  0.00000000000E+00 0.  1.
         21    1    1    2  502  501 -0.21033875737E+02 -0.11335665848E+02  0.29708664014E+02  0.38125135622E+02  0.00000000000E+00 0. -1.
<scales pt_clust_5="13000.00000" pt_clust_6="13000.00000" pt_clust_7="13000.00000" pt_clust_8="13000.00000" pt_clust_9="23.89396"></scales>
<clustering>
<clus scale="   23.894">  1  9  2 -1</clus>
<clus scale="   85.249">  5  6 -1 -1</clus>
<clus scale="   92.617">  7  8 -1 -1</clus>
<clus scale="  162.807">  2  5  1 -1</clus>
<clus scale="   23.894">  1  5  2 -1</clus>
</clustering>
</event>
<event>
 9    1  0.2802611E-005  0.1108799E+03  0.7546771E-02  0.1272135E+00
         -2   -1    0    0    0  501 -0.00000000000E+00  0.00000000000E+00  0.32349535596E+03  0.32349535596E+03  0.00000000000E+00 0.  1.
          1   -1    0    0  502    0  0.00000000000E+00 -0.00000000000E+00 -0.20473992387E+03  0.20473992387E+03  0.00000000000E+00 0. -1.
         23    2    1    2    0    0  0.11983559100E+01 -0.68176285421E+02  0.24807897441E+03  0.27806331188E+03  0.10548263327E+03 0.  0.
        -24    2    1    2    0    0  0.20210650108E+02  0.26570325205E+02 -0.16864096515E+03  0.18905518464E+03  0.78661522680E+02 0.  0.
         11    1    4    4    0    0  0.53694641411E+00  0.52000668447E+02 -0.87655277793E+02  0.10192058455E+03  0.00000000000E+00 0. -1.
        -12    1    4    4    0    0  0.19673703694E+02 -0.25430343242E+02 -0.80985687361E+02  0.87134600084E+02  0.00000000000E+00 0.  1.
        -13    1    3    3    0    0  0.35037385477E+02 -0.39782147913E+02  0.42936150192E+02  0.68218404166E+02  0.00000000000E+00 0. -1.
         13    1    3    3    0    0 -0.33839029567E+02 -0.28394137508E+02  0.20514282422E+03  0.20984490772E+03  0.00000000000E+00 0.  1.
         21    1    1    2  502  501 -0.21409006018E+02  0.41605960215E+02  0.39317422836E+02  0.61116783314E+02  0.00000000000E+00 0. -1.
<scales pt_clust_5="13000.00000" pt_clust_6="13000.00000" pt_clust_7="13000.00000" pt_clust_8="13000.00000" pt_clust_9="46.79104"></scales>
<clustering>
<clus scale="   46.791">  1  9  2 -1</clus>
<clus scale="   78.662">  5  6 -1 -1</clus>
<clus scale="   85.764">  2  5  1 -1</clus>
<clus scale="  105.483">  7  8 -1 -1</clus>
<clus scale="   85.764">  2  5  1 -1</clus>
</clustering>
</event>
<event>
 9    1  0.2802611E-005  0.2132019E+03  0.7546771E-02  0.1161811E+00
          1   -1    0    0  502    0  0.00000000000E+00  0.00000000000E+00  0.80762511961E+03  0.80762511961E+03  0.00000000000E+00 0. -1.
         -2   -1    0    0    0  501 -0.00000000000E+00 -0.00000000000E+00 -0.20676111723E+03  0.20676111723E+03  0.00000000000E+00 0.  1.
         23    2    1    2    0    0  0.18424689917E+03 -0.45734645893E+02  0.57661000422E+03  0.61370962934E+03  0.90121221065E+02 0.  0.
        -24    2    1    2    0    0 -0.28141428445E+02 -0.70925427809E+02  0.12918886194E+03  0.17934017485E+03  0.98238383341E+02 0.  0.
         11    1    4    4    0    0 -0.17015902056E+02 -0.94855580215E+02  0.11242441536E+03  0.14807555906E+03  0.00000000000E+00 0. -1.
        -12    1    4    4    0    0 -0.11125526389E+02  0.23930152406E+02  0.16764446576E+02  0.31264615792E+02  0.00000000000E+00 0.  1.
        -13    1    3    3    0    0  0.12226135546E+03 -0.72692744978E+02  0.40614561034E+03  0.43033281424E+03  0.00000000000E+00 0.  1.
         13    1    3    3    0    0  0.61985543706E+02  0.26958099085E+02  0.17046439388E+03  0.18337681510E+03  0.00000000000E+00 0. -1.
         21    1    1    2  502  501 -0.15610547072E+03  0.11666007370E+03 -0.10493486378E+03  0.22133643266E+03  0.00000000000E+00 0.  1.
<scales pt_clust_5="13000.00000" pt_clust_6="13000.00000" pt_clust_7="13000.00000" pt_clust_8="13000.00000" pt_clust_9="193.21810"></scales>
<clustering>
<clus scale="   90.121">  7  8 -1 -1</clus>
<clus scale="   98.238">  5  6 -1 -1</clus>
<clus scale="  124.391">  1  5  2 -1</clus>
<clus scale="  193.218">  2  9  1 -1</clus>
<clus scale="  124.391">  1  5  2 -1</clus>
</clustering>
</event>
<event>
 9    1  0.2802611E-005  0.1045779E+03  0.7546771E-02  0.1274911E+00
         -2   -1    0    0    0  501 -0.00000000000E+00  0.00000000000E+00  0.11554338806E+03  0.11554338806E+03  0.00000000000E+00 0.  1.
          1   -1    0    0  502    0  0.00000000000E+00 -0.00000000000E+00 -0.24128150292E+03  0.24128150292E+03  0.00000000000E+00 0. -1.
        -24    2    1    2    0    0 -0.40936739555E+02 -0.68512815351E+02 -0.83766640845E+01  0.11346984578E+03  0.80221037692E+02 0.  0.
         23    2    1    2    0    0  0.21534152962E+02  0.42136830241E+02 -0.16020265957E+03  0.18943360114E+03  0.89336246298E+02 0.  0.
         11    1    3    3    0    0 -0.19725564953E+02 -0.79379639220E+02 -0.23672919019E+02  0.85150643746E+02  0.00000000000E+00 0. -1.
        -12    1    3    3    0    0 -0.21211174602E+02  0.10866823870E+02  0.15296254935E+02  0.28319202038E+02  0.00000000000E+00 0.  1.
        -13    1    4    4    0    0 -0.16196017746E+02  0.50092188898E+02 -0.13063003648E+03  0.14083942918E+03  0.00000000000E+00 0.  1.
         13    1    4    4    0    0  0.37730170708E+02 -0.79553586572E+01 -0.29572623089E+02  0.48594171969E+02  0.00000000000E+00 0. -1.
         21    1    1    2  502  501  0.19402586593E+02  0.26375985110E+02  0.42841208801E+02  0.53921444051E+02  0.00000000000E+00 0.  1.
<scales pt_clust_5="13000.00000" pt_clust_6="13000.00000" pt_clust_7="13000.00000" pt_clust_8="13000.00000" pt_clust_9="32.74375"></scales>
<clustering>
<clus scale="   32.744">  1  9  2 -1</clus>
<clus scale="   80.221">  5  6 -1 -1</clus>
<clus scale="   89.336">  7  8 -1 -1</clus>
<clus scale="   96.907">  1  5  2 -1</clus>
<clus scale="  104.578">  2  5  1 -1</clus>
</clustering>
</event>
<event>
 9    1  0.2802611E-005  0.2088282E+03  0.7546771E-02  0.1161502E+00
          1   -1    0    0  502    0  0.00000000000E+00  0.00000000000E+00  0.14444343490E+04  0.14444343490E+04  0.00000000000E+00 0. -1.
         -2   -1    0    0    0  501 -0.00000000000E+00 -0.00000000000E+00 -0.54743262734E+02  0.54743262734E+02  0.00000000000E+00 0.  1.
         23    2    1    2    0    0  0.23084342416E+03 -0.62372866188E+02  0.61778785875E+03  0.66836529411E+03  0.88720161386E+02 0.  0.
        -24    2    1    2    0    0 -0.65374112816E+02  0.82968484833E+02  0.43382186475E+03  0.45384643011E+03  0.81348802613E+02 0.  0.
         13    1    4    4    0    0 -0.60430497046E+02  0.97257127153E+02  0.40950855656E+03  0.42521530035E+03  0.00000000000E+00 0. -1.
        -14    1    4    4    0    0 -0.49436157696E+01 -0.14288642320E+02  0.24313308189E+02  0.28631129760E+02  0.00000000000E+00 0.  1.
        -13    1    3    3    0    0  0.16053079896E+03 -0.75225607495E+02  0.50098670409E+03  0.53142892950E+03  0.00000000000E+00 0. -1.
         13    1    3    3    0    0  0.70312625201E+02  0.12852741308E+02  0.11680115466E+03  0.13693636461E+03  0.00000000000E+00 0.  1.
         21    1    1    2  502  501 -0.16546931134E+03 -0.20595618646E+02  0.33808136280E+03  0.37696588755E+03  0.00000000000E+00 0. -1.
<scales pt_clust_5="13000.00000" pt_clust_6="13000.00000" pt_clust_7="13000.00000" pt_clust_8="13000.00000" pt_clust_9="189.04482"></scales>
<clustering>
<clus scale="   81.349">  5  6 -1 -1</clus>
<clus scale="   88.720">  7  8 -1 -1</clus>
<clus scale="  133.324">  1  5  2 -1</clus>
<clus scale="  189.045">  2  9  1 -1</clus>
<clus scale="  133.324">  1  5  2 -1</clus>
</clustering>
</event>
<event>
 9    1  0.2802611E-005  0.1015509E+03  0.7546771E-02  0.1280203E+00
         -2   -1    0    0    0  501 -0.00000000000E+00  0.00000000000E+00  0.18500244213E+03  0.18500244213E+03  0.00000000000E+00 0.  1.
          1   -1    0    0  502    0  0.00000000000E+00 -0.00000000000E+00 -0.80982118149E+02  0.80982118149E+02  0.00000000000E+00 0. -1.
         23    2    1    2    0    0  0.63100539174E+02 -0.13140111251E+02  0.42008112201E+02  0.11655173114E+03  0.87551607485E+02 0.  0.
        -24    2    1    2    0    0 -0.28879794860E+02  0.36620380929E+02  0.33137934136E+02  0.98874879072E+02  0.80641330483E+02 0.  0.
         11    1    4    4    0    0 -0.59523827538E+01 -0.25811517187E+02  0.68579570794E+01  0.27362325472E+02  0.00000000000E+00 0. -1.
        -12    1    4    4    0    0 -0.22927412106E+02  0.62431898116E+02  0.26279977057E+02  0.71512553600E+02  0.00000000000E+00 0.  1.
        -13    1    3    3    0    0  0.66711115127E+02  0.12690707517E+02  0.55024638730E+02  0.87402161335E+02  0.00000000000E+00 0.  1.
         13    1    3    3    0    0 -0.36105759527E+01 -0.25830818768E+02 -0.13016526529E+02  0.29149569805E+02  0.00000000000E+00 0. -1.
         21    1    1    2  502  501 -0.34220744314E+02 -0.23480269678E+02  0.28874277642E+02  0.50557950066E+02  0.00000000000E+00 0.  1.
<scales pt_clust_5="13000.00000" pt_clust_6="13000.00000" pt_clust_7="13000.00000" pt_clust_8="13000.00000" pt_clust_9="41.50160"></scales>
<clustering>
<clus scale="   41.502">  1  9  2 -1</clus>
<clus scale="   80.641">  5  6 -1 -1</clus>
<clus scale="   87.552">  7  8 -1 -1</clus>
<clus scale="   95.657">  2  5  1 -1</clus>
<clus scale="   95.657">  2  5  1 -1</clus>
</clustering>
</event>
<event>
 9    1  0.2802611E-005  0.1246513E+03  0.7546771E-02  0.1239726E+00
          1   -1    0    0  502    0  0.00000000000E+00  0.00000000000E+00  0.22942252463E+03  0.22942252463E+03  0.00000000000E+00 0. -1.
         -2   -1    0    0    0  501 -0.00000000000E+00 -0.00000000000E+00 -0.15268940525E+03  0.15268940525E+03  0.00000000000E+00 0.  1.
         23    2    1    2    0    0 -0.36654707478E+02 -0.58786528371E+02 -0.59586316564E+02  0.13111753569E+03  0.94031141355E+02 0.  0.
        -24    2    1    2    0    0  0.62072771929E+02  0.57466574332E+02  0.17160995334E+03  0.20748300607E+03  0.80273193180E+02 0.  0.
         11    1    4    4    0    0  0.35374023155E+02  0.15994233121E+02  0.14761173166E+03  0.15263145262E+03  0.00000000000E+00 0. -1.
        -12    1    4    4    0    0  0.26698748773E+02  0.41472341211E+02  0.23998221678E+02  0.54851553445E+02  0.00000000000E+00 0.  1.
        -13    1    3    3    0    0 -0.17891671902E+02 -0.20654278477E+02  0.24628562003E+02  0.36786916277E+02  0.00000000000E+00 0. -1.
         13    1    3    3    0    0 -0.18763035575E+02 -0.38132249894E+02 -0.84214878567E+02  0.94330619409E+02  0.00000000000E+00 0.  1.
         21    1    1    2  502  501 -0.25418064451E+02  0.13199540388E+01 -0.35290517391E+02  0.43511388128E+02  0.00000000000E+00 0.  1.
<scales pt_clust_5="13000.00000" pt_clust_6="13000.00000" pt_clust_7="13000.00000" pt_clust_8="13000.00000" pt_clust_9="25.45231"></scales>
<clustering>
<clus scale="   25.452">  2  9  1 -1</clus>
<clus scale="   80.273">  5  6 -1 -1</clus>
<clus scale="   94.031">  7  8 -1 -1</clus>
<clus scale="  114.629">  1  5  2 -1</clus>
<clus scale="  114.629">  1  5  2 -1</clus>
</clustering>
</event>
<event>
 9    1  0.2802611E-005  0.1216458E+03  0.7546771E-02  0.1240617E+00
         -2   -1    0    0    0  501 -0.00000000000E+00  0.00000000000E+00  0.84595072760E+02  0.84595072760E+02  0.00000000000E+00 0.  1.
          1   -1    0    0  502    0  0.00000000000E+00 -0.00000000000E+00 -0.29297576498E+03  0.29297576498E+03  0.00000000000E+00 0. -1.
        -24    2    1    2    0    0  0.54112950566E+02  0.65672769409E+02 -0.62534944695E+02  0.14133115993E+03  0.93929512928E+02 0.  0.
         23    2    1    2    0    0 -0.33606331223E+02 -0.64677533186E+02 -0.16794513691E+03  0.20607521291E+03  0.94598390927E+02 0.  0.
         13    1    3    3    0    0  0.22551144400E+02  0.18629757680E+02 -0.77417407820E+02  0.82759150664E+02  0.00000000000E+00 0. -1.
        -14    1    3    3    0    0  0.31561806166E+02  0.47043011730E+02  0.14882463125E+02  0.58572009268E+02  0.00000000000E+00 0.  1.
        -13    1    4    4    0    0  0.24765133493E+01 -0.74940391948E+02 -0.75956691459E+02  0.10673150632E+03  0.00000000000E+00 0.  1.
         13    1    4    4    0    0 -0.36082844573E+02  0.10262858762E+02 -0.91988445449E+02  0.99343706587E+02  0.00000000000E+00 0. -1.
         21    1    1    2  502  501 -0.20506619343E+02 -0.99523622373E+00  0.22099389380E+02  0.30164464905E+02  0.00000000000E+00 0. -1.
<scales pt_clust_5="13000.00000" pt_clust_6="13000.00000" pt_clust_7="13000.00000" pt_clust_8="13000.00000" pt_clust_9="20.53076"></scales>
<clustering>
<clus scale="   20.531">  1  9  2 -1</clus>
<clus scale="   93.930">  5  6 -1 -1</clus>
<clus scale="   94.598">  7  8 -1 -1</clus>
<clus scale="  121.126">  1  5  2 -1</clus>
<clus scale="  121.646">  2  5  1 -1</clus>
</clustering>
</event>
<event>
 9    1  0.2802611E-005  0.3400953E+03  0.7546771E-02  0.1087628E+00
         -2   -1    0    0    0  501 -0.00000000000E+00  0.00000000000E+00  0.22704675066E+03  0.22704675066E+03  0.00000000000E+00 0.  1.
          1   -1    0    0  502    0  0.00000000000E+00 -0.00000000000E+00 -0.11646414098E+04  0.11646414098E+04  0.00000000000E+00 0. -1.
         23    2    1    2    0    0 -0.12204798364E+02 -0.22086874121E+03 -0.70934233794E+03  0.74846940729E+03  0.90044118684E+02 0.  0.
        -24    2    1    2    0    0 -0.14328653094E+03 -0.10353426098E+03 -0.20650932001E+03  0.28281950316E+03  0.78041008248E+02 0.  0.
         11    1    4    4    0    0 -0.45572513029E+01 -0.29380521693E+02 -0.10582892654E+02  0.31559170003E+02  0.00000000000E+00 0. -1.
        -12    1    4    4    0    0 -0.13872927964E+03 -0.74153739284E+02 -0.19592642736E+03  0.25126033315E+03  0.00000000000E+00 0.  1.
        -11    1    3    3    0    0 -0.35446567739E+02 -0.20412373422E+03 -0.65577650636E+03  0.68772507903E+03  0.00000000000E+00 0. -1.
         11    1    3    3    0    0  0.23241769374E+02 -0.16745006990E+02 -0.53565831582E+02  0.60744328260E+02  0.00000000000E+00 0.  1.
         21    1    1    2  502  501  0.15549132930E+03  0.32440300218E+03 -0.21743001184E+02  0.36039925002E+03  0.00000000000E+00 0.  1.
<scales pt_clust_5="13000.00000" pt_clust_6="13000.00000" pt_clust_7="13000.00000" pt_clust_8="13000.00000" pt_clust_9="327.95861"></scales>
<clustering>
<clus scale="   78.041">  5  6 -1 -1</clus>
<clus scale="   90.044">  7  8 -1 -1</clus>
<clus scale="  193.238">  2  5  1 -1</clus>
<clus scale="  327.959">  1  9  2 -1</clus>
<clus scale="  193.238">  2  5  1 -1</clus>
</clustering>
</event>
<event>
 9    1  0.2802611E-005  0.1080459E+03  0.7546771E-02  0.1269956E+00
         -2   -1    0    0    0  501 -0.00000000000E+00  0.00000000000E+00  0.28144019218E+03  0.28144019218E+03  0.00000000000E+00 0.  1.
          1   -1    0    0  502    0  0.00000000000E+00 -0.00000000000E+00 -0.11116898631E+03  0.11116898631E+03  0.00000000000E+00 0. -1.
        -24    2    1    2    0    0 -0.58633039077E+02  0.44703686982E+02  0.18394919833E+03  0.21320227639E+03  0.78623470986E+02 0.  0.
         23    2    1    2    0    0  0.54943813511E+02 -0.35253636128E+01 -0.55226744984E+02  0.12079322164E+03  0.92248350668E+02 0.  0.
         13    1    3    3    0    0 -0.40486157252E+02  0.85501575694E+00  0.25631699330E+02  0.47925400275E+02  0.00000000000E+00 0. -1.
        -14    1    3    3    0    0 -0.18146881824E+02  0.43848671225E+02  0.15831749900E+03  0.16527687611E+03  0.00000000000E+00 0.  1.
        -13    1    4    4    0    0  0.29355421377E+02 -0.18453864737E+02 -0.76720771008E+02  0.84192414100E+02  0.00000000000E+00 0. -1.
         13    1    4    4    0    0  0.25588392135E+02  0.14928501124E+02  0.21494026024E+02  0.36600807540E+02  0.00000000000E+00 0.  1.
         21    1    1    2  502  501  0.36892255655E+01 -0.41178323369E+02  0.41548752532E+02  0.58613680466E+02  0.00000000000E+00 0. -1.
<scales pt_clust_5="13000.00000" pt_clust_6="13000.00000" pt_clust_7="13000.00000" pt_clust_8="13000.00000" pt_clust_9="41.34325"></scales>
<clustering>
<clus scale="   41.343">  1  9  2 -1</clus>
<clus scale="   78.623">  5  6 -1 -1</clus>
<clus scale="   92.248">  7  8 -1 -1</clus>
<clus scale="   96.674">  1  5  2 -1</clus>
<clus scale="  108.046">  2  5  1 -1</clus>
</clustering>
</event>
<event>
 9    1  0.2802611E-005  0.1131482E+03  0.7546771E-02  0.1262937E+00
          1   -1    0    0  502    0  0.00000000000E+00  0.00000000000E+00  0.63712569667E+02  0.63712569667E+02  0.00000000000E+00 0. -1.
         -2   -1    0    0    0  501 -0.00000000000E+00 -0.00000000000E+00 -0.54974219411E+03  0.54974219411E+03  0.00000000000E+00 0.  1.
        -24    2    1    2    0    0 -0.59255443978E+02 -0.34747501520E+02 -0.34922412099E+03  0.36497324149E+03  0.80804602699E+02 0.  0.
         23    2    1    2    0    0  0.48753430979E+02 -0.24897934308E+02 -0.18518358802E+02  0.11559164727E+03  0.10010841694E+03 0.  0.
         13    1    3    3    0    0  0.16399712045E+01  0.20791676532E+02 -0.42105031636E+02  0.46987413289E+02  0.00000000000E+00 0. -1.
        -14    1    3    3    0    0 -0.60895415182E+02 -0.55539178052E+02 -0.30711908935E+03  0.31798582820E+03  0.00000000000E+00 0.  1.
        -13    1    4    4    0    0  0.25423122286E+02 -0.63787280388E+02 -0.13281253498E+02  0.69939573781E+02  0.00000000000E+00 0.  1.
         13    1    4    4    0    0  0.23330308693E+02  0.38889346081E+02 -0.52371053039E+01  0.45652073493E+02  0.00000000000E+00 0. -1.
         21    1    1    2  502  501  0.10502012998E+02  0.59645435828E+02 -0.11828714465E+03  0.13288987502E+03  0.00000000000E+00 0. -1.
<scales pt_clust_5="13000.00000" pt_clust_6="13000.00000" pt_clust_7="13000.00000" pt_clust_8="13000.00000" pt_clust_9="60.56294"></scales>
<clustering>
<clus scale="   60.563">  2  9  1 -1</clus>
<clus scale="   80.805">  5  6 -1 -1</clus>
<clus scale="   96.489">  2  5  1 -1</clus>
<clus scale="  100.108">  7  8 -1 -1</clus>
<clus scale="  113.148">  1  5  2 -1</clus>
</clustering>
</event>
<event>
 9    1  0.2802611E-005  0.1307572E+03  0.7546771E-02  0.1228956E+00
          1   -1    0    0  502    0  0.00000000000E+00  0.00000000000E+00  0.40042163327E+03  0.40042163327E+03  0.00000000000E+00 0. -1.
         -2   -1    0    0    0  501 -0.00000000000E+00 -0.00000000000E+00 -0.27809150256E+03  0.27809150256E+03  0.00000000000E+00 0.  1.
        -24    2    1    2    0    0  0.30948510899E+02  0.89594030195E+01 -0.40048066869E+02  0.94537908539E+02  0.79344106660E+02 0.  0.
         23    2    1    2    0    0 -0.10556205105E+03  0.25616519116E+02  0.35098874813E+03  0.37821659553E+03  0.89750427006E+02 0.  0.
         13    1    3    3    0    0 -0.66392024907E+01  0.23595265098E+02 -0.47562704994E+02  0.53507256060E+02  0.00000000000E+00 0. -1.
        -14    1    3    3    0    0  0.37587713390E+02 -0.14635862078E+02  0.75146381252E+01  0.41030652479E+02  0.00000000000E+00 0.  1.
        -13    1    4    4    0    0 -0.93612360965E+02 -0.12302124290E+02  0.18708598057E+03  0.20956092315E+03  0.00000000000E+00 0.  1.
         13    1    4    4    0    0 -0.11949690085E+02  0.37918643406E+02  0.16390276757E+03  0.16865567238E+03  0.00000000000E+00 0. -1.
         21    1    1    2  502  501  0.74613540151E+02 -0.34575922135E+02 -0.18861055055E+03  0.20575863176E+03  0.00000000000E+00 0.  1.
<scales pt_clust_5="13000.00000" pt_clust_6="13000.00000" pt_clust_7="13000.00000" pt_clust_8="13000.00000" pt_clust_9="82.23548"></scales>
<clustering>
<clus scale="   79.344">  5  6 -1 -1</clus>
<clus scale="   82.235">  2  9  1 -1</clus>
<clus scale="   89.750">  7  8 -1 -1</clus>
<clus scale="  123.846">  2  5  1 -1</clus>
<clus scale="  130.757">  1  5  2 -1</clus>
</clustering>
</event>
<event>
 9    1  0.2802611E-005  0.1152558E+03  0.7546771E-02  0.1255426E+00
          1   -1    0    0  502    0  0.00000000000E+00  0.00000000000E+00  0.22130325350E+03  0.22130325350E+03  0.00000000000E+00 0. -1.
         -2   -1    0    0    0  501 -0.00000000000E+00 -0.00000000000E+00 -0.76077821478E+02  0.76077821478E+02  0.00000000000E+00 0.  1.
        -24    2    1    2    0    0 -0.10366472391E+02 -0.73872842023E+02  0.20360061467E+02  0.11162484788E+03  0.80504124259E+02 0.  0.
         23    2    1    2    0    0  0.26349927885E+02  0.61157715248E+02  0.11831711357E+03  0.16430803445E+03  0.92539753551E+02 0.  0.
         11    1    3    3    0    0  0.10145215863E+02 -0.25280051201E+02  0.45627686747E+02  0.53140306656E+02  0.00000000000E+00 0. -1.
        -12    1    3    3    0    0 -0.20511688253E+02 -0.48592790822E+02 -0.25267625279E+02  0.58484541224E+02  0.00000000000E+00 0.  1.
        -11    1    4    4    0    0  0.18325986105E+02  0.28859586469E+02  0.12566030845E+03  0.13022761081E+03  0.00000000000E+00 0. -1.
         11    1    4    4    0    0  0.80239417799E+01  0.32298128779E+02 -0.73431948806E+01  0.34080423638E+02  0.00000000000E+00 0.  1.
         21    1    1    2  502  501 -0.15983455494E+02  0.12715126775E+02  0.65482569863E+01  0.21448192651E+02  0.00000000000E+00 0. -1.
<scales pt_clust_5="13000.00000" pt_clust_6="13000.00000" pt_clust_7="13000.00000" pt_clust_8="13000.00000" pt_clust_9="20.42414"></scales>
<clustering>
<clus scale="   20.424">  2  9  1 -1</clus>
<clus scale="   80.504">  5  6 -1 -1</clus>
<clus scale="   92.540">  7  8 -1 -1</clus>
<clus scale="  105.836">  2  5  1 -1</clus>
<clus scale="  115.256">  1  5  2 -1</clus>
</clustering>
</event>
<event>
 9    1  0.2802611E-005  0.1183105E+03  0.7546771E-02  0.1250417E+00
          1   -1    0    0  502    0  0.00000000000E+00  0.00000000000E+00  0.10477455335E+03  0.10477455335E+03  0.00000000000E+00 0. -1.
         -2   -1    0    0    0  501 -0.00000000000E+00 -0.00000000000E+00 -0.45000960018E+03  0.45000960018E+03  0.00000000000E+00 0.  1.
         23    2    1    2    0    0 -0.86880469967E+01  0.58949071210E+02 -0.24289662377E+03  0.26708090833E+03  0.93717482882E+02 0.  0.
        -24    2    1    2    0    0  0.46798795260E+02 -0.58396293834E+02  0.57068589219E+02  0.12380287833E+03  0.80436772903E+02 0.  0.
         13    1    4    4    0    0  0.63898360036E+02 -0.40443946211E+02  0.18333516005E+02  0.77812794639E+02  0.00000000000E+00 0. -1.
        -14    1    4    4    0    0 -0.17099564776E+02 -0.17952347623E+02  0.38735073214E+02  0.45990083687E+02  0.00000000000E+00 0.  1.
        -13    1    3    3    0    0 -0.37926723807E+02  0.39027279581E+02 -0.21568975287E+03  0.22244917268E+03  0.00000000000E+00 0.  1.
         13    1    3    3    0    0  0.29238676810E+02  0.19921791629E+02 -0.27206870898E+02  0.44631735653E+02  0.00000000000E+00 0. -1.
         21    1    1    2  502  501 -0.38110748263E+02 -0.55277737556E+00 -0.15940701228E+03  0.16390036687E+03  0.00000000000E+00 0. -1.
<scales pt_clust_5="13000.00000" pt_clust_6="13000.00000" pt_clust_7="13000.00000" pt_clust_8="13000.00000" pt_clust_9="38.11476"></scales>
<clustering>
<clus scale="   38.115">  2  9  1 -1</clus>
<clus scale="   80.437">  5  6 -1 -1</clus>
<clus scale="   93.717">  7  8 -1 -1</clus>
<clus scale="  108.095">  1  5  2 -1</clus>
<clus scale="  108.095">  1  5  2 -1</clus>
</clustering>
</event>
<event>
 9    1  0.2802611E-005  0.1213067E+03  0.7546771E-02  0.1243997E+00
         -2   -1    0    0    0  501 -0.00000000000E+00  0.00000000000E+00  0.13069191661E+03  0.13069191661E+03  0.00000000000E+00 0.  1.
          1   -1    0    0  502    0  0.00000000000E+00 -0.00000000000E+00 -0.47374449327E+03  0.47374449327E+03  0.00000000000E+00 0. -1.
        -24    2    1    2    0    0  0.38305346367E+02  0.72075812087E+02 -0.19052392329E+03  0.22318783614E+03  0.82772112484E+02 0.  0.
         23    2    1    2    0    0 -0.28082296243E+01 -0.79564731487E+02 -0.24948225456E+03  0.27772983152E+03  0.92488006387E+02 0.  0.
         13    1    3    3    0    0  0.28547347473E+02  0.65277124892E+02 -0.19711143575E+03  0.20959239534E+03  0.00000000000E+00 0. -1.
        -14    1    3    3    0    0  0.97579988938E+01  0.67986871944E+01  0.65875124595E+01  0.13595440794E+02  0.00000000000E+00 0.  1.
        -11    1    4    4    0    0  0.26683822221E+02  0.24320813168E+01 -0.11039560572E+03  0.11360075330E+03  0.00000000000E+00 0.  1.
         11    1    4    4    0    0 -0.29492051845E+02 -0.81996812803E+02 -0.13908664884E+03  0.16412907822E+03  0.00000000000E+00 0. -1.
         21    1    1    2  502  501 -0.35497116743E+02  0.74889193997E+01  0.96953601184E+02  0.10351874223E+03  0.00000000000E+00 0. -1.
<scales pt_clust_5="13000.00000" pt_clust_6="13000.00000" pt_clust_7="13000.00000" pt_clust_8="13000.00000" pt_clust_9="36.27850"></scales>
<clustering>
<clus scale="   36.278">  1  9  2 -1</clus>
<clus scale="   82.772">  5  6 -1 -1</clus>
<clus scale="   92.488">  7  8 -1 -1</clus>
<clus scale="  114.072">  1  5  2 -1</clus>
<clus scale="  121.307">  2  5  1 -1</clus>
</clustering>
</event>
<event>
 9    1  0.2802611E-005  0.9629568E+02  0.7546771E-02  0.1301284E+00
          1   -1    0    0  502    0  0.00000000000E+00  0.00000000000E+00  0.67490275279E+03  0.67490275279E+03  0.00000000000E+00 0. -1.
         -2   -1    0    0    0  501 -0.00000000000E+00 -0.00000000000E+00 -0.26342763272E+02  0.26342763272E+02  0.00000000000E+00 0.  1.
        -24    2    1    2    0    0  0.26626277943E+02 -0.63206625526E+02  0.14054323224E+03  0.17087149545E+03  0.68852244993E+02 0.  0.
         23    2    1    2    0    0 -0.18132674181E+02  0.87264524085E+01  0.37406659693E+03  0.38551934853E+03  0.91073620256E+02 0.  0.
         13    1    3    3    0    0  0.37727247523E+02 -0.50683298772E+02  0.14059107365E+03  0.15413627727E+03  0.00000000000E+00 0. -1.
        -14    1    3    3    0    0 -0.11100969580E+02 -0.12523326753E+02 -0.47841413741E-01  0.16735218176E+02  0.00000000000E+00 0.  1.
        -13    1    4    4    0    0 -0.45144466336E+02 -0.23698311869E+02  0.19659898518E+03  0.20310291431E+03  0.00000000000E+00 0.  1.
         13    1    4    4    0    0  0.27011792155E+02  0.32424764277E+02  0.17746761175E+03  0.18241643422E+03  0.00000000000E+00 0. -1.
         21    1    1    2  502  501 -0.84936037628E+01  0.54480173117E+02  0.13395016035E+03  0.14485467209E+03  0.00000000000E+00 0. -1.
<scales pt_clust_5="13000.00000" pt_clust_6="13000.00000" pt_clust_7="13000.00000" pt_clust_8="13000.00000" pt_clust_9="55.13829"></scales>
<clustering>
<clus scale="   55.138">  2  9  1 -1</clus>
<clus scale="   68.852">  5  6 -1 -1</clus>
<clus scale="   75.625">  2  5  1 -1</clus>
<clus scale="   91.074">  7  8 -1 -1</clus>
<clus scale="   96.296">  1  5  2 -1</clus>
</clustering>
</event>
<event>
 9    1  0.2802611E-005  0.1468011E+03  0.7546771E-02  0.1207517E+00
         -2   -1    0    0    0  501 -0.00000000000E+00  0.00000000000E+00  0.14031814583E+03  0.14031814583E+03  0.00000000000E+00 0.  1.
          1   -1    0    0  502    0  0.00000000000E+00 -0.00000000000E+00 -0.71576148422E+03  0.71576148422E+03  0.00000000000E+00 0. -1.
        -24    2    1    2    0    0  0.33555601984E+01 -0.11230361953E+03  0.15381412294E+02  0.13706224344E+03  0.76981218416E+02 0.  0.
         23    2    1    2    0    0 -0.28923500306E+02  0.11061614051E+03 -0.64367638730E+03  0.66028185529E+03  0.92630110944E+02 0.  0.
         13    1    3    3    0    0 -0.35012298072E+02 -0.34463391603E+02  0.13050746349E+01  0.49145595905E+02  0.00000000000E+00 0. -1.
        -14    1    3    3    0    0  0.38367858270E+02 -0.77840227925E+02  0.14076337659E+02  0.87916647533E+02  0.00000000000E+00 0.  1.
        -13    1    4    4    0    0  0.25200611146E+02  0.70338284405E+02 -0.25221809929E+03  0.26305230405E+03  0.00000000000E+00 0.  1.
         13    1    4    4    0    0 -0.54124111452E+02  0.40277856100E+02 -0.39145828800E+03  0.39722955124E+03  0.00000000000E+00 0. -1.
         21    1    1    2  502  501  0.25567940108E+02  0.16874790225E+01  0.52851636611E+02  0.58735531319E+02  0.00000000000E+00 0. -1.
<scales pt_clust_5="13000.00000" pt_clust_6="13000.00000" pt_clust_7="13000.00000" pt_clust_8="13000.00000" pt_clust_9="25.62357"></scales>
<clustering>
<clus scale="   25.624">  1  9  2 -1</clus>
<clus scale="   76.981">  5  6 -1 -1</clus>
<clus scale="   92.630">  7  8 -1 -1</clus>
<clus scale="  137.464">  1  5  2 -1</clus>
<clus scale="  146.801">  2  5  1 -1</clus>
</clustering>
</event>
<event>
 9    1  0.2802611E-005  0.1045492E+03  0.7546771E-02  0.1278066E+00
         -2   -1    0    0    0  501 -0.00000000000E+00  0.00000000000E+00  0.89074503803E+02  0.89074503803E+02  0.00000000000E+00 0.  1.
          1   -1    0    0  502    0  0.00000000000E+00 -0.00000000000E+00 -0.46022286402E+03  0.46022286402E+03  0.00000000000E+00 0. -1.
         23    2    1    2    0    0  0.21387905312E+02  0.24351077842E+02  0.46185542705E+02  0.10778020407E+03  0.91831642419E+02 0.  0.
        -24    2    1    2    0    0 -0.25290857920E+02 -0.44496732179E+02 -0.40925828122E+03  0.41946504155E+03  0.76413308176E+02 0.  0.
         11    1    4    4    0    0 -0.52761679676E+02 -0.29576209552E+02 -0.28334446649E+03  0.28972855176E+03  0.00000000000E+00 0. -1.
        -12    1    4    4    0    0  0.27470821757E+02 -0.14920522627E+02 -0.12591381473E+03  0.12973648979E+03  0.00000000000E+00 0.  1.
        -13    1    3    3    0    0 -0.30236466793E+02 -0.66553583849E+01 -0.14545977713E+01  0.30994411980E+02  0.00000000000E+00 0. -1.
         13    1    3    3    0    0  0.51624372104E+02  0.31006436227E+02  0.47640140476E+02  0.76785792092E+02  0.00000000000E+00 0.  1.
         21    1    1    2  502  501  0.39029526078E+01  0.20145654337E+02 -0.80756217031E+01  0.22052122202E+02  0.00000000000E+00 0.  1.
<scales pt_clust_5="13000.00000" pt_clust_6="13000.00000" pt_clust_7="13000.00000" pt_clust_8="13000.00000" pt_clust_9="20.52024"></scales>
<clustering>
<clus scale="   20.520">  1  9  2 -1</clus>
<clus scale="   76.413">  5  6 -1 -1</clus>
<clus scale="   91.304">  2  5  1 -1</clus>
<clus scale="   91.832">  7  8 -1 -1</clus>
<clus scale="   91.304">  2  5  1 -1</clus>
</clustering>
</event>
<event>
 9    1  0.2802611E-005  0.1416268E+03  0.7546771E-02  0.1213099E+00
          3   -1    0    0  502    0  0.00000000000E+00  0.00000000000E+00  0.55612774786E+02  0.55612774786E+02  0.00000000000E+00 0. -1.
         -4   -1    0    0    0  501 -0.00000000000E+00 -0.00000000000E+00 -0.54413973014E+03  0.54413973014E+03  0.00000000000E+00 0.  1.
        -24    2    1    2    0    0 -0.23505174496E+02 -0.12300323335E+03 -0.32198999086E+03  0.35488587192E+03  0.81142709055E+02 0.  0.
         23    2    1    2    0    0 -0.88130275411E+01  0.10319838436E+03 -0.10670151164E+03  0.17403599243E+03  0.90419788130E+02 0.  0.
         11    1    3    3    0    0 -0.52648843087E+02 -0.78671588116E+02 -0.18131184275E+03  0.20453631408E+03  0.00000000000E+00 0. -1.
        -12    1    3    3    0    0  0.29143668591E+02 -0.44331645233E+02 -0.14067814811E+03  0.15034955784E+03  0.00000000000E+00 0.  1.
        -11    1    4    4    0    0  0.44005819852E+01  0.85028142228E+02 -0.24177217066E+02  0.88508123456E+02  0.00000000000E+00 0.  1.
         11    1    4    4    0    0 -0.13213609526E+02  0.18170242131E+02 -0.82524294579E+02  0.85527868976E+02  0.00000000000E+00 0. -1.
         21    1    1    2  502  501  0.32318202037E+02  0.19804848989E+02 -0.59835452846E+02  0.70830640571E+02  0.00000000000E+00 0. -1.
<scales pt_clust_5="13000.00000" pt_clust_6="13000.00000" pt_clust_7="13000.00000" pt_clust_8="13000.00000" pt_clust_9="37.90380"></scales>
<clustering>
<clus scale="   37.904">  2  9  1 -1</clus>
<clus scale="   81.143">  5  6 -1 -1</clus>
<clus scale="   90.420">  7  8 -1 -1</clus>
<clus scale="  135.892">  2  5  1 -1</clus>
<clus scale="  141.627">  1  5  2 -1</clus>
</clustering>
</event>
<event>
 9    1  0.2802611E-005  0.1293597E+03  0.7546771E-02  0.1231049E+00
          1   -1    0    0  502    0  0.00000000000E+00  0.00000000000E+00  0.30146851841E+03  0.30146851841E+03  0.00000000000E+00 0. -1.
         -2   -1    0    0    0  501 -0.00000000000E+00 -0.00000000000E+00 -0.24751974529E+03  0.24751974529E+03  0.00000000000E+00 0.  1.
        -24    2    1    2    0    0  0.96944789203E+02  0.39451753942E+02 -0.14283972955E+03  0.19437795874E+03  0.80155283440E+02 0.  0.
         23    2    1    2    0    0 -0.90328077840E+02 -0.16005969646E+02  0.25821948386E+03  0.28852512416E+03  0.90300015022E+02 0.  0.
         11    1    3    3    0    0  0.41998784316E+02  0.54207895059E+02 -0.10715893007E+03  0.12722197163E+03  0.00000000000E+00 0. -1.
        -12    1    3    3    0    0  0.54946004887E+02 -0.14756141117E+02 -0.35680799480E+02  0.67155987114E+02  0.00000000000E+00 0.  1.
        -11    1    4    4    0    0 -0.17254298154E+01 -0.36550414408E+02  0.57432754563E+02  0.68098687198E+02  0.00000000000E+00 0.  1.
         11    1    4    4    0    0 -0.88602648025E+02  0.20544444761E+02  0.20078672930E+03  0.22042643696E+03  0.00000000000E+00 0. -1.
         21    1    1    2  502  501 -0.66167113629E+01 -0.23445784295E+02 -0.61430981194E+02  0.66085180797E+02  0.00000000000E+00 0. -1.
<scales pt_clust_5="13000.00000" pt_clust_6="13000.00000" pt_clust_7="13000.00000" pt_clust_8="13000.00000" pt_clust_9="24.36156"></scales>
<clustering>
<clus scale="   24.362">  2  9  1 -1</clus>
<clus scale="   80.155">  5  6 -1 -1</clus>
<clus scale="   90.300">  7  8 -1 -1</clus>
<clus scale="  122.494">  2  5  1 -1</clus>
<clus scale="  129.360">  1  5  2 -1</clus>
</clustering>
</event>
<event>
 9    1  0.2802611E-005  0.1448753E+03  0.7546771E-02  0.1211770E+00
         -2   -1    0    0    0  501 -0.00000000000E+00  0.00000000000E+00  0.20221766099E+03  0.20221766099E+03  0.00000000000E+00 0.  1.
          1   -1    0    0  502    0  0.00000000000E+00 -0.00000000000E+00 -0.14242927120E+03  0.14242927120E+03  0.00000000000E+00 0. -1.
        -24    2    1    2    0    0  0.43853970862E+02 -0.99112408368E+02  0.86291830665E+01  0.13291674391E+03  0.76458863180E+02 0.  0.
         23    2    1    2    0    0 -0.13085608080E+02  0.10487800362E+03 -0.78249443364E+01  0.14495396262E+03  0.98892834640E+02 0.  0.
         11    1    3    3    0    0  0.60488675281E+02 -0.43970933989E+02  0.89850288371E+01  0.75319676156E+02  0.00000000000E+00 0. -1.
        -12    1    3    3    0    0 -0.16634704419E+02 -0.55141474379E+02 -0.35584577059E+00  0.57597067755E+02  0.00000000000E+00 0.  1.
        -11    1    4    4    0    0 -0.42614691111E+02  0.97637445776E+02  0.14111498204E+02  0.10746263117E+03  0.00000000000E+00 0.  1.
         11    1    4    4    0    0  0.29529083030E+02  0.72405578400E+01 -0.21936442540E+02  0.37491331448E+02  0.00000000000E+00 0. -1.
         21    1    1    2  502  501 -0.30768362782E+02 -0.57655952478E+01  0.58984151067E+02  0.66776225664E+02  0.00000000000E+00 0.  1.
<scales pt_clust_5="13000.00000" pt_clust_6="13000.00000" pt_clust_7="13000.00000" pt_clust_8="13000.00000" pt_clust_9="31.30390"></scales>
<clustering>
<clus scale="   31.304">  1  9  2 -1</clus>
<clus scale="   76.459">  5  6 -1 -1</clus>
<clus scale="   98.893">  7  8 -1 -1</clus>
<clus scale="  130.595">  1  5  2 -1</clus>
<clus scale="  144.875">  2  5  1 -1</clus>
</clustering>
</event>
<event>
 9    1  0.2802611E-005  0.4030970E+03  0.7546771E-02  0.1042907E+00
          1   -1    0    0  502    0  0.00000000000E+00  0.00000000000E+00  0.16830100001E+04  0.16830100001E+04  0.00000000000E+00 0. -1.
         -2   -1    0    0    0  501 -0.00000000000E+00 -0.00000000000E+00 -0.13767806966E+03  0.13767806966E+03  0.00000000000E+00 0.  1.
         23    2    1    2    0    0  0.24967664666E+03 -0.31476948066E+03  0.33029285355E+03  0.52802695034E+03  0.91108931147E+02 0.  0.
        -24    2    1    2    0    0 -0.26040453039E+03  0.29015467930E+03  0.11937915097E+04  0.12584202805E+04  0.80518175105E+02 0.  0.
         13    1    4    4    0    0 -0.47973187009E+02  0.91900607323E+02  0.24220233370E+03  0.26345610402E+03  0.00000000000E+00 0. -1.
        -14    1    4    4    0    0 -0.21243134338E+03  0.19825407198E+03  0.95158917597E+03  0.99496417651E+03  0.00000000000E+00 0.  1.
        -11    1    3    3    0    0  0.15122186238E+03 -0.13076850720E+03  0.12800391701E+03  0.23738883063E+03  0.00000000000E+00 0. -1.
         11    1    3    3    0    0  0.98454784280E+02 -0.18400097346E+03  0.20228893654E+03  0.29063811971E+03  0.00000000000E+00 0.  1.
         21    1    1    2  502  501  0.10727883728E+02  0.24614801356E+02  0.21247567242E+02  0.34240838903E+02  0.00000000000E+00 0. -1.
<scales pt_clust_5="13000.00000" pt_clust_6="13000.00000" pt_clust_7="13000.00000" pt_clust_8="13000.00000" pt_clust_9="26.85100"></scales>
<clustering>
<clus scale="   26.851">  2  9  1 -1</clus>
<clus scale="   80.518">  5  6 -1 -1</clus>
<clus scale="   91.109">  7  8 -1 -1</clus>
<clus scale="  400.836">  1  5  2 -1</clus>
<clus scale="  400.836">  1  5  2 -1</clus>
</clustering>
</event>
<event>
 9    1  0.2802611E-005  0.1054308E+03  0.7546771E-02  0.1271352E+00
         -2   -1    0    0    0  501 -0.00000000000E+00  0.00000000000E+00  0.10366100063E+03  0.10366100063E+03  0.00000000000E+00 0.  1.
          1   -1    0    0  502    0  0.00000000000E+00 -0.00000000000E+00 -0.26835943574E+03  0.26835943574E+03  0.00000000000E+00 0. -1.
         23    2    1    2    0    0 -0.56169194927E+02 -0.62811466369E+01 -0.88506204150E+02  0.13919245954E+03  0.91360611633E+02 0.  0.
        -24    2    1    2    0    0  0.49808925096E+02 -0.13308830744E+02 -0.13618996174E+03  0.16939338103E+03  0.86535298374E+02 0.  0.
         13    1    4    4    0    0  0.15307890714E+01 -0.29918138618E+02 -0.10584097503E+03  0.10999886512E+03  0.00000000000E+00 0. -1.
        -14    1    4    4    0    0  0.48278136025E+02  0.16609307873E+02 -0.30348986714E+02  0.59394515914E+02  0.00000000000E+00 0.  1.
        -11    1    3    3    0    0 -0.31101870625E+02  0.15393853631E+02  0.92976578619E+01  0.35926919262E+02  0.00000000000E+00 0.  1.
         11    1    3    3    0    0 -0.25067324302E+02 -0.21675000268E+02 -0.97803862012E+02  0.10326554028E+03  0.00000000000E+00 0. -1.
         21    1    1    2  502  501  0.63602698300E+01  0.19589977381E+02  0.59997730777E+02  0.63434595801E+02  0.00000000000E+00 0.  1.
<scales pt_clust_5="13000.00000" pt_clust_6="13000.00000" pt_clust_7="13000.00000" pt_clust_8="13000.00000" pt_clust_9="20.59661"></scales>
<clustering>
<clus scale="   20.597">  1  9  2 -1</clus>
<clus scale="   86.535">  5  6 -1 -1</clus>
<clus scale="   91.361">  7  8 -1 -1</clus>
<clus scale="  101.278">  2  5  1 -1</clus>
<clus scale="  101.278">  2  5  1 -1</clus>
</clustering>
</event>
<event>
 9    1  0.3270595E-005  0.1338072E+03  0.7546771E-02  0.1225486E+00
         -4   -1    0    0    0  501 -0.00000000000E+00  0.00000000000E+00  0.79017849400E+03  0.79017849400E+03  0.00000000000E+00 0.  1.
          3   -1    0    0  502    0  0.00000000000E+00 -0.00000000000E+00 -0.33493541334E+03  0.33493541334E+03  0.00000000000E+00 0. -1.
        -24    2    1    2    0    0 -0.11688643769E+03  0.30169602649E+02  0.72134115646E+03  0.73581672913E+03  0.80749926405E+02 0.  0.
         23    2    1    2    0    0  0.89289844223E+02 -0.28949625052E+02 -0.30995465603E+03  0.33746610698E+03  0.94872163946E+02 0.  0.
         13    1    3    3    0    0 -0.69517723483E+02  0.55241550225E+02  0.37604868416E+03  0.38638964222E+03  0.00000000000E+00 0. -1.
        -14    1    3    3    0    0 -0.47368714207E+02 -0.25071947575E+02  0.34529247230E+03  0.34942708691E+03  0.00000000000E+00 0.  1.
        -11    1    4    4    0    0 -0.53636605997E+01 -0.31813497687E+02 -0.13198309618E+03  0.13586907362E+03  0.00000000000E+00 0.  1.
         11    1    4    4    0    0  0.94653504822E+02  0.28638726349E+01 -0.17797155985E+03  0.20159703335E+03  0.00000000000E+00 0. -1.
         21    1    1    2  502  501  0.27596593468E+02 -0.12199775978E+01  0.43856580228E+02  0.51831071238E+02  0.00000000000E+00 0. -1.
<scales pt_clust_5="13000.00000" pt_clust_6="13000.00000" pt_clust_7="13000.00000" pt_clust_8="13000.00000" pt_clust_9="27.62355"></scales>
<clustering>
<clus scale="   27.624">  1  9  2 -1</clus>
<clus scale="   80.750">  5  6 -1 -1</clus>
<clus scale="   94.872">  7  8 -1 -1</clus>
<clus scale="  124.194">  1  5  2 -1</clus>
<clus scale="  133.807">  2  5  1 -1</clus>
</clustering>
</event>
<event>
 9    1  0.2802611E-005  0.1907735E+03  0.7546771E-02  0.1159083E+00
          1   -1    0    0  502    0  0.00000000000E+00  0.00000000000E+00  0.41060709314E+03  0.41060709314E+03  0.00000000000E+00 0. -1.
         -2   -1    0    0    0  501 -0.00000000000E+00 -0.00000000000E+00 -0.32663627413E+03  0.32663627413E+03  0.00000000000E+00 0.  1.
         23    2    1    2    0    0  0.21297145567E+02  0.17495636761E+03 -0.17607425525E+03  0.26554859858E+03  0.91927231400E+02 0.  0.
        -24    2    1    2    0    0 -0.18117974553E+00 -0.16632639204E+03  0.34099906659E+03  0.38758823289E+03  0.79245020980E+02 0.  0.
         11    1    4    4    0    0 -0.12921941975E+01 -0.17235241914E+03  0.29880360660E+03  0.34495017244E+03  0.00000000000E+00 0. -1.
        -12    1    4    4    0    0  0.11110144520E+01  0.60260271029E+01  0.42195459981E+02  0.42638060448E+02  0.00000000000E+00 0.  1.
        -13    1    3    3    0    0  0.21334628758E-01  0.16826080164E+03 -0.12436129872E+03  0.20923056766E+03  0.00000000000E+00 0.  1.
         13    1    3    3    0    0  0.21275810938E+02  0.66955659706E+01 -0.51712956525E+02  0.56318030925E+02  0.00000000000E+00 0. -1.
         21    1    1    2  502  501 -0.21115965821E+02 -0.86299755674E+01 -0.80953992327E+02  0.84106535802E+02  0.00000000000E+00 0.  1.
<scales pt_clust_5="13000.00000" pt_clust_6="13000.00000" pt_clust_7="13000.00000" pt_clust_8="13000.00000" pt_clust_9="22.81141"></scales>
<clustering>
<clus scale="   22.811">  2  9  1 -1</clus>
<clus scale="   79.245">  5  6 -1 -1</clus>
<clus scale="   91.927">  7  8 -1 -1</clus>
<clus scale="  184.996">  1  5  2 -1</clus>
<clus scale="  184.996">  1  5  2 -1</clus>
</clustering>
</event>
<event>
 9    1  0.2802611E-005  0.1197101E+03  0.7546771E-02  0.1247104E+00
         -2   -1    0    0    0  501 -0.00000000000E+00  0.00000000000E+00  0.54624602102E+02  0.54624602102E+02  0.00000000000E+00 0.  1.
          1   -1    0    0  502    0  0.00000000000E+00 -0.00000000000E+00 -0.32241750400E+03  0.32241750400E+03  0.00000000000E+00 0. -1.
        -24    2    1    2    0    0 -0.63717624766E+02  0.56933494590E+02 -0.12478015574E+03  0.17161067435E+03  0.81109665087E+02 0.  0.
         23    2    1    2    0    0  0.65165881680E+02 -0.25057097446E+02 -0.11351678968E+03  0.16197785202E+03  0.92066892745E+02 0.  0.
         11    1    3    3    0    0 -0.23042460503E+02  0.30064870218E+02 -0.25132338727E+00  0.37880266244E+02  0.00000000000E+00 0. -1.
        -12    1    3    3    0    0 -0.40675164263E+02  0.26868624372E+02 -0.12452883236E+03  0.13373040810E+03  0.00000000000E+00 0.  1.
        -13    1    4    4    0    0  0.38130574108E+02 -0.12371919983E+02  0.44093090191E+01  0.40329233713E+02  0.00000000000E+00 0.  1.
         13    1    4    4    0    0  0.27035307572E+02 -0.12685177463E+02 -0.11792609870E+03  0.12164861831E+03  0.00000000000E+00 0. -1.
         21    1    1    2  502  501 -0.14482569143E+01 -0.31876397144E+02 -0.29495956474E+02  0.43453579730E+02  0.00000000000E+00 0.  1.
<scales pt_clust_5="13000.00000" pt_clust_6="13000.00000" pt_clust_7="13000.00000" pt_clust_8="13000.00000" pt_clust_9="31.90928"></scales>
<clustering>
<clus scale="   31.909">  1  9  2 -1</clus>
<clus scale="   81.110">  5  6 -1 -1</clus>
<clus scale="   92.067">  7  8 -1 -1</clus>
<clus scale="  111.503">  1  5  2 -1</clus>
<clus scale="  119.710">  2  5  1 -1</clus>
</clustering>
</event>
<event>
 9    1  0.2802611E-005  0.9882728E+02  0.7546771E-02  0.1292614E+00
          1   -1    0    0  502    0  0.00000000000E+00  0.00000000000E+00  0.34173354984E+03  0.34173354984E+03  0.00000000000E+00 0. -1.
         -2   -1    0    0    0  501 -0.00000000000E+00 -0.00000000000E+00 -0.53638656769E+02  0.53638656769E+02  0.00000000000E+00 0.  1.
        -24    2    1    2    0    0  0.12201124100E+02  0.70250850948E+01  0.13481889645E+02  0.83395008884E+02  0.81084813057E+02 0.  0.
         23    2    1    2    0    0  0.18861526079E+02 -0.31709564970E+02  0.22723334462E+03  0.25017878471E+03  0.97944768792E+02 0.  0.
         13    1    3    3    0    0 -0.16674777466E+02  0.27916856589E+02  0.29881260233E+02  0.44162074210E+02  0.00000000000E+00 0. -1.
        -14    1    3    3    0    0  0.28875901566E+02 -0.20891771495E+02 -0.16399370589E+02  0.39232934674E+02  0.00000000000E+00 0.  1.
        -11    1    4    4    0    0 -0.14295067580E+01 -0.53184021025E+02  0.59308988167E+02  0.79675213582E+02  0.00000000000E+00 0. -1.
         11    1    4    4    0    0  0.20291032837E+02  0.21474456054E+02  0.16792435645E+03  0.17050357112E+03  0.00000000000E+00 0.  1.
         21    1    1    2  502  501 -0.31062650179E+02  0.24684479875E+02  0.47379658804E+02  0.61798413016E+02  0.00000000000E+00 0. -1.
<scales pt_clust_5="13000.00000" pt_clust_6="13000.00000" pt_clust_7="13000.00000" pt_clust_8="13000.00000" pt_clust_9="39.67634"></scales>
<clustering>
<clus scale="   39.676">  1  9  2 -1</clus>
<clus scale="   81.085">  5  6 -1 -1</clus>
<clus scale="   82.149">  2  5  1 -1</clus>
<clus scale="   97.945">  7  8 -1 -1</clus>
<clus scale="   39.676">  1  5  2 -1</clus>
</clustering>
</event>
<event>
 9    1  0.2802611E-005  0.1092218E+03  0.7546771E-02  0.1267329E+00
          1   -1    0    0  502    0  0.00000000000E+00  0.00000000000E+00  0.38176347048E+03  0.38176347048E+03  0.00000000000E+00 0. -1.
         -2   -1    0    0    0  501 -0.00000000000E+00 -0.00000000000E+00 -0.38553951734E+02  0.38553951734E+02  0.00000000000E+00 0.  1.
        -24    2    1    2    0    0 -0.15453767035E+02  0.47302833982E+02  0.94413514116E+02  0.13316740656E+03  0.79644645161E+02 0.  0.
         23    2    1    2    0    0  0.43692121377E+02 -0.49219047818E+02  0.21408050407E+03  0.24235891709E+03  0.92605973528E+02 0.  0.
         13    1    3    3    0    0  0.16078678766E+02  0.40225304459E+02  0.90856381661E+02  0.10065525877E+03  0.00000000000E+00 0. -1.
        -14    1    3    3    0    0 -0.31532445801E+02  0.70775295229E+01  0.35571324553E+01  0.32512147785E+02  0.00000000000E+00 0.  1.
        -11    1    4    4    0    0  0.58366089817E+02 -0.40249513889E+01  0.73358369092E+02  0.93830970313E+02  0.00000000000E+00 0.  1.
         11    1    4    4    0    0 -0.14673968439E+02 -0.45194096429E+02  0.14072213497E+03  0.14852794678E+03  0.00000000000E+00 0. -1.
         21    1    1    2  502  501 -0.28238354343E+02  0.19162138359E+01  0.34715500559E+02  0.44791098563E+02  0.00000000000E+00 0. -1.
<scales pt_clust_5="13000.00000" pt_clust_6="13000.00000" pt_clust_7="13000.00000" pt_clust_8="13000.00000" pt_clust_9="28.30330"></scales>
<clustering>
<clus scale="   28.303">  2  9  1 -1</clus>
<clus scale="   79.645">  5  6 -1 -1</clus>
<clus scale="   92.606">  7  8 -1 -1</clus>
<clus scale="   98.472">  2  5  1 -1</clus>
<clus scale="  109.222">  1  5  2 -1</clus>
</clustering>
</event>
<event>
 9    1  0.2802611E-005  0.9161006E+02  0.7546771E-02  0.1304902E+00
          1   -1    0    0  502    0  0.00000000000E+00  0.00000000000E+00  0.61784113267E+02  0.61784113267E+02  0.00000000000E+00 0. -1.
         -2   -1    0    0    0  501 -0.00000000000E+00 -0.00000000000E+00 -0.24724118275E+03  0.24724118275E+03  0.00000000000E+00 0.  1.
        -24    2    1    2    0    0  0.29267133866E+02  0.23251081239E+02 -0.15103022130E+03  0.17509864998E+03  0.80325784001E+02 0.  0.
         23    2    1    2    0    0 -0.61304043298E+02 -0.27367334502E+02 -0.20253410791E+02  0.98653519801E+02  0.69391351031E+02 0.  0.
         11    1    3    3    0    0  0.44346615954E+01 -0.29175318084E+02 -0.38636613516E+02  0.48617417792E+02  0.00000000000E+00 0. -1.
        -12    1    3    3    0    0  0.24832472271E+02  0.52426399323E+02 -0.11239360779E+03  0.12648123219E+03  0.00000000000E+00 0.  1.
        -11    1    4    4    0    0 -0.35541990001E+02  0.52249914654E+01 -0.39044764808E+02  0.53056830361E+02  0.00000000000E+00 0.  1.
         11    1    4    4    0    0 -0.25762053297E+02 -0.32592325967E+02  0.18791354017E+02  0.45596689440E+02  0.00000000000E+00 0. -1.
         21    1    1    2  502  501  0.32036909432E+02  0.41162532627E+01 -0.14173437387E+02  0.35273126233E+02  0.00000000000E+00 0.  1.
<scales pt_clust_5="13000.00000" pt_clust_6="13000.00000" pt_clust_7="13000.00000" pt_clust_8="13000.00000" pt_clust_9="32.30026"></scales>
<clustering>
<clus scale="   32.300">  1  9  2 -1</clus>
<clus scale="   69.391">  7  8 -1 -1</clus>
<clus scale="   80.326">  5  6 -1 -1</clus>
<clus scale="   82.191">  1  7  2 -1</clus>
<clus scale="   32.300">  1  5  2 -1</clus>
</clustering>
</event>
<event>
 9    1  0.2802611E-005  0.1224067E+03  0.7546771E-02  0.1242531E+00
          1   -1    0    0  502    0  0.00000000000E+00  0.00000000000E+00  0.11403611185E+04  0.11403611185E+04  0.00000000000E+00 0. -1.
         -2   -1    0    0    0  501 -0.00000000000E+00 -0.00000000000E+00 -0.16606381521E+02  0.16606381521E+02  0.00000000000E+00 0.  1.
         23    2    1    2    0    0  0.30878920694E+02 -0.67427575156E+02  0.35076888765E+03  0.36991228479E+03  0.91084028551E+02 0.  0.
        -24    2    1    2    0    0 -0.44981954086E+02  0.85087582532E+02  0.67486120439E+03  0.68636153442E+03  0.79945217804E+02 0.  0.
         11    1    4    4    0    0  0.21926338139E+02  0.32472286118E+02  0.17791087884E+03  0.18217435187E+03  0.00000000000E+00 0. -1.
        -12    1    4    4    0    0 -0.66908292226E+02  0.52615296414E+02  0.49695032554E+03  0.50418718255E+03  0.00000000000E+00 0.  1.
        -13    1    3    3    0    0  0.54580185882E+02 -0.41895321153E+02  0.30344720124E+03  0.31115015437E+03  0.00000000000E+00 0. -1.
         13    1    3    3    0    0 -0.23701265188E+02 -0.25532254003E+02  0.47321686411E+02  0.58762130414E+02  0.00000000000E+00 0.  1.
         21    1    1    2  502  501  0.14103033393E+02 -0.17660007377E+02  0.98124644944E+02  0.10069368082E+03  0.00000000000E+00 0. -1.
<scales pt_clust_5="13000.00000" pt_clust_6="13000.00000" pt_clust_7="13000.00000" pt_clust_8="13000.00000" pt_clust_9="22.60025"></scales>
<clustering>
<clus scale="   22.600">  1  9  2 -1</clus>
<clus scale="   79.945">  5  6 -1 -1</clus>
<clus scale="   91.084">  7  8 -1 -1</clus>
<clus scale="  114.361">  1  5  2 -1</clus>
<clus scale="   22.600">  1  5  2 -1</clus>
</clustering>
</event>
<event>
 9    1  0.2802611E-005  0.1065365E+03  0.7546771E-02  0.1272062E+00
         -2   -1    0    0    0  501 -0.00000000000E+00  0.00000000000E+00  0.71717629837E+02  0.71717629837E+02  0.00000000000E+00 0.  1.
          1   -1    0    0  502    0  0.00000000000E+00 -0.00000000000E+00 -0.20732556731E+03  0.20732556731E+03  0.00000000000E+00 0. -1.
        -24    2    1    2    0    0 -0.10626535682E+01  0.44457884370E+02 -0.50151531465E+02  0.10411588092E+03  0.79669993328E+02 0.  0.
         23    2    1    2    0    0 -0.16667303790E+01 -0.64847251619E+02 -0.99703325333E+02  0.14990431593E+03  0.91228322461E+02 0.  0.
         11    1    3    3    0    0 -0.86330806610E+01  0.28324274490E+02 -0.70858047607E+02  0.76796207704E+02  0.00000000000E+00 0. -1.
        -12    1    3    3    0    0  0.75704270928E+01  0.16133609880E+02  0.20706516141E+02  0.27319673220E+02  0.00000000000E+00 0.  1.
        -11    1    4    4    0    0 -0.42773588973E+02 -0.39795139853E+02 -0.77066939422E+02  0.96708563330E+02  0.00000000000E+00 0.  1.
         11    1    4    4    0    0  0.41106858594E+02 -0.25052111766E+02 -0.22636385911E+02  0.53195752599E+02  0.00000000000E+00 0. -1.
         21    1    1    2  502  501  0.27293839473E+01  0.20389367249E+02  0.14246919324E+02  0.25023000295E+02  0.00000000000E+00 0. -1.
<scales pt_clust_5="13000.00000" pt_clust_6="13000.00000" pt_clust_7="13000.00000" pt_clust_8="13000.00000" pt_clust_9="20.57124"></scales>
<clustering>
<clus scale="   20.571">  1  9  2 -1</clus>
<clus scale="   79.670">  5  6 -1 -1</clus>
<clus scale="   91.228">  7  8 -1 -1</clus>
<clus scale="   96.823">  1  5  2 -1</clus>
<clus scale="  106.537">  2  5  1 -1</clus>
</clustering>
</event>
<event>
 9    1  0.2802611E-005  0.1138983E+03  0.7546771E-02  0.1264853E+00
          3   -1    0    0  502    0  0.00000000000E+00  0.00000000000E+00  0.42052498726E+03  0.42052498726E+03  0.00000000000E+00 0. -1.
         -4   -1    0    0    0  501 -0.00000000000E+00 -0.00000000000E+00 -0.11209321743E+03  0.11209321743E+03  0.00000000000E+00 0.  1.
        -24    2    1    2    0    0  0.28567842717E+02  0.30122028807E+02  0.71188541949E+01  0.91397937486E+02  0.81113788191E+02 0.  0.
         23    2    1    2    0    0  0.27981493501E+02  0.66317723592E+02  0.31002858780E+03  0.32908456276E+03  0.83653569877E+02 0.  0.
         13    1    3    3    0    0  0.31564789826E+02  0.18133148739E+02  0.41299072538E+02  0.55052342661E+02  0.00000000000E+00 0. -1.
        -14    1    3    3    0    0 -0.29969471085E+01  0.11988880068E+02 -0.34180218343E+02  0.36345594825E+02  0.00000000000E+00 0.  1.
        -11    1    4    4    0    0  0.13103977261E+02 -0.19364658986E+02  0.63726930829E+02  0.67880968987E+02  0.00000000000E+00 0.  1.
         11    1    4    4    0    0  0.14877516239E+02  0.85682382578E+02  0.24630165697E+03  0.26120359377E+03  0.00000000000E+00 0. -1.
         21    1    1    2  502  501 -0.56549336218E+02 -0.96439752399E+02 -0.87156721615E+01  0.11213570444E+03  0.00000000000E+00 0.  1.
<scales pt_clust_5="13000.00000" pt_clust_6="13000.00000" pt_clust_7="13000.00000" pt_clust_8="13000.00000" pt_clust_9="77.29749"></scales>
<clustering>
<clus scale="   81.114">  5  6 -1 -1</clus>
<clus scale="   83.654">  7  8 -1 -1</clus>
<clus scale="   91.120">  2  5  1 -1</clus>
<clus scale="   77.297">  2  9  1 -1</clus>
<clus scale="  113.898">  1  5  2 -1</clus>
</clustering>
</event>
<event>
 9    1  0.2802611E-005  0.1032743E+03  0.7546771E-02  0.1278634E+00
          1   -1    0    0  502    0  0.00000000000E+00  0.00000000000E+00  0.35819437200E+03  0.35819437200E+03  0.00000000000E+00 0. -1.
         -2   -1    0    0    0  501 -0.00000000000E+00 -0.00000000000E+00 -0.66446268898E+02  0.66446268898E+02  0.00000000000E+00 0.  1.
         23    2    1    2    0    0  0.36164494842E+01 -0.80096893252E+01  0.44328644764E+01  0.94543527672E+02  0.94029753309E+02 0.  0.
        -24    2    1    2    0    0 -0.47976244662E+02 -0.19167919126E+02  0.24189927750E+03  0.26103899745E+03  0.83408444182E+02 0.  0.
         11    1    4    4    0    0 -0.29821477350E+02 -0.37424168104E+02  0.22548135005E+03  0.23050320624E+03  0.00000000000E+00 0. -1.
        -12    1    4    4    0    0 -0.18154767312E+02  0.18256248978E+02  0.16417927452E+02  0.30535791208E+02  0.00000000000E+00 0.  1.
        -11    1    3    3    0    0 -0.14262497483E+02  0.19226176345E+02 -0.35617835368E+02  0.42914972768E+02  0.00000000000E+00 0.  1.
         11    1    3    3    0    0  0.17878946968E+02 -0.27235865670E+02  0.40050699845E+02  0.51628554905E+02  0.00000000000E+00 0. -1.
         21    1    1    2  502  501  0.44359795178E+02  0.27177608451E+02  0.45415961132E+02  0.69058115778E+02  0.00000000000E+00 0. -1.
<scales pt_clust_5="13000.00000" pt_clust_6="13000.00000" pt_clust_7="13000.00000" pt_clust_8="13000.00000" pt_clust_9="52.02320"></scales>
<clustering>
<clus scale="   52.023">  2  9  1 -1</clus>
<clus scale="   83.408">  5  6 -1 -1</clus>
<clus scale="   93.707">  1  5  2 -1</clus>
<clus scale="   94.030">  7  8 -1 -1</clus>
<clus scale="   93.707">  1  5  2 -1</clus>
</clustering>
</event>
<event>
 9    1  0.2802611E-005  0.1230638E+03  0.7546771E-02  0.1248567E+00
         -2   -1    0    0    0  501 -0.00000000000E+00  0.00000000000E+00  0.34273187677E+03  0.34273187677E+03  0.00000000000E+00 0.  1.
          1   -1    0    0  502    0  0.00000000000E+00 -0.00000000000E+00 -0.13021798197E+03  0.13021798197E+03  0.00000000000E+00 0. -1.
        -24    2    1    2    0    0 -0.22511973403E+02 -0.26829969614E+02  0.26154586854E+03  0.27642054251E+03  0.82313053355E+02 0.  0.
         23    2    1    2    0    0  0.37204282259E+02  0.45455269216E+02 -0.87057388554E+02  0.15171081674E+03  0.10948444135E+03 0.  0.
         13    1    3    3    0    0  0.29013227382E+02 -0.15996494723E+02  0.65160578014E+02  0.73099631557E+02  0.00000000000E+00 0. -1.
        -14    1    3    3    0    0 -0.51525200785E+02 -0.10833474891E+02  0.19638529053E+03  0.20332091095E+03  0.00000000000E+00 0.  1.
        -11    1    4    4    0    0 -0.33235741274E+02  0.42215627217E+02 -0.37102452170E+02  0.65294453336E+02  0.00000000000E+00 0.  1.
         11    1    4    4    0    0  0.70440023533E+02  0.32396419982E+01 -0.49954936384E+02  0.86416363409E+02  0.00000000000E+00 0. -1.
         21    1    1    2  502  501 -0.14692308856E+02 -0.18625299602E+02  0.38025414813E+02  0.44818499490E+02  0.00000000000E+00 0. -1.
<scales pt_clust_5="13000.00000" pt_clust_6="13000.00000" pt_clust_7="13000.00000" pt_clust_8="13000.00000" pt_clust_9="23.72268"></scales>
<clustering>
<clus scale="   23.723">  1  9  2 -1</clus>
<clus scale="   82.313">  5  6 -1 -1</clus>
<clus scale="   99.666">  1  5  2 -1</clus>
<clus scale="  109.484">  7  8 -1 -1</clus>
<clus scale="  123.064">  2  5  1 -1</clus>
</clustering>
</event>
<event>
 9    1  0.2802611E-005  0.1326154E+03  0.7546771E-02  0.1248794E+00
         -2   -1    0    0    0  501 -0.00000000000E+00  0.00000000000E+00  0.62017207948E+03  0.62017207948E+03  0.00000000000E+00 0.  1.
          1   -1    0    0  502    0  0.00000000000E+00 -0.00000000000E+00 -0.37076764267E+03  0.37076764267E+03  0.00000000000E+00 0. -1.
        -24    2    1    2    0    0 -0.62268601810E+00 -0.97713692738E+01  0.74457298746E+02  0.10876528719E+03  0.78677385346E+02 0.  0.
         23    2    1    2    0    0 -0.20314331491E+02  0.93719824747E+02 -0.33739342066E+03  0.36257983339E+03  0.91835383530E+02 0.  0.
         11    1    3    3    0    0 -0.35764625506E+02 -0.18641329701E+02  0.25006644753E+02  0.47454608759E+02  0.00000000000E+00 0. -1.
        -12    1    3    3    0    0  0.35141939488E+02  0.88699604274E+01  0.49450653993E+02  0.61310678428E+02  0.00000000000E+00 0.  1.
        -11    1    4    4    0    0  0.31372074750E+02  0.88695867021E+01 -0.10182790711E+03  0.10691959273E+03  0.00000000000E+00 0.  1.
         11    1    4    4    0    0 -0.51686406241E+02  0.84850238045E+02 -0.23556551355E+03  0.25566024067E+03  0.00000000000E+00 0. -1.
         21    1    1    2  502  501  0.20937017509E+02 -0.83948455473E+02  0.51234055872E+03  0.51959460158E+03  0.00000000000E+00 0.  1.
<scales pt_clust_5="13000.00000" pt_clust_6="13000.00000" pt_clust_7="13000.00000" pt_clust_8="13000.00000" pt_clust_9="95.67182"></scales>
<clustering>
<clus scale="   78.677">  5  6 -1 -1</clus>
<clus scale="   79.284">  1  5  2 -1</clus>
<clus scale="   91.835">  7  8 -1 -1</clus>
<clus scale="   95.672">  1  9  2 -1</clus>
<clus scale="  132.615">  2  5  1 -1</clus>
</clustering>
</event>
<event>
 9    1  0.2802611E-005  0.1820362E+03  0.7546771E-02  0.1165895E+00
          1   -1    0    0  502    0  0.00000000000E+00  0.00000000000E+00  0.23338423085E+03  0.23338423085E+03  0.00000000000E+00 0. -1.
         -2   -1    0    0    0  501 -0.00000000000E+00 -0.00000000000E+00 -0.38569160196E+03  0.38569160196E+03  0.00000000000E+00 0.  1.
        -24    2    1    2    0    0 -0.98995386902E+02 -0.12883555135E+03 -0.26746065536E+03  0.32434439678E+03  0.85237313637E+02 0.  0.
         23    2    1    2    0    0  0.78170126859E+02  0.14056225708E+03  0.16110897631E+03  0.24293247159E+03  0.84804284435E+02 0.  0.
         11    1    3    3    0    0 -0.46344239337E+02 -0.17852455439E+02 -0.32922934357E+02  0.59585386561E+02  0.00000000000E+00 0. -1.
        -12    1    3    3    0    0 -0.52651147565E+02 -0.11098309591E+03 -0.23453772100E+03  0.26475901022E+03  0.00000000000E+00 0.  1.
        -13    1    4    4    0    0  0.99160487685E+01  0.86071350901E+02  0.44962856329E+02  0.97612826607E+02  0.00000000000E+00 0. -1.
         13    1    4    4    0    0  0.68254078090E+02  0.54490906180E+02  0.11614611998E+03  0.14531964499E+03  0.00000000000E+00 0.  1.
         21    1    1    2  502  501  0.20825260044E+02 -0.11726705734E+02 -0.45955692068E+02  0.51798964436E+02  0.00000000000E+00 0. -1.
<scales pt_clust_5="13000.00000" pt_clust_6="13000.00000" pt_clust_7="13000.00000" pt_clust_8="13000.00000" pt_clust_9="23.89994"></scales>
<clustering>
<clus scale="   23.900">  2  9  1 -1</clus>
<clus scale="   84.804">  7  8 -1 -1</clus>
<clus scale="   85.237">  5  6 -1 -1</clus>
<clus scale="  181.834">  1  7  2 -1</clus>
<clus scale="  181.834">  1  5  2 -1</clus>
</clustering>
</event>
<event>
 9    1  0.2802611E-005  0.1035980E+03  0.7546771E-02  0.1279532E+00
          1   -1    0    0  502    0  0.00000000000E+00  0.00000000000E+00  0.75937988379E+03  0.75937988379E+03  0.00000000000E+00 0. -1.
         -2   -1    0    0    0  501 -0.00000000000E+00 -0.00000000000E+00 -0.27778337203E+02  0.27778337203E+02  0.00000000000E+00 0.  1.
        -24    2    1    2    0    0  0.33689841183E+02  0.56202858907E+02  0.32890858027E+03  0.34456473731E+03  0.79058442130E+02 0.  0.
         23    2    1    2    0    0 -0.37618543428E+02 -0.38828545085E+01  0.36346256397E+03  0.37708133191E+03  0.93032596980E+02 0.  0.
         11    1    3    3    0    0  0.36578686646E+02 -0.87766341344E+01  0.11699122086E+03  0.12289009473E+03  0.00000000000E+00 0. -1.
        -12    1    3    3    0    0 -0.28888454635E+01  0.64979493042E+02  0.21191735941E+03  0.22167464258E+03  0.00000000000E+00 0.  1.
        -11    1    4    4    0    0 -0.13631946370E+01 -0.41689245928E+02  0.98120165975E+02  0.10661809648E+03  0.00000000000E+00 0.  1.
         11    1    4    4    0    0 -0.36255348791E+02  0.37806391420E+02  0.26534239800E+03  0.27046323544E+03  0.00000000000E+00 0. -1.
         21    1    1    2  502  501  0.39287022453E+01 -0.52320004399E+02  0.39230402344E+02  0.65512151771E+02  0.00000000000E+00 0.  1.
<scales pt_clust_5="13000.00000" pt_clust_6="13000.00000" pt_clust_7="13000.00000" pt_clust_8="13000.00000" pt_clust_9="52.46730"></scales>
<clustering>
<clus scale="   52.467">  2  9  1 -1</clus>
<clus scale="   79.058">  5  6 -1 -1</clus>
<clus scale="   91.256">  2  5  1 -1</clus>
<clus scale="   93.033">  7  8 -1 -1</clus>
<clus scale="  103.598">  1  5  2 -1</clus>
</clustering>
</event>
<event>
 9    1  0.2802611E-005  0.1264193E+03  0.7546771E-02  0.1235688E+00
         -4   -1    0    0    0  501 -0.00000000000E+00  0.00000000000E+00  0.26228364594E+03  0.26228364594E+03  0.00000000000E+00 0.  1.
          3   -1    0    0  502    0  0.00000000000E+00 -0.00000000000E+00 -0.11938996786E+03  0.11938996786E+03  0.00000000000E+00 0. -1.
         23    2    1    2    0    0 -0.72946390776E+02 -0.36674786301E+02  0.13568490937E+03  0.18294609798E+03  0.91611485408E+02 0.  0.
        -24    2    1    2    0    0  0.67528057900E+02  0.57854344434E+02 -0.55147923623E+02  0.13264961411E+03  0.81531974533E+02 0.  0.
         11    1    4    4    0    0  0.84913851902E+02  0.45525207778E+02 -0.32825928280E+02  0.10178628766E+03  0.00000000000E+00 0. -1.
        -12    1    4    4    0    0 -0.17385794002E+02  0.12329136656E+02 -0.22321995343E+02  0.30863326455E+02  0.00000000000E+00 0.  1.
        -11    1    3    3    0    0 -0.24656582681E+02  0.24301347990E+00 -0.88115845262E+01  0.26184922130E+02  0.00000000000E+00 0. -1.
         11    1    3    3    0    0 -0.48289808094E+02 -0.36917799781E+02  0.14449649389E+03  0.15676117585E+03  0.00000000000E+00 0.  1.
         21    1    1    2  502  501  0.54183328757E+01 -0.21179558133E+02  0.62356692342E+02  0.66077901705E+02  0.00000000000E+00 0.  1.
<scales pt_clust_5="13000.00000" pt_clust_6="13000.00000" pt_clust_7="13000.00000" pt_clust_8="13000.00000" pt_clust_9="21.86166"></scales>
<clustering>
<clus scale="   21.862">  1  9  2 -1</clus>
<clus scale="   81.532">  5  6 -1 -1</clus>
<clus scale="   91.611">  7  8 -1 -1</clus>
<clus scale="  119.317">  2  5  1 -1</clus>
<clus scale="  119.317">  2  5  1 -1</clus>
</clustering>
</event>
<event>
 9    1  0.2802611E-005  0.1485584E+03  0.7546771E-02  0.1205105E+00
          1   -1    0    0  502    0  0.00000000000E+00  0.00000000000E+00  0.10907531782E+04  0.10907531782E+04  0.00000000000E+00 0. -1.
         -2   -1    0    0    0  501 -0.00000000000E+00 -0.00000000000E+00 -0.39516256830E+02  0.39516256830E+02  0.00000000000E+00 0.  1.
        -24    2    1    2    0    0  0.10823159276E+02  0.81838431733E+02  0.28421106697E+03  0.31426718149E+03  0.10570364747E+03 0.  0.
         23    2    1    2    0    0  0.51714116086E+02 -0.10987940433E+03  0.71167323242E+03  0.72790503613E+03  0.92839208186E+02 0.  0.
         13    1    3    3    0    0 -0.22637055317E+02  0.93041519125E+01  0.65381047332E+01  0.25332791590E+02  0.00000000000E+00 0. -1.
        -14    1    3    3    0    0  0.33460214593E+02  0.72534279821E+02  0.27767296224E+03  0.28893438990E+03  0.00000000000E+00 0.  1.
        -11    1    4    4    0    0  0.58736304094E+02 -0.24125753695E+02  0.22984446301E+03  0.23845436165E+03  0.00000000000E+00 0.  1.
         11    1    4    4    0    0 -0.70221880080E+01 -0.85753650632E+02  0.48182876941E+03  0.48945067448E+03  0.00000000000E+00 0. -1.
         21    1    1    2  502  501 -0.62537275362E+02  0.28040972594E+02  0.55352621943E+02  0.88097217378E+02  0.00000000000E+00 0.  1.
<scales pt_clust_5="13000.00000" pt_clust_6="13000.00000" pt_clust_7="13000.00000" pt_clust_8="13000.00000" pt_clust_9="68.53617"></scales>
<clustering>
<clus scale="   68.536">  2  9  1 -1</clus>
<clus scale="   92.839">  7  8 -1 -1</clus>
<clus scale="  105.704">  5  6 -1 -1</clus>
<clus scale="  139.698">  1  7  2 -1</clus>
<clus scale="  139.698">  1  5  2 -1</clus>
</clustering>
</event>
<event>
 9    1  0.2802611E-005  0.1409399E+03  0.7546771E-02  0.1216613E+00
          1   -1    0    0  502    0  0.00000000000E+00  0.00000000000E+00  0.43390868238E+03  0.43390868238E+03  0.00000000000E+00 0. -1.
         -2   -1    0    0    0  501 -0.00000000000E+00 -0.00000000000E+00 -0.15308061250E+03  0.15308061250E+03  0.00000000000E+00 0.  1.
        -24    2    1    2    0    0  0.97824718045E+02 -0.32671245665E+01 -0.15343372516E+02  0.12706878062E+03  0.79565736126E+02 0.  0.
         23    2    1    2    0    0 -0.98357947947E+02 -0.24235231807E+02  0.36191305503E+03  0.38865605207E+03  0.99049659364E+02 0.  0.
         11    1    3    3    0    0  0.23149487277E+02  0.13897373023E+02 -0.38499311095E+02  0.47023746053E+02  0.00000000000E+00 0. -1.
        -12    1    3    3    0    0  0.74675230768E+02 -0.17164497590E+02  0.23155938578E+02  0.80045034569E+02  0.00000000000E+00 0.  1.
        -13    1    4    4    0    0 -0.10508203881E+03 -0.46598313247E+02  0.26299914256E+03  0.28702297236E+03  0.00000000000E+00 0.  1.
         13    1    4    4    0    0  0.67240908581E+01  0.22363081440E+02  0.98913912478E+02  0.10163307971E+03  0.00000000000E+00 0. -1.
         21    1    1    2  502  501  0.53322990228E+00  0.27502356374E+02 -0.65741612631E+02  0.71264462192E+02  0.00000000000E+00 0. -1.
<scales pt_clust_5="13000.00000" pt_clust_6="13000.00000" pt_clust_7="13000.00000" pt_clust_8="13000.00000" pt_clust_9="27.50753"></scales>
<clustering>
<clus scale="   27.508">  2  9  1 -1</clus>
<clus scale="   79.566">  5  6 -1 -1</clus>
<clus scale="   99.050">  7  8 -1 -1</clus>
<clus scale="  128.000">  2  5  1 -1</clus>
<clus scale="  140.940">  1  5  2 -1</clus>
</clustering>
</event>
<event>
 9    1  0.2802611E-005  0.1333161E+03  0.7546771E-02  0.1233642E+00
          1   -1    0    0  502    0  0.00000000000E+00  0.00000000000E+00  0.34901835679E+03  0.34901835679E+03  0.00000000000E+00 0. -1.
         -2   -1    0    0    0  501 -0.00000000000E+00 -0.00000000000E+00 -0.26760717535E+03  0.26760717535E+03  0.00000000000E+00 0.  1.
         23    2    1    2    0    0 -0.10118356674E+03  0.23352673364E+02 -0.52539154676E+02  0.16249820179E+03  0.11341005811E+03 0.  0.
        -24    2    1    2    0    0  0.53152298252E+02 -0.42250240490E+02  0.28016063782E+03  0.29907387789E+03  0.79655205840E+02 0.  0.
         13    1    4    4    0    0  0.25149199720E+02 -0.61220455576E+02  0.22341760405E+03  0.23301470388E+03  0.00000000000E+00 0. -1.
        -14    1    4    4    0    0  0.28003098532E+02  0.18970215087E+02  0.56743033774E+02  0.66059174001E+02  0.00000000000E+00 0.  1.
        -11    1    3    3    0    0 -0.67195988591E+02 -0.42588587709E+02 -0.28784945801E+02  0.84602965613E+02  0.00000000000E+00 0. -1.
         11    1    3    3    0    0 -0.33987578152E+02  0.65941261073E+02 -0.23754208875E+02  0.77895236182E+02  0.00000000000E+00 0.  1.
         21    1    1    2  502  501  0.48031268491E+02  0.18897567126E+02 -0.14621030170E+03  0.15505345246E+03  0.00000000000E+00 0.  1.
<scales pt_clust_5="13000.00000" pt_clust_6="13000.00000" pt_clust_7="13000.00000" pt_clust_8="13000.00000" pt_clust_9="51.61512"></scales>
<clustering>
<clus scale="   51.615">  2  9  1 -1</clus>
<clus scale="   79.655">  5  6 -1 -1</clus>
<clus scale="  106.096">  1  5  2 -1</clus>
<clus scale="  113.410">  7  8 -1 -1</clus>
<clus scale="  106.096">  1  5  2 -1</clus>
</clustering>
</event>
<event>
 9    1  0.2802611E-005  0.1268486E+03  0.7546771E-02  0.1235143E+00
          1   -1    0    0  502    0  0.00000000000E+00  0.00000000000E+00  0.38741538925E+03  0.38741538925E+03  0.00000000000E+00 0. -1.
         -2   -1    0    0    0  501 -0.00000000000E+00 -0.00000000000E+00 -0.25863320596E+03  0.25863320596E+03  0.00000000000E+00 0.  1.
         23    2    1    2    0    0 -0.11089140221E+02  0.92146356047E+02 -0.10849367011E+03  0.16864242403E+03  0.89752274419E+02 0.  0.
        -24    2    1    2    0    0  0.33045966480E+02 -0.83300582752E+02  0.34605568687E+03  0.36608051334E+03  0.78926426799E+02 0.  0.
         11    1    4    4    0    0  0.16856201908E+02 -0.96649227498E+02  0.27415988187E+03  0.29118524267E+03  0.00000000000E+00 0. -1.
        -12    1    4    4    0    0  0.16189764572E+02  0.13348644746E+02  0.71895804996E+02  0.74895270675E+02  0.00000000000E+00 0.  1.
        -11    1    3    3    0    0  0.30432950429E+02  0.29294857083E+01 -0.22551347740E+02  0.37990915272E+02  0.00000000000E+00 0. -1.
         11    1    3    3    0    0 -0.41522090650E+02  0.89216870339E+02 -0.85942322371E+02  0.13065150875E+03  0.00000000000E+00 0.  1.
         21    1    1    2  502  501 -0.21956826259E+02 -0.88457732953E+01 -0.10877983347E+03  0.11132565784E+03  0.00000000000E+00 0. -1.
<scales pt_clust_5="13000.00000" pt_clust_6="13000.00000" pt_clust_7="13000.00000" pt_clust_8="13000.00000" pt_clust_9="23.67171"></scales>
<clustering>
<clus scale="   23.672">  2  9  1 -1</clus>
<clus scale="   78.926">  5  6 -1 -1</clus>
<clus scale="   89.752">  7  8 -1 -1</clus>
<clus scale="  119.434">  1  5  2 -1</clus>
<clus scale="  119.434">  1  5  2 -1</clus>
</clustering>
</event>
<event>
 9    1  0.2802611E-005  0.1115985E+03  0.7546771E-02  0.1262464E+00
         -2   -1    0    0    0  501 -0.00000000000E+00  0.00000000000E+00  0.72337342526E+02  0.72337342526E+02  0.00000000000E+00 0.  1.
          1   -1    0    0  502    0  0.00000000000E+00 -0.00000000000E+00 -0.37206297750E+03  0.37206297750E+03  0.00000000000E+00 0. -1.
         23    2    1    2    0    0 -0.56796376506E+02  0.83334454752E+00 -0.69112322919E+02  0.12830317706E+03  0.91971023792E+02 0.  0.
        -24    2    1    2    0    0  0.29565436257E+02  0.75929963561E+02 -0.19799200081E+03  0.22835730295E+03  0.79415055489E+02 0.  0.
         11    1    4    4    0    0  0.32211870964E+02  0.91249099946E+02 -0.18155324826E+03  0.20573182745E+03  0.00000000000E+00 0. -1.
        -12    1    4    4    0    0 -0.26464347066E+01 -0.15319136384E+02 -0.16438752548E+02  0.22625475499E+02  0.00000000000E+00 0.  1.
        -11    1    3    3    0    0  0.10103335667E+02 -0.22895679617E+02 -0.48189837564E+02  0.54300552310E+02  0.00000000000E+00 0. -1.
         11    1    3    3    0    0 -0.66899712173E+02  0.23729024165E+02 -0.20922485356E+02  0.74002624751E+02  0.00000000000E+00 0.  1.
         21    1    1    2  502  501  0.27230940249E+02 -0.76763308109E+02 -0.32621311245E+02  0.87739840016E+02  0.00000000000E+00 0. -1.
<scales pt_clust_5="13000.00000" pt_clust_6="13000.00000" pt_clust_7="13000.00000" pt_clust_8="13000.00000" pt_clust_9="81.45017"></scales>
<clustering>
<clus scale="   79.415">  5  6 -1 -1</clus>
<clus scale="   81.450">  1  9  2 -1</clus>
<clus scale="   91.971">  7  8 -1 -1</clus>
<clus scale="  101.500">  2  5  1 -1</clus>
<clus scale="  101.500">  2  5  1 -1</clus>
</clustering>
</event>
<event>
 9    1  0.2802611E-005  0.9898906E+02  0.7546771E-02  0.1286079E+00
          3   -1    0    0  502    0  0.00000000000E+00  0.00000000000E+00  0.32735764458E+03  0.32735764458E+03  0.00000000000E+00 0. -1.
         -4   -1    0    0    0  501 -0.00000000000E+00 -0.00000000000E+00 -0.79160474559E+02  0.79160474559E+02  0.00000000000E+00 0.  1.
        -24    2    1    2    0    0 -0.50561321123E+02  0.34993777131E+02  0.90006068651E+02  0.13598005281E+03  0.81292501115E+02 0.  0.
         23    2    1    2    0    0  0.22629745472E+01 -0.42134889072E+02  0.18886118856E+03  0.21288062960E+03  0.88708195714E+02 0.  0.
         11    1    3    3    0    0  0.21126556843E+02  0.17879058510E+02  0.31083262528E+02  0.41619242504E+02  0.00000000000E+00 0. -1.
        -12    1    3    3    0    0 -0.71687877966E+02  0.17114718622E+02  0.58922806123E+02  0.94360810310E+02  0.00000000000E+00 0.  1.
        -13    1    4    4    0    0  0.37582363549E+02 -0.11042845406E+02  0.36950286810E+02  0.53848882811E+02  0.00000000000E+00 0.  1.
         13    1    4    4    0    0 -0.35319389002E+02 -0.31092043666E+02  0.15191090175E+03  0.15903174679E+03  0.00000000000E+00 0. -1.
         21    1    1    2  502  501  0.48298346576E+02  0.71411119404E+01 -0.30670087184E+02  0.57657436724E+02  0.00000000000E+00 0.  1.
<scales pt_clust_5="13000.00000" pt_clust_6="13000.00000" pt_clust_7="13000.00000" pt_clust_8="13000.00000" pt_clust_9="48.82341"></scales>
<clustering>
<clus scale="   48.823">  2  9  1 -1</clus>
<clus scale="   81.293">  5  6 -1 -1</clus>
<clus scale="   88.708">  7  8 -1 -1</clus>
<clus scale="   92.402">  2  5  1 -1</clus>
<clus scale="   98.989">  1  5  2 -1</clus>
</clustering>
</event>
<event>
 9    1  0.3242939E-005  0.9614025E+02  0.7546771E-02  0.1292481E+00
         -2   -1    0    0    0  501 -0.00000000000E+00  0.00000000000E+00  0.11253956592E+03  0.11253956592E+03  0.00000000000E+00 0.  1.
          1   -1    0    0  502    0  0.00000000000E+00 -0.00000000000E+00 -0.51933517863E+03  0.51933517863E+03  0.00000000000E+00 0. -1.
         23    2    1    2    0    0  0.64275137829E+02 -0.16126617771E+02  0.67900045681E+02  0.12965292078E+03  0.88363468245E+02 0.  0.
        -24    2    1    2    0    0 -0.35692584457E+02  0.83593350734E+01 -0.46115567962E+03  0.46965460001E+03  0.81037296326E+02 0.  0.
         13    1    4    4    0    0 -0.61812688921E+02  0.16254811722E+01 -0.33270794849E+03  0.33840512657E+03  0.00000000000E+00 0. -1.
        -14    1    4    4    0    0  0.26120104463E+02  0.67338539012E+01 -0.12844773114E+03  0.13124947344E+03  0.00000000000E+00 0.  1.
        -11    1    3    3    0    0  0.70050810093E+02 -0.43434765508E+02  0.53261034093E+02  0.98134767550E+02  0.00000000000E+00 0.  1.
         11    1    3    3    0    0 -0.57756722639E+01  0.27308147737E+02  0.14639011588E+02  0.31518153233E+02  0.00000000000E+00 0. -1.
         21    1    1    2  502  501 -0.28582553372E+02  0.77672826978E+01 -0.13539978771E+02  0.32567223751E+02  0.00000000000E+00 0.  1.
<scales pt_clust_5="13000.00000" pt_clust_6="13000.00000" pt_clust_7="13000.00000" pt_clust_8="13000.00000" pt_clust_9="29.61913"></scales>
<clustering>
<clus scale="   29.619">  1  9  2 -1</clus>
<clus scale="   81.037">  5  6 -1 -1</clus>
<clus scale="   88.363">  7  8 -1 -1</clus>
<clus scale="   89.453">  2  5  1 -1</clus>
<clus scale="   89.453">  2  5  1 -1</clus>
</clustering>
</event>
<event>
 9    1  0.2802611E-005  0.2115266E+03  0.7546771E-02  0.1141357E+00
          1   -1    0    0  502    0  0.00000000000E+00  0.00000000000E+00  0.33999958171E+03  0.33999958171E+03  0.00000000000E+00 0. -1.
         -2   -1    0    0    0  501 -0.00000000000E+00 -0.00000000000E+00 -0.19516098117E+03  0.19516098117E+03  0.00000000000E+00 0.  1.
         23    2    1    2    0    0  0.71605014071E+01  0.17665385050E+03  0.38517436880E+02  0.20395997371E+03  0.94118129250E+02 0.  0.
        -24    2    1    2    0    0 -0.64901974546E+02 -0.19082233375E+03  0.14381487281E+03  0.26091117415E+03  0.82258700452E+02 0.  0.
         11    1    4    4    0    0 -0.45239110407E+02 -0.17650059568E+03  0.14977780647E+03  0.23586527658E+03  0.00000000000E+00 0. -1.
        -12    1    4    4    0    0 -0.19662864139E+02 -0.14321738066E+02 -0.59629336592E+01  0.25045897572E+02  0.00000000000E+00 0.  1.
        -11    1    3    3    0    0 -0.57542517144E+01  0.97738314895E+02 -0.25900386128E+02  0.10127546402E+03  0.00000000000E+00 0.  1.
         11    1    3    3    0    0  0.12914753122E+02  0.78915535609E+02  0.64417823008E+02  0.10268450969E+03  0.00000000000E+00 0. -1.
         21    1    1    2  502  501  0.57741473139E+02  0.14168483241E+02 -0.37493709153E+02  0.70289415018E+02  0.00000000000E+00 0.  1.
<scales pt_clust_5="13000.00000" pt_clust_6="13000.00000" pt_clust_7="13000.00000" pt_clust_8="13000.00000" pt_clust_9="59.45438"></scales>
<clustering>
<clus scale="   59.454">  2  9  1 -1</clus>
<clus scale="   82.259">  5  6 -1 -1</clus>
<clus scale="   94.118">  7  8 -1 -1</clus>
<clus scale="  206.523">  1  5  2 -1</clus>
<clus scale="  206.523">  1  5  2 -1</clus>
</clustering>
</event>
<event>
 9    1  0.2802611E-005  0.9115144E+02  0.7546771E-02  0.1304264E+00
          1   -1    0    0  502    0  0.00000000000E+00  0.00000000000E+00  0.14269798202E+03  0.14269798202E+03  0.00000000000E+00 0. -1.
         -2   -1    0    0    0  501 -0.00000000000E+00 -0.00000000000E+00 -0.87637497815E+02  0.87637497815E+02  0.00000000000E+00 0.  1.
         23    2    1    2    0    0 -0.29181395802E+02 -0.16294962810E+02 -0.45237046747E+01  0.92285814537E+02  0.85901850893E+02 0.  0.
        -24    2    1    2    0    0  0.30964652723E+02 -0.46054784920E+01  0.74091495477E+02  0.11254534416E+03  0.78720293701E+02 0.  0.
         11    1    4    4    0    0  0.47562512157E+02 -0.24669229006E+02  0.66545817281E+02  0.85434824399E+02  0.00000000000E+00 0. -1.
        -12    1    4    4    0    0 -0.16597859434E+02  0.20063750514E+02  0.75456781958E+01  0.27110519765E+02  0.00000000000E+00 0.  1.
        -13    1    3    3    0    0 -0.11899162091E+02 -0.50796292626E+02 -0.10558214376E+02  0.53229026798E+02  0.00000000000E+00 0.  1.
         13    1    3    3    0    0 -0.17282233712E+02  0.34501329816E+02  0.60345097015E+01  0.39056787739E+02  0.00000000000E+00 0. -1.
         21    1    1    2  502  501 -0.17832569207E+01  0.20900441302E+02 -0.14507306596E+02  0.25504321135E+02  0.00000000000E+00 0. -1.
<scales pt_clust_5="13000.00000" pt_clust_6="13000.00000" pt_clust_7="13000.00000" pt_clust_8="13000.00000" pt_clust_9="20.97638"></scales>
<clustering>
<clus scale="   20.976">  2  9  1 -1</clus>
<clus scale="   78.720">  5  6 -1 -1</clus>
<clus scale="   84.418">  1  5  2 -1</clus>
<clus scale="   85.902">  7  8 -1 -1</clus>
<clus scale="   84.418">  1  5  2 -1</clus>
</clustering>
</event>
<event>
 9    1  0.2802611E-005  0.9927659E+02  0.7546771E-02  0.1285804E+00
          3   -1    0    0  502    0  0.00000000000E+00  0.00000000000E+00  0.25474944656E+03  0.25474944656E+03  0.00000000000E+00 0. -1.
         -4   -1    0    0    0  501 -0.00000000000E+00 -0.00000000000E+00 -0.80138671686E+02  0.80138671686E+02  0.00000000000E+00 0.  1.
        -24    2    1    2    0    0  0.31120651737E+02  0.14142106077E+02 -0.18562801005E+02  0.90001719778E+02  0.81161800454E+02 0.  0.
         23    2    1    2    0    0 -0.46172742371E+02  0.10326290150E+01  0.19882674855E+03  0.22277765860E+03  0.89245844548E+02 0.  0.
         13    1    3    3    0    0 -0.11331236401E+02 -0.18809588294E+02  0.15044707311E+02  0.26618428733E+02  0.00000000000E+00 0. -1.
        -14    1    3    3    0    0  0.42451888138E+02  0.32951694371E+02 -0.33607508316E+02  0.63383291044E+02  0.00000000000E+00 0.  1.
        -11    1    4    4    0    0 -0.36282777766E+02 -0.42106225005E+02  0.12309035063E+03  0.13505779713E+03  0.00000000000E+00 0. -1.
         11    1    4    4    0    0 -0.98899646055E+01  0.43138854020E+02  0.75736397921E+02  0.87719861469E+02  0.00000000000E+00 0.  1.
         21    1    1    2  502  501  0.15052090634E+02 -0.15174735092E+02 -0.56531726711E+01  0.22108739874E+02  0.00000000000E+00 0.  1.
<scales pt_clust_5="13000.00000" pt_clust_6="13000.00000" pt_clust_7="13000.00000" pt_clust_8="13000.00000" pt_clust_9="21.37377"></scales>
<clustering>
<clus scale="   21.374">  2  9  1 -1</clus>
<clus scale="   81.162">  5  6 -1 -1</clus>
<clus scale="   89.246">  7  8 -1 -1</clus>
<clus scale="   92.077">  2  5  1 -1</clus>
<clus scale="   99.277">  1  5  2 -1</clus>
</clustering>
</event>
<event>
 9    1  0.2802611E-005  0.1559768E+03  0.7546771E-02  0.1194942E+00
         -2   -1    0    0    0  501 -0.00000000000E+00  0.00000000000E+00  0.69933918874E+02  0.69933918874E+02  0.00000000000E+00 0.  1.
          1   -1    0    0  502    0  0.00000000000E+00 -0.00000000000E+00 -0.75663823454E+03  0.75663823454E+03  0.00000000000E+00 0. -1.
        -24    2    1    2    0    0 -0.94947876607E+02  0.90347726280E+02 -0.19149629943E+03  0.24597065131E+03  0.81565419723E+02 0.  0.
         23    2    1    2    0    0  0.11575795849E+03 -0.51703195447E+02 -0.51069977504E+03  0.53405632123E+03  0.91262087670E+02 0.  0.
         13    1    3    3    0    0 -0.34407294827E+02 -0.41341407241E+01 -0.82729484576E+02  0.89694596688E+02  0.00000000000E+00 0. -1.
        -14    1    3    3    0    0 -0.60540581780E+02  0.94481867004E+02 -0.10876681486E+03  0.15627605462E+03  0.00000000000E+00 0.  1.
        -11    1    4    4    0    0  0.12925864380E+02 -0.23560974343E+02 -0.24701418884E+02  0.36501473625E+02  0.00000000000E+00 0.  1.
         11    1    4    4    0    0  0.10283209411E+03 -0.28142221104E+02 -0.48599835615E+03  0.49755484760E+03  0.00000000000E+00 0. -1.
         21    1    1    2  502  501 -0.20810081881E+02 -0.38644530833E+02  0.15491758809E+02  0.46545180870E+02  0.00000000000E+00 0. -1.
<scales pt_clust_5="13000.00000" pt_clust_6="13000.00000" pt_clust_7="13000.00000" pt_clust_8="13000.00000" pt_clust_9="43.89145"></scales>
<clustering>
<clus scale="   43.891">  1  9  2 -1</clus>
<clus scale="   81.565">  5  6 -1 -1</clus>
<clus scale="   91.262">  7  8 -1 -1</clus>
<clus scale="  150.509">  1  5  2 -1</clus>
<clus scale="  155.977">  2  5  1 -1</clus>
</clustering>
</event>
<event>
 9    1  0.2802611E-005  0.1402104E+03  0.7546771E-02  0.1216739E+00
         -2   -1    0    0    0  501 -0.00000000000E+00  0.00000000000E+00  0.29403483364E+03  0.29403483364E+03  0.00000000000E+00 0.  1.
          1   -1    0    0  502    0  0.00000000000E+00 -0.00000000000E+00 -0.11402768010E+03  0.11402768010E+03  0.00000000000E+00 0. -1.
         23    2    1    2    0    0 -0.51335183885E+02  0.71913221366E+02  0.54843593086E+02  0.14285818116E+03  0.97948086810E+02 0.  0.
        -24    2    1    2    0    0  0.83176935529E+02 -0.71719547773E+02  0.11344055726E+01  0.13715291353E+03  0.82143403131E+02 0.  0.
         13    1    4    4    0    0  0.73297278978E+02 -0.19485424362E+02  0.23615327022E+02  0.79434605422E+02  0.00000000000E+00 0. -1.
        -14    1    4    4    0    0  0.98796565512E+01 -0.52234123411E+02 -0.22480921449E+02  0.57718308112E+02  0.00000000000E+00 0.  1.
        -11    1    3    3    0    0 -0.44833564608E+02 -0.12234523074E+02  0.11026070461E+02  0.47763022309E+02  0.00000000000E+00 0.  1.
         11    1    3    3    0    0 -0.65016192767E+01  0.84147744440E+02  0.43817522625E+02  0.95095158849E+02  0.00000000000E+00 0. -1.
         21    1    1    2  502  501 -0.31841751645E+02 -0.19367359280E+00  0.12402915488E+03  0.12805141904E+03  0.00000000000E+00 0. -1.
<scales pt_clust_5="13000.00000" pt_clust_6="13000.00000" pt_clust_7="13000.00000" pt_clust_8="13000.00000" pt_clust_9="31.84234"></scales>
<clustering>
<clus scale="   31.842">  1  9  2 -1</clus>
<clus scale="   82.143">  5  6 -1 -1</clus>
<clus scale="   97.948">  7  8 -1 -1</clus>
<clus scale="  129.664">  2  5  1 -1</clus>
<clus scale="  129.664">  2  5  1 -1</clus>
</clustering>
</event>
<event>
 9    1  0.2802611E-005  0.9988481E+02  0.7546771E-02  0.1285283E+00
          1   -1    0    0  502    0  0.00000000000E+00  0.00000000000E+00  0.69922185358E+02  0.69922185358E+02  0.00000000000E+00 0. -1.
         -2   -1    0    0    0  501 -0.00000000000E+00 -0.00000000000E+00 -0.42130436396E+03  0.42130436396E+03  0.00000000000E+00 0.  1.
         23    2    1    2    0    0 -0.58356233186E+01 -0.45509293337E+02 -0.16776032499E+03  0.19599105560E+03  0.90353843045E+02 0.  0.
        -24    2    1    2    0    0  0.48973994857E+02  0.48643447097E+01  0.77537054652E+01  0.94891949880E+02  0.80760436984E+02 0.  0.
         13    1    4    4    0    0  0.71709268553E+02  0.35115869628E+01  0.55150248265E+01  0.72006707592E+02  0.00000000000E+00 0. -1.
        -14    1    4    4    0    0 -0.22735273696E+02  0.13527577469E+01  0.22386806387E+01  0.22885242288E+02  0.00000000000E+00 0.  1.
        -13    1    3    3    0    0 -0.38659113233E+02 -0.54571601797E+02 -0.11924318639E+03  0.13671694942E+03  0.00000000000E+00 0.  1.
         13    1    3    3    0    0  0.32823489914E+02  0.90623084602E+01 -0.48517138607E+02  0.59274106179E+02  0.00000000000E+00 0. -1.
         21    1    1    2  502  501 -0.43138371538E+02  0.40644948627E+02 -0.19137555907E+03  0.20034354384E+03  0.00000000000E+00 0. -1.
<scales pt_clust_5="13000.00000" pt_clust_6="13000.00000" pt_clust_7="13000.00000" pt_clust_8="13000.00000" pt_clust_9="59.26998"></scales>
<clustering>
<clus scale="   59.270">  2  9  1 -1</clus>
<clus scale="   80.760">  5  6 -1 -1</clus>
<clus scale="   90.354">  7  8 -1 -1</clus>
<clus scale="   91.298">  1  5  2 -1</clus>
<clus scale="   91.298">  1  5  2 -1</clus>
</clustering>
</event>
<event>
 9    1  0.2802611E-005  0.9283345E+02  0.7546771E-02  0.1299829E+00
          1   -1    0    0  502    0  0.00000000000E+00  0.00000000000E+00  0.14261603261E+03  0.14261603261E+03  0.00000000000E+00 0. -1.
         -2   -1    0    0    0  501 -0.00000000000E+00 -0.00000000000E+00 -0.43249438947E+03  0.43249438947E+03  0.00000000000E+00 0.  1.
         23    2    1    2    0    0 -0.46556109348E+02  0.76241643786E+02 -0.24191566843E+03  0.27339003788E+03  0.90767078899E+02 0.  0.
        -24    2    1    2    0    0  0.17732441657E+02  0.33511973482E+01  0.99449992703E+02  0.13173120002E+03  0.84481583794E+02 0.  0.
         11    1    4    4    0    0  0.28736310058E+02  0.18563096956E+02  0.10635908099E+03  0.11172563803E+03  0.00000000000E+00 0. -1.
        -12    1    4    4    0    0 -0.11003868401E+02 -0.15211899608E+02 -0.69090882919E+01  0.20005561989E+02  0.00000000000E+00 0.  1.
        -13    1    3    3    0    0  0.20560308019E+02  0.52124790936E+02 -0.10559508974E+03  0.11954096818E+03  0.00000000000E+00 0. -1.
         13    1    3    3    0    0 -0.67116417367E+02  0.24116852850E+02 -0.13632057869E+03  0.15384906970E+03  0.00000000000E+00 0.  1.
         21    1    1    2  502  501  0.28823667691E+02 -0.79592841134E+02 -0.14741268114E+03  0.16998918418E+03  0.00000000000E+00 0.  1.
<scales pt_clust_5="13000.00000" pt_clust_6="13000.00000" pt_clust_7="13000.00000" pt_clust_8="13000.00000" pt_clust_9="84.65119"></scales>
<clustering>
<clus scale="   84.482">  5  6 -1 -1</clus>
<clus scale="   84.651">  2  9  1 -1</clus>
<clus scale="   86.698">  1  5  2 -1</clus>
<clus scale="   90.767">  7  8 -1 -1</clus>
<clus scale="   86.698">  1  5  2 -1</clus>
</clustering>
</event>
<event>
 9    1  0.2802611E-005  0.3353293E+03  0.7546771E-02  0.1119967E+00
          1   -1    0    0  502    0  0.00000000000E+00  0.00000000000E+00  0.54316955371E+03  0.54316955371E+03  0.00000000000E+00 0. -1.
         -2   -1    0    0    0  501 -0.00000000000E+00 -0.00000000000E+00 -0.31874754851E+03  0.31874754851E+03  0.00000000000E+00 0.  1.
         23    2    1    2    0    0 -0.22204997171E+03  0.18815632432E+03  0.24244294355E+03  0.39058051825E+03  0.95213276604E+02 0.  0.
        -24    2    1    2    0    0 -0.43263644105E+02  0.13876774452E+02  0.85242421721E+02  0.12223486632E+03  0.74905168794E+02 0.  0.
         13    1    4    4    0    0 -0.59314659839E+01  0.33042974127E+02  0.82833293293E+01  0.34577940549E+02  0.00000000000E+00 0. -1.
        -14    1    4    4    0    0 -0.37332178121E+02 -0.19166199674E+02  0.76959092392E+02  0.87656925768E+02  0.00000000000E+00 0.  1.
        -11    1    3    3    0    0 -0.61425582405E+02  0.37356082318E+02  0.14072098183E+02  0.73257102094E+02  0.00000000000E+00 0.  1.
         11    1    3    3    0    0 -0.16062438930E+03  0.15080024200E+03  0.22837084537E+03  0.31732341616E+03  0.00000000000E+00 0. -1.
         21    1    1    2  502  501  0.26531361581E+03 -0.20203309877E+03 -0.10326336008E+03  0.34910171766E+03  0.00000000000E+00 0.  1.
<scales pt_clust_5="13000.00000" pt_clust_6="13000.00000" pt_clust_7="13000.00000" pt_clust_8="13000.00000" pt_clust_9="321.52789"></scales>
<clustering>
<clus scale="   74.905">  5  6 -1 -1</clus>
<clus scale="   87.608">  1  5  2 -1</clus>
<clus scale="   95.213">  7  8 -1 -1</clus>
<clus scale="  321.528">  2  9  1 -1</clus>
<clus scale="   87.608">  1  5  2 -1</clus>
</clustering>
</event>
<event>
 9    1  0.2802611E-005  0.1012081E+03  0.7546771E-02  0.1284946E+00
         -2   -1    0    0    0  501 -0.00000000000E+00  0.00000000000E+00  0.11342625554E+03  0.11342625554E+03  0.00000000000E+00 0.  1.
          1   -1    0    0  502    0  0.00000000000E+00 -0.00000000000E+00 -0.21726039981E+03  0.21726039981E+03  0.00000000000E+00 0. -1.
         23    2    1    2    0    0 -0.30564859757E+02 -0.17051566279E+02  0.20513735903E+02  0.10522317516E+03  0.97088293139E+02 0.  0.
        -24    2    1    2    0    0 -0.42482520365E+02  0.49968728595E+02 -0.55679005979E+02  0.11994156967E+03  0.83571466751E+02 0.  0.
         11    1    4    4    0    0 -0.27414188055E+00 -0.21147687541E+02 -0.22374934360E+02  0.30788594150E+02  0.00000000000E+00 0. -1.
        -12    1    4    4    0    0 -0.42208378485E+02  0.71116416136E+02 -0.33304071619E+02  0.89152975524E+02  0.00000000000E+00 0.  1.
        -13    1    3    3    0    0  0.32871312950E+02 -0.61189131550E+01  0.23361644903E+02  0.40788855903E+02  0.00000000000E+00 0. -1.
         13    1    3    3    0    0 -0.63436172707E+02 -0.10932653124E+02 -0.28479090003E+01  0.64434319254E+02  0.00000000000E+00 0.  1.
         21    1    1    2  502  501  0.73047380122E+02 -0.32917162316E+02 -0.68668874191E+02  0.10552191052E+03  0.00000000000E+00 0.  1.
<scales pt_clust_5="13000.00000" pt_clust_6="13000.00000" pt_clust_7="13000.00000" pt_clust_8="13000.00000" pt_clust_9="80.12153"></scales>
<clustering>
<clus scale="   80.122">  2  9  1 -1</clus>
<clus scale="   83.571">  5  6 -1 -1</clus>
<clus scale="   88.324">  2  5  1 -1</clus>
<clus scale="   97.088">  7  8 -1 -1</clus>
<clus scale="   80.122">  2  5  1 -1</clus>
</clustering>
</event>
<event>
 9    1  0.2802611E-005  0.8650918E+02  0.7546771E-02  0.1313745E+00
          1   -1    0    0  502    0  0.00000000000E+00  0.00000000000E+00  0.45369481365E+03  0.45369481365E+03  0.00000000000E+00 0. -1.
         -2   -1    0    0    0  501 -0.00000000000E+00 -0.00000000000E+00 -0.51436296408E+02  0.51436296408E+02  0.00000000000E+00 0.  1.
        -24    2    1    2    0    0 -0.25663215142E+02  0.24218118961E+02  0.46761704747E+02  0.10002831096E+03  0.81079516932E+02 0.  0.
         23    2    1    2    0    0 -0.26654916102E+02 -0.20473107342E+01  0.33195737243E+03  0.34359802828E+03  0.84553130597E+02 0.  0.
         13    1    3    3    0    0  0.38592135135E+01  0.43365849341E+02  0.48019137673E+02  0.64817651924E+02  0.00000000000E+00 0. -1.
        -14    1    3    3    0    0 -0.29522428656E+02 -0.19147730380E+02 -0.12574329263E+01  0.35210659040E+02  0.00000000000E+00 0.  1.
        -13    1    4    4    0    0 -0.56697489343E+02 -0.74758757731E+01  0.23939654156E+03  0.24613248085E+03  0.00000000000E+00 0.  1.
         13    1    4    4    0    0  0.30042573241E+02  0.54285650389E+01  0.92560830870E+02  0.97465547434E+02  0.00000000000E+00 0. -1.
         21    1    1    2  502  501  0.52318131244E+02 -0.22170808227E+02  0.23539440065E+02  0.61504770814E+02  0.00000000000E+00 0.  1.
<scales pt_clust_5="13000.00000" pt_clust_6="13000.00000" pt_clust_7="13000.00000" pt_clust_8="13000.00000" pt_clust_9="56.82193"></scales>
<clustering>
<clus scale="   56.822">  2  9  1 -1</clus>
<clus scale="   81.080">  5  6 -1 -1</clus>
<clus scale="   83.117">  2  5  1 -1</clus>
<clus scale="   84.553">  7  8 -1 -1</clus>
<clus scale="   86.509">  1  5  2 -1</clus>
</clustering>
</event>
<event>
 9    1  0.2802611E-005  0.1497891E+03  0.7546771E-02  0.1219161E+00
         -2   -1    0    0    0  501 -0.00000000000E+00  0.00000000000E+00  0.52581034919E+03  0.52581034919E+03  0.00000000000E+00 0.  1.
          1   -1    0    0  502    0  0.00000000000E+00 -0.00000000000E+00 -0.13992118065E+03  0.13992118065E+03  0.00000000000E+00 0. -1.
        -24    2    1    2    0    0 -0.57097768114E+02 -0.14273867880E+02  0.24046734287E+03  0.26083791729E+03  0.82146075273E+02 0.  0.
         23    2    1    2    0    0 -0.96164869138E+02  0.55049677763E+02 -0.51138848648E+02  0.15233035050E+03  0.91165809191E+02 0.  0.
         13    1    3    3    0    0  0.21280299789E+02 -0.65273695859E+01  0.55877615236E+02  0.60147864445E+02  0.00000000000E+00 0. -1.
        -14    1    3    3    0    0 -0.78378067903E+02 -0.77464982942E+01  0.18458972763E+03  0.20069005285E+03  0.00000000000E+00 0.  1.
        -13    1    4    4    0    0 -0.60944418684E+02  0.53851357333E+02 -0.74301859922E+02  0.11015878196E+03  0.00000000000E+00 0.  1.
         13    1    4    4    0    0 -0.35220450453E+02  0.11983204298E+01  0.23163011274E+02  0.42171568542E+02  0.00000000000E+00 0. -1.
         21    1    1    2  502  501  0.15326263725E+03 -0.40775809883E+02  0.19656067432E+03  0.25256326205E+03  0.00000000000E+00 0. -1.
<scales pt_clust_5="13000.00000" pt_clust_6="13000.00000" pt_clust_7="13000.00000" pt_clust_8="13000.00000" pt_clust_9="118.85109"></scales>
<clustering>
<clus scale="   82.146">  5  6 -1 -1</clus>
<clus scale="   91.166">  7  8 -1 -1</clus>
<clus scale="  101.054">  1  5  2 -1</clus>
<clus scale="  118.851">  1  9  2 -1</clus>
<clus scale="  149.789">  2  5  1 -1</clus>
</clustering>
</event>
<event>
 9    1  0.2802611E-005  0.2066876E+03  0.7546771E-02  0.1182491E+00
         -2   -1    0    0    0  501 -0.00000000000E+00  0.00000000000E+00  0.34803749820E+02  0.34803749820E+02  0.00000000000E+00 0.  1.
          1   -1    0    0  502    0  0.00000000000E+00 -0.00000000000E+00 -0.25220102224E+04  0.25220102224E+04  0.00000000000E+00 0. -1.
         23    2    1    2    0    0  0.19535547639E+03  0.16183478165E+02 -0.91380112497E+03  0.93892780469E+03  0.90151313391E+02 0.  0.
        -24    2    1    2    0    0 -0.13498523533E+02 -0.29630325676E+02 -0.11929176636E+04  0.11959576822E+04  0.78753153958E+02 0.  0.
         11    1    4    4    0    0 -0.25957552645E+02 -0.13541437978E+02 -0.14940188941E+03  0.15224352085E+03  0.00000000000E+00 0. -1.
        -12    1    4    4    0    0  0.12459029113E+02 -0.16088887698E+02 -0.10435157742E+04  0.10437141614E+04  0.00000000000E+00 0.  1.
        -13    1    3    3    0    0  0.55244379135E+02  0.21535256982E+02 -0.13273653163E+03  0.14537776841E+03  0.00000000000E+00 0.  1.
         13    1    3    3    0    0  0.14011109725E+03 -0.53517788164E+01 -0.78106459334E+03  0.79355003628E+03  0.00000000000E+00 0. -1.
         21    1    1    2  502  501 -0.18185695285E+03  0.13446847511E+02 -0.38048768401E+03  0.42192848528E+03  0.00000000000E+00 0.  1.
<scales pt_clust_5="13000.00000" pt_clust_6="13000.00000" pt_clust_7="13000.00000" pt_clust_8="13000.00000" pt_clust_9="185.99062"></scales>
<clustering>
<clus scale="   78.753">  5  6 -1 -1</clus>
<clus scale="   85.219">  2  5  1 -1</clus>
<clus scale="   90.151">  7  8 -1 -1</clus>
<clus scale="  185.991">  1  9  2 -1</clus>
<clus scale="   85.219">  2  5  1 -1</clus>
</clustering>
</event>
<event>
 9    1  0.2802611E-005  0.2839883E+03  0.7546771E-02  0.1123821E+00
          1   -1    0    0  502    0  0.00000000000E+00  0.00000000000E+00  0.73897621123E+03  0.73897621123E+03  0.00000000000E+00 0. -1.
         -2   -1    0    0    0  501 -0.00000000000E+00 -0.00000000000E+00 -0.81701535669E+03  0.81701535669E+03  0.00000000000E+00 0.  1.
        -24    2    1    2    0    0 -0.76578356132E+01 -0.10410816974E+03 -0.13572960624E+03  0.18865021681E+03  0.79178436718E+02 0.  0.
         23    2    1    2    0    0  0.99785402625E+01 -0.26346572317E+03  0.62881315104E+03  0.68815280605E+03  0.92922263275E+02 0.  0.
         13    1    3    3    0    0  0.26796864037E+02 -0.36549195268E+02 -0.88163940356E+02  0.99130197094E+02  0.00000000000E+00 0. -1.
        -14    1    3    3    0    0 -0.34454699650E+02 -0.67558974470E+02 -0.47565665885E+02  0.89520019719E+02  0.00000000000E+00 0.  1.
        -11    1    4    4    0    0 -0.21243355866E+02 -0.53187558071E+02  0.71102943703E+02  0.91300739894E+02  0.00000000000E+00 0.  1.
         11    1    4    4    0    0  0.31221896128E+02 -0.21027816510E+03  0.55771020733E+03  0.59685206616E+03  0.00000000000E+00 0. -1.
         21    1    1    2  502  501 -0.23207046493E+01  0.36757389291E+03 -0.57112269025E+03  0.67918854506E+03  0.00000000000E+00 0.  1.
<scales pt_clust_5="13000.00000" pt_clust_6="13000.00000" pt_clust_7="13000.00000" pt_clust_8="13000.00000" pt_clust_9="268.35571"></scales>
<clustering>
<clus scale="   79.178">  5  6 -1 -1</clus>
<clus scale="   92.922">  7  8 -1 -1</clus>
<clus scale="  131.021">  2  5  1 -1</clus>
<clus scale="  268.356">  2  9  1 -1</clus>
<clus scale="  283.988">  1  5  2 -1</clus>
</clustering>
</event>
<event>
 9    1  0.2802611E-005  0.3264476E+03  0.7546771E-02  0.1072720E+00
         -2   -1    0    0    0  501 -0.00000000000E+00  0.00000000000E+00  0.22666145412E+03  0.22666145412E+03  0.00000000000E+00 0.  1.
          1   -1    0    0  502    0  0.00000000000E+00 -0.00000000000E+00 -0.48858668811E+03  0.48858668811E+03  0.00000000000E+00 0. -1.
        -24    2    1    2    0    0  0.82725682566E+02 -0.99772849208E+02 -0.16739287737E+03  0.22683818020E+03  0.81467936073E+02 0.  0.
         23    2    1    2    0    0  0.12492143734E+03 -0.72503384046E+02 -0.13187890797E+03  0.21602936095E+03  0.91730759392E+02 0.  0.
         13    1    3    3    0    0  0.42730828316E+02 -0.42450584738E+02 -0.13882668398E+03  0.15133018212E+03  0.00000000000E+00 0. -1.
        -14    1    3    3    0    0  0.39994854250E+02 -0.57322264469E+02 -0.28566193386E+02  0.75507998086E+02  0.00000000000E+00 0.  1.
        -13    1    4    4    0    0 -0.65129179707E+01 -0.24720450368E+02 -0.28033637043E+01  0.25717262976E+02  0.00000000000E+00 0.  1.
         13    1    4    4    0    0  0.13143435531E+03 -0.47782933678E+02 -0.12907554426E+03  0.19031209797E+03  0.00000000000E+00 0. -1.
         21    1    1    2  502  501 -0.20764711991E+03  0.17227623325E+03  0.37346551349E+02  0.27238060109E+03  0.00000000000E+00 0.  1.
<scales pt_clust_5="13000.00000" pt_clust_6="13000.00000" pt_clust_7="13000.00000" pt_clust_8="13000.00000" pt_clust_9="269.80813"></scales>
<clustering>
<clus scale="   81.468">  5  6 -1 -1</clus>
<clus scale="   91.731">  7  8 -1 -1</clus>
<clus scale="  108.183">  5  7 -1 -1</clus>
<clus scale="  269.808">  1  9  2 -1</clus>
<clus scale="  326.448">  2  5  1 -1</clus>
</clustering>
</event>
<event>
 9    1  0.4668593E-005  0.1084133E+03  0.7546771E-02  0.1272296E+00
         -2   -1    0    0    0  501 -0.00000000000E+00  0.00000000000E+00  0.51960923361E+03  0.51960923361E+03  0.00000000000E+00 0.  1.
          1   -1    0    0  502    0  0.00000000000E+00 -0.00000000000E+00 -0.29591170269E+03  0.29591170269E+03  0.00000000000E+00 0. -1.
        -24    2    1    2    0    0 -0.16660011041E+02  0.12997615212E+02  0.37431389452E+03  0.38346870018E+03  0.80565863848E+02 0.  0.
         23    2    1    2    0    0  0.17318136552E+02 -0.40416426475E+02 -0.27970749619E+03  0.30007972060E+03  0.99388882229E+02 0.  0.
         11    1    3    3    0    0 -0.37898699400E+02 -0.20615744381E+02  0.17628161890E+03  0.18148424035E+03  0.00000000000E+00 0. -1.
        -12    1    3    3    0    0  0.21238688359E+02  0.33613359593E+02  0.19803227562E+03  0.20198445983E+03  0.00000000000E+00 0.  1.
        -11    1    4    4    0    0 -0.41547561941E+01 -0.61552821185E+02 -0.25097318377E+03  0.25844448295E+03  0.00000000000E+00 0. -1.
         11    1    4    4    0    0  0.21472892746E+02  0.21136394711E+02 -0.28734312411E+02  0.41635237648E+02  0.00000000000E+00 0.  1.
         21    1    1    2  502  501 -0.65812551049E+00  0.27418811263E+02  0.12909113259E+03  0.13197251552E+03  0.00000000000E+00 0.  1.
<scales pt_clust_5="13000.00000" pt_clust_6="13000.00000" pt_clust_7="13000.00000" pt_clust_8="13000.00000" pt_clust_9="27.42671"></scales>
<clustering>
<clus scale="   27.427">  1  9  2 -1</clus>
<clus scale="   80.566">  5  6 -1 -1</clus>
<clus scale="   91.467">  1  5  2 -1</clus>
<clus scale="   99.389">  7  8 -1 -1</clus>
<clus scale="  108.413">  2  5  1 -1</clus>
</clustering>
</event>
<event>
 9    1  0.2802611E-005  0.1136739E+03  0.7546771E-02  0.1258354E+00
          1   -1    0    0  502    0  0.00000000000E+00  0.00000000000E+00  0.72178523246E+03  0.72178523246E+03  0.00000000000E+00 0. -1.
         -2   -1    0    0    0  501 -0.00000000000E+00 -0.00000000000E+00 -0.24719611390E+02  0.24719611390E+02  0.00000000000E+00 0.  1.
         23    2    1    2    0    0 -0.49340982878E+02  0.45465073731E+02  0.22195335185E+03  0.24895538090E+03  0.90630490235E+02 0.  0.
        -24    2    1    2    0    0  0.34721148733E+02 -0.61103665819E+02  0.45859110199E+03  0.47050775295E+03  0.78310475807E+02 0.  0.
         13    1    4    4    0    0  0.45322895575E+02 -0.69356512644E+02  0.43901555966E+03  0.44676520940E+03  0.00000000000E+00 0. -1.
        -14    1    4    4    0    0 -0.10601746841E+02  0.82528468253E+01  0.19575542328E+02  0.23742543550E+02  0.00000000000E+00 0.  1.
        -13    1    3    3    0    0  0.44010528375E+01  0.57231043146E+02  0.10354666828E+03  0.11839203553E+03  0.00000000000E+00 0.  1.
         13    1    3    3    0    0 -0.53742035716E+02 -0.11765969415E+02  0.11840668357E+03  0.13056334537E+03  0.00000000000E+00 0. -1.
         21    1    1    2  502  501  0.14619834145E+02  0.15638592088E+02  0.16521167233E+02  0.27041709999E+02  0.00000000000E+00 0.  1.
<scales pt_clust_5="13000.00000" pt_clust_6="13000.00000" pt_clust_7="13000.00000" pt_clust_8="13000.00000" pt_clust_9="21.40806"></scales>
<clustering>
<clus scale="   21.408">  2  9  1 -1</clus>
<clus scale="   78.310">  5  6 -1 -1</clus>
<clus scale="   90.630">  7  8 -1 -1</clus>
<clus scale="  104.117">  1  5  2 -1</clus>
<clus scale="  104.117">  1  5  2 -1</clus>
</clustering>
</event>
<event>
 9    1  0.2802611E-005  0.1194755E+03  0.7546771E-02  0.1248480E+00
          1   -1    0    0  502    0  0.00000000000E+00  0.00000000000E+00  0.55243293110E+03  0.55243293110E+03  0.00000000000E+00 0. -1.
         -2   -1    0    0    0  501 -0.00000000000E+00 -0.00000000000E+00 -0.72773468026E+02  0.72773468026E+02  0.00000000000E+00 0.  1.
        -24    2    1    2    0    0  0.24958207403E+02 -0.69009664555E+01 -0.49131850830E+01  0.81456676033E+02  0.77074737935E+02 0.  0.
         23    2    1    2    0    0 -0.86736211574E+02  0.10675003705E+02  0.46023095418E+03  0.47724195496E+03  0.91160442556E+02 0.  0.
         13    1    3    3    0    0  0.28892882955E+02  0.13764485973E+02  0.27914201086E+02  0.42467191829E+02  0.00000000000E+00 0. -1.
        -14    1    3    3    0    0 -0.39346755516E+01 -0.20665452429E+02 -0.32827386169E+02  0.38989484204E+02  0.00000000000E+00 0.  1.
        -11    1    4    4    0    0  0.62835698011E+01  0.28913859343E+02  0.77749375426E+02  0.83189301540E+02  0.00000000000E+00 0.  1.
         11    1    4    4    0    0 -0.93019781375E+02 -0.18238855638E+02  0.38248157875E+03  0.39405265342E+03  0.00000000000E+00 0. -1.
         21    1    1    2  502  501  0.61778004171E+02 -0.37740372492E+01  0.24341693980E+02  0.66507768135E+02  0.00000000000E+00 0.  1.
<scales pt_clust_5="13000.00000" pt_clust_6="13000.00000" pt_clust_7="13000.00000" pt_clust_8="13000.00000" pt_clust_9="61.89318"></scales>
<clustering>
<clus scale="   61.893">  2  9  1 -1</clus>
<clus scale="   77.075">  5  6 -1 -1</clus>
<clus scale="   91.160">  7  8 -1 -1</clus>
<clus scale="  109.109">  2  5  1 -1</clus>
<clus scale="  119.476">  1  5  2 -1</clus>
</clustering>
</event>
<event>
 9    1  0.2802611E-005  0.1158839E+03  0.7546771E-02  0.1253493E+00
          1   -1    0    0  502    0  0.00000000000E+00  0.00000000000E+00  0.68587038872E+03  0.68587038872E+03  0.00000000000E+00 0. -1.
         -2   -1    0    0    0  501 -0.00000000000E+00 -0.00000000000E+00 -0.71376506666E+02  0.71376506666E+02  0.00000000000E+00 0.  1.
        -24    2    1    2    0    0  0.28959277923E+02  0.83246247335E+02 -0.21276610611E+01  0.11988862057E+03  0.81241472945E+02 0.  0.
         23    2    1    2    0    0 -0.15132324487E+02 -0.68356258702E+02  0.60052078980E+03  0.61143279199E+03  0.91231983358E+02 0.  0.
         13    1    3    3    0    0  0.35339536220E+02  0.48540154558E+01  0.16125553932E+02  0.39146874408E+02  0.00000000000E+00 0. -1.
        -14    1    3    3    0    0 -0.63802582969E+01  0.78392231879E+02 -0.18253214993E+02  0.80741746157E+02  0.00000000000E+00 0.  1.
        -11    1    4    4    0    0  0.19359499558E+02  0.13940968139E+02  0.86754287152E+02  0.89974702861E+02  0.00000000000E+00 0.  1.
         11    1    4    4    0    0 -0.34491824045E+02 -0.82297226841E+02  0.51376650265E+03  0.52145808913E+03  0.00000000000E+00 0. -1.
         21    1    1    2  502  501 -0.13826953437E+02 -0.14889988632E+02  0.16100753316E+02  0.25925482833E+02  0.00000000000E+00 0. -1.
<scales pt_clust_5="13000.00000" pt_clust_6="13000.00000" pt_clust_7="13000.00000" pt_clust_8="13000.00000" pt_clust_9="20.31985"></scales>
<clustering>
<clus scale="   20.320">  2  9  1 -1</clus>
<clus scale="   81.241">  5  6 -1 -1</clus>
<clus scale="   91.232">  7  8 -1 -1</clus>
<clus scale="  108.194">  2  5  1 -1</clus>
<clus scale="  115.884">  1  5  2 -1</clus>
</clustering>
</event>
<event>
 9    1  0.2802611E-005  0.9850843E+02  0.7546771E-02  0.1288704E+00
          1   -1    0    0  502    0  0.00000000000E+00  0.00000000000E+00  0.14620281079E+03  0.14620281079E+03  0.00000000000E+00 0. -1.
         -2   -1    0    0    0  501 -0.00000000000E+00 -0.00000000000E+00 -0.10881022903E+03  0.10881022903E+03  0.00000000000E+00 0.  1.
        -24    2    1    2    0    0 -0.13364595387E+02  0.26672147595E+02 -0.47038759000E+02  0.97405054507E+02  0.79906720168E+02 0.  0.
         23    2    1    2    0    0 -0.53259524880E+01 -0.43916420674E+02  0.85897255155E+02  0.13213544247E+03  0.90135558682E+02 0.  0.
         13    1    3    3    0    0 -0.43036935521E+02 -0.53007567988E+00 -0.13791131532E+02  0.45195731084E+02  0.00000000000E+00 0. -1.
        -14    1    3    3    0    0  0.29672340134E+02  0.27202223275E+02 -0.33247627468E+02  0.52209323424E+02  0.00000000000E+00 0.  1.
        -13    1    4    4    0    0 -0.30973460776E+02 -0.59899338937E+02  0.44160169531E+02  0.80606492607E+02  0.00000000000E+00 0. -1.
         13    1    4    4    0    0  0.25647508288E+02  0.15982918262E+02  0.41737085625E+02  0.51528949863E+02  0.00000000000E+00 0.  1.
         21    1    1    2  502  501  0.18690547875E+02  0.17244273079E+02 -0.14659143949E+01  0.25472542844E+02  0.00000000000E+00 0. -1.
<scales pt_clust_5="13000.00000" pt_clust_6="13000.00000" pt_clust_7="13000.00000" pt_clust_8="13000.00000" pt_clust_9="25.43033"></scales>
<clustering>
<clus scale="   25.430">  2  9  1 -1</clus>
<clus scale="   79.907">  5  6 -1 -1</clus>
<clus scale="   89.244">  2  5  1 -1</clus>
<clus scale="   90.136">  7  8 -1 -1</clus>
<clus scale="   98.508">  1  5  2 -1</clus>
</clustering>
</event>
<event>
 9    1  0.2802611E-005  0.2350481E+03  0.7546771E-02  0.1123832E+00
         -2   -1    0    0    0  501 -0.00000000000E+00  0.00000000000E+00  0.70544658932E+03  0.70544658932E+03  0.00000000000E+00 0.  1.
          1   -1    0    0  502    0  0.00000000000E+00 -0.00000000000E+00 -0.10288843904E+04  0.10288843904E+04  0.00000000000E+00 0. -1.
         23    2    1    2    0    0  0.12969158927E+03 -0.17159376287E+03  0.28548514575E+03  0.36889802374E+03  0.91212146625E+02 0.  0.
        -24    2    1    2    0    0 -0.16371921641E+03  0.14223874132E+03 -0.97223127415E+03  0.99935572720E+03  0.80264423650E+02 0.  0.
         13    1    4    4    0    0 -0.11143989886E+03  0.12897795569E+03 -0.82816688406E+03  0.84552619828E+03  0.00000000000E+00 0. -1.
        -14    1    4    4    0    0 -0.52279317545E+02  0.13260785623E+02 -0.14406439009E+03  0.15382952893E+03  0.00000000000E+00 0.  1.
        -11    1    3    3    0    0  0.10745350367E+03 -0.17748334422E+03  0.27245536390E+03  0.34245951329E+03  0.00000000000E+00 0.  1.
         11    1    3    3    0    0  0.22238085595E+02  0.58895813545E+01  0.13029781853E+02  0.26438510446E+02  0.00000000000E+00 0. -1.
         21    1    1    2  502  501  0.34027627139E+02  0.29355021551E+02  0.36330832734E+03  0.36607722875E+03  0.00000000000E+00 0.  1.
<scales pt_clust_5="13000.00000" pt_clust_6="13000.00000" pt_clust_7="13000.00000" pt_clust_8="13000.00000" pt_clust_9="44.93992"></scales>
<clustering>
<clus scale="   44.940">  1  9  2 -1</clus>
<clus scale="   80.264">  5  6 -1 -1</clus>
<clus scale="   91.212">  7  8 -1 -1</clus>
<clus scale="  231.020">  2  5  1 -1</clus>
<clus scale="  231.020">  2  5  1 -1</clus>
</clustering>
</event>
<event>
 9    1  0.2802611E-005  0.1464207E+03  0.7546771E-02  0.1207811E+00
          1   -1    0    0  502    0  0.00000000000E+00  0.00000000000E+00  0.48212161660E+03  0.48212161660E+03  0.00000000000E+00 0. -1.
         -2   -1    0    0    0  501 -0.00000000000E+00 -0.00000000000E+00 -0.24900714978E+03  0.24900714978E+03  0.00000000000E+00 0.  1.
        -24    2    1    2    0    0  0.60228200147E+02 -0.14987186519E+02 -0.19857226927E+03  0.22044409288E+03  0.72887585434E+02 0.  0.
         23    2    1    2    0    0 -0.98831580473E+02  0.68796447339E+02  0.41688737764E+03  0.44282689182E+03  0.88317257757E+02 0.  0.
         11    1    3    3    0    0  0.20593034865E+02  0.28660744890E+02 -0.56401179980E+02  0.66532732438E+02  0.00000000000E+00 0. -1.
        -12    1    3    3    0    0  0.39635165283E+02 -0.43647931410E+02 -0.14217108929E+03  0.15391136044E+03  0.00000000000E+00 0.  1.
        -13    1    4    4    0    0 -0.25058179219E+01  0.50658750385E+02  0.16140895065E+03  0.16919053598E+03  0.00000000000E+00 0.  1.
         13    1    4    4    0    0 -0.96325762552E+02  0.18137696954E+02  0.25547842699E+03  0.27363635584E+03  0.00000000000E+00 0. -1.
         21    1    1    2  502  501  0.38603380326E+02 -0.53809260820E+02  0.14799358449E+02  0.67857781669E+02  0.00000000000E+00 0.  1.
<scales pt_clust_5="13000.00000" pt_clust_6="13000.00000" pt_clust_7="13000.00000" pt_clust_8="13000.00000" pt_clust_9="66.22430"></scales>
<clustering>
<clus scale="   66.224">  2  9  1 -1</clus>
<clus scale="   72.888">  5  6 -1 -1</clus>
<clus scale="   88.317">  7  8 -1 -1</clus>
<clus scale="  137.665">  2  5  1 -1</clus>
<clus scale="  146.421">  1  5  2 -1</clus>
</clustering>
</event>
<event>
 9    1  0.2802611E-005  0.1098232E+03  0.7546771E-02  0.1265496E+00
          1   -1    0    0  502    0  0.00000000000E+00  0.00000000000E+00  0.58943054645E+02  0.58943054645E+02  0.00000000000E+00 0. -1.
         -2   -1    0    0    0  501 -0.00000000000E+00 -0.00000000000E+00 -0.44685052748E+03  0.44685052748E+03  0.00000000000E+00 0.  1.
        -24    2    1    2    0    0  0.38460420645E+02  0.63798622339E+02 -0.32054193459E+03  0.33833710167E+03  0.78583677478E+02 0.  0.
         23    2    1    2    0    0 -0.16813801301E+02 -0.58202640092E+02 -0.14086722143E+02  0.10967652380E+03  0.90334118158E+02 0.  0.
         13    1    3    3    0    0  0.53558786602E+02  0.31684588122E+02 -0.12536178531E+03  0.13995725763E+03  0.00000000000E+00 0. -1.
        -14    1    3    3    0    0 -0.15098365957E+02  0.32114034217E+02 -0.19518014928E+03  0.19837984404E+03  0.00000000000E+00 0.  1.
        -13    1    4    4    0    0 -0.54301493778E+02 -0.33469239043E+02 -0.10186340031E+02  0.64595694220E+02  0.00000000000E+00 0.  1.
         13    1    4    4    0    0  0.37487692476E+02 -0.24733401049E+02 -0.39003821116E+01  0.45080829576E+02  0.00000000000E+00 0. -1.
         21    1    1    2  502  501 -0.21646619344E+02 -0.55959822473E+01 -0.53278816099E+02  0.57779956657E+02  0.00000000000E+00 0.  1.
<scales pt_clust_5="13000.00000" pt_clust_6="13000.00000" pt_clust_7="13000.00000" pt_clust_8="13000.00000" pt_clust_9="22.35825"></scales>
<clustering>
<clus scale="   22.358">  2  9  1 -1</clus>
<clus scale="   78.584">  5  6 -1 -1</clus>
<clus scale="   90.334">  7  8 -1 -1</clus>
<clus scale="  100.381">  2  5  1 -1</clus>
<clus scale="  109.823">  1  5  2 -1</clus>
</clustering>
</event>
<event>
 9    1  0.2802611E-005  0.1444563E+03  0.7546771E-02  0.1210003E+00
         -4   -1    0    0    0  501 -0.00000000000E+00  0.00000000000E+00  0.51534862312E+02  0.51534862312E+02  0.00000000000E+00 0.  1.
          3   -1    0    0  502    0  0.00000000000E+00 -0.00000000000E+00 -0.65380925851E+03  0.65380925851E+03  0.00000000000E+00 0. -1.
        -24    2    1    2    0    0 -0.78116124941E+02  0.77303292582E+02 -0.21136215663E+03  0.25069458747E+03  0.78076160974E+02 0.  0.
         23    2    1    2    0    0  0.95387100719E+02 -0.63714634570E+02 -0.40357828654E+03  0.42928485364E+03  0.90839410828E+02 0.  0.
         11    1    3    3    0    0 -0.38186565898E+02  0.66754081068E+02 -0.18828408619E+03  0.20338441008E+03  0.00000000000E+00 0. -1.
        -12    1    3    3    0    0 -0.39929559043E+02  0.10549211514E+02 -0.23078070441E+02  0.47310177385E+02  0.00000000000E+00 0.  1.
        -13    1    4    4    0    0  0.31452546924E+02  0.14385749981E+02 -0.44903186542E+02  0.56678996746E+02  0.00000000000E+00 0.  1.
         13    1    4    4    0    0  0.63934553795E+02 -0.78100384551E+02 -0.35867510000E+03  0.37260585690E+03  0.00000000000E+00 0. -1.
         21    1    1    2  502  501 -0.17270975778E+02 -0.13588658012E+02  0.12666046969E+02  0.25364679708E+02  0.00000000000E+00 0.  1.
<scales pt_clust_5="13000.00000" pt_clust_6="13000.00000" pt_clust_7="13000.00000" pt_clust_8="13000.00000" pt_clust_9="21.97586"></scales>
<clustering>
<clus scale="   21.976">  1  9  2 -1</clus>
<clus scale="   78.076">  5  6 -1 -1</clus>
<clus scale="   90.839">  7  8 -1 -1</clus>
<clus scale="  136.791">  1  5  2 -1</clus>
<clus scale="  144.456">  2  5  1 -1</clus>
</clustering>
</event>
<event>
 9    1  0.2802611E-005  0.1232159E+03  0.7546771E-02  0.1241118E+00
         -2   -1    0    0    0  501 -0.00000000000E+00  0.00000000000E+00  0.23384255132E+03  0.23384255132E+03  0.00000000000E+00 0.  1.
          1   -1    0    0  502    0  0.00000000000E+00 -0.00000000000E+00 -0.12948421088E+03  0.12948421088E+03  0.00000000000E+00 0. -1.
         23    2    1    2    0    0  0.72046976306E+02  0.19159662536E+02  0.13457162443E+03  0.17879347127E+03  0.91102819953E+02 0.  0.
        -24    2    1    2    0    0 -0.64540096946E+02 -0.57403145394E+02 -0.62969668783E+02  0.13362260479E+03  0.80182766902E+02 0.  0.
         11    1    4    4    0    0 -0.34974036261E+02 -0.42315275617E+02 -0.79443420628E+02  0.96566157861E+02  0.00000000000E+00 0. -1.
        -12    1    4    4    0    0 -0.29566060685E+02 -0.15087869776E+02  0.16473751844E+02  0.37056446924E+02  0.00000000000E+00 0.  1.
        -13    1    3    3    0    0  0.32325687548E+02 -0.24112754270E+02  0.10735719213E+02  0.41732848704E+02  0.00000000000E+00 0. -1.
         13    1    3    3    0    0  0.39721288758E+02  0.43272416806E+02  0.12383590522E+03  0.13706062257E+03  0.00000000000E+00 0.  1.
         21    1    1    2  502  501 -0.75068793596E+01  0.38243482858E+02  0.32756384787E+02  0.50910686138E+02  0.00000000000E+00 0.  1.
<scales pt_clust_5="13000.00000" pt_clust_6="13000.00000" pt_clust_7="13000.00000" pt_clust_8="13000.00000" pt_clust_9="38.97329"></scales>
<clustering>
<clus scale="   38.973">  1  9  2 -1</clus>
<clus scale="   80.183">  5  6 -1 -1</clus>
<clus scale="   91.103">  7  8 -1 -1</clus>
<clus scale="  115.376">  2  5  1 -1</clus>
<clus scale="  115.376">  2  5  1 -1</clus>
</clustering>
</event>
<event>
 9    1  0.2802611E-005  0.8432856E+02  0.7546771E-02  0.1318252E+00
         -2   -1    0    0    0  501 -0.00000000000E+00  0.00000000000E+00  0.77296556772E+02  0.77296556772E+02  0.00000000000E+00 0.  1.
          1   -1    0    0  502    0  0.00000000000E+00 -0.00000000000E+00 -0.38234999975E+03  0.38234999975E+03  0.00000000000E+00 0. -1.
         23    2    1    2    0    0 -0.15373210077E+02  0.12418642192E+02 -0.58953320529E+02  0.10051550733E+03  0.78976673463E+02 0.  0.
        -24    2    1    2    0    0 -0.51128416095E+01  0.36925605326E+02 -0.28140484633E+03  0.29509233741E+03  0.80629762371E+02 0.  0.
         13    1    4    4    0    0 -0.23000992576E+02  0.42332494151E+02 -0.84238035277E+02  0.97041910059E+02  0.00000000000E+00 0. -1.
        -14    1    4    4    0    0  0.17888150967E+02 -0.54068888251E+01 -0.19716681106E+03  0.19805042735E+03  0.00000000000E+00 0.  1.
        -13    1    3    3    0    0 -0.41532050369E+02 -0.12823886615E+02 -0.22146971377E+02  0.48783722869E+02  0.00000000000E+00 0. -1.
         13    1    3    3    0    0  0.26158840292E+02  0.25242528808E+02 -0.36806349152E+02  0.51731784465E+02  0.00000000000E+00 0.  1.
         21    1    1    2  502  501  0.20486051687E+02 -0.49344247518E+02  0.35304723888E+02  0.64038711774E+02  0.00000000000E+00 0.  1.
<scales pt_clust_5="13000.00000" pt_clust_6="13000.00000" pt_clust_7="13000.00000" pt_clust_8="13000.00000" pt_clust_9="53.42783"></scales>
<clustering>
<clus scale="   53.428">  1  9  2 -1</clus>
<clus scale="   78.977">  7  8 -1 -1</clus>
<clus scale="   80.630">  5  6 -1 -1</clus>
<clus scale="   82.749">  1  7  2 -1</clus>
<clus scale="   84.329">  2  5  1 -1</clus>
</clustering>
</event>
<event>
 9    1  0.2802611E-005  0.9200413E+02  0.7546771E-02  0.1303665E+00
         -4   -1    0    0    0  501 -0.00000000000E+00  0.00000000000E+00  0.53057184468E+03  0.53057184468E+03  0.00000000000E+00 0.  1.
          3   -1    0    0  502    0  0.00000000000E+00 -0.00000000000E+00 -0.13653980452E+03  0.13653980452E+03  0.00000000000E+00 0. -1.
         23    2    1    2    0    0 -0.12546552491E+02  0.57328401642E+02  0.41968443623E+03  0.43346077757E+03  0.91155131858E+02 0.  0.
        -24    2    1    2    0    0  0.31777019446E+01 -0.10499462405E+02 -0.10943011467E+03  0.13721731396E+03  0.82056716684E+02 0.  0.
         11    1    4    4    0    0  0.29538708483E+02 -0.19636672538E+02 -0.14581389258E+02  0.38350373139E+02  0.00000000000E+00 0. -1.
        -12    1    4    4    0    0 -0.26361006538E+02  0.91372101325E+01 -0.94848725417E+02  0.98866940824E+02  0.00000000000E+00 0.  1.
        -11    1    3    3    0    0  0.34674926966E+02  0.80399134602E+00  0.14194884676E+03  0.14612485093E+03  0.00000000000E+00 0. -1.
         11    1    3    3    0    0 -0.47221479457E+02  0.56524410296E+02  0.27773558947E+03  0.28733592664E+03  0.00000000000E+00 0.  1.
         21    1    1    2  502  501  0.93688505464E+01 -0.46828939237E+02  0.83777718604E+02  0.96433557671E+02  0.00000000000E+00 0. -1.
<scales pt_clust_5="13000.00000" pt_clust_6="13000.00000" pt_clust_7="13000.00000" pt_clust_8="13000.00000" pt_clust_9="47.75694"></scales>
<clustering>
<clus scale="   47.757">  1  9  2 -1</clus>
<clus scale="   82.057">  5  6 -1 -1</clus>
<clus scale="   82.999">  2  5  1 -1</clus>
<clus scale="   91.155">  7  8 -1 -1</clus>
<clus scale="   82.999">  2  5  1 -1</clus>
</clustering>
</event>
<event>
 9    1  0.2802611E-005  0.2171069E+03  0.7546771E-02  0.1136411E+00
          1   -1    0    0  502    0  0.00000000000E+00  0.00000000000E+00  0.30615647152E+03  0.30615647152E+03  0.00000000000E+00 0. -1.
         -2   -1    0    0    0  501 -0.00000000000E+00 -0.00000000000E+00 -0.45445042738E+03  0.45445042738E+03  0.00000000000E+00 0.  1.
        -24    2    1    2    0    0 -0.33282132115E+02 -0.17327202662E+03 -0.36520353751E+03  0.41395197619E+03  0.82775112540E+02 0.  0.
         23    2    1    2    0    0  0.39483328671E+02  0.19730098818E+03  0.23061145405E+03  0.31830731012E+03  0.87471639744E+02 0.  0.
         11    1    3    3    0    0  0.63233098910E+01 -0.13795869683E+03 -0.22451882426E+03  0.26359303619E+03  0.00000000000E+00 0. -1.
        -12    1    3    3    0    0 -0.39605442006E+02 -0.35313329790E+02 -0.14068471325E+03  0.15035894000E+03  0.00000000000E+00 0.  1.
        -13    1    4    4    0    0  0.20533272086E+02  0.11046305044E+03  0.63573345509E+02  0.12909403950E+03  0.00000000000E+00 0.  1.
         13    1    4    4    0    0  0.18950056585E+02  0.86837937737E+02  0.16703810854E+03  0.18921327062E+03  0.00000000000E+00 0. -1.
         21    1    1    2  502  501 -0.62011965557E+01 -0.24028961560E+02 -0.13701872389E+02  0.28347612586E+02  0.00000000000E+00 0. -1.
<scales pt_clust_5="13000.00000" pt_clust_6="13000.00000" pt_clust_7="13000.00000" pt_clust_8="13000.00000" pt_clust_9="24.81624"></scales>
<clustering>
<clus scale="   24.816">  2  9  1 -1</clus>
<clus scale="   82.775">  5  6 -1 -1</clus>
<clus scale="   87.472">  7  8 -1 -1</clus>
<clus scale="  215.258">  2  5  1 -1</clus>
<clus scale="  217.107">  1  5  2 -1</clus>
</clustering>
</event>
<event>
 9    1  0.2802611E-005  0.1050017E+03  0.7546771E-02  0.1272892E+00
          3   -1    0    0  502    0  0.00000000000E+00  0.00000000000E+00  0.12695401476E+03  0.12695401476E+03  0.00000000000E+00 0. -1.
         -4   -1    0    0    0  501 -0.00000000000E+00 -0.00000000000E+00 -0.16500764179E+03  0.16500764179E+03  0.00000000000E+00 0.  1.
        -24    2    1    2    0    0 -0.54938379107E+02 -0.47211068039E+02 -0.48954882783E+02  0.12269425266E+03  0.86082452592E+02 0.  0.
         23    2    1    2    0    0  0.20203533034E+02  0.37866594615E+02  0.52248307588E+02  0.11446405169E+03  0.92358387543E+02 0.  0.
         13    1    3    3    0    0 -0.30815704772E+02  0.20355364512E+02 -0.32252164331E+02  0.49032138736E+02  0.00000000000E+00 0. -1.
        -14    1    3    3    0    0 -0.24122674334E+02 -0.67566432550E+02 -0.16702718452E+02  0.73662113928E+02  0.00000000000E+00 0.  1.
        -11    1    4    4    0    0 -0.16985333765E+02  0.45185614217E+02 -0.19681502835E+01  0.48312678572E+02  0.00000000000E+00 0.  1.
         11    1    4    4    0    0  0.37188866799E+02 -0.73190196020E+01  0.54216457871E+02  0.66151373122E+02  0.00000000000E+00 0. -1.
         21    1    1    2  502  501  0.34734846072E+02  0.93444734234E+01 -0.41347051840E+02  0.54803352189E+02  0.00000000000E+00 0.  1.
<scales pt_clust_5="13000.00000" pt_clust_6="13000.00000" pt_clust_7="13000.00000" pt_clust_8="13000.00000" pt_clust_9="35.96983"></scales>
<clustering>
<clus scale="   35.970">  2  9  1 -1</clus>
<clus scale="   86.082">  5  6 -1 -1</clus>
<clus scale="   92.358">  7  8 -1 -1</clus>
<clus scale="   99.526">  2  5  1 -1</clus>
<clus scale="  105.002">  1  5  2 -1</clus>
</clustering>
</event>
<event>
 9    1  0.2802611E-005  0.9773460E+02  0.7546771E-02  0.1291723E+00
         -2   -1    0    0    0  501 -0.00000000000E+00  0.00000000000E+00  0.34528349453E+03  0.34528349453E+03  0.00000000000E+00 0.  1.
          1   -1    0    0  502    0  0.00000000000E+00 -0.00000000000E+00 -0.52463946544E+02  0.52463946544E+02  0.00000000000E+00 0. -1.
         23    2    1    2    0    0 -0.22656048787E+02  0.35512372261E+02  0.20221622104E+03  0.22628197778E+03  0.92399720180E+02 0.  0.
        -24    2    1    2    0    0  0.27790607810E+01 -0.30263508025E+02  0.78431163985E+01  0.86190040815E+02  0.80272072130E+02 0.  0.
         11    1    4    4    0    0 -0.25994541359E+02 -0.34365378754E+02 -0.18566337751E+02  0.46919125470E+02  0.00000000000E+00 0. -1.
        -12    1    4    4    0    0  0.28773602140E+02  0.41018707289E+01  0.26409454149E+02  0.39270915345E+02  0.00000000000E+00 0.  1.
        -11    1    3    3    0    0  0.26026605201E+02  0.32183370686E+02  0.14642338472E+03  0.15216097108E+03  0.00000000000E+00 0.  1.
         11    1    3    3    0    0 -0.48682653988E+02  0.33290015750E+01  0.55792836321E+02  0.74121006709E+02  0.00000000000E+00 0. -1.
         21    1    1    2  502  501  0.19876988006E+02 -0.52488642362E+01  0.82760210553E+02  0.85275422477E+02  0.00000000000E+00 0.  1.
<scales pt_clust_5="13000.00000" pt_clust_6="13000.00000" pt_clust_7="13000.00000" pt_clust_8="13000.00000" pt_clust_9="20.55834"></scales>
<clustering>
<clus scale="   20.558">  1  9  2 -1</clus>
<clus scale="   80.272">  5  6 -1 -1</clus>
<clus scale="   86.359">  2  5  1 -1</clus>
<clus scale="   92.400">  7  8 -1 -1</clus>
<clus scale="   86.359">  2  5  1 -1</clus>
</clustering>
</event>
<event>
 9    1  0.2802611E-005  0.4278026E+03  0.7546771E-02  0.1034796E+00
         -2   -1    0    0    0  501 -0.00000000000E+00  0.00000000000E+00  0.57879396188E+03  0.57879396188E+03  0.00000000000E+00 0.  1.
          1   -1    0    0  502    0  0.00000000000E+00 -0.00000000000E+00 -0.14102117096E+04  0.14102117096E+04  0.00000000000E+00 0. -1.
         23    2    1    2    0    0 -0.22194868275E+03 -0.34879806154E+03  0.44086308931E+03  0.61189518353E+03  0.95572729381E+02 0.  0.
        -24    2    1    2    0    0  0.25179946589E+03  0.39295711565E+03 -0.11459311961E+04  0.12399779860E+04  0.81048343135E+02 0.  0.
         11    1    4    4    0    0  0.17422330469E+03  0.21761612272E+03 -0.74817200820E+03  0.79841836816E+03  0.00000000000E+00 0. -1.
        -12    1    4    4    0    0  0.77576161204E+02  0.17534099293E+03 -0.39775918787E+03  0.44155961786E+03  0.00000000000E+00 0.  1.
        -11    1    3    3    0    0 -0.15394161437E+03 -0.17663234598E+03  0.19955874711E+03  0.30776728193E+03  0.00000000000E+00 0. -1.
         11    1    3    3    0    0 -0.68007068383E+02 -0.17216571557E+03  0.24130434220E+03  0.30412790160E+03  0.00000000000E+00 0.  1.
         21    1    1    2  502  501 -0.29850783145E+02 -0.44159054106E+02 -0.12634964097E+03  0.13713250194E+03  0.00000000000E+00 0.  1.
<scales pt_clust_5="13000.00000" pt_clust_6="13000.00000" pt_clust_7="13000.00000" pt_clust_8="13000.00000" pt_clust_9="53.30189"></scales>
<clustering>
<clus scale="   53.302">  2  9  1 -1</clus>
<clus scale="   81.048">  5  6 -1 -1</clus>
<clus scale="   95.573">  7  8 -1 -1</clus>
<clus scale="  424.794">  2  5  1 -1</clus>
<clus scale="   53.302">  2  5  1 -1</clus>
</clustering>
</event>
<event>
 9    1  0.2802611E-005  0.1035102E+03  0.7546771E-02  0.1278078E+00
          1   -1    0    0  502    0  0.00000000000E+00  0.00000000000E+00  0.60867818065E+02  0.60867818065E+02  0.00000000000E+00 0. -1.
         -2   -1    0    0    0  501 -0.00000000000E+00 -0.00000000000E+00 -0.53102674225E+03  0.53102674225E+03  0.00000000000E+00 0.  1.
         23    2    1    2    0    0 -0.11615536549E+01 -0.12829209800E+02 -0.27520996605E+03  0.29018073330E+03  0.91095525314E+02 0.  0.
        -24    2    1    2    0    0  0.16135081604E+02  0.52723332310E+02  0.48295569138E+01  0.97441453397E+02  0.80196144495E+02 0.  0.
         11    1    4    4    0    0 -0.92670456906E+01  0.67346401215E+02  0.44886819247E+01  0.68129025810E+02  0.00000000000E+00 0. -1.
        -12    1    4    4    0    0  0.25402127295E+02 -0.14623068905E+02  0.34087498917E+00  0.29312427587E+02  0.00000000000E+00 0.  1.
        -11    1    3    3    0    0  0.32155896416E+02  0.24389644215E+02 -0.95990087994E+02  0.10412950308E+03  0.00000000000E+00 0.  1.
         11    1    3    3    0    0 -0.33317450071E+02 -0.37218854015E+02 -0.17921987806E+03  0.18605123021E+03  0.00000000000E+00 0. -1.
         21    1    1    2  502  501 -0.14973527949E+02 -0.39894122510E+02 -0.19977851505E+03  0.20427237362E+03  0.00000000000E+00 0. -1.
<scales pt_clust_5="13000.00000" pt_clust_6="13000.00000" pt_clust_7="13000.00000" pt_clust_8="13000.00000" pt_clust_9="42.61159"></scales>
<clustering>
<clus scale="   42.612">  2  9  1 -1</clus>
<clus scale="   80.196">  5  6 -1 -1</clus>
<clus scale="   91.096">  7  8 -1 -1</clus>
<clus scale="   94.061">  1  5  2 -1</clus>
<clus scale="   94.061">  1  5  2 -1</clus>
</clustering>
</event>
<event>
 9    1  0.2802611E-005  0.1796517E+03  0.7546771E-02  0.1169156E+00
         -2   -1    0    0    0  501 -0.00000000000E+00  0.00000000000E+00  0.90362597481E+02  0.90362597481E+02  0.00000000000E+00 0.  1.
          1   -1    0    0  502    0  0.00000000000E+00 -0.00000000000E+00 -0.79526139709E+03  0.79526139709E+03  0.00000000000E+00 0. -1.
        -24    2    1    2    0    0 -0.74412919472E+02 -0.14057179783E+03 -0.39938544622E+02  0.18360335145E+03  0.82567489896E+02 0.  0.
         23    2    1    2    0    0  0.97403140499E+02  0.12006376361E+03 -0.63170551247E+03  0.65668845113E+03  0.91023009466E+02 0.  0.
         13    1    3    3    0    0  0.32291291523E+00 -0.76414082006E+02 -0.37393613205E+02  0.85073488879E+02  0.00000000000E+00 0. -1.
        -14    1    3    3    0    0 -0.74735832388E+02 -0.64157715827E+02 -0.25449314167E+01  0.98529862573E+02  0.00000000000E+00 0.  1.
        -11    1    4    4    0    0  0.10467206669E+03  0.90652727539E+02 -0.58387698233E+03  0.60007206988E+03  0.00000000000E+00 0. -1.
         11    1    4    4    0    0 -0.72689261894E+01  0.29411036070E+02 -0.47828530147E+02  0.56616381257E+02  0.00000000000E+00 0.  1.
         21    1    1    2  502  501 -0.22990221027E+02  0.20508034224E+02 -0.33254742518E+02  0.45332191989E+02  0.00000000000E+00 0.  1.
<scales pt_clust_5="13000.00000" pt_clust_6="13000.00000" pt_clust_7="13000.00000" pt_clust_8="13000.00000" pt_clust_9="30.80795"></scales>
<clustering>
<clus scale="   30.808">  1  9  2 -1</clus>
<clus scale="   82.567">  5  6 -1 -1</clus>
<clus scale="   91.023">  7  8 -1 -1</clus>
<clus scale="  175.519">  1  5  2 -1</clus>
<clus scale="  179.652">  2  5  1 -1</clus>
</clustering>
</event>
<event>
 9    1  0.2802611E-005  0.1090259E+03  0.7546771E-02  0.1272238E+00
         -2   -1    0    0    0  501 -0.00000000000E+00  0.00000000000E+00  0.92638624170E+03  0.92638624170E+03  0.00000000000E+00 0.  1.
          1   -1    0    0  502    0  0.00000000000E+00 -0.00000000000E+00 -0.98579253285E+02  0.98579253285E+02  0.00000000000E+00 0. -1.
        -24    2    1    2    0    0 -0.45336578718E+02  0.18061590893E+02  0.36765094765E+03  0.37972988057E+03  0.81522613143E+02 0.  0.
         23    2    1    2    0    0 -0.18688471178E+02 -0.37386249643E+02 -0.56714856058E+02  0.12405601636E+03  0.10210940054E+03 0.  0.
         11    1    3    3    0    0 -0.60552003509E+02 -0.11069540723E+02  0.21880245320E+03  0.22729626787E+03  0.00000000000E+00 0. -1.
        -12    1    3    3    0    0  0.15215424791E+02  0.29131131616E+02  0.14884849445E+03  0.15243361270E+03  0.00000000000E+00 0.  1.
        -13    1    4    4    0    0  0.21631518690E+02  0.12538843771E+02  0.13925025882E+02  0.28619076676E+02  0.00000000000E+00 0.  1.
         13    1    4    4    0    0 -0.40319989868E+02 -0.49925093414E+02 -0.70639881940E+02  0.95436939682E+02  0.00000000000E+00 0. -1.
         21    1    1    2  502  501  0.64025049896E+02  0.19324658750E+02  0.51687089682E+03  0.52117959805E+03  0.00000000000E+00 0.  1.
<scales pt_clust_5="13000.00000" pt_clust_6="13000.00000" pt_clust_7="13000.00000" pt_clust_8="13000.00000" pt_clust_9="66.87787"></scales>
<clustering>
<clus scale="   66.878">  1  9  2 -1</clus>
<clus scale="   81.523">  5  6 -1 -1</clus>
<clus scale="   90.035">  1  5  2 -1</clus>
<clus scale="  102.109">  7  8 -1 -1</clus>
<clus scale="  109.026">  2  5  1 -1</clus>
</clustering>
</event>
<event>
 9    1  0.2802611E-005  0.1130679E+03  0.7546771E-02  0.1259245E+00
         -2   -1    0    0    0  501 -0.00000000000E+00  0.00000000000E+00  0.31553969668E+03  0.31553969668E+03  0.00000000000E+00 0.  1.
          1   -1    0    0  502    0  0.00000000000E+00 -0.00000000000E+00 -0.78572201175E+02  0.78572201175E+02  0.00000000000E+00 0. -1.
        -24    2    1    2    0    0  0.23430804907E+02  0.36108064686E+02  0.98956665540E+02  0.13516687336E+03  0.81393286240E+02 0.  0.
         23    2    1    2    0    0 -0.46594795476E+02 -0.60185700090E+02  0.31645648338E+01  0.12002123890E+03  0.92745295593E+02 0.  0.
         13    1    3    3    0    0 -0.24925326652E+02  0.29866425627E+02  0.23875367341E+02  0.45643273920E+02  0.00000000000E+00 0. -1.
        -14    1    3    3    0    0  0.48356131558E+02  0.62416390588E+01  0.75081298198E+02  0.89523599439E+02  0.00000000000E+00 0.  1.
        -11    1    4    4    0    0 -0.33154361445E+02 -0.85166652644E+02  0.55028479326E+01  0.91557914682E+02  0.00000000000E+00 0.  1.
         11    1    4    4    0    0 -0.13440434031E+02  0.24980952554E+02 -0.23382830989E+01  0.28463324214E+02  0.00000000000E+00 0. -1.
         21    1    1    2  502  501  0.23163990570E+02  0.24077635405E+02  0.13484626513E+03  0.13892378560E+03  0.00000000000E+00 0.  1.
<scales pt_clust_5="13000.00000" pt_clust_6="13000.00000" pt_clust_7="13000.00000" pt_clust_8="13000.00000" pt_clust_9="33.41112"></scales>
<clustering>
<clus scale="   33.411">  1  9  2 -1</clus>
<clus scale="   81.393">  5  6 -1 -1</clus>
<clus scale="   92.745">  7  8 -1 -1</clus>
<clus scale="  103.959">  1  5  2 -1</clus>
<clus scale="  113.068">  2  5  1 -1</clus>
</clustering>
</event>
<event>
 9    1  0.2802611E-005  0.9569466E+02  0.7546771E-02  0.1293865E+00
          3   -1    0    0  502    0  0.00000000000E+00  0.00000000000E+00  0.14247690564E+03  0.14247690564E+03  0.00000000000E+00 0. -1.
         -4   -1    0    0    0  501 -0.00000000000E+00 -0.00000000000E+00 -0.19657375263E+03  0.19657375263E+03  0.00000000000E+00 0.  1.
         23    2    1    2    0    0  0.80960626402E+00 -0.65867291109E+02 -0.82686826807E+02  0.13883776931E+03  0.89998107537E+02 0.  0.
        -24    2    1    2    0    0 -0.37311992267E+02 -0.21531502292E+01  0.68474286565E+02  0.11332236848E+03  0.82197387153E+02 0.  0.
         11    1    4    4    0    0 -0.49288142470E+02  0.24936538531E+02  0.24793280667E+02  0.60546335218E+02  0.00000000000E+00 0. -1.
        -12    1    4    4    0    0  0.11976150203E+02 -0.27089688760E+02  0.43681005898E+02  0.52776033264E+02  0.00000000000E+00 0.  1.
        -11    1    3    3    0    0 -0.33445925280E+02 -0.21588917259E+02 -0.10153521896E+01  0.39821378760E+02  0.00000000000E+00 0. -1.
         11    1    3    3    0    0  0.34255531544E+02 -0.44278373849E+02 -0.81671474617E+02  0.99016390553E+02  0.00000000000E+00 0.  1.
         21    1    1    2  502  501  0.36502386003E+02  0.68020441338E+02 -0.39884306755E+02  0.86890520478E+02  0.00000000000E+00 0. -1.
<scales pt_clust_5="13000.00000" pt_clust_6="13000.00000" pt_clust_7="13000.00000" pt_clust_8="13000.00000" pt_clust_9="77.19588"></scales>
<clustering>
<clus scale="   77.196">  2  9  1 -1</clus>
<clus scale="   82.197">  5  6 -1 -1</clus>
<clus scale="   88.398">  1  5  2 -1</clus>
<clus scale="   89.998">  7  8 -1 -1</clus>
<clus scale="   88.398">  1  5  2 -1</clus>
</clustering>
</event>
<event>
 9    1  0.2802611E-005  0.1373783E+03  0.7546771E-02  0.1229040E+00
         -2   -1    0    0    0  501 -0.00000000000E+00  0.00000000000E+00  0.18616090121E+03  0.18616090121E+03  0.00000000000E+00 0.  1.
          1   -1    0    0  502    0  0.00000000000E+00 -0.00000000000E+00 -0.27755980623E+03  0.27755980623E+03  0.00000000000E+00 0. -1.
        -24    2    1    2    0    0  0.26996585446E+02 -0.63299470153E+02  0.93324995603E+02  0.14168140766E+03  0.81415157838E+02 0.  0.
         23    2    1    2    0    0 -0.83443368636E+02 -0.48347431995E+02 -0.13043740375E+03  0.18566373805E+03  0.90315211244E+02 0.  0.
         11    1    3    3    0    0  0.42448224558E+02 -0.95531142780E+01  0.66960365217E+02  0.79854895095E+02  0.00000000000E+00 0. -1.
        -12    1    3    3    0    0 -0.15451639111E+02 -0.53746355875E+02  0.26364630385E+02  0.61826512569E+02  0.00000000000E+00 0.  1.
        -13    1    4    4    0    0 -0.41952443024E+02  0.19949310496E+02 -0.75648747416E+02  0.88773393821E+02  0.00000000000E+00 0. -1.
         13    1    4    4    0    0 -0.41490925612E+02 -0.68296742491E+02 -0.54788656331E+02  0.96890344233E+02  0.00000000000E+00 0.  1.
         21    1    1    2  502  501  0.56446783190E+02  0.11164690215E+03 -0.54286496869E+02  0.13637556172E+03  0.00000000000E+00 0. -1.
<scales pt_clust_5="13000.00000" pt_clust_6="13000.00000" pt_clust_7="13000.00000" pt_clust_8="13000.00000" pt_clust_9="103.51788"></scales>
<clustering>
<clus scale="   81.415">  5  6 -1 -1</clus>
<clus scale="   90.315">  7  8 -1 -1</clus>
<clus scale="  106.602">  1  5  2 -1</clus>
<clus scale="  103.518">  1  9  2 -1</clus>
<clus scale="  137.378">  2  5  1 -1</clus>
</clustering>
</event>
<event>
 9    1  0.2802611E-005  0.1421735E+03  0.7546771E-02  0.1212681E+00
          3   -1    0    0  502    0  0.00000000000E+00  0.00000000000E+00  0.65784900228E+03  0.65784900228E+03  0.00000000000E+00 0. -1.
         -4   -1    0    0    0  501 -0.00000000000E+00 -0.00000000000E+00 -0.18911156612E+03  0.18911156612E+03  0.00000000000E+00 0.  1.
         23    2    1    2    0    0  0.69106817367E+02  0.65781318535E+02 -0.97971034845E+02  0.16434586720E+03  0.91149911250E+02 0.  0.
        -24    2    1    2    0    0 -0.59596878620E+02 -0.92500888629E+02  0.61319720494E+03  0.62815759199E+03  0.80392449192E+02 0.  0.
         13    1    4    4    0    0 -0.39320695375E+02 -0.94782317649E+02  0.58133458175E+03  0.59032169261E+03  0.00000000000E+00 0. -1.
        -14    1    4    4    0    0 -0.20276183245E+02  0.22814290196E+01  0.31862623185E+02  0.37835899376E+02  0.00000000000E+00 0.  1.
        -13    1    3    3    0    0  0.63813811031E+01  0.56884065457E+02 -0.13595244652E+02  0.58833235546E+02  0.00000000000E+00 0. -1.
         13    1    3    3    0    0  0.62725436264E+02  0.88972530780E+01 -0.84375790193E+02  0.10551263165E+03  0.00000000000E+00 0.  1.
         21    1    1    2  502  501 -0.95099387468E+01  0.26719570094E+02 -0.46488733937E+02  0.54457109215E+02  0.00000000000E+00 0.  1.
<scales pt_clust_5="13000.00000" pt_clust_6="13000.00000" pt_clust_7="13000.00000" pt_clust_8="13000.00000" pt_clust_9="28.36149"></scales>
<clustering>
<clus scale="   28.361">  2  9  1 -1</clus>
<clus scale="   80.392">  5  6 -1 -1</clus>
<clus scale="   91.150">  7  8 -1 -1</clus>
<clus scale="  135.528">  1  5  2 -1</clus>
<clus scale="  135.528">  1  5  2 -1</clus>
</clustering>
</event>
<event>
 9    1  0.2802611E-005  0.1136338E+03  0.7546771E-02  0.1259253E+00
          1   -1    0    0  502    0  0.00000000000E+00  0.00000000000E+00  0.18617989741E+03  0.18617989741E+03  0.00000000000E+00 0. -1.
         -2   -1    0    0    0  501 -0.00000000000E+00 -0.00000000000E+00 -0.89145070531E+02  0.89145070531E+02  0.00000000000E+00 0.  1.
        -24    2    1    2    0    0  0.22780627206E+02 -0.51774904513E+02  0.20486375469E+02  0.10060595601E+03  0.80636648565E+02 0.  0.
         23    2    1    2    0    0 -0.92866418202E+01  0.68103108146E+02  0.91816241482E+02  0.14860764872E+03  0.94497280396E+02 0.  0.
         11    1    3    3    0    0  0.87434520477E+01 -0.28495535990E+02  0.51414202167E+02  0.59429485186E+02  0.00000000000E+00 0. -1.
        -12    1    3    3    0    0  0.14037175158E+02 -0.23279368524E+02 -0.30927826699E+02  0.41176470825E+02  0.00000000000E+00 0.  1.
        -13    1    4    4    0    0 -0.38006379856E+02  0.54673298814E+02  0.19085479781E+02  0.69266947756E+02  0.00000000000E+00 0.  1.
         13    1    4    4    0    0  0.28719738036E+02  0.13429809332E+02  0.72730761701E+02  0.79340700962E+02  0.00000000000E+00 0. -1.
         21    1    1    2  502  501 -0.13493985386E+02 -0.16328203633E+02 -0.15267790067E+02  0.26111363216E+02  0.00000000000E+00 0.  1.
<scales pt_clust_5="13000.00000" pt_clust_6="13000.00000" pt_clust_7="13000.00000" pt_clust_8="13000.00000" pt_clust_9="21.18249"></scales>
<clustering>
<clus scale="   21.182">  2  9  1 -1</clus>
<clus scale="   80.637">  5  6 -1 -1</clus>
<clus scale="   94.497">  7  8 -1 -1</clus>
<clus scale="  102.397">  2  5  1 -1</clus>
<clus scale="  113.634">  1  5  2 -1</clus>
</clustering>
</event>
<event>
 9    1  0.2802611E-005  0.2193220E+03  0.7546771E-02  0.1165220E+00
          1   -1    0    0  502    0  0.00000000000E+00  0.00000000000E+00  0.11127245458E+04  0.11127245458E+04  0.00000000000E+00 0. -1.
         -2   -1    0    0    0  501 -0.00000000000E+00 -0.00000000000E+00 -0.17895653105E+03  0.17895653105E+03  0.00000000000E+00 0.  1.
        -24    2    1    2    0    0  0.18178838262E+03 -0.10567992713E+03 -0.84810749396E+02  0.24101154758E+03  0.81721721709E+02 0.  0.
         23    2    1    2    0    0 -0.41020138453E+02  0.63941212058E+02  0.32519982955E+03  0.34191557630E+03  0.73349859031E+02 0.  0.
         13    1    3    3    0    0  0.92973916380E+02 -0.95530533336E+02 -0.69441221218E+02  0.15030740212E+03  0.00000000000E+00 0. -1.
        -14    1    3    3    0    0  0.88814466237E+02 -0.10149393796E+02 -0.15369528178E+02  0.90704145461E+02  0.00000000000E+00 0.  1.
        -13    1    4    4    0    0 -0.16212545542E+02  0.67733208462E+02  0.29260205238E+03  0.30077665338E+03  0.00000000000E+00 0.  1.
         13    1    4    4    0    0 -0.24807592911E+02 -0.37919964047E+01  0.32597777175E+02  0.41138922926E+02  0.00000000000E+00 0. -1.
         21    1    1    2  502  501 -0.14076824416E+03  0.41738715075E+02  0.69337893460E+03  0.70875395297E+03  0.00000000000E+00 0. -1.
<scales pt_clust_5="13000.00000" pt_clust_6="13000.00000" pt_clust_7="13000.00000" pt_clust_8="13000.00000" pt_clust_9="203.52810"></scales>
<clustering>
<clus scale="   73.350">  7  8 -1 -1</clus>
<clus scale="   81.722">  5  6 -1 -1</clus>
<clus scale="  105.600">  1  7  2 -1</clus>
<clus scale="  203.528">  1  9  2 -1</clus>
<clus scale="  105.600">  1  5  2 -1</clus>
</clustering>
</event>
<event>
 9    1  0.2802611E-005  0.1705745E+03  0.7546771E-02  0.1179160E+00
         -2   -1    0    0    0  501 -0.00000000000E+00  0.00000000000E+00  0.15977808957E+03  0.15977808957E+03  0.00000000000E+00 0.  1.
          1   -1    0    0  502    0  0.00000000000E+00 -0.00000000000E+00 -0.35557918237E+03  0.35557918237E+03  0.00000000000E+00 0. -1.
         23    2    1    2    0    0 -0.50839412100E+02  0.14979290467E+03  0.31452128005E+02  0.18562070585E+03  0.91887158897E+02 0.  0.
        -24    2    1    2    0    0  0.29022836854E+02 -0.13772333215E+03 -0.24916772931E+03  0.29654193973E+03  0.77733669717E+02 0.  0.
         13    1    4    4    0    0  0.18454429143E+02 -0.70806415424E+02 -0.19962556098E+03  0.21261344975E+03  0.00000000000E+00 0. -1.
        -14    1    4    4    0    0  0.10568407712E+02 -0.66916916730E+02 -0.49542168338E+02  0.83928489978E+02  0.00000000000E+00 0.  1.
        -13    1    3    3    0    0  0.17118152938E+01  0.11262937043E+03 -0.28663201550E+01  0.11267884090E+03  0.00000000000E+00 0.  1.
         13    1    3    3    0    0 -0.52551227394E+02  0.37163534241E+02  0.34318448160E+02  0.72941864947E+02  0.00000000000E+00 0. -1.
         21    1    1    2  502  501  0.21816575245E+02 -0.12069572516E+02  0.21914508509E+02  0.33194626362E+02  0.00000000000E+00 0. -1.
<scales pt_clust_5="13000.00000" pt_clust_6="13000.00000" pt_clust_7="13000.00000" pt_clust_8="13000.00000" pt_clust_9="24.93266"></scales>
<clustering>
<clus scale="   24.933">  1  9  2 -1</clus>
<clus scale="   77.734">  5  6 -1 -1</clus>
<clus scale="   91.887">  7  8 -1 -1</clus>
<clus scale="  163.386">  2  5  1 -1</clus>
<clus scale="  163.386">  2  5  1 -1</clus>
</clustering>
</event>
<event>
 9    1  0.2802611E-005  0.1644950E+03  0.7546771E-02  0.1185178E+00
          1   -1    0    0  502    0  0.00000000000E+00  0.00000000000E+00  0.76754829601E+02  0.76754829601E+02  0.00000000000E+00 0. -1.
         -2   -1    0    0    0  501 -0.00000000000E+00 -0.00000000000E+00 -0.93113369940E+03  0.93113369940E+03  0.00000000000E+00 0.  1.
        -24    2    1    2    0    0 -0.95146189407E+02 -0.14940497614E+03 -0.64750147983E+03  0.67618920317E+03  0.81234400639E+02 0.  0.
         23    2    1    2    0    0  0.83464952588E+02  0.10035917070E+03 -0.49937390172E+02  0.16685968903E+03  0.91159483495E+02 0.  0.
         11    1    3    3    0    0 -0.44343420861E+02 -0.70700147434E+02 -0.16758211265E+03  0.18721275144E+03  0.00000000000E+00 0. -1.
        -12    1    3    3    0    0 -0.50802768546E+02 -0.78704828707E+02 -0.47991936718E+03  0.48897645173E+03  0.00000000000E+00 0.  1.
        -13    1    4    4    0    0  0.47210609952E+02  0.53118476436E+02 -0.74031625920E+02  0.10262112778E+03  0.00000000000E+00 0.  1.
         13    1    4    4    0    0  0.36254342636E+02  0.47240694266E+02  0.24094235748E+02  0.64238561247E+02  0.00000000000E+00 0. -1.
         21    1    1    2  502  501  0.11681236819E+02  0.49045805438E+02 -0.15693999979E+03  0.16483963679E+03  0.00000000000E+00 0. -1.
<scales pt_clust_5="13000.00000" pt_clust_6="13000.00000" pt_clust_7="13000.00000" pt_clust_8="13000.00000" pt_clust_9="50.41768"></scales>
<clustering>
<clus scale="   50.418">  2  9  1 -1</clus>
<clus scale="   81.234">  5  6 -1 -1</clus>
<clus scale="   91.159">  7  8 -1 -1</clus>
<clus scale="  159.209">  2  5  1 -1</clus>
<clus scale="  164.495">  1  5  2 -1</clus>
</clustering>
</event>
<event>
 9    1  0.2802611E-005  0.3446342E+03  0.7546771E-02  0.1082039E+00
         -2   -1    0    0    0  501 -0.00000000000E+00  0.00000000000E+00  0.37907557443E+03  0.37907557443E+03  0.00000000000E+00 0.  1.
          1   -1    0    0  502    0  0.00000000000E+00 -0.00000000000E+00 -0.66149052950E+03  0.66149052950E+03  0.00000000000E+00 0. -1.
        -24    2    1    2    0    0 -0.66405283152E+02  0.41644790480E+03 -0.16795593739E+03  0.46119098494E+03  0.81543906208E+02 0.  0.
         23    2    1    2    0    0  0.14902289689E+03 -0.11935695941E+03 -0.15891589092E+03  0.26782237304E+03  0.10010322450E+03 0.  0.
         11    1    3    3    0    0 -0.85351292877E+02  0.34964596963E+03 -0.14554383743E+03  0.38822693864E+03  0.00000000000E+00 0. -1.
        -12    1    3    3    0    0  0.18946009725E+02  0.66801935171E+02 -0.22412099960E+02  0.72964046294E+02  0.00000000000E+00 0.  1.
        -13    1    4    4    0    0  0.12923436919E+03 -0.11388999671E+03 -0.17204107633E+03  0.24345551026E+03  0.00000000000E+00 0.  1.
         13    1    4    4    0    0  0.19788527700E+02 -0.54669627025E+01  0.13125185410E+02  0.24366862781E+02  0.00000000000E+00 0. -1.
         21    1    1    2  502  501 -0.82617613738E+02 -0.29709094539E+03  0.44456873239E+02  0.31155274595E+03  0.00000000000E+00 0.  1.
<scales pt_clust_5="13000.00000" pt_clust_6="13000.00000" pt_clust_7="13000.00000" pt_clust_8="13000.00000" pt_clust_9="334.84819"></scales>
<clustering>
<clus scale="   81.544">  5  6 -1 -1</clus>
<clus scale="  100.103">  7  8 -1 -1</clus>
<clus scale="  215.580">  2  7  1 -1</clus>
<clus scale="  334.848">  1  9  2 -1</clus>
<clus scale="  215.580">  2  5  1 -1</clus>
</clustering>
</event>
<event>
 9    1  0.2802611E-005  0.9893762E+02  0.7546771E-02  0.1292277E+00
         -2   -1    0    0    0  501 -0.00000000000E+00  0.00000000000E+00  0.10644750067E+03  0.10644750067E+03  0.00000000000E+00 0.  1.
          1   -1    0    0  502    0  0.00000000000E+00 -0.00000000000E+00 -0.19378061954E+03  0.19378061954E+03  0.00000000000E+00 0. -1.
         23    2    1    2    0    0 -0.13623764292E+02 -0.48659773566E+01  0.47896284896E+02  0.10598499394E+03  0.93431687048E+02 0.  0.
        -24    2    1    2    0    0  0.30525379796E+02  0.17431756155E+02 -0.14778680130E+03  0.16972269324E+03  0.75691406561E+02 0.  0.
         11    1    4    4    0    0  0.20269020982E+01  0.39162069249E+02 -0.39501525513E+02  0.55660996378E+02  0.00000000000E+00 0. -1.
        -12    1    4    4    0    0  0.28498477698E+02 -0.21730313094E+02 -0.10828527579E+03  0.11406169686E+03  0.00000000000E+00 0.  1.
        -13    1    3    3    0    0  0.38655705725E+02 -0.13921345444E+02  0.25764987246E+02  0.48496412360E+02  0.00000000000E+00 0.  1.
         13    1    3    3    0    0 -0.52279470016E+02  0.90553680877E+01  0.22131297651E+02  0.57488581580E+02  0.00000000000E+00 0. -1.
         21    1    1    2  502  501 -0.16901615504E+02 -0.12565778799E+02  0.12557397533E+02  0.24520433036E+02  0.00000000000E+00 0. -1.
<scales pt_clust_5="13000.00000" pt_clust_6="13000.00000" pt_clust_7="13000.00000" pt_clust_8="13000.00000" pt_clust_9="21.06094"></scales>
<clustering>
<clus scale="   21.061">  1  9  2 -1</clus>
<clus scale="   75.691">  5  6 -1 -1</clus>
<clus scale="   82.392">  2  5  1 -1</clus>
<clus scale="   93.432">  7  8 -1 -1</clus>
<clus scale="   82.392">  2  5  1 -1</clus>
</clustering>
</event>
<event>
 9    1  0.2802611E-005  0.9016739E+02  0.7546771E-02  0.1309156E+00
          1   -1    0    0  502    0  0.00000000000E+00  0.00000000000E+00  0.42027011081E+03  0.42027011081E+03  0.00000000000E+00 0. -1.
         -2   -1    0    0    0  501 -0.00000000000E+00 -0.00000000000E+00 -0.54407620889E+02  0.54407620889E+02  0.00000000000E+00 0.  1.
        -24    2    1    2    0    0 -0.10465285935E+02 -0.15461186087E+02  0.94823133401E+01  0.80879688861E+02  0.78121951583E+02 0.  0.
         23    2    1    2    0    0 -0.20509592581E+02 -0.19005800998E+01  0.34452943349E+03  0.35636391221E+03  0.88715566792E+02 0.  0.
         11    1    3    3    0    0 -0.29582987993E+02 -0.83593664758E+01  0.36056023916E+02  0.47382159586E+02  0.00000000000E+00 0. -1.
        -12    1    3    3    0    0  0.19117702058E+02 -0.71018196117E+01 -0.26573710575E+02  0.33497529275E+02  0.00000000000E+00 0.  1.
        -11    1    4    4    0    0  0.26566354433E+02 -0.25808015341E+02  0.11401804097E+03  0.11988302011E+03  0.00000000000E+00 0. -1.
         11    1    4    4    0    0 -0.47075947014E+02  0.23907435241E+02  0.23051139252E+03  0.23648089210E+03  0.00000000000E+00 0.  1.
         21    1    1    2  502  501  0.30974878516E+02  0.17361766187E+02  0.11850743094E+02  0.37434130631E+02  0.00000000000E+00 0.  1.
<scales pt_clust_5="13000.00000" pt_clust_6="13000.00000" pt_clust_7="13000.00000" pt_clust_8="13000.00000" pt_clust_9="35.50879"></scales>
<clustering>
<clus scale="   35.509">  2  9  1 -1</clus>
<clus scale="   78.122">  5  6 -1 -1</clus>
<clus scale="   79.767">  2  5  1 -1</clus>
<clus scale="   88.716">  7  8 -1 -1</clus>
<clus scale="   90.167">  1  5  2 -1</clus>
</clustering>
</event>
<event>
 9    1  0.2802611E-005  0.1666602E+03  0.7546771E-02  0.1182744E+00
         -2   -1    0    0    0  501 -0.00000000000E+00  0.00000000000E+00  0.62972024453E+02  0.62972024453E+02  0.00000000000E+00 0.  1.
          1   -1    0    0  502    0  0.00000000000E+00 -0.00000000000E+00 -0.67840308881E+03  0.67840308881E+03  0.00000000000E+00 0. -1.
        -24    2    1    2    0    0 -0.75866889044E-01  0.16633547704E+03 -0.16477667924E+03  0.24762016969E+03  0.80603335773E+02 0.  0.
         23    2    1    2    0    0  0.71909272570E+01 -0.13048378127E+03 -0.40655138608E+03  0.43647455690E+03  0.90267838615E+02 0.  0.
         13    1    3    3    0    0 -0.43864234495E+01  0.31295980944E+02 -0.85076027076E+02  0.90755768505E+02  0.00000000000E+00 0. -1.
        -14    1    3    3    0    0  0.43105565605E+01  0.13503949609E+03 -0.79700652165E+02  0.15686440118E+03  0.00000000000E+00 0.  1.
        -11    1    4    4    0    0  0.10637413093E+02 -0.84001417585E+02 -0.36279251596E+03  0.37254234974E+03  0.00000000000E+00 0. -1.
         11    1    4    4    0    0 -0.34464858357E+01 -0.46482363684E+02 -0.43758870125E+02  0.63932207164E+02  0.00000000000E+00 0.  1.
         21    1    1    2  502  501 -0.71150603680E+01 -0.35851695768E+02 -0.44102999033E+02  0.57280386671E+02  0.00000000000E+00 0. -1.
<scales pt_clust_5="13000.00000" pt_clust_6="13000.00000" pt_clust_7="13000.00000" pt_clust_8="13000.00000" pt_clust_9="36.55090"></scales>
<clustering>
<clus scale="   36.551">  1  9  2 -1</clus>
<clus scale="   80.603">  5  6 -1 -1</clus>
<clus scale="   90.268">  7  8 -1 -1</clus>
<clus scale="  161.630">  1  5  2 -1</clus>
<clus scale="  166.660">  2  5  1 -1</clus>
</clustering>
</event>
<event>
 9    1  0.2802611E-005  0.9864887E+02  0.7546771E-02  0.1289485E+00
         -2   -1    0    0    0  501 -0.00000000000E+00  0.00000000000E+00  0.53232107124E+02  0.53232107124E+02  0.00000000000E+00 0.  1.
          1   -1    0    0  502    0  0.00000000000E+00 -0.00000000000E+00 -0.29010440094E+03  0.29010440094E+03  0.00000000000E+00 0. -1.
        -24    2    1    2    0    0  0.51444154381E+02 -0.11996598926E+02 -0.63728890129E+02  0.11407250258E+03  0.78490413448E+02 0.  0.
         23    2    1    2    0    0 -0.32715247923E+02 -0.33199297364E+01 -0.17991278811E+03  0.20414045970E+03  0.90683000495E+02 0.  0.
         13    1    3    3    0    0 -0.79665348431E+01  0.21492429932E+02 -0.37009928061E+01  0.23218259399E+02  0.00000000000E+00 0. -1.
        -14    1    3    3    0    0  0.59410689224E+02 -0.33489028857E+02 -0.60027897323E+02  0.90854243186E+02  0.00000000000E+00 0.  1.
        -11    1    4    4    0    0 -0.60475830923E+02 -0.94559261551E+01 -0.82911205237E+02  0.10305827778E+03  0.00000000000E+00 0. -1.
         11    1    4    4    0    0  0.27760583000E+02  0.61359964187E+01 -0.97001582877E+02  0.10108218192E+03  0.00000000000E+00 0.  1.
         21    1    1    2  502  501 -0.18728906458E+02  0.15316528662E+02  0.67693844222E+01  0.25123545785E+02  0.00000000000E+00 0. -1.
<scales pt_clust_5="13000.00000" pt_clust_6="13000.00000" pt_clust_7="13000.00000" pt_clust_8="13000.00000" pt_clust_9="24.19438"></scales>
<clustering>
<clus scale="   24.194">  1  9  2 -1</clus>
<clus scale="   78.490">  5  6 -1 -1</clus>
<clus scale="   87.572">  1  5  2 -1</clus>
<clus scale="   90.683">  7  8 -1 -1</clus>
<clus scale="   98.649">  2  5  1 -1</clus>
</clustering>
</event>
<event>
 9    1  0.2802611E-005  0.1369929E+03  0.7546771E-02  0.1223256E+00
         -2   -1    0    0    0  501 -0.00000000000E+00  0.00000000000E+00  0.12309690248E+03  0.12309690248E+03  0.00000000000E+00 0.  1.
          1   -1    0    0  502    0  0.00000000000E+00 -0.00000000000E+00 -0.62039937949E+03  0.62039937949E+03  0.00000000000E+00 0. -1.
         23    2    1    2    0    0 -0.53272705051E+02  0.11041946165E+03 -0.13200854118E+03  0.20247821889E+03  0.92416100150E+02 0.  0.
        -24    2    1    2    0    0  0.74592116450E+02 -0.63758819061E+02 -0.43700210432E+03  0.45284893980E+03  0.66874152357E+02 0.  0.
         13    1    4    4    0    0  0.44289339469E+02 -0.72897227770E+02 -0.28066201646E+03  0.29333721021E+03  0.00000000000E+00 0. -1.
        -14    1    4    4    0    0  0.30302776981E+02  0.91384087097E+01 -0.15634008786E+03  0.15951172960E+03  0.00000000000E+00 0.  1.
        -13    1    3    3    0    0 -0.21219170827E+02  0.11954769034E+02  0.10332632739E+02  0.26456247136E+02  0.00000000000E+00 0.  1.
         13    1    3    3    0    0 -0.32053534225E+02  0.98464692617E+02 -0.14234117392E+03  0.17602197176E+03  0.00000000000E+00 0. -1.
         21    1    1    2  502  501 -0.21319411398E+02 -0.46660642591E+02  0.71708168498E+02  0.88169123272E+02  0.00000000000E+00 0.  1.
<scales pt_clust_5="13000.00000" pt_clust_6="13000.00000" pt_clust_7="13000.00000" pt_clust_8="13000.00000" pt_clust_9="51.30042"></scales>
<clustering>
<clus scale="   51.300">  1  9  2 -1</clus>
<clus scale="   66.874">  5  6 -1 -1</clus>
<clus scale="   92.416">  7  8 -1 -1</clus>
<clus scale="  121.237">  2  5  1 -1</clus>
<clus scale="  121.237">  2  5  1 -1</clus>
</clustering>
</event>
<event>
 9    1  0.2802611E-005  0.9889691E+02  0.7546771E-02  0.1289588E+00
          1   -1    0    0  502    0  0.00000000000E+00  0.00000000000E+00  0.99587722314E+02  0.99587722314E+02  0.00000000000E+00 0. -1.
         -2   -1    0    0    0  501 -0.00000000000E+00 -0.00000000000E+00 -0.26355877198E+03  0.26355877198E+03  0.00000000000E+00 0.  1.
        -24    2    1    2    0    0  0.11856654003E+02 -0.39562850800E+02 -0.12852381296E+03  0.15622852405E+03  0.78633210673E+02 0.  0.
         23    2    1    2    0    0 -0.42325134477E+02 -0.16642671545E+02  0.38201113416E+02  0.10939121228E+03  0.91862488168E+02 0.  0.
         11    1    3    3    0    0  0.23889175852E+02  0.17701657650E+02 -0.35197872264E+02  0.46075282076E+02  0.00000000000E+00 0. -1.
        -12    1    3    3    0    0 -0.12032521849E+02 -0.57264508450E+02 -0.93325940695E+02  0.11015324197E+03  0.00000000000E+00 0.  1.
        -13    1    4    4    0    0 -0.62160437690E+02  0.91844206237E+01  0.43465191183E+02  0.76403510657E+02  0.00000000000E+00 0. -1.
         13    1    4    4    0    0  0.19835303213E+02 -0.25827092169E+02 -0.52640777670E+01  0.32987701620E+02  0.00000000000E+00 0.  1.
         21    1    1    2  502  501  0.30468480475E+02  0.56205522345E+02 -0.73648350124E+02  0.97526757972E+02  0.00000000000E+00 0. -1.
<scales pt_clust_5="13000.00000" pt_clust_6="13000.00000" pt_clust_7="13000.00000" pt_clust_8="13000.00000" pt_clust_9="63.93269"></scales>
<clustering>
<clus scale="   63.933">  2  9  1 -1</clus>
<clus scale="   78.633">  5  6 -1 -1</clus>
<clus scale="   86.747">  2  5  1 -1</clus>
<clus scale="   91.862">  7  8 -1 -1</clus>
<clus scale="   98.897">  1  5  2 -1</clus>
</clustering>
</event>
<event>
 9    1  0.2802611E-005  0.1937963E+03  0.7546771E-02  0.1156059E+00
          1   -1    0    0  502    0  0.00000000000E+00  0.00000000000E+00  0.13548249744E+03  0.13548249744E+03  0.00000000000E+00 0. -1.
         -2   -1    0    0    0  501 -0.00000000000E+00 -0.00000000000E+00 -0.38305236629E+03  0.38305236629E+03  0.00000000000E+00 0.  1.
        -24    2    1    2    0    0 -0.71563305276E+02  0.16093825215E+03 -0.17337141026E+03  0.25996046160E+03  0.80618658094E+02 0.  0.
         23    2    1    2    0    0  0.89369490623E+02 -0.14421128464E+03 -0.13030522918E+02  0.19270811307E+03  0.90458951168E+02 0.  0.
         13    1    3    3    0    0 -0.35681011533E+02  0.14929442144E+03 -0.12120345194E+03  0.19558178754E+03  0.00000000000E+00 0. -1.
        -14    1    3    3    0    0 -0.35882293744E+02  0.11643830710E+02 -0.52167958320E+02  0.64378674055E+02  0.00000000000E+00 0.  1.
        -11    1    4    4    0    0 -0.10413757738E+02 -0.61788132986E+02 -0.82143311402E+01  0.63195687861E+02  0.00000000000E+00 0.  1.
         11    1    4    4    0    0  0.99783248361E+02 -0.82423151651E+02 -0.48161917781E+01  0.12951242521E+03  0.00000000000E+00 0. -1.
         21    1    1    2  502  501 -0.17806185346E+02 -0.16726967512E+02 -0.61167935680E+02  0.65866289057E+02  0.00000000000E+00 0. -1.
<scales pt_clust_5="13000.00000" pt_clust_6="13000.00000" pt_clust_7="13000.00000" pt_clust_8="13000.00000" pt_clust_9="24.43055"></scales>
<clustering>
<clus scale="   24.431">  2  9  1 -1</clus>
<clus scale="   80.619">  5  6 -1 -1</clus>
<clus scale="   90.459">  7  8 -1 -1</clus>
<clus scale="  189.403">  2  5  1 -1</clus>
<clus scale="  193.796">  1  5  2 -1</clus>
</clustering>
</event>
<event>
 9    1  0.2802611E-005  0.2434654E+03  0.7546771E-02  0.1118108E+00
          1   -1    0    0  502    0  0.00000000000E+00  0.00000000000E+00  0.36046482624E+03  0.36046482624E+03  0.00000000000E+00 0. -1.
         -2   -1    0    0    0  501 -0.00000000000E+00 -0.00000000000E+00 -0.21485649320E+03  0.21485649320E+03  0.00000000000E+00 0.  1.
        -24    2    1    2    0    0  0.72337160817E+01 -0.20537465155E+03 -0.50982106574E+02  0.22799996171E+03  0.84579744630E+02 0.  0.
         23    2    1    2    0    0 -0.27358306878E+01  0.23265574405E+03  0.19778077766E+03  0.31964635302E+03  0.94447736744E+02 0.  0.
         11    1    3    3    0    0 -0.35453847947E+02 -0.11611608971E+03 -0.42759470709E+02  0.12871788516E+03  0.00000000000E+00 0. -1.
        -12    1    3    3    0    0  0.42687564028E+02 -0.89258561837E+02 -0.82226358656E+01  0.99282076552E+02  0.00000000000E+00 0.  1.
        -11    1    4    4    0    0  0.97306290327E+01  0.15488415272E+03  0.18223869356E+03  0.23936317038E+03  0.00000000000E+00 0. -1.
         11    1    4    4    0    0 -0.12466459721E+02  0.77771591331E+02  0.15542084103E+02  0.80283182637E+02  0.00000000000E+00 0.  1.
         21    1    1    2  502  501 -0.44978853939E+01 -0.27281092508E+02 -0.11903380441E+01  0.27675004717E+02  0.00000000000E+00 0. -1.
<scales pt_clust_5="13000.00000" pt_clust_6="13000.00000" pt_clust_7="13000.00000" pt_clust_8="13000.00000" pt_clust_9="27.64939"></scales>
<clustering>
<clus scale="   27.649">  2  9  1 -1</clus>
<clus scale="   84.580">  5  6 -1 -1</clus>
<clus scale="   94.448">  7  8 -1 -1</clus>
<clus scale="  239.810">  2  5  1 -1</clus>
<clus scale="  243.465">  1  5  2 -1</clus>
</clustering>
</event>
<event>
 9    1  0.2802611E-005  0.1392517E+03  0.7546771E-02  0.1217171E+00
         -2   -1    0    0    0  501 -0.00000000000E+00  0.00000000000E+00  0.66647741750E+03  0.66647741750E+03  0.00000000000E+00 0.  1.
          1   -1    0    0  502    0  0.00000000000E+00 -0.00000000000E+00 -0.54957734430E+02  0.54957734430E+02  0.00000000000E+00 0. -1.
         23    2    1    2    0    0  0.30974171086E+02 -0.68503835633E+02  0.21214270554E+03  0.24361891450E+03  0.93238796739E+02 0.  0.
        -24    2    1    2    0    0 -0.10061988030E+03  0.79576985202E+02  0.13092946388E+03  0.20026046459E+03  0.80652788427E+02 0.  0.
         11    1    4    4    0    0 -0.38484463568E+02  0.51182575080E+01  0.19271102457E+01  0.38871123600E+02  0.00000000000E+00 0. -1.
        -12    1    4    4    0    0 -0.62135416728E+02  0.74458727694E+02  0.12900235364E+03  0.16138934099E+03  0.00000000000E+00 0.  1.
        -11    1    3    3    0    0  0.58858906290E+02 -0.64080855325E+02  0.18506835258E+03  0.20450188751E+03  0.00000000000E+00 0.  1.
         11    1    3    3    0    0 -0.27884735204E+02 -0.44229803086E+01  0.27074352958E+02  0.39117026988E+02  0.00000000000E+00 0. -1.
         21    1    1    2  502  501  0.69645709211E+02 -0.11073149569E+02  0.26844751365E+03  0.27755577284E+03  0.00000000000E+00 0.  1.
<scales pt_clust_5="13000.00000" pt_clust_6="13000.00000" pt_clust_7="13000.00000" pt_clust_8="13000.00000" pt_clust_9="70.52049"></scales>
<clustering>
<clus scale="   70.520">  1  9  2 -1</clus>
<clus scale="   80.653">  5  6 -1 -1</clus>
<clus scale="   93.239">  7  8 -1 -1</clus>
<clus scale="  131.158">  2  5  1 -1</clus>
<clus scale="  131.158">  2  5  1 -1</clus>
</clustering>
</event>
<event>
 9    1  0.2802611E-005  0.1421769E+03  0.7546771E-02  0.1217696E+00
         -2   -1    0    0    0  501 -0.00000000000E+00  0.00000000000E+00  0.48109875661E+03  0.48109875661E+03  0.00000000000E+00 0.  1.
          1   -1    0    0  502    0  0.00000000000E+00 -0.00000000000E+00 -0.16244892350E+03  0.16244892350E+03  0.00000000000E+00 0. -1.
         23    2    1    2    0    0 -0.41925681766E+02 -0.10255585192E+03  0.55256515904E+02  0.16464777132E+03  0.10853635565E+03 0.  0.
        -24    2    1    2    0    0  0.11469715648E+01  0.87800288134E+02 -0.73153666871E+02  0.13957041942E+03  0.80113899286E+02 0.  0.
         13    1    4    4    0    0 -0.26550238255E+02  0.86918921339E+02 -0.59942605822E+02  0.10887116253E+03  0.00000000000E+00 0. -1.
        -14    1    4    4    0    0  0.27697209819E+02  0.88136679519E+00 -0.13211061049E+02  0.30699256884E+02  0.00000000000E+00 0.  1.
        -11    1    3    3    0    0  0.23788769233E+02 -0.82266476677E+02  0.38309516539E+02  0.93815232153E+02  0.00000000000E+00 0.  1.
         11    1    3    3    0    0 -0.65714450999E+02 -0.20289375246E+02  0.16946999365E+02  0.70832539171E+02  0.00000000000E+00 0. -1.
         21    1    1    2  502  501  0.40778710201E+02  0.14755563790E+02  0.33654698408E+03  0.33932948938E+03  0.00000000000E+00 0.  1.
<scales pt_clust_5="13000.00000" pt_clust_6="13000.00000" pt_clust_7="13000.00000" pt_clust_8="13000.00000" pt_clust_9="43.36623"></scales>
<clustering>
<clus scale="   43.366">  1  9  2 -1</clus>
<clus scale="   80.114">  5  6 -1 -1</clus>
<clus scale="  108.536">  7  8 -1 -1</clus>
<clus scale="  121.870">  2  5  1 -1</clus>
<clus scale="  121.870">  2  5  1 -1</clus>
</clustering>
</event>
<event>
 9    1  0.2802611E-005  0.1099401E+03  0.7546771E-02  0.1264354E+00
          1   -1    0    0  502    0  0.00000000000E+00  0.00000000000E+00  0.49608390079E+02  0.49608390079E+02  0.00000000000E+00 0. -1.
         -2   -1    0    0    0  501 -0.00000000000E+00 -0.00000000000E+00 -0.57389856525E+03  0.57389856525E+03  0.00000000000E+00 0.  1.
        -24    2    1    2    0    0  0.15653861188E+02 -0.68623464410E+02 -0.19139902477E+03  0.21925121320E+03  0.80518846039E+02 0.  0.
         23    2    1    2    0    0 -0.46871791770E+02  0.43114465856E+02 -0.54567280817E+02  0.12302728593E+03  0.90012793081E+02 0.  0.
         13    1    3    3    0    0 -0.10838330769E+02 -0.33697002150E+02 -0.16704955747E+02  0.39140936553E+02  0.00000000000E+00 0. -1.
        -14    1    3    3    0    0  0.26492191957E+02 -0.34926462260E+02 -0.17469406902E+03  0.18011027664E+03  0.00000000000E+00 0.  1.
        -11    1    4    4    0    0 -0.11910656594E+02  0.59926174204E+02 -0.57791447358E+02  0.84100306081E+02  0.00000000000E+00 0.  1.
         11    1    4    4    0    0 -0.34961135176E+02 -0.16811708348E+02  0.32241665412E+01  0.38926979850E+02  0.00000000000E+00 0. -1.
         21    1    1    2  502  501  0.31217930582E+02  0.25508998554E+02 -0.27832386958E+03  0.28122845620E+03  0.00000000000E+00 0.  1.
<scales pt_clust_5="13000.00000" pt_clust_6="13000.00000" pt_clust_7="13000.00000" pt_clust_8="13000.00000" pt_clust_9="40.31462"></scales>
<clustering>
<clus scale="   40.315">  2  9  1 -1</clus>
<clus scale="   80.519">  5  6 -1 -1</clus>
<clus scale="   90.013">  7  8 -1 -1</clus>
<clus scale="  102.312">  2  5  1 -1</clus>
<clus scale="  109.940">  1  5  2 -1</clus>
</clustering>
</event>
<event>
 9    1  0.4721973E-005  0.9720870E+02  0.7546771E-02  0.1292456E+00
         -2   -1    0    0    0  501 -0.00000000000E+00  0.00000000000E+00  0.22882573533E+03  0.22882573533E+03  0.00000000000E+00 0.  1.
          1   -1    0    0  502    0  0.00000000000E+00 -0.00000000000E+00 -0.38462367111E+03  0.38462367111E+03  0.00000000000E+00 0. -1.
         23    2    1    2    0    0  0.11494238565E+02  0.69013476498E+01  0.17119199606E+03  0.19403852204E+03  0.90357636093E+02 0.  0.
        -24    2    1    2    0    0 -0.35324954645E+02 -0.91437177418E+01 -0.36461663418E+03  0.37481604186E+03  0.78805553887E+02 0.  0.
         11    1    4    4    0    0 -0.32790630583E+02 -0.41262111598E+02 -0.26245213561E+03  0.26769182056E+03  0.00000000000E+00 0. -1.
        -12    1    4    4    0    0 -0.25343240614E+01  0.32118393857E+02 -0.10216449857E+03  0.10712422130E+03  0.00000000000E+00 0.  1.
        -11    1    3    3    0    0  0.66777008851E+01  0.36459713899E+02  0.15621849871E+03  0.16055566563E+03  0.00000000000E+00 0.  1.
         11    1    3    3    0    0  0.48165376803E+01 -0.29558366249E+02  0.14973497355E+02  0.33482856413E+02  0.00000000000E+00 0. -1.
         21    1    1    2  502  501  0.23830716079E+02  0.22423700919E+01  0.37626702336E+02  0.44594842540E+02  0.00000000000E+00 0. -1.
<scales pt_clust_5="13000.00000" pt_clust_6="13000.00000" pt_clust_7="13000.00000" pt_clust_8="13000.00000" pt_clust_9="23.93598"></scales>
<clustering>
<clus scale="   23.936">  1  9  2 -1</clus>
<clus scale="   78.806">  5  6 -1 -1</clus>
<clus scale="   86.576">  2  5  1 -1</clus>
<clus scale="   90.358">  7  8 -1 -1</clus>
<clus scale="   86.576">  2  5  1 -1</clus>
</clustering>
</event>
<event>
 9    1  0.2802611E-005  0.1298509E+03  0.7546771E-02  0.1229464E+00
          1   -1    0    0  502    0  0.00000000000E+00  0.00000000000E+00  0.10989190963E+03  0.10989190963E+03  0.00000000000E+00 0. -1.
         -2   -1    0    0    0  501 -0.00000000000E+00 -0.00000000000E+00 -0.26884284007E+03  0.26884284007E+03  0.00000000000E+00 0.  1.
         23    2    1    2    0    0  0.52529815366E+02 -0.10516236278E+03 -0.47854881844E+02  0.15391186541E+03  0.87064737696E+02 0.  0.
        -24    2    1    2    0    0 -0.34170539817E+01  0.85503568680E+02 -0.18951639793E+02  0.11857259681E+03  0.79860876210E+02 0.  0.
         13    1    4    4    0    0  0.29447439725E+02  0.68211130710E+02  0.48651523939E+01  0.74455219877E+02  0.00000000000E+00 0. -1.
        -14    1    4    4    0    0 -0.32864493707E+02  0.17292437970E+02 -0.23816792187E+02  0.44117376935E+02  0.00000000000E+00 0.  1.
        -13    1    3    3    0    0  0.19421666569E+02 -0.70030772681E+02 -0.69907489664E+02  0.10083931458E+03  0.00000000000E+00 0.  1.
         13    1    3    3    0    0  0.33108148797E+02 -0.35131590098E+02  0.22052607820E+02  0.53072550827E+02  0.00000000000E+00 0. -1.
         21    1    1    2  502  501 -0.49112761385E+02  0.19658794099E+02 -0.92144408805E+02  0.10625028748E+03  0.00000000000E+00 0.  1.
<scales pt_clust_5="13000.00000" pt_clust_6="13000.00000" pt_clust_7="13000.00000" pt_clust_8="13000.00000" pt_clust_9="52.90115"></scales>
<clustering>
<clus scale="   52.901">  2  9  1 -1</clus>
<clus scale="   79.861">  5  6 -1 -1</clus>
<clus scale="   87.065">  7  8 -1 -1</clus>
<clus scale="  125.135">  1  5  2 -1</clus>
<clus scale="  125.135">  1  5  2 -1</clus>
</clustering>
</event>
<event>
 9    1  0.2802611E-005  0.1129338E+03  0.7546771E-02  0.1257602E+00
          1   -1    0    0  502    0  0.00000000000E+00  0.00000000000E+00  0.70739656078E+03  0.70739656078E+03  0.00000000000E+00 0. -1.
         -2   -1    0    0    0  501 -0.00000000000E+00 -0.00000000000E+00 -0.93241133887E+02  0.93241133887E+02  0.00000000000E+00 0.  1.
         23    2    1    2    0    0 -0.11991310296E+02 -0.67528144600E+02 -0.43792295993E+02  0.12017870354E+03  0.88438191753E+02 0.  0.
        -24    2    1    2    0    0 -0.73926692515E+01  0.98367323139E+02  0.58572675749E+03  0.59957227133E+03  0.81733055072E+02 0.  0.
         11    1    4    4    0    0  0.29666183270E+02  0.82312595192E+02  0.41682256885E+03  0.42590667952E+03  0.00000000000E+00 0. -1.
        -12    1    4    4    0    0 -0.37058852521E+02  0.16054727947E+02  0.16890418864E+03  0.17366559181E+03  0.00000000000E+00 0.  1.
        -11    1    3    3    0    0 -0.43962437679E+02 -0.46700170060E+02 -0.50251402851E+02  0.81478864123E+02  0.00000000000E+00 0.  1.
         11    1    3    3    0    0  0.31971127382E+02 -0.20827974540E+02  0.64591068571E+01  0.38699839417E+02  0.00000000000E+00 0. -1.
         21    1    1    2  502  501  0.19383979548E+02 -0.30839178540E+02  0.72220965398E+02  0.80886719795E+02  0.00000000000E+00 0. -1.
<scales pt_clust_5="13000.00000" pt_clust_6="13000.00000" pt_clust_7="13000.00000" pt_clust_8="13000.00000" pt_clust_9="36.42518"></scales>
<clustering>
<clus scale="   36.425">  1  9  2 -1</clus>
<clus scale="   81.733">  5  6 -1 -1</clus>
<clus scale="   88.438">  7  8 -1 -1</clus>
<clus scale="  107.764">  1  5  2 -1</clus>
<clus scale="   36.425">  1  5  2 -1</clus>
</clustering>
</event>
<event>
 9    1  0.2802611E-005  0.1049203E+03  0.7546771E-02  0.1274369E+00
          3   -1    0    0  502    0  0.00000000000E+00  0.00000000000E+00  0.22527423231E+03  0.22527423231E+03  0.00000000000E+00 0. -1.
         -4   -1    0    0    0  501 -0.00000000000E+00 -0.00000000000E+00 -0.11925705252E+03  0.11925705252E+03  0.00000000000E+00 0.  1.
         23    2    1    2    0    0 -0.24027773867E+02 -0.58653340669E+02 -0.58049247908E+02  0.12392199644E+03  0.89271483298E+02 0.  0.
        -24    2    1    2    0    0 -0.24605467722E+02  0.30920661925E+02  0.11971002842E+03  0.14918251599E+03  0.79771021041E+02 0.  0.
         11    1    4    4    0    0 -0.11993774774E+01  0.26880873056E+02  0.12235940676E+03  0.12528305658E+03  0.00000000000E+00 0. -1.
        -12    1    4    4    0    0 -0.23406090245E+02  0.40397888684E+01 -0.26493783428E+01  0.23899459413E+02  0.00000000000E+00 0.  1.
        -11    1    3    3    0    0 -0.57844936953E+02 -0.30805263516E+02 -0.37857883672E+02  0.75685007416E+02  0.00000000000E+00 0.  1.
         11    1    3    3    0    0  0.33817163087E+02 -0.27848077153E+02 -0.20191364237E+02  0.48236989024E+02  0.00000000000E+00 0. -1.
         21    1    1    2  502  501  0.48633241589E+02  0.27732678744E+02  0.44356399282E+02  0.71426772397E+02  0.00000000000E+00 0.  1.
<scales pt_clust_5="13000.00000" pt_clust_6="13000.00000" pt_clust_7="13000.00000" pt_clust_8="13000.00000" pt_clust_9="55.98476"></scales>
<clustering>
<clus scale="   55.985">  1  9  2 -1</clus>
<clus scale="   79.771">  5  6 -1 -1</clus>
<clus scale="   89.271">  7  8 -1 -1</clus>
<clus scale="   96.965">  1  5  2 -1</clus>
<clus scale="   55.985">  1  5  2 -1</clus>
</clustering>
</event>
<event>
 9    1  0.2802611E-005  0.9368343E+02  0.7546771E-02  0.1319216E+00
         -2   -1    0    0    0  501 -0.00000000000E+00  0.00000000000E+00  0.13517545197E+03  0.13517545197E+03  0.00000000000E+00 0.  1.
          1   -1    0    0  502    0  0.00000000000E+00 -0.00000000000E+00 -0.29978189061E+03  0.29978189061E+03  0.00000000000E+00 0. -1.
        -24    2    1    2    0    0  0.20318369903E+02 -0.14591759596E+02  0.85667506333E+02  0.10532390587E+03  0.55932529923E+02 0.  0.
         23    2    1    2    0    0  0.23115797720E+02  0.44844333678E+00 -0.26524862607E+03  0.28156264115E+03  0.91575903214E+02 0.  0.
         13    1    3    3    0    0  0.49963453812E+01 -0.32297265683E+02  0.27825595165E+02  0.42922495082E+02  0.00000000000E+00 0. -1.
        -14    1    3    3    0    0  0.15322024522E+02  0.17705506087E+02  0.57841911168E+02  0.62401410792E+02  0.00000000000E+00 0.  1.
        -13    1    4    4    0    0  0.50554511166E+02  0.14573799573E+02 -0.95523045646E+02  0.10905414473E+03  0.00000000000E+00 0.  1.
         13    1    4    4    0    0 -0.27438713446E+02 -0.14125356236E+02 -0.16972558043E+03  0.17250849642E+03  0.00000000000E+00 0. -1.
         21    1    1    2  502  501 -0.43434167623E+02  0.14143316259E+02  0.14974681097E+02  0.48070795561E+02  0.00000000000E+00 0.  1.
<scales pt_clust_5="13000.00000" pt_clust_6="13000.00000" pt_clust_7="13000.00000" pt_clust_8="13000.00000" pt_clust_9="45.67888"></scales>
<clustering>
<clus scale="   45.679">  1  9  2 -1</clus>
<clus scale="   55.933">  5  6 -1 -1</clus>
<clus scale="   59.320">  1  5  2 -1</clus>
<clus scale="   91.576">  7  8 -1 -1</clus>
<clus scale="   93.683">  2  5  1 -1</clus>
</clustering>
</event>
<event>
 9    1  0.2802611E-005  0.9421755E+02  0.7546771E-02  0.1297226E+00
         -2   -1    0    0    0  501 -0.00000000000E+00  0.00000000000E+00  0.46278229449E+02  0.46278229449E+02  0.00000000000E+00 0.  1.
          1   -1    0    0  502    0  0.00000000000E+00 -0.00000000000E+00 -0.58139676729E+03  0.58139676729E+03  0.00000000000E+00 0. -1.
        -24    2    1    2    0    0  0.35749088299E+02 -0.32317144427E+02 -0.51761700295E+02  0.10894179043E+03  0.82865221575E+02 0.  0.
         23    2    1    2    0    0 -0.29877288872E+01  0.24388830234E+02 -0.47480617467E+03  0.48395852195E+03  0.90394722751E+02 0.  0.
         13    1    3    3    0    0  0.17427414606E+01 -0.40947342949E+02 -0.60228279907E+02  0.72850310520E+02  0.00000000000E+00 0. -1.
        -14    1    3    3    0    0  0.34006346839E+02  0.86301985217E+01  0.84665796114E+01  0.36091479911E+02  0.00000000000E+00 0.  1.
        -13    1    4    4    0    0 -0.21646769129E+02 -0.29260343470E+02 -0.20973837092E+03  0.21287304797E+03  0.00000000000E+00 0. -1.
         13    1    4    4    0    0  0.18659040242E+02  0.53649173705E+02 -0.26506780374E+03  0.27108547398E+03  0.00000000000E+00 0.  1.
         21    1    1    2  502  501 -0.32761359412E+02  0.79283141928E+01 -0.85506628750E+01  0.34774684356E+02  0.00000000000E+00 0.  1.
<scales pt_clust_5="13000.00000" pt_clust_6="13000.00000" pt_clust_7="13000.00000" pt_clust_8="13000.00000" pt_clust_9="33.70704"></scales>
<clustering>
<clus scale="   33.707">  1  9  2 -1</clus>
<clus scale="   82.865">  5  6 -1 -1</clus>
<clus scale="   87.019">  1  5  2 -1</clus>
<clus scale="   90.395">  7  8 -1 -1</clus>
<clus scale="   94.218">  2  5  1 -1</clus>
</clustering>
</event>
<event>
 9    1  0.2802611E-005  0.9787358E+02  0.7546771E-02  0.1301085E+00
         -2   -1    0    0    0  501 -0.00000000000E+00  0.00000000000E+00  0.12386478363E+03  0.12386478363E+03  0.00000000000E+00 0.  1.
          1   -1    0    0  502    0  0.00000000000E+00 -0.00000000000E+00 -0.16494448242E+03  0.16494448242E+03  0.00000000000E+00 0. -1.
        -24    2    1    2    0    0  0.11461440730E+02  0.43053218316E+02  0.25075632349E+02  0.82553126529E+02  0.64817336655E+02 0.  0.
         23    2    1    2    0    0 -0.32972681937E+02 -0.72762715986E+01 -0.10869049897E+03  0.14665778453E+03  0.92491833773E+02 0.  0.
         13    1    3    3    0    0  0.27309636555E+02 -0.48142181315E+01  0.44982717432E+01  0.28093191233E+02  0.00000000000E+00 0. -1.
        -14    1    3    3    0    0 -0.15848195824E+02  0.47867436448E+02  0.20577360606E+02  0.54459935297E+02  0.00000000000E+00 0.  1.
        -11    1    4    4    0    0 -0.17292660789E+02  0.11406353089E+02  0.11720378010E+02  0.23801434173E+02  0.00000000000E+00 0.  1.
         11    1    4    4    0    0 -0.15680021148E+02 -0.18682624688E+02 -0.12041087698E+03  0.12285635036E+03  0.00000000000E+00 0. -1.
         21    1    1    2  502  501  0.21511241207E+02 -0.35776946718E+02  0.42535167832E+02  0.59598354987E+02  0.00000000000E+00 0.  1.
<scales pt_clust_5="13000.00000" pt_clust_6="13000.00000" pt_clust_7="13000.00000" pt_clust_8="13000.00000" pt_clust_9="41.74594"></scales>
<clustering>
<clus scale="   41.746">  1  9  2 -1</clus>
<clus scale="   64.817">  5  6 -1 -1</clus>
<clus scale="   72.290">  1  5  2 -1</clus>
<clus scale="   92.492">  7  8 -1 -1</clus>
<clus scale="   97.874">  2  5  1 -1</clus>
</clustering>
</event>
<event>
 9    1  0.2802611E-005  0.1542770E+03  0.7546771E-02  0.1219168E+00
         -2   -1    0    0    0  501 -0.00000000000E+00  0.00000000000E+00  0.36476146611E+03  0.36476146611E+03  0.00000000000E+00 0.  1.
          1   -1    0    0  502    0  0.00000000000E+00 -0.00000000000E+00 -0.22632007396E+03  0.22632007396E+03  0.00000000000E+00 0. -1.
         23    2    1    2    0    0 -0.10665797280E+03 -0.47786640279E+02  0.23829327942E+03  0.28044492206E+03  0.90587974585E+02 0.  0.
        -24    2    1    2    0    0 -0.41330259443E+02  0.16243402627E+02 -0.12680360959E+03  0.15694247999E+03  0.81115646739E+02 0.  0.
         13    1    4    4    0    0 -0.10338889505E+02  0.21889789677E+02 -0.12282814172E+03  0.12519108565E+03  0.00000000000E+00 0. -1.
        -14    1    4    4    0    0 -0.30991369938E+02 -0.56463870500E+01 -0.39754678637E+01  0.31751394333E+02  0.00000000000E+00 0.  1.
        -13    1    3    3    0    0 -0.70131317567E+02 -0.64225868260E+02  0.21248666506E+03  0.23279593357E+03  0.00000000000E+00 0.  1.
         13    1    3    3    0    0 -0.36526655237E+02  0.16439227981E+02  0.25806614363E+02  0.47648988492E+02  0.00000000000E+00 0. -1.
         21    1    1    2  502  501  0.14798823225E+03  0.31543237652E+02  0.26951722315E+02  0.15369413802E+03  0.00000000000E+00 0. -1.
<scales pt_clust_5="13000.00000" pt_clust_6="13000.00000" pt_clust_7="13000.00000" pt_clust_8="13000.00000" pt_clust_9="124.88082"></scales>
<clustering>
<clus scale="   81.116">  5  6 -1 -1</clus>
<clus scale="   90.588">  7  8 -1 -1</clus>
<clus scale="   92.476">  2  5  1 -1</clus>
<clus scale="  124.881">  2  9  1 -1</clus>
<clus scale="   92.476">  2  5  1 -1</clus>
</clustering>
</event>
<event>
 9    1  0.2802611E-005  0.1036602E+03  0.7546771E-02  0.1276169E+00
          1   -1    0    0  502    0  0.00000000000E+00  0.00000000000E+00  0.26403543529E+03  0.26403543529E+03  0.00000000000E+00 0. -1.
         -2   -1    0    0    0  501 -0.00000000000E+00 -0.00000000000E+00 -0.44354978202E+03  0.44354978202E+03  0.00000000000E+00 0.  1.
        -24    2    1    2    0    0  0.26577032776E+02  0.12005379335E+02 -0.60251378890E+02  0.10959387484E+03  0.86776269453E+02 0.  0.
         23    2    1    2    0    0  0.53644247940E+02 -0.40205164589E+01  0.22216875759E+03  0.24717111065E+03  0.94025162586E+02 0.  0.
         13    1    3    3    0    0  0.21978414742E+02 -0.16045651997E+02  0.13628436808E+02  0.30434321947E+02  0.00000000000E+00 0. -1.
        -14    1    3    3    0    0  0.45986180344E+01  0.28051031331E+02 -0.73879815698E+02  0.79159552893E+02  0.00000000000E+00 0.  1.
        -13    1    4    4    0    0  0.19050570218E+02 -0.48221920417E+02  0.11660737629E+03  0.12761488173E+03  0.00000000000E+00 0.  1.
         13    1    4    4    0    0  0.34593677722E+02  0.44201403958E+02  0.10556138131E+03  0.11955622892E+03  0.00000000000E+00 0. -1.
         21    1    1    2  502  501 -0.80221280717E+02 -0.79848628759E+01 -0.34143172544E+03  0.35082023182E+03  0.00000000000E+00 0.  1.
<scales pt_clust_5="13000.00000" pt_clust_6="13000.00000" pt_clust_7="13000.00000" pt_clust_8="13000.00000" pt_clust_9="80.61769"></scales>
<clustering>
<clus scale="   80.618">  2  9  1 -1</clus>
<clus scale="   86.776">  5  6 -1 -1</clus>
<clus scale="   94.025">  7  8 -1 -1</clus>
<clus scale="   97.133">  2  5  1 -1</clus>
<clus scale="  103.660">  1  5  2 -1</clus>
</clustering>
</event>
<event>
 9    1  0.2802611E-005  0.9125039E+02  0.7546771E-02  0.1302953E+00
          1   -1    0    0  502    0  0.00000000000E+00  0.00000000000E+00  0.16719627215E+03  0.16719627215E+03  0.00000000000E+00 0. -1.
         -2   -1    0    0    0  501 -0.00000000000E+00 -0.00000000000E+00 -0.43020896213E+03  0.43020896213E+03  0.00000000000E+00 0.  1.
        -24    2    1    2    0    0 -0.42394065487E+01 -0.83802194891E+01 -0.26150685248E+03  0.27396413976E+03  0.81131469445E+02 0.  0.
         23    2    1    2    0    0 -0.25878789009E+02  0.16109658788E+02  0.14615501547E+03  0.17254186510E+03  0.86487998240E+02 0.  0.
         11    1    3    3    0    0  0.35391848563E+02 -0.13305574706E+02 -0.85564487940E+02  0.93546260531E+02  0.00000000000E+00 0. -1.
        -12    1    3    3    0    0 -0.39631255111E+02  0.49253552171E+01 -0.17594236454E+03  0.18041787923E+03  0.00000000000E+00 0.  1.
        -11    1    4    4    0    0  0.31686744585E+02  0.29280068546E+00  0.44021273612E+02  0.54240280651E+02  0.00000000000E+00 0.  1.
         11    1    4    4    0    0 -0.57565533594E+02  0.15816858102E+02  0.10213374186E+03  0.11830158445E+03  0.00000000000E+00 0. -1.
         21    1    1    2  502  501  0.30118195558E+02 -0.77294392988E+01 -0.14766085297E+03  0.15089922941E+03  0.00000000000E+00 0. -1.
<scales pt_clust_5="13000.00000" pt_clust_6="13000.00000" pt_clust_7="13000.00000" pt_clust_8="13000.00000" pt_clust_9="31.09421"></scales>
<clustering>
<clus scale="   31.094">  2  9  1 -1</clus>
<clus scale="   81.131">  5  6 -1 -1</clus>
<clus scale="   86.190">  2  5  1 -1</clus>
<clus scale="   86.488">  7  8 -1 -1</clus>
<clus scale="   91.250">  1  5  2 -1</clus>
</clustering>
</event>
<event>
 9    1  0.2802611E-005  0.1088189E+03  0.7546771E-02  0.1266546E+00
          1   -1    0    0  502    0  0.00000000000E+00  0.00000000000E+00  0.44455613275E+03  0.44455613275E+03  0.00000000000E+00 0. -1.
         -2   -1    0    0    0  501 -0.00000000000E+00 -0.00000000000E+00 -0.45746208719E+02  0.45746208719E+02  0.00000000000E+00 0.  1.
         23    2    1    2    0    0 -0.64627616974E+02  0.54298305411E+02  0.14760470185E+03  0.19337817634E+03  0.92102856790E+02 0.  0.
        -24    2    1    2    0    0  0.54221981341E+01 -0.50262550865E+02  0.17751360036E+03  0.20230902860E+03  0.82838037683E+02 0.  0.
         11    1    4    4    0    0  0.28443814997E+02  0.39432344216E+01  0.10519865071E+03  0.10904749341E+03  0.00000000000E+00 0. -1.
        -12    1    4    4    0    0 -0.23021616863E+02 -0.54205785286E+02  0.72314949658E+02  0.93261535187E+02  0.00000000000E+00 0.  1.
        -11    1    3    3    0    0 -0.21604839554E+02  0.10033687892E+01  0.11590405684E+03  0.11790473372E+03  0.00000000000E+00 0.  1.
         11    1    3    3    0    0 -0.43022777421E+02  0.53294936622E+02  0.31700645008E+02  0.75473442617E+02  0.00000000000E+00 0. -1.
         21    1    1    2  502  501  0.59205418840E+02 -0.40357545463E+01  0.73691621810E+02  0.94615136526E+02  0.00000000000E+00 0.  1.
<scales pt_clust_5="13000.00000" pt_clust_6="13000.00000" pt_clust_7="13000.00000" pt_clust_8="13000.00000" pt_clust_9="59.34281"></scales>
<clustering>
<clus scale="   59.343">  2  9  1 -1</clus>
<clus scale="   82.838">  5  6 -1 -1</clus>
<clus scale="   92.103">  7  8 -1 -1</clus>
<clus scale="  101.098">  1  5  2 -1</clus>
<clus scale="  101.098">  1  5  2 -1</clus>
</clustering>
</event>
<event>
 9    1  0.2802611E-005  0.1091977E+03  0.7546771E-02  0.1266613E+00
         -2   -1    0    0    0  501 -0.00000000000E+00  0.00000000000E+00  0.60269351482E+02  0.60269351482E+02  0.00000000000E+00 0.  1.
          1   -1    0    0  502    0  0.00000000000E+00 -0.00000000000E+00 -0.75950648189E+03  0.75950648189E+03  0.00000000000E+00 0. -1.
         23    2    1    2    0    0  0.30508196772E+02 -0.74558939116E+02 -0.18433078907E+02  0.12287004143E+03  0.90925701590E+02 0.  0.
        -24    2    1    2    0    0 -0.14346494613E+02  0.57317495871E+02 -0.65273659443E+03  0.66021451058E+03  0.79542573693E+02 0.  0.
         13    1    4    4    0    0 -0.45181403869E+02  0.31993210905E+02 -0.28562294904E+03  0.29093881456E+03  0.00000000000E+00 0. -1.
        -14    1    4    4    0    0  0.30834909256E+02  0.25324284966E+02 -0.36711364540E+03  0.36927569603E+03  0.00000000000E+00 0.  1.
        -13    1    3    3    0    0  0.59082794196E+02 -0.69419426552E+02 -0.62122749448E+01  0.91369719890E+02  0.00000000000E+00 0.  1.
         13    1    3    3    0    0 -0.28574597424E+02 -0.51395125636E+01 -0.12220803962E+02  0.31500321535E+02  0.00000000000E+00 0. -1.
         21    1    1    2  502  501 -0.16161702159E+02  0.17241443245E+02 -0.28067457062E+02  0.36691281359E+02  0.00000000000E+00 0.  1.
<scales pt_clust_5="13000.00000" pt_clust_6="13000.00000" pt_clust_7="13000.00000" pt_clust_8="13000.00000" pt_clust_9="23.63193"></scales>
<clustering>
<clus scale="   23.632">  1  9  2 -1</clus>
<clus scale="   79.543">  5  6 -1 -1</clus>
<clus scale="   90.926">  7  8 -1 -1</clus>
<clus scale="   99.918">  2  5  1 -1</clus>
<clus scale="   99.918">  2  5  1 -1</clus>
</clustering>
</event>
<event>
 9    1  0.2802611E-005  0.2346174E+03  0.7546771E-02  0.1124244E+00
          1   -1    0    0  502    0  0.00000000000E+00  0.00000000000E+00  0.41455837679E+03  0.41455837679E+03  0.00000000000E+00 0. -1.
         -2   -1    0    0    0  501 -0.00000000000E+00 -0.00000000000E+00 -0.17680592064E+03  0.17680592064E+03  0.00000000000E+00 0.  1.
        -24    2    1    2    0    0  0.15613349808E+03 -0.13052604842E+03 -0.23850375401E+02  0.21901819644E+03  0.77365440779E+02 0.  0.
         23    2    1    2    0    0 -0.16339721987E+03  0.14973187180E+03  0.25722780076E+03  0.35135166838E+03  0.90352468131E+02 0.  0.
         11    1    3    3    0    0  0.61978493226E+02 -0.39539660061E+02  0.27336174201E+02  0.78434589055E+02  0.00000000000E+00 0. -1.
        -12    1    3    3    0    0  0.94155004851E+02 -0.90986388358E+02 -0.51186549602E+02  0.14058360738E+03  0.00000000000E+00 0.  1.
        -11    1    4    4    0    0 -0.13751638822E+03  0.15359274068E+03  0.25032335884E+03  0.32428886968E+03  0.00000000000E+00 0. -1.
         11    1    4    4    0    0 -0.25880831647E+02 -0.38608688806E+01  0.69044419215E+01  0.27062798700E+02  0.00000000000E+00 0.  1.
         21    1    1    2  502  501  0.72637217926E+01 -0.19205823380E+02  0.43750307875E+01  0.20994432604E+02  0.00000000000E+00 0.  1.
<scales pt_clust_5="13000.00000" pt_clust_6="13000.00000" pt_clust_7="13000.00000" pt_clust_8="13000.00000" pt_clust_9="20.53352"></scales>
<clustering>
<clus scale="   20.534">  2  9  1 -1</clus>
<clus scale="   77.365">  5  6 -1 -1</clus>
<clus scale="   90.352">  7  8 -1 -1</clus>
<clus scale="  229.929">  2  5  1 -1</clus>
<clus scale="  234.617">  1  5  2 -1</clus>
</clustering>
</event>
<event>
 9    1  0.2802611E-005  0.1436345E+03  0.7546771E-02  0.1210945E+00
          1   -1    0    0  502    0  0.00000000000E+00  0.00000000000E+00  0.66699185986E+03  0.66699185986E+03  0.00000000000E+00 0. -1.
         -2   -1    0    0    0  501 -0.00000000000E+00 -0.00000000000E+00 -0.26598186827E+03  0.26598186827E+03  0.00000000000E+00 0.  1.
        -24    2    1    2    0    0  0.95548559142E+02 -0.11149234676E+01 -0.13447746531E+02  0.12520163909E+03  0.79773669430E+02 0.  0.
         23    2    1    2    0    0 -0.11083187675E+03 -0.20449780745E+02  0.60154286531E+03  0.61882907891E+03  0.91617201730E+02 0.  0.
         13    1    3    3    0    0  0.27335487889E+02  0.66689721820E+01  0.32195595702E+02  0.42758162621E+02  0.00000000000E+00 0. -1.
        -14    1    3    3    0    0  0.68213071253E+02 -0.77838956496E+01 -0.45643342233E+02  0.82443476464E+02  0.00000000000E+00 0.  1.
        -13    1    4    4    0    0 -0.65812766385E+01  0.26914853958E+02  0.74371955252E+02  0.79365674531E+02  0.00000000000E+00 0.  1.
         13    1    4    4    0    0 -0.10425060011E+03 -0.47364634702E+02  0.52717091006E+03  0.53946340437E+03  0.00000000000E+00 0. -1.
         21    1    1    2  502  501  0.15283317605E+02  0.21564704212E+02 -0.18708512720E+03  0.18894301015E+03  0.00000000000E+00 0.  1.
<scales pt_clust_5="13000.00000" pt_clust_6="13000.00000" pt_clust_7="13000.00000" pt_clust_8="13000.00000" pt_clust_9="26.43135"></scales>
<clustering>
<clus scale="   26.431">  2  9  1 -1</clus>
<clus scale="   79.774">  5  6 -1 -1</clus>
<clus scale="   91.617">  7  8 -1 -1</clus>
<clus scale="  136.385">  2  5  1 -1</clus>
<clus scale="  143.635">  1  5  2 -1</clus>
</clustering>
</event>
<event>
 9    1  0.2802611E-005  0.1676565E+03  0.7546771E-02  0.1187674E+00
         -2   -1    0    0    0  501 -0.00000000000E+00  0.00000000000E+00  0.11668572865E+03  0.11668572865E+03  0.00000000000E+00 0.  1.
          1   -1    0    0  502    0  0.00000000000E+00 -0.00000000000E+00 -0.28704413429E+03  0.28704413429E+03  0.00000000000E+00 0. -1.
        -24    2    1    2    0    0 -0.58871501223E+02 -0.83788657632E+02  0.15955667801E+02  0.13133660652E+03  0.80674209466E+02 0.  0.
         23    2    1    2    0    0  0.75753528830E+02  0.98381457883E+02 -0.17956045340E+03  0.24907879612E+03  0.11991989772E+03 0.  0.
         11    1    3    3    0    0 -0.13062773110E+02 -0.34225213499E+02 -0.31920575972E+02  0.48589345033E+02  0.00000000000E+00 0. -1.
        -12    1    3    3    0    0 -0.45808728113E+02 -0.49563444132E+02  0.47876243773E+02  0.82747261486E+02  0.00000000000E+00 0.  1.
        -13    1    4    4    0    0  0.10431122222E+03  0.49837758563E+02 -0.13097881550E+03  0.17469998102E+03  0.00000000000E+00 0. -1.
         13    1    4    4    0    0 -0.28557693386E+02  0.48543699319E+02 -0.48581637891E+02  0.74378815098E+02  0.00000000000E+00 0.  1.
         21    1    1    2  502  501 -0.16882027607E+02 -0.14592800251E+02 -0.67536200448E+01  0.23314460299E+02  0.00000000000E+00 0. -1.
<scales pt_clust_5="13000.00000" pt_clust_6="13000.00000" pt_clust_7="13000.00000" pt_clust_8="13000.00000" pt_clust_9="22.31485"></scales>
<clustering>
<clus scale="   22.315">  1  9  2 -1</clus>
<clus scale="   80.674">  5  6 -1 -1</clus>
<clus scale="  119.920">  7  8 -1 -1</clus>
<clus scale="  142.254">  1  5  2 -1</clus>
<clus scale="  167.657">  2  5  1 -1</clus>
</clustering>
</event>
<event>
 9    1  0.2802611E-005  0.1315429E+03  0.7546771E-02  0.1227214E+00
         -2   -1    0    0    0  501 -0.00000000000E+00  0.00000000000E+00  0.17947271366E+03  0.17947271366E+03  0.00000000000E+00 0.  1.
          1   -1    0    0  502    0  0.00000000000E+00 -0.00000000000E+00 -0.42213035191E+03  0.42213035191E+03  0.00000000000E+00 0. -1.
         23    2    1    2    0    0 -0.83595139054E+01 -0.75867317893E+02 -0.20023807293E+02  0.12020757977E+03  0.90681740050E+02 0.  0.
        -24    2    1    2    0    0  0.15298571375E+02  0.98656897114E+02 -0.33884079640E+03  0.36277181928E+03  0.82601924462E+02 0.  0.
         13    1    4    4    0    0  0.32245405956E+02  0.75370765449E+02 -0.31466902030E+03  0.32517243245E+03  0.00000000000E+00 0. -1.
        -14    1    4    4    0    0 -0.16946834581E+02  0.23286131665E+02 -0.24171776105E+02  0.37599386834E+02  0.00000000000E+00 0.  1.
        -13    1    3    3    0    0  0.26221763857E+01 -0.29132349479E+02 -0.53986306123E+02  0.61401065495E+02  0.00000000000E+00 0. -1.
         13    1    3    3    0    0 -0.10981690291E+02 -0.46734968414E+02  0.33962498830E+02  0.58806514274E+02  0.00000000000E+00 0.  1.
         21    1    1    2  502  501 -0.69390574697E+01 -0.22789579221E+02  0.11620696544E+03  0.11862366651E+03  0.00000000000E+00 0.  1.
<scales pt_clust_5="13000.00000" pt_clust_6="13000.00000" pt_clust_7="13000.00000" pt_clust_8="13000.00000" pt_clust_9="23.82258"></scales>
<clustering>
<clus scale="   23.823">  1  9  2 -1</clus>
<clus scale="   82.602">  5  6 -1 -1</clus>
<clus scale="   90.682">  7  8 -1 -1</clus>
<clus scale="  126.109">  2  5  1 -1</clus>
<clus scale="  126.109">  2  5  1 -1</clus>
</clustering>
</event>
<event>
 9    1  0.2802611E-005  0.2048799E+03  0.7546771E-02  0.1148051E+00
         -2   -1    0    0    0  501 -0.00000000000E+00  0.00000000000E+00  0.19192017736E+03  0.19192017736E+03  0.00000000000E+00 0.  1.
          1   -1    0    0  502    0  0.00000000000E+00 -0.00000000000E+00 -0.26301663870E+03  0.26301663870E+03  0.00000000000E+00 0. -1.
        -24    2    1    2    0    0  0.95595604730E+02  0.17394535371E+03 -0.13139730248E+01  0.22191815960E+03  0.99249369333E+02 0.  0.
         23    2    1    2    0    0 -0.76091047175E+02 -0.15064525533E+03 -0.80431592755E+02  0.20082043019E+03  0.73319599390E+02 0.  0.
         13    1    3    3    0    0 -0.71204232746E+01  0.86650660645E+02  0.37483195397E+01  0.87023487159E+02  0.00000000000E+00 0. -1.
        -14    1    3    3    0    0  0.10271602800E+03  0.87294693062E+02 -0.50622925645E+01  0.13489467244E+03  0.00000000000E+00 0.  1.
        -13    1    4    4    0    0 -0.36089631961E+02 -0.50685172373E+02 -0.68427421781E+02  0.92486541103E+02  0.00000000000E+00 0. -1.
         13    1    4    4    0    0 -0.40001415214E+02 -0.99960082957E+02 -0.12004170974E+02  0.10833388909E+03  0.00000000000E+00 0.  1.
         21    1    1    2  502  501 -0.19504557555E+02 -0.23300098378E+02  0.10649104440E+02  0.32198226274E+02  0.00000000000E+00 0. -1.
<scales pt_clust_5="13000.00000" pt_clust_6="13000.00000" pt_clust_7="13000.00000" pt_clust_8="13000.00000" pt_clust_9="30.38622"></scales>
<clustering>
<clus scale="   30.386">  1  9  2 -1</clus>
<clus scale="   73.320">  7  8 -1 -1</clus>
<clus scale="   99.249">  5  6 -1 -1</clus>
<clus scale="  193.652">  2  7  1 -1</clus>
<clus scale="  193.652">  2  5  1 -1</clus>
</clustering>
</event>
<event>
 9    1  0.2802611E-005  0.1496732E+03  0.7546771E-02  0.1203011E+00
          1   -1    0    0  502    0  0.00000000000E+00  0.00000000000E+00  0.15827300357E+03  0.15827300357E+03  0.00000000000E+00 0. -1.
         -2   -1    0    0    0  501 -0.00000000000E+00 -0.00000000000E+00 -0.28305597613E+03  0.28305597613E+03  0.00000000000E+00 0.  1.
         23    2    1    2    0    0  0.58307021511E+02 -0.59492077830E+02 -0.11198478085E+03  0.16682070657E+03  0.91375822387E+02 0.  0.
        -24    2    1    2    0    0 -0.89631065202E+02  0.94636416581E+02  0.78474503298E+02  0.17180956274E+03  0.79815405720E+02 0.  0.
         13    1    4    4    0    0 -0.94895257511E+02  0.75789013171E+02  0.88066895740E+02  0.15001620759E+03  0.00000000000E+00 0. -1.
        -14    1    4    4    0    0  0.52641923095E+01  0.18847403410E+02 -0.95923924422E+01  0.21793355151E+02  0.00000000000E+00 0.  1.
        -11    1    3    3    0    0  0.71252620673E+01 -0.59460110441E+02 -0.96097474390E+02  0.11322984888E+03  0.00000000000E+00 0.  1.
         11    1    3    3    0    0  0.51181759444E+02 -0.31967389280E-01 -0.15887306462E+02  0.53590857694E+02  0.00000000000E+00 0. -1.
         21    1    1    2  502  501  0.31324043690E+02 -0.35144338751E+02 -0.91272695006E+02  0.10269871038E+03  0.00000000000E+00 0.  1.
<scales pt_clust_5="13000.00000" pt_clust_6="13000.00000" pt_clust_7="13000.00000" pt_clust_8="13000.00000" pt_clust_9="47.07781"></scales>
<clustering>
<clus scale="   47.078">  2  9  1 -1</clus>
<clus scale="   79.815">  5  6 -1 -1</clus>
<clus scale="   91.376">  7  8 -1 -1</clus>
<clus scale="  142.909">  1  5  2 -1</clus>
<clus scale="  142.909">  1  5  2 -1</clus>
</clustering>
</event>
<event>
 9    1  0.2802611E-005  0.1517691E+03  0.7546771E-02  0.1200237E+00
          1   -1    0    0  502    0  0.00000000000E+00  0.00000000000E+00  0.70007099621E+03  0.70007099621E+03  0.00000000000E+00 0. -1.
         -2   -1    0    0    0  501 -0.00000000000E+00 -0.00000000000E+00 -0.20112980831E+03  0.20112980831E+03  0.00000000000E+00 0.  1.
        -24    2    1    2    0    0 -0.20344640997E+02  0.73157681671E+02 -0.73425429676E+02  0.13266407173E+03  0.80265256491E+02 0.  0.
         23    2    1    2    0    0  0.43579538676E+02 -0.11763760546E+03  0.65432566977E+03  0.67243464996E+03  0.91041166175E+02 0.  0.
         13    1    3    3    0    0  0.17613427330E+02  0.18234679713E+02  0.87194297778E+01  0.26809789671E+02  0.00000000000E+00 0. -1.
        -14    1    3    3    0    0 -0.37958068327E+02  0.54923001957E+02 -0.82144859454E+02  0.10585428206E+03  0.00000000000E+00 0.  1.
        -13    1    4    4    0    0  0.69196886323E+02 -0.99139998194E+02  0.56181960819E+03  0.57468097277E+03  0.00000000000E+00 0. -1.
         13    1    4    4    0    0 -0.25617347647E+02 -0.18497607262E+02  0.92506061581E+02  0.97753677190E+02  0.00000000000E+00 0.  1.
         21    1    1    2  502  501 -0.23234897679E+02  0.44479923785E+02 -0.81959052192E+02  0.96102082840E+02  0.00000000000E+00 0.  1.
<scales pt_clust_5="13000.00000" pt_clust_6="13000.00000" pt_clust_7="13000.00000" pt_clust_8="13000.00000" pt_clust_9="50.18291"></scales>
<clustering>
<clus scale="   50.183">  2  9  1 -1</clus>
<clus scale="   80.265">  5  6 -1 -1</clus>
<clus scale="   91.041">  7  8 -1 -1</clus>
<clus scale="  145.561">  2  5  1 -1</clus>
<clus scale="  151.769">  1  5  2 -1</clus>
</clustering>
</event>
<event>
 9    1  0.2802611E-005  0.1621174E+03  0.7546771E-02  0.1188304E+00
          1   -1    0    0  502    0  0.00000000000E+00  0.00000000000E+00  0.15663884788E+03  0.15663884788E+03  0.00000000000E+00 0. -1.
         -2   -1    0    0    0  501 -0.00000000000E+00 -0.00000000000E+00 -0.37303076658E+03  0.37303076658E+03  0.00000000000E+00 0.  1.
        -24    2    1    2    0    0  0.93485151617E+02  0.12834445242E+03 -0.19548482814E+03  0.26475614947E+03  0.81668406415E+02 0.  0.
         23    2    1    2    0    0 -0.87384027883E+02 -0.90856381470E+02  0.65544686475E+02  0.17048630297E+03  0.94226446360E+02 0.  0.
         11    1    3    3    0    0 -0.78781383258E+01  0.23798280059E+02 -0.59910450702E+01  0.25774324788E+02  0.00000000000E+00 0. -1.
        -12    1    3    3    0    0  0.10136328994E+03  0.10454617236E+03 -0.18949378307E+03  0.23898182468E+03  0.00000000000E+00 0.  1.
        -13    1    4    4    0    0 -0.34535766613E+02 -0.64630559560E+02 -0.10726512028E+02  0.74060019341E+02  0.00000000000E+00 0.  1.
         13    1    4    4    0    0 -0.52848261271E+02 -0.26225821910E+02  0.76271198502E+02  0.96426283633E+02  0.00000000000E+00 0. -1.
         21    1    1    2  502  501 -0.61011237332E+01 -0.37488070946E+02 -0.86451777032E+02  0.94427162014E+02  0.00000000000E+00 0. -1.
<scales pt_clust_5="13000.00000" pt_clust_6="13000.00000" pt_clust_7="13000.00000" pt_clust_8="13000.00000" pt_clust_9="37.98130"></scales>
<clustering>
<clus scale="   37.981">  2  9  1 -1</clus>
<clus scale="   81.668">  5  6 -1 -1</clus>
<clus scale="   94.226">  7  8 -1 -1</clus>
<clus scale="  155.155">  2  5  1 -1</clus>
<clus scale="  162.117">  1  5  2 -1</clus>
</clustering>
</event>
<event>
 9    1  0.2802611E-005  0.8655412E+02  0.7546771E-02  0.1311446E+00
          3   -1    0    0  502    0  0.00000000000E+00  0.00000000000E+00  0.97623118360E+02  0.97623118360E+02  0.00000000000E+00 0. -1.
         -4   -1    0    0    0  501 -0.00000000000E+00 -0.00000000000E+00 -0.21687398772E+03  0.21687398772E+03  0.00000000000E+00 0.  1.
         23    2    1    2    0    0  0.55423949858E+00  0.27906364824E+02 -0.15959198410E+03  0.18355535776E+03  0.86278013407E+02 0.  0.
        -24    2    1    2    0    0 -0.37165259894E+01 -0.30188335051E+01  0.54509332808E+02  0.10212981200E+03  0.86234014257E+02 0.  0.
         11    1    4    4    0    0 -0.29327916550E+02  0.24049451021E+02  0.52558558773E+02  0.64814387938E+02  0.00000000000E+00 0. -1.
        -12    1    4    4    0    0  0.25611390560E+02 -0.27068284526E+02  0.19507740351E+01  0.37315424062E+02  0.00000000000E+00 0.  1.
        -13    1    3    3    0    0  0.55801300081E+01  0.58468990785E+02 -0.11672669627E+03  0.13067089330E+03  0.00000000000E+00 0. -1.
         13    1    3    3    0    0 -0.50258905096E+01 -0.30562625962E+02 -0.42865287827E+02  0.52884464464E+02  0.00000000000E+00 0.  1.
         21    1    1    2  502  501  0.31622864908E+01 -0.24887531319E+02 -0.14168218075E+02  0.28811936318E+02  0.00000000000E+00 0.  1.
<scales pt_clust_5="13000.00000" pt_clust_6="13000.00000" pt_clust_7="13000.00000" pt_clust_8="13000.00000" pt_clust_9="25.08763"></scales>
<clustering>
<clus scale="   25.088">  2  9  1 -1</clus>
<clus scale="   86.234">  5  6 -1 -1</clus>
<clus scale="   86.278">  7  8 -1 -1</clus>
<clus scale="   86.510">  1  5  2 -1</clus>
<clus scale="   86.510">  1  5  2 -1</clus>
</clustering>
</event>
<event>
 9    1  0.2802611E-005  0.1754017E+03  0.7546771E-02  0.1186696E+00
         -2   -1    0    0    0  501 -0.00000000000E+00  0.00000000000E+00  0.32552469435E+03  0.32552469435E+03  0.00000000000E+00 0.  1.
          1   -1    0    0  502    0  0.00000000000E+00 -0.00000000000E+00 -0.32386970190E+03  0.32386970190E+03  0.00000000000E+00 0. -1.
         23    2    1    2    0    0 -0.53430872444E+02 -0.69114337985E+02  0.51726225898E+02  0.13708941457E+03  0.92120873300E+02 0.  0.
        -24    2    1    2    0    0  0.14339418826E+02 -0.14563530857E+03 -0.18977027364E+03  0.25314986544E+03  0.81589433027E+02 0.  0.
         13    1    4    4    0    0  0.23586124578E+02 -0.14741352129E+03 -0.14757850899E+03  0.20992014636E+03  0.00000000000E+00 0. -1.
        -14    1    4    4    0    0 -0.92467057512E+01  0.17782127200E+01 -0.42191764653E+02  0.43229719086E+02  0.00000000000E+00 0.  1.
        -13    1    3    3    0    0 -0.21283612717E+02  0.20885782070E+02  0.21820058236E+02  0.36950277460E+02  0.00000000000E+00 0.  1.
         13    1    3    3    0    0 -0.32147259727E+02 -0.90000120055E+02  0.29906167662E+02  0.10013913711E+03  0.00000000000E+00 0. -1.
         21    1    1    2  502  501  0.39091453617E+02  0.21474964655E+03  0.13969904019E+03  0.25915511624E+03  0.00000000000E+00 0.  1.
<scales pt_clust_5="13000.00000" pt_clust_6="13000.00000" pt_clust_7="13000.00000" pt_clust_8="13000.00000" pt_clust_9="155.27045"></scales>
<clustering>
<clus scale="   81.589">  5  6 -1 -1</clus>
<clus scale="   92.121">  7  8 -1 -1</clus>
<clus scale="  126.956">  1  7  2 -1</clus>
<clus scale="  155.270">  1  9  2 -1</clus>
<clus scale="  175.402">  2  5  1 -1</clus>
</clustering>
</event>
<event>
 9    1  0.2802611E-005  0.1320238E+03  0.7546771E-02  0.1226389E+00
          1   -1    0    0  502    0  0.00000000000E+00  0.00000000000E+00  0.32006325902E+03  0.32006325902E+03  0.00000000000E+00 0. -1.
         -2   -1    0    0    0  501 -0.00000000000E+00 -0.00000000000E+00 -0.92902673882E+02  0.92902673882E+02  0.00000000000E+00 0.  1.
        -24    2    1    2    0    0  0.29387858558E+01  0.12885342748E+03  0.47322636038E+02  0.15987104637E+03  0.81899190166E+02 0.  0.
         23    2    1    2    0    0  0.38886232147E+01 -0.58215146604E+02  0.10280949620E+03  0.14835825113E+03  0.89645153157E+02 0.  0.
         11    1    3    3    0    0 -0.15307089644E+02  0.41654389597E+02  0.54747455902E+02  0.70474669874E+02  0.00000000000E+00 0. -1.
        -12    1    3    3    0    0  0.18245875500E+02  0.87199037883E+02 -0.74248198643E+01  0.89396376495E+02  0.00000000000E+00 0.  1.
        -13    1    4    4    0    0  0.31743787488E+01 -0.25439049913E+02 -0.12469604243E+02  0.28508121140E+02  0.00000000000E+00 0.  1.
         13    1    4    4    0    0  0.71424446590E+00 -0.32776096690E+02  0.11527910044E+03  0.11985012999E+03  0.00000000000E+00 0. -1.
         21    1    1    2  502  501 -0.68274090705E+01 -0.70638280877E+02  0.77028452903E+02  0.10473663541E+03  0.00000000000E+00 0. -1.
<scales pt_clust_5="13000.00000" pt_clust_6="13000.00000" pt_clust_7="13000.00000" pt_clust_8="13000.00000" pt_clust_9="70.96746"></scales>
<clustering>
<clus scale="   70.967">  1  9  2 -1</clus>
<clus scale="   81.899">  5  6 -1 -1</clus>
<clus scale="   89.645">  7  8 -1 -1</clus>
<clus scale="  126.892">  2  5  1 -1</clus>
<clus scale="   70.967">  1  5  2 -1</clus>
</clustering>
</event>
<event>
 9    1  0.2802611E-005  0.9926833E+02  0.7546771E-02  0.1287429E+00
         -2   -1    0    0    0  501 -0.00000000000E+00  0.00000000000E+00  0.48843466678E+02  0.48843466678E+02  0.00000000000E+00 0.  1.
          1   -1    0    0  502    0  0.00000000000E+00 -0.00000000000E+00 -0.32524151009E+03  0.32524151009E+03  0.00000000000E+00 0. -1.
         23    2    1    2    0    0  0.22695794693E+02 -0.23275937440E+02 -0.49862109163E+02  0.11014202431E+03  0.92672364963E+02 0.  0.
        -24    2    1    2    0    0 -0.36885085551E+02  0.79540427802E+01 -0.22568326352E+03  0.24304263002E+03  0.81932949679E+02 0.  0.
         11    1    4    4    0    0 -0.58240000676E+02 -0.12632085384E+02 -0.16646975070E+03  0.17681528542E+03  0.00000000000E+00 0. -1.
        -12    1    4    4    0    0  0.21354915125E+02  0.20586128164E+02 -0.59213512817E+02  0.66227344601E+02  0.00000000000E+00 0.  1.
        -13    1    3    3    0    0 -0.90593241050E+01 -0.52878158015E+02 -0.19150265723E+02  0.56964055557E+02  0.00000000000E+00 0. -1.
         13    1    3    3    0    0  0.31755118798E+02  0.29602220575E+02 -0.30711843439E+02  0.53177968749E+02  0.00000000000E+00 0.  1.
         21    1    1    2  502  501  0.14189290858E+02  0.15321894659E+02 -0.85267073795E+00  0.20900322447E+02  0.00000000000E+00 0.  1.
<scales pt_clust_5="13000.00000" pt_clust_6="13000.00000" pt_clust_7="13000.00000" pt_clust_8="13000.00000" pt_clust_9="20.88292"></scales>
<clustering>
<clus scale="   20.883">  1  9  2 -1</clus>
<clus scale="   81.933">  5  6 -1 -1</clus>
<clus scale="   89.325">  2  5  1 -1</clus>
<clus scale="   92.672">  7  8 -1 -1</clus>
<clus scale="   89.325">  2  5  1 -1</clus>
</clustering>
</event>
<event>
 9    1  0.2802611E-005  0.3618589E+03  0.7546771E-02  0.1099723E+00
          1   -1    0    0  502    0  0.00000000000E+00  0.00000000000E+00  0.15314036200E+04  0.15314036200E+04  0.00000000000E+00 0. -1.
         -2   -1    0    0    0  501 -0.00000000000E+00 -0.00000000000E+00 -0.23148637396E+03  0.23148637396E+03  0.00000000000E+00 0.  1.
         23    2    1    2    0    0  0.26528467064E+02 -0.37273010676E+03  0.10586218286E+04  0.11263940232E+04  0.91933821599E+02 0.  0.
        -24    2    1    2    0    0  0.76032644139E+02  0.40501970921E+02  0.26336804012E+03  0.28809746839E+03  0.78841956542E+02 0.  0.
         13    1    4    4    0    0  0.53230502089E+02  0.31866810202E+02  0.25481439544E+03  0.26225818589E+03  0.00000000000E+00 0. -1.
        -14    1    4    4    0    0  0.22802142050E+02  0.86351607189E+01  0.85536446884E+01  0.25839282501E+02  0.00000000000E+00 0.  1.
        -11    1    3    3    0    0  0.21433235505E+02 -0.75823192052E+02  0.33645358866E+03  0.34555688006E+03  0.00000000000E+00 0.  1.
         11    1    3    3    0    0  0.50952315590E+01 -0.29690691471E+03  0.72216823991E+03  0.78083714315E+03  0.00000000000E+00 0. -1.
         21    1    1    2  502  501 -0.10256111120E+03  0.33222813584E+03 -0.22072622656E+02  0.34839850236E+03  0.00000000000E+00 0.  1.
<scales pt_clust_5="13000.00000" pt_clust_6="13000.00000" pt_clust_7="13000.00000" pt_clust_8="13000.00000" pt_clust_9="349.98573"></scales>
<clustering>
<clus scale="   78.842">  5  6 -1 -1</clus>
<clus scale="   91.934">  7  8 -1 -1</clus>
<clus scale="  116.779">  1  5  2 -1</clus>
<clus scale="  349.986">  2  9  1 -1</clus>
<clus scale="  116.779">  1  5  2 -1</clus>
</clustering>
</event>
<event>
 9    1  0.2802611E-005  0.1184197E+03  0.7546771E-02  0.1251173E+00
          1   -1    0    0  502    0  0.00000000000E+00  0.00000000000E+00  0.31472747358E+03  0.31472747358E+03  0.00000000000E+00 0. -1.
         -2   -1    0    0    0  501 -0.00000000000E+00 -0.00000000000E+00 -0.57543267263E+02  0.57543267263E+02  0.00000000000E+00 0.  1.
         23    2    1    2    0    0  0.16675069165E+02 -0.66614282832E+02  0.93739541546E+02  0.15051336016E+03  0.95664253136E+02 0.  0.
        -24    2    1    2    0    0 -0.41600272690E+02  0.58962399989E+02  0.16334585319E+03  0.19568389136E+03  0.80019811810E+02 0.  0.
         13    1    4    4    0    0 -0.59440262198E+02  0.54509012291E+02  0.15650890784E+03  0.17606650852E+03  0.00000000000E+00 0. -1.
        -14    1    4    4    0    0  0.17839989508E+02  0.44533876983E+01  0.68369453579E+01  0.19617382839E+02  0.00000000000E+00 0.  1.
        -11    1    3    3    0    0  0.50789239061E+02 -0.65988253952E+02  0.71776635736E+02  0.10993580810E+03  0.00000000000E+00 0.  1.
         11    1    3    3    0    0 -0.34114169895E+02 -0.62602887982E+00  0.21962905810E+02  0.40577552063E+02  0.00000000000E+00 0. -1.
         21    1    1    2  502  501  0.24925203525E+02  0.76518828427E+01  0.98811578573E-01  0.26073489324E+02  0.00000000000E+00 0.  1.
<scales pt_clust_5="13000.00000" pt_clust_6="13000.00000" pt_clust_7="13000.00000" pt_clust_8="13000.00000" pt_clust_9="26.07330"></scales>
<clustering>
<clus scale="   26.073">  2  9  1 -1</clus>
<clus scale="   80.020">  5  6 -1 -1</clus>
<clus scale="   95.664">  7  8 -1 -1</clus>
<clus scale="  106.183">  1  5  2 -1</clus>
<clus scale="  106.183">  1  5  2 -1</clus>
</clustering>
</event>
<event>
 9    1  0.2802611E-005  0.1137691E+03  0.7546771E-02  0.1257987E+00
         -2   -1    0    0    0  501 -0.00000000000E+00  0.00000000000E+00  0.36615818755E+03  0.36615818755E+03  0.00000000000E+00 0.  1.
          1   -1    0    0  502    0  0.00000000000E+00 -0.00000000000E+00 -0.20822052967E+03  0.20822052967E+03  0.00000000000E+00 0. -1.
         23    2    1    2    0    0 -0.92887749628E+02 -0.17885451410E+02  0.22941940389E+03  0.26492021970E+03  0.92743929833E+02 0.  0.
        -24    2    1    2    0    0  0.64270430866E+02  0.19375854659E+01 -0.17362456874E+03  0.20219041467E+03  0.81246725436E+02 0.  0.
         11    1    4    4    0    0  0.30049340987E+02 -0.29914914629E+02 -0.13514365632E+03  0.14163923487E+03  0.00000000000E+00 0. -1.
        -12    1    4    4    0    0  0.34221089879E+02  0.31852500094E+02 -0.38480912420E+02  0.60551179802E+02  0.00000000000E+00 0.  1.
        -13    1    3    3    0    0 -0.61066003861E+01  0.31300569250E+02  0.69055101718E+02  0.76063284684E+02  0.00000000000E+00 0.  1.
         13    1    3    3    0    0 -0.86781149242E+02 -0.49186020659E+02  0.16036430217E+03  0.18885693501E+03  0.00000000000E+00 0. -1.
         21    1    1    2  502  501  0.28617318762E+02  0.15947865944E+02  0.10214282273E+03  0.10726808285E+03  0.00000000000E+00 0. -1.
<scales pt_clust_5="13000.00000" pt_clust_6="13000.00000" pt_clust_7="13000.00000" pt_clust_8="13000.00000" pt_clust_9="32.76103"></scales>
<clustering>
<clus scale="   32.761">  1  9  2 -1</clus>
<clus scale="   81.247">  5  6 -1 -1</clus>
<clus scale="   92.744">  7  8 -1 -1</clus>
<clus scale="  104.609">  2  5  1 -1</clus>
<clus scale="  104.609">  2  5  1 -1</clus>
</clustering>
</event>
<event>
 9    1  0.2802611E-005  0.9035345E+02  0.7546771E-02  0.1308009E+00
         -2   -1    0    0    0  501 -0.00000000000E+00  0.00000000000E+00  0.41911451852E+03  0.41911451852E+03  0.00000000000E+00 0.  1.
          1   -1    0    0  502    0  0.00000000000E+00 -0.00000000000E+00 -0.85609304035E+02  0.85609304035E+02  0.00000000000E+00 0. -1.
        -24    2    1    2    0    0  0.40087004458E+02  0.11964691417E+01  0.34035541563E+03  0.35195253353E+03  0.80127257793E+02 0.  0.
         23    2    1    2    0    0 -0.89535708014E+01  0.27035311628E+01 -0.47149445002E+02  0.10169752131E+03  0.89620534287E+02 0.  0.
         13    1    3    3    0    0  0.28292361702E+02  0.40021957759E+02  0.18314684110E+03  0.18959161437E+03  0.00000000000E+00 0. -1.
        -14    1    3    3    0    0  0.11794642756E+02 -0.38825488617E+02  0.15720857453E+03  0.16236091916E+03  0.00000000000E+00 0.  1.
        -13    1    4    4    0    0  0.33221521235E+02  0.25704996923E+02 -0.23888727399E+02  0.48322744507E+02  0.00000000000E+00 0.  1.
         13    1    4    4    0    0 -0.42175092037E+02 -0.23001465760E+02 -0.23260717604E+02  0.53374776804E+02  0.00000000000E+00 0. -1.
         21    1    1    2  502  501 -0.31133433657E+02 -0.39000003046E+01  0.40299243857E+02  0.51073767720E+02  0.00000000000E+00 0. -1.
<scales pt_clust_5="13000.00000" pt_clust_6="13000.00000" pt_clust_7="13000.00000" pt_clust_8="13000.00000" pt_clust_9="31.37675"></scales>
<clustering>
<clus scale="   31.377">  1  9  2 -1</clus>
<clus scale="   80.127">  5  6 -1 -1</clus>
<clus scale="   80.946">  1  5  2 -1</clus>
<clus scale="   89.621">  7  8 -1 -1</clus>
<clus scale="   90.353">  2  5  1 -1</clus>
</clustering>
</event>
<event>
 9    1  0.2802611E-005  0.1076539E+03  0.7546771E-02  0.1270150E+00
         -2   -1    0    0    0  501 -0.00000000000E+00  0.00000000000E+00  0.40358192163E+03  0.40358192163E+03  0.00000000000E+00 0.  1.
          1   -1    0    0  502    0  0.00000000000E+00 -0.00000000000E+00 -0.24140709110E+03  0.24140709110E+03  0.00000000000E+00 0. -1.
        -24    2    1    2    0    0  0.99877642211E+01  0.33337447955E+02  0.23572847157E+03  0.25143437919E+03  0.80250818407E+02 0.  0.
         23    2    1    2    0    0 -0.12875628894E+02 -0.54697007726E+02 -0.22019301064E+03  0.24533967050E+03  0.92461059447E+02 0.  0.
         11    1    3    3    0    0 -0.23382856657E+02  0.25421352216E+02  0.40553800078E+02  0.53269257876E+02  0.00000000000E+00 0. -1.
        -12    1    3    3    0    0  0.33370620878E+02  0.79160957390E+01  0.19517467150E+03  0.19816512131E+03  0.00000000000E+00 0.  1.
        -11    1    4    4    0    0 -0.36727353259E+02 -0.59488987675E+02 -0.20515114409E+03  0.21673677596E+03  0.00000000000E+00 0. -1.
         11    1    4    4    0    0  0.23851724365E+02  0.47919799490E+01 -0.15041866555E+02  0.28602894548E+02  0.00000000000E+00 0.  1.
         21    1    1    2  502  501  0.28878646730E+01  0.21359559771E+02  0.14663936959E+03  0.14821496304E+03  0.00000000000E+00 0.  1.
<scales pt_clust_5="13000.00000" pt_clust_6="13000.00000" pt_clust_7="13000.00000" pt_clust_8="13000.00000" pt_clust_9="21.55390"></scales>
<clustering>
<clus scale="   21.554">  1  9  2 -1</clus>
<clus scale="   80.251">  5  6 -1 -1</clus>
<clus scale="   92.461">  7  8 -1 -1</clus>
<clus scale="   97.368">  1  5  2 -1</clus>
<clus scale="  107.654">  2  5  1 -1</clus>
</clustering>
</event>
<event>
 9    1  0.2802611E-005  0.1434281E+03  0.7546771E-02  0.1228865E+00
         -4   -1    0    0    0  501 -0.00000000000E+00  0.00000000000E+00  0.18650413094E+03  0.18650413094E+03  0.00000000000E+00 0.  1.
          3   -1    0    0  502    0  0.00000000000E+00 -0.00000000000E+00 -0.35662768733E+03  0.35662768733E+03  0.00000000000E+00 0. -1.
         23    2    1    2    0    0 -0.12147465627E+02 -0.19171902580E+02  0.55278063101E+02  0.10906204341E+03  0.91234545449E+02 0.  0.
        -24    2    1    2    0    0 -0.12366449743E+03  0.20020051743E+02 -0.25791053054E+03  0.29441864539E+03  0.66863940898E+02 0.  0.
         13    1    4    4    0    0 -0.68574706343E+02  0.34906537691E+02 -0.97796127604E+02  0.12443889785E+03  0.00000000000E+00 0. -1.
        -14    1    4    4    0    0 -0.55089791086E+02 -0.14886485948E+02 -0.16011440293E+03  0.16997974754E+03  0.00000000000E+00 0.  1.
        -11    1    3    3    0    0  0.31524299262E+02 -0.16269604189E+01 -0.56554994101E+01  0.32068880831E+02  0.00000000000E+00 0.  1.
         11    1    3    3    0    0 -0.43671764888E+02 -0.17544942161E+02  0.60933562511E+02  0.76993162581E+02  0.00000000000E+00 0. -1.
         21    1    1    2  502  501  0.13581196306E+03 -0.84814916297E+00  0.32508911053E+02  0.13965112948E+03  0.00000000000E+00 0.  1.
<scales pt_clust_5="13000.00000" pt_clust_6="13000.00000" pt_clust_7="13000.00000" pt_clust_8="13000.00000" pt_clust_9="126.88901"></scales>
<clustering>
<clus scale="   66.864">  5  6 -1 -1</clus>
<clus scale="   91.235">  7  8 -1 -1</clus>
<clus scale="   94.015">  1  7  2 -1</clus>
<clus scale="  126.889">  1  9  2 -1</clus>
<clus scale="  143.428">  2  5  1 -1</clus>
</clustering>
</event>
<event>
 9    1  0.2802611E-005  0.2020682E+03  0.7546771E-02  0.1148987E+00
         -2   -1    0    0    0  501 -0.00000000000E+00  0.00000000000E+00  0.18343406560E+03  0.18343406560E+03  0.00000000000E+00 0.  1.
          1   -1    0    0  502    0  0.00000000000E+00 -0.00000000000E+00 -0.51260851109E+03  0.51260851109E+03  0.00000000000E+00 0. -1.
         23    2    1    2    0    0  0.74832995290E+02  0.14032804247E+03 -0.71708017376E+01  0.18376707288E+03  0.91798583810E+02 0.  0.
        -24    2    1    2    0    0 -0.86685938776E+02 -0.16445797052E+03 -0.38976959963E+03  0.43937165979E+03  0.81032330468E+02 0.  0.
         13    1    4    4    0    0 -0.18085849203E+02 -0.29343665728E+02 -0.16319296653E+03  0.16679356398E+03  0.00000000000E+00 0. -1.
        -14    1    4    4    0    0 -0.68600089574E+02 -0.13511430480E+03 -0.22657663311E+03  0.27257809582E+03  0.00000000000E+00 0.  1.
        -13    1    3    3    0    0  0.84510944731E+02  0.86280610979E+02  0.20141165494E+02  0.12244227276E+03  0.00000000000E+00 0.  1.
         13    1    3    3    0    0 -0.96779494402E+01  0.54047431490E+02 -0.27311967232E+02  0.61324800123E+02  0.00000000000E+00 0. -1.
         21    1    1    2  502  501  0.11852943486E+02  0.24129928054E+02  0.67765955881E+02  0.72903844025E+02  0.00000000000E+00 0. -1.
<scales pt_clust_5="13000.00000" pt_clust_6="13000.00000" pt_clust_7="13000.00000" pt_clust_8="13000.00000" pt_clust_9="26.88393"></scales>
<clustering>
<clus scale="   26.884">  1  9  2 -1</clus>
<clus scale="   81.032">  5  6 -1 -1</clus>
<clus scale="   91.799">  7  8 -1 -1</clus>
<clus scale="  197.410">  2  5  1 -1</clus>
<clus scale="  197.410">  2  5  1 -1</clus>
</clustering>
</event>
<event>
 9    1  0.2802611E-005  0.1152747E+03  0.7546771E-02  0.1254719E+00
          1   -1    0    0  502    0  0.00000000000E+00  0.00000000000E+00  0.58149151687E+03  0.58149151687E+03  0.00000000000E+00 0. -1.
         -2   -1    0    0    0  501 -0.00000000000E+00 -0.00000000000E+00 -0.89543848637E+02  0.89543848637E+02  0.00000000000E+00 0.  1.
         23    2    1    2    0    0 -0.42202694508E+02 -0.58891224134E+02 -0.40820464008E+02  0.12339722088E+03  0.91166441940E+02 0.  0.
        -24    2    1    2    0    0  0.43453683758E+02  0.30095624445E+02  0.44105287769E+03  0.45150053776E+03  0.80815378736E+02 0.  0.
         11    1    4    4    0    0  0.60746565802E+02  0.43238463149E+02  0.35529489780E+03  0.36303467377E+03  0.00000000000E+00 0. -1.
        -12    1    4    4    0    0 -0.17292882044E+02 -0.13142838703E+02  0.85757979882E+02  0.88465863993E+02  0.00000000000E+00 0.  1.
        -11    1    3    3    0    0 -0.32267220860E+02  0.92180314935E+01  0.13035823446E+02  0.36001088033E+02  0.00000000000E+00 0. -1.
         11    1    3    3    0    0 -0.99354736480E+01 -0.68109255628E+02 -0.53856287454E+02  0.87396132850E+02  0.00000000000E+00 0.  1.
         21    1    1    2  502  501 -0.12509892505E+01  0.28795599689E+02  0.91715254553E+02  0.96137606863E+02  0.00000000000E+00 0. -1.
<scales pt_clust_5="13000.00000" pt_clust_6="13000.00000" pt_clust_7="13000.00000" pt_clust_8="13000.00000" pt_clust_9="28.82276"></scales>
<clustering>
<clus scale="   28.823">  1  9  2 -1</clus>
<clus scale="   80.815">  5  6 -1 -1</clus>
<clus scale="   91.166">  7  8 -1 -1</clus>
<clus scale="  107.276">  1  5  2 -1</clus>
<clus scale="   28.823">  1  5  2 -1</clus>
</clustering>
</event>
<event>
 9    1  0.2802611E-005  0.1377079E+03  0.7546771E-02  0.1219888E+00
         -2   -1    0    0    0  501 -0.00000000000E+00  0.00000000000E+00  0.13872516202E+03  0.13872516202E+03  0.00000000000E+00 0.  1.
          1   -1    0    0  502    0  0.00000000000E+00 -0.00000000000E+00 -0.47874695153E+03  0.47874695153E+03  0.00000000000E+00 0. -1.
         23    2    1    2    0    0  0.95068285874E+02 -0.77440445195E+02 -0.11651034840E+03  0.19184489966E+03  0.90525149584E+02 0.  0.
        -24    2    1    2    0    0 -0.82898307069E+02  0.52370154963E+02 -0.31056748284E+03  0.33421943393E+03  0.75071340521E+02 0.  0.
         11    1    4    4    0    0 -0.52356993031E+02  0.91150341581E+01 -0.24101523287E+03  0.24680494533E+03  0.00000000000E+00 0. -1.
        -12    1    4    4    0    0 -0.30541314038E+02  0.43255120805E+02 -0.69552249977E+02  0.87414488592E+02  0.00000000000E+00 0.  1.
        -11    1    3    3    0    0  0.12833039939E+02 -0.44322734645E+02 -0.86875700990E+02  0.98369604772E+02  0.00000000000E+00 0. -1.
         11    1    3    3    0    0  0.82235245936E+02 -0.33117710551E+02 -0.29634647415E+02  0.93475294884E+02  0.00000000000E+00 0.  1.
         21    1    1    2  502  501 -0.12169978805E+02  0.25070290232E+02  0.87056041733E+02  0.91407779968E+02  0.00000000000E+00 0.  1.
<scales pt_clust_5="13000.00000" pt_clust_6="13000.00000" pt_clust_7="13000.00000" pt_clust_8="13000.00000" pt_clust_9="27.86804"></scales>
<clustering>
<clus scale="   27.868">  1  9  2 -1</clus>
<clus scale="   75.071">  5  6 -1 -1</clus>
<clus scale="   90.525">  7  8 -1 -1</clus>
<clus scale="  128.080">  2  5  1 -1</clus>
<clus scale="  128.080">  2  5  1 -1</clus>
</clustering>
</event>
<event>
 9    1  0.2802611E-005  0.1103409E+03  0.7546771E-02  0.1263521E+00
          1   -1    0    0  502    0  0.00000000000E+00  0.00000000000E+00  0.24025581136E+03  0.24025581136E+03  0.00000000000E+00 0. -1.
         -2   -1    0    0    0  501 -0.00000000000E+00 -0.00000000000E+00 -0.29927540745E+03  0.29927540745E+03  0.00000000000E+00 0.  1.
         23    2    1    2    0    0 -0.10555056273E+03 -0.39902370988E+02  0.10970592748E+02  0.14604316883E+03  0.92060484215E+02 0.  0.
        -24    2    1    2    0    0  0.46232931118E+02 -0.32816110780E+02  0.13485543690E+03  0.16816985410E+03  0.82950165273E+02 0.  0.
         13    1    4    4    0    0 -0.80270708196E+01 -0.41509083515E+02  0.80222925722E+02  0.90681617164E+02  0.00000000000E+00 0. -1.
        -14    1    4    4    0    0  0.54260001937E+02  0.86929727343E+01  0.54632511179E+02  0.77488236933E+02  0.00000000000E+00 0.  1.
        -11    1    3    3    0    0 -0.11273905487E+03 -0.15378626786E+02  0.25556740721E+02  0.11661793881E+03  0.00000000000E+00 0. -1.
         11    1    3    3    0    0  0.71884921472E+01 -0.24523744202E+02 -0.14586147973E+02  0.29425230020E+02  0.00000000000E+00 0.  1.
         21    1    1    2  502  501  0.59317631609E+02  0.72718481768E+02 -0.20484562574E+03  0.22531819588E+03  0.00000000000E+00 0.  1.
<scales pt_clust_5="13000.00000" pt_clust_6="13000.00000" pt_clust_7="13000.00000" pt_clust_8="13000.00000" pt_clust_9="93.84327"></scales>
<clustering>
<clus scale="   82.950">  5  6 -1 -1</clus>
<clus scale="   92.060">  7  8 -1 -1</clus>
<clus scale="   93.843">  2  9  1 -1</clus>
<clus scale="  102.863">  1  5  2 -1</clus>
<clus scale="  102.863">  1  5  2 -1</clus>
</clustering>
</event>
<event>
 9    1  0.2802611E-005  0.1164252E+03  0.7546771E-02  0.1257674E+00
          1   -1    0    0  502    0  0.00000000000E+00  0.00000000000E+00  0.49162557481E+02  0.49162557481E+02  0.00000000000E+00 0. -1.
         -2   -1    0    0    0  501 -0.00000000000E+00 -0.00000000000E+00 -0.38791481179E+03  0.38791481179E+03  0.00000000000E+00 0.  1.
         23    2    1    2    0    0 -0.14492068932E+02  0.55783840606E+02 -0.15240478582E+03  0.18636816321E+03  0.90465554672E+02 0.  0.
        -24    2    1    2    0    0  0.21149407844E+02 -0.18764520329E+02 -0.82753149183E+02  0.14049789436E+03  0.10996440308E+03 0.  0.
         11    1    4    4    0    0  0.47230720791E+02 -0.18030722122E+02  0.32149845465E+01  0.50657517234E+02  0.00000000000E+00 0. -1.
        -12    1    4    4    0    0 -0.26081312947E+02 -0.73379820707E+00 -0.85968133729E+02  0.89840377124E+02  0.00000000000E+00 0.  1.
        -11    1    3    3    0    0  0.22361144694E+02  0.29337496751E+02 -0.13121685351E+03  0.13630323603E+03  0.00000000000E+00 0.  1.
         11    1    3    3    0    0 -0.36853213625E+02  0.26446343855E+02 -0.21187932314E+02  0.50064927180E+02  0.00000000000E+00 0. -1.
         21    1    1    2  502  501 -0.66573389119E+01 -0.37019320277E+02 -0.10359431930E+03  0.11021131170E+03  0.00000000000E+00 0. -1.
<scales pt_clust_5="13000.00000" pt_clust_6="13000.00000" pt_clust_7="13000.00000" pt_clust_8="13000.00000" pt_clust_9="37.61317"></scales>
<clustering>
<clus scale="   37.613">  2  9  1 -1</clus>
<clus scale="   90.466">  7  8 -1 -1</clus>
<clus scale="   98.217">  2  7  1 -1</clus>
<clus scale="  109.964">  5  6 -1 -1</clus>
<clus scale="  116.425">  1  5  2 -1</clus>
</clustering>
</event>
<event>
 9    1  0.2802611E-005  0.1118713E+03  0.7546771E-02  0.1261736E+00
          3   -1    0    0  502    0  0.00000000000E+00  0.00000000000E+00  0.37464230267E+03  0.37464230267E+03  0.00000000000E+00 0. -1.
         -4   -1    0    0    0  501 -0.00000000000E+00 -0.00000000000E+00 -0.58465561422E+02  0.58465561422E+02  0.00000000000E+00 0.  1.
        -24    2    1    2    0    0  0.27245233082E+02  0.57957441250E+02  0.13837368999E+03  0.17233048251E+03  0.80306596234E+02 0.  0.
         23    2    1    2    0    0 -0.62523838872E+02 -0.31040458003E+02  0.18256249034E+03  0.21614828487E+03  0.92294516151E+02 0.  0.
         11    1    3    3    0    0  0.48888072737E+02  0.62538746109E+02  0.11826240334E+03  0.14243291215E+03  0.00000000000E+00 0. -1.
        -12    1    3    3    0    0 -0.21642839654E+02 -0.45813048589E+01  0.20111286651E+02  0.29897570357E+02  0.00000000000E+00 0.  1.
        -13    1    4    4    0    0 -0.63807332941E+02 -0.45459067864E+01  0.17811321416E+03  0.18925210187E+03  0.00000000000E+00 0.  1.
         13    1    4    4    0    0  0.12834940694E+01 -0.26494551217E+02  0.44492761835E+01  0.26896182996E+02  0.00000000000E+00 0. -1.
         21    1    1    2  502  501  0.35278605790E+02 -0.26916983247E+02 -0.47594390767E+01  0.44629096719E+02  0.00000000000E+00 0.  1.
<scales pt_clust_5="13000.00000" pt_clust_6="13000.00000" pt_clust_7="13000.00000" pt_clust_8="13000.00000" pt_clust_9="44.37459"></scales>
<clustering>
<clus scale="   44.375">  2  9  1 -1</clus>
<clus scale="   80.307">  5  6 -1 -1</clus>
<clus scale="   92.295">  7  8 -1 -1</clus>
<clus scale="  102.206">  2  5  1 -1</clus>
<clus scale="  111.871">  1  5  2 -1</clus>
</clustering>
</event>
<event>
 9    1  0.2802611E-005  0.1115412E+03  0.7546771E-02  0.1259660E+00
          1   -1    0    0  502    0  0.00000000000E+00  0.00000000000E+00  0.52602332811E+03  0.52602332811E+03  0.00000000000E+00 0. -1.
         -2   -1    0    0    0  501 -0.00000000000E+00 -0.00000000000E+00 -0.42903533286E+02  0.42903533286E+02  0.00000000000E+00 0.  1.
        -24    2    1    2    0    0 -0.58606652022E+01  0.60864151980E+02  0.84464788536E+02  0.13306477426E+03  0.82662816633E+02 0.  0.
         23    2    1    2    0    0  0.41620035518E+02 -0.60328922834E+02  0.37711251109E+03  0.39411166037E+03  0.87967883546E+02 0.  0.
         11    1    3    3    0    0 -0.16343481926E+02 -0.12195785429E+02  0.44916346033E+02  0.49328741365E+02  0.00000000000E+00 0. -1.
        -12    1    3    3    0    0  0.10482816724E+02  0.73059937409E+02  0.39548442503E+02  0.83736032895E+02  0.00000000000E+00 0.  1.
        -13    1    4    4    0    0  0.14847852056E+02 -0.60774943120E+02  0.35161592460E+03  0.35713836374E+03  0.00000000000E+00 0. -1.
         13    1    4    4    0    0  0.26772183462E+02  0.44602028646E+00  0.25496586489E+02  0.36973296635E+02  0.00000000000E+00 0.  1.
         21    1    1    2  502  501 -0.35759370315E+02 -0.53522914581E+00  0.21542495202E+02  0.41750426766E+02  0.00000000000E+00 0. -1.
<scales pt_clust_5="13000.00000" pt_clust_6="13000.00000" pt_clust_7="13000.00000" pt_clust_8="13000.00000" pt_clust_9="35.76338"></scales>
<clustering>
<clus scale="   35.763">  2  9  1 -1</clus>
<clus scale="   82.663">  5  6 -1 -1</clus>
<clus scale="   87.968">  7  8 -1 -1</clus>
<clus scale="  107.407">  2  5  1 -1</clus>
<clus scale="  111.541">  1  5  2 -1</clus>
</clustering>
</event>
<event>
 9    1  0.2802611E-005  0.1496011E+03  0.7546771E-02  0.1202759E+00
          1   -1    0    0  502    0  0.00000000000E+00  0.00000000000E+00  0.12018415869E+04  0.12018415869E+04  0.00000000000E+00 0. -1.
         -2   -1    0    0    0  501 -0.00000000000E+00 -0.00000000000E+00 -0.31593879642E+02  0.31593879642E+02  0.00000000000E+00 0.  1.
         23    2    1    2    0    0  0.85633627117E+02 -0.58842854946E+02  0.22223155467E+03  0.26155284566E+03  0.90705168050E+02 0.  0.
        -24    2    1    2    0    0 -0.11248551650E+03  0.51816467606E+02  0.92214264706E+03  0.93393749774E+03  0.80958325193E+02 0.  0.
         11    1    4    4    0    0 -0.72430011153E+02 -0.71486157940E+00  0.31546812606E+03  0.32367693168E+03  0.00000000000E+00 0. -1.
        -12    1    4    4    0    0 -0.40055505351E+02  0.52531329185E+02  0.60667452100E+03  0.61026056605E+03  0.00000000000E+00 0.  1.
        -11    1    3    3    0    0  0.47216200707E+02  0.12051286888E+02  0.42884220768E+02  0.64912706889E+02  0.00000000000E+00 0.  1.
         11    1    3    3    0    0  0.38417426410E+02 -0.70894141834E+02  0.17934733391E+03  0.19664013877E+03  0.00000000000E+00 0. -1.
         21    1    1    2  502  501  0.26851889386E+02  0.70263873399E+01  0.25873505555E+02  0.37945123170E+02  0.00000000000E+00 0.  1.
<scales pt_clust_5="13000.00000" pt_clust_6="13000.00000" pt_clust_7="13000.00000" pt_clust_8="13000.00000" pt_clust_9="27.75597"></scales>
<clustering>
<clus scale="   27.756">  2  9  1 -1</clus>
<clus scale="   80.958">  5  6 -1 -1</clus>
<clus scale="   90.705">  7  8 -1 -1</clus>
<clus scale="  143.900">  1  5  2 -1</clus>
<clus scale="  143.900">  1  5  2 -1</clus>
</clustering>
</event>
<event>
 9    1  0.2802611E-005  0.9110106E+02  0.7546771E-02  0.1306894E+00
         -2   -1    0    0    0  501 -0.00000000000E+00  0.00000000000E+00  0.21617357707E+03  0.21617357707E+03  0.00000000000E+00 0.  1.
          1   -1    0    0  502    0  0.00000000000E+00 -0.00000000000E+00 -0.10882681945E+03  0.10882681945E+03  0.00000000000E+00 0. -1.
        -24    2    1    2    0    0  0.77361229202E+01  0.17757067556E+02  0.33306353422E+02  0.89085430540E+02  0.80322722254E+02 0.  0.
         23    2    1    2    0    0  0.76490879064E+01  0.16510182298E+02 -0.50707423781E+02  0.10563461554E+03  0.90864374248E+02 0.  0.
         13    1    3    3    0    0  0.21908853467E+02  0.41819976558E+02  0.38204082331E+02  0.60732694707E+02  0.00000000000E+00 0. -1.
        -14    1    3    3    0    0 -0.14172730547E+02 -0.24062909002E+02 -0.48977289095E+01  0.28352735834E+02  0.00000000000E+00 0.  1.
        -13    1    4    4    0    0 -0.41546868514E+02  0.84208904652E+01 -0.28327988580E+02  0.50985572631E+02  0.00000000000E+00 0.  1.
         13    1    4    4    0    0  0.49195956420E+02  0.80892918328E+01 -0.22379435201E+02  0.54649042904E+02  0.00000000000E+00 0. -1.
         21    1    1    2  502  501 -0.15385210827E+02 -0.34267249854E+02  0.12474782798E+03  0.13028035044E+03  0.00000000000E+00 0.  1.
<scales pt_clust_5="13000.00000" pt_clust_6="13000.00000" pt_clust_7="13000.00000" pt_clust_8="13000.00000" pt_clust_9="37.56260"></scales>
<clustering>
<clus scale="   37.563">  1  9  2 -1</clus>
<clus scale="   80.323">  5  6 -1 -1</clus>
<clus scale="   80.590">  1  5  2 -1</clus>
<clus scale="   90.864">  7  8 -1 -1</clus>
<clus scale="   91.101">  2  5  1 -1</clus>
</clustering>
</event>
<event>
 9    1  0.2802611E-005  0.1153672E+03  0.7546771E-02  0.1256262E+00
          3   -1    0    0  502    0  0.00000000000E+00  0.00000000000E+00  0.28723406882E+03  0.28723406882E+03  0.00000000000E+00 0. -1.
         -4   -1    0    0    0  501 -0.00000000000E+00 -0.00000000000E+00 -0.10142302891E+03  0.10142302891E+03  0.00000000000E+00 0.  1.
        -24    2    1    2    0    0  0.21374662049E+02 -0.46876417199E+02  0.12094015154E+02  0.99689593896E+02  0.84483579834E+02 0.  0.
         23    2    1    2    0    0  0.30460050127E+02  0.62530975061E+02  0.19628816314E+03  0.23030440763E+03  0.98352120906E+02 0.  0.
         11    1    3    3    0    0  0.35311829531E+02 -0.13075405940E+01  0.32352552586E+02  0.47909525421E+02  0.00000000000E+00 0. -1.
        -12    1    3    3    0    0 -0.13937167482E+02 -0.45568876605E+02 -0.20258537432E+02  0.51780068476E+02  0.00000000000E+00 0.  1.
        -13    1    4    4    0    0  0.23872431088E+02  0.10356527380E+02 -0.10856836943E+01  0.26044756373E+02  0.00000000000E+00 0.  1.
         13    1    4    4    0    0  0.65876190387E+01  0.52174447681E+02  0.19737384683E+03  0.20425965125E+03  0.00000000000E+00 0. -1.
         21    1    1    2  502  501 -0.51834712176E+02 -0.15654557862E+02 -0.22571138381E+02  0.58663096202E+02  0.00000000000E+00 0.  1.
<scales pt_clust_5="13000.00000" pt_clust_6="13000.00000" pt_clust_7="13000.00000" pt_clust_8="13000.00000" pt_clust_9="54.14705"></scales>
<clustering>
<clus scale="   54.147">  2  9  1 -1</clus>
<clus scale="   84.484">  5  6 -1 -1</clus>
<clus scale="   98.352">  7  8 -1 -1</clus>
<clus scale="  103.797">  2  5  1 -1</clus>
<clus scale="  115.367">  1  5  2 -1</clus>
</clustering>
</event>
<event>
 9    1  0.2802611E-005  0.1137340E+03  0.7546771E-02  0.1255365E+00
         -2   -1    0    0    0  501 -0.00000000000E+00  0.00000000000E+00  0.24542367422E+03  0.24542367422E+03  0.00000000000E+00 0.  1.
          1   -1    0    0  502    0  0.00000000000E+00 -0.00000000000E+00 -0.81448522529E+02  0.81448522529E+02  0.00000000000E+00 0. -1.
        -24    2    1    2    0    0 -0.20302898157E+02  0.47762815622E+02  0.11174505344E+03  0.14709455399E+03  0.80351456848E+02 0.  0.
         23    2    1    2    0    0  0.27728175308E+02 -0.82872014676E+02  0.71299241252E+01  0.12214244253E+03  0.85037156148E+02 0.  0.
         11    1    3    3    0    0 -0.41769061385E+02  0.83580633342E+01  0.24897491114E+02  0.49339606560E+02  0.00000000000E+00 0. -1.
        -12    1    3    3    0    0  0.21466163229E+02  0.39404752288E+02  0.86847562322E+02  0.97754947434E+02  0.00000000000E+00 0.  1.
        -13    1    4    4    0    0  0.29552792821E+02 -0.26340619734E+02  0.40366647263E+02  0.56539030967E+02  0.00000000000E+00 0.  1.
         13    1    4    4    0    0 -0.18246175129E+01 -0.56531394942E+02 -0.33236723137E+02  0.65603411559E+02  0.00000000000E+00 0. -1.
         21    1    1    2  502  501 -0.74252771514E+01  0.35109199054E+02  0.45100174133E+02  0.57635200232E+02  0.00000000000E+00 0. -1.
<scales pt_clust_5="13000.00000" pt_clust_6="13000.00000" pt_clust_7="13000.00000" pt_clust_8="13000.00000" pt_clust_9="35.88580"></scales>
<clustering>
<clus scale="   35.886">  1  9  2 -1</clus>
<clus scale="   80.351">  5  6 -1 -1</clus>
<clus scale="   85.037">  7  8 -1 -1</clus>
<clus scale="  110.274">  1  5  2 -1</clus>
<clus scale="  113.734">  2  5  1 -1</clus>
</clustering>
</event>
<event>
 9    1  0.2802611E-005  0.9575909E+02  0.7546771E-02  0.1297672E+00
          1   -1    0    0  502    0  0.00000000000E+00  0.00000000000E+00  0.10766053881E+03  0.10766053881E+03  0.00000000000E+00 0. -1.
         -2   -1    0    0    0  501 -0.00000000000E+00 -0.00000000000E+00 -0.13938335462E+03  0.13938335462E+03  0.00000000000E+00 0.  1.
         23    2    1    2    0    0  0.12920270598E+02 -0.17273733042E+01 -0.15803175002E+02  0.95925851155E+02  0.93712919967E+02 0.  0.
        -24    2    1    2    0    0  0.30291729004E+02 -0.34842699815E+02 -0.20053641858E+02  0.94357694122E+02  0.79809919883E+02 0.  0.
         13    1    4    4    0    0  0.24456341377E+02 -0.15189530584E+02  0.29201180976E+02  0.41006626822E+02  0.00000000000E+00 0. -1.
        -14    1    4    4    0    0  0.58353876275E+01 -0.19653169231E+02 -0.49254822834E+02  0.53351067299E+02  0.00000000000E+00 0.  1.
        -11    1    3    3    0    0 -0.35277996545E+02  0.14108927428E+02  0.95989171897E+01  0.39188494288E+02  0.00000000000E+00 0. -1.
         11    1    3    3    0    0  0.48198267143E+02 -0.15836300732E+02 -0.25402092191E+02  0.56737356866E+02  0.00000000000E+00 0.  1.
         21    1    1    2  502  501 -0.43211999603E+02  0.36570073119E+02  0.41340010449E+01  0.56760348151E+02  0.00000000000E+00 0. -1.
<scales pt_clust_5="13000.00000" pt_clust_6="13000.00000" pt_clust_7="13000.00000" pt_clust_8="13000.00000" pt_clust_9="56.60960"></scales>
<clustering>
<clus scale="   56.610">  1  9  2 -1</clus>
<clus scale="   79.810">  5  6 -1 -1</clus>
<clus scale="   82.203">  1  5  2 -1</clus>
<clus scale="   93.713">  7  8 -1 -1</clus>
<clus scale="   56.610">  1  5  2 -1</clus>
</clustering>
</event>
<event>
 9    1  0.2802611E-005  0.1265942E+03  0.7546771E-02  0.1235501E+00
          1   -1    0    0  502    0  0.00000000000E+00  0.00000000000E+00  0.44725590515E+03  0.44725590515E+03  0.00000000000E+00 0. -1.
         -2   -1    0    0    0  501 -0.00000000000E+00 -0.00000000000E+00 -0.96910930487E+02  0.96910930487E+02  0.00000000000E+00 0.  1.
        -24    2    1    2    0    0  0.39013083207E+02 -0.28086183175E+02 -0.37702505601E+02  0.10019333360E+03  0.79412661599E+02 0.  0.
         23    2    1    2    0    0 -0.60053451451E+02  0.75056949692E+02  0.36413823453E+03  0.38722315372E+03  0.90028629902E+02 0.  0.
         11    1    3    3    0    0  0.20821159481E+02  0.17074997226E+02  0.12998613807E+02  0.29900504566E+02  0.00000000000E+00 0. -1.
        -12    1    3    3    0    0  0.18191923726E+02 -0.45161180401E+02 -0.50701119408E+02  0.70292829032E+02  0.00000000000E+00 0.  1.
        -13    1    4    4    0    0  0.87176983378E+01  0.52100199222E+02  0.97344877868E+02  0.11075402598E+03  0.00000000000E+00 0.  1.
         13    1    4    4    0    0 -0.68771149789E+02  0.22956750470E+02  0.26679335666E+03  0.27646912774E+03  0.00000000000E+00 0. -1.
         21    1    1    2  502  501  0.21040368244E+02 -0.46970766516E+02  0.23909245739E+02  0.56750348323E+02  0.00000000000E+00 0.  1.
<scales pt_clust_5="13000.00000" pt_clust_6="13000.00000" pt_clust_7="13000.00000" pt_clust_8="13000.00000" pt_clust_9="51.46795"></scales>
<clustering>
<clus scale="   51.468">  2  9  1 -1</clus>
<clus scale="   79.413">  5  6 -1 -1</clus>
<clus scale="   90.029">  7  8 -1 -1</clus>
<clus scale="  119.278">  2  5  1 -1</clus>
<clus scale="  126.594">  1  5  2 -1</clus>
</clustering>
</event>
<event>
 9    1  0.2802611E-005  0.1665157E+03  0.7546771E-02  0.1183389E+00
         -2   -1    0    0    0  501 -0.00000000000E+00  0.00000000000E+00  0.21231411544E+03  0.21231411544E+03  0.00000000000E+00 0.  1.
          1   -1    0    0  502    0  0.00000000000E+00 -0.00000000000E+00 -0.32425586591E+03  0.32425586591E+03  0.00000000000E+00 0. -1.
         23    2    1    2    0    0 -0.15022986755E+02 -0.19251712074E+03 -0.32339643193E+02  0.21604259341E+03  0.91323697552E+02 0.  0.
        -24    2    1    2    0    0 -0.27765946953E+02  0.12060750853E+03 -0.15113517455E+03  0.21044167183E+03  0.78273477847E+02 0.  0.
         11    1    4    4    0    0 -0.20075320087E+02  0.11140828070E+03 -0.15966722947E+03  0.19572543946E+03  0.00000000000E+00 0. -1.
        -12    1    4    4    0    0 -0.76906268654E+01  0.91992278281E+01  0.85320549177E+01  0.14716232376E+02  0.00000000000E+00 0.  1.
        -13    1    3    3    0    0 -0.11382747944E+02 -0.28660612323E+02  0.27741943015E+02  0.41480273043E+02  0.00000000000E+00 0.  1.
         13    1    3    3    0    0 -0.36402388109E+01 -0.16385650842E+03 -0.60081586208E+02  0.17456232036E+03  0.00000000000E+00 0. -1.
         21    1    1    2  502  501  0.42788933708E+02  0.71909612214E+02  0.71533067274E+02  0.11008571610E+03  0.00000000000E+00 0. -1.
<scales pt_clust_5="13000.00000" pt_clust_6="13000.00000" pt_clust_7="13000.00000" pt_clust_8="13000.00000" pt_clust_9="83.67727"></scales>
<clustering>
<clus scale="   78.273">  5  6 -1 -1</clus>
<clus scale="   83.677">  1  9  2 -1</clus>
<clus scale="   91.324">  7  8 -1 -1</clus>
<clus scale="  159.732">  2  5  1 -1</clus>
<clus scale="  159.732">  2  5  1 -1</clus>
</clustering>
</event>
<event>
 9    1  0.2802611E-005  0.8791284E+02  0.7546771E-02  0.1309679E+00
         -2   -1    0    0    0  501 -0.00000000000E+00  0.00000000000E+00  0.91518760557E+02  0.91518760557E+02  0.00000000000E+00 0.  1.
          1   -1    0    0  502    0  0.00000000000E+00 -0.00000000000E+00 -0.32753366213E+03  0.32753366213E+03  0.00000000000E+00 0. -1.
        -24    2    1    2    0    0 -0.46339006083E+02  0.94316235491E+01 -0.12344224578E+03  0.15491400389E+03  0.80771910662E+02 0.  0.
         23    2    1    2    0    0  0.14633920339E+02  0.12268195509E+02 -0.17268574568E+03  0.19279643827E+03  0.83578942331E+02 0.  0.
         11    1    3    3    0    0 -0.70412737098E+01  0.37730586444E+02 -0.84370513288E+02  0.92690669441E+02  0.00000000000E+00 0. -1.
        -12    1    3    3    0    0 -0.39297732373E+02 -0.28298962895E+02 -0.39071732491E+02  0.62223334453E+02  0.00000000000E+00 0.  1.
        -13    1    4    4    0    0 -0.32316156394E+02 -0.99142244817E+01 -0.67252027224E+02  0.75269256519E+02  0.00000000000E+00 0.  1.
         13    1    4    4    0    0  0.46950076733E+02  0.22182419990E+02 -0.10543371846E+03  0.11752718175E+03  0.00000000000E+00 0. -1.
         21    1    1    2  502  501  0.31705085744E+02 -0.21699819058E+02  0.60113089889E+02  0.71341980525E+02  0.00000000000E+00 0.  1.
<scales pt_clust_5="13000.00000" pt_clust_6="13000.00000" pt_clust_7="13000.00000" pt_clust_8="13000.00000" pt_clust_9="38.41998"></scales>
<clustering>
<clus scale="   38.420">  1  9  2 -1</clus>
<clus scale="   80.772">  5  6 -1 -1</clus>
<clus scale="   83.579">  7  8 -1 -1</clus>
<clus scale="   85.249">  1  5  2 -1</clus>
<clus scale="   87.913">  2  5  1 -1</clus>
</clustering>
</event>
<event>
 9    1  0.2802611E-005  0.9024786E+02  0.7546771E-02  0.1308074E+00
         -2   -1    0    0    0  501 -0.00000000000E+00  0.00000000000E+00  0.16601318597E+03  0.16601318597E+03  0.00000000000E+00 0.  1.
          1   -1    0    0  502    0  0.00000000000E+00 -0.00000000000E+00 -0.20749628652E+03  0.20749628652E+03  0.00000000000E+00 0. -1.
        -24    2    1    2    0    0  0.14581146457E+02  0.20911616158E+02  0.11034867517E+03  0.13889470864E+03  0.80405251406E+02 0.  0.
         23    2    1    2    0    0  0.11214728412E+02 -0.45644570551E+01 -0.17453560017E+03  0.19656058648E+03  0.89592321255E+02 0.  0.
         13    1    3    3    0    0  0.40832128370E+02  0.56557361931E+01  0.97630991743E+02  0.10597669842E+03  0.00000000000E+00 0. -1.
        -14    1    3    3    0    0 -0.26250981914E+02  0.15255879965E+02  0.12717683422E+02  0.32918010216E+02  0.00000000000E+00 0.  1.
        -13    1    4    4    0    0  0.34832141110E+02  0.17110177510E+02 -0.31517030013E+02  0.49993593686E+02  0.00000000000E+00 0.  1.
         13    1    4    4    0    0 -0.23617412699E+02 -0.21674634565E+02 -0.14301857016E+03  0.14656699279E+03  0.00000000000E+00 0. -1.
         21    1    1    2  502  501 -0.25795874868E+02 -0.16347159103E+02  0.22703824452E+02  0.38054177375E+02  0.00000000000E+00 0.  1.
<scales pt_clust_5="13000.00000" pt_clust_6="13000.00000" pt_clust_7="13000.00000" pt_clust_8="13000.00000" pt_clust_9="30.53943"></scales>
<clustering>
<clus scale="   30.539">  1  9  2 -1</clus>
<clus scale="   80.405">  5  6 -1 -1</clus>
<clus scale="   81.135">  1  5  2 -1</clus>
<clus scale="   89.592">  7  8 -1 -1</clus>
<clus scale="   90.248">  2  5  1 -1</clus>
</clustering>
</event>
<event>
 9    1  0.2802611E-005  0.1406205E+03  0.7546771E-02  0.1226465E+00
          1   -1    0    0  502    0  0.00000000000E+00  0.00000000000E+00  0.46321560644E+03  0.46321560644E+03  0.00000000000E+00 0. -1.
         -2   -1    0    0    0  501 -0.00000000000E+00 -0.00000000000E+00 -0.82839591882E+02  0.82839591882E+02  0.00000000000E+00 0.  1.
        -24    2    1    2    0    0 -0.57935245997E+02  0.32837557661E+02  0.36994930265E+02  0.11118308145E+03  0.80983052626E+02 0.  0.
         23    2    1    2    0    0  0.76108517924E+02  0.80105977434E+02  0.12833051523E+03  0.19128792776E+03  0.88954348107E+02 0.  0.
         11    1    3    3    0    0 -0.27130351894E+02 -0.90685137437E+01  0.49970235259E+02  0.57578801197E+02  0.00000000000E+00 0. -1.
        -12    1    3    3    0    0 -0.30804894103E+02  0.41906071405E+02 -0.12975304994E+02  0.53604280249E+02  0.00000000000E+00 0.  1.
        -13    1    4    4    0    0  0.91226846993E+01  0.57543046313E+02  0.98767359728E+02  0.11467090696E+03  0.00000000000E+00 0.  1.
         13    1    4    4    0    0  0.66985833225E+02  0.22562931122E+02  0.29563155502E+02  0.76617020804E+02  0.00000000000E+00 0. -1.
         21    1    1    2  502  501 -0.18173271927E+02 -0.11294353510E+03  0.21505056907E+03  0.24358418912E+03  0.00000000000E+00 0. -1.
<scales pt_clust_5="13000.00000" pt_clust_6="13000.00000" pt_clust_7="13000.00000" pt_clust_8="13000.00000" pt_clust_9="108.90932"></scales>
<clustering>
<clus scale="   80.983">  5  6 -1 -1</clus>
<clus scale="   88.954">  7  8 -1 -1</clus>
<clus scale="  104.848">  2  5  1 -1</clus>
<clus scale="  108.909">  1  9  2 -1</clus>
<clus scale="  108.909">  1  5  2 -1</clus>
</clustering>
</event>
<event>
 9    1  0.2802611E-005  0.9931444E+02  0.7546771E-02  0.1285233E+00
         -2   -1    0    0    0  501 -0.00000000000E+00  0.00000000000E+00  0.52385728385E+02  0.52385728385E+02  0.00000000000E+00 0.  1.
          1   -1    0    0  502    0  0.00000000000E+00 -0.00000000000E+00 -0.70818734780E+03  0.70818734780E+03  0.00000000000E+00 0. -1.
         23    2    1    2    0    0 -0.19468137912E+02 -0.85642485851E+00 -0.30400010909E+02  0.98545586915E+02  0.91691494588E+02 0.  0.
        -24    2    1    2    0    0  0.69053055633E+01  0.41176130070E+02 -0.60968665881E+03  0.61696682984E+03  0.84776708180E+02 0.  0.
         13    1    4    4    0    0 -0.36458107234E+02  0.34688439722E+02 -0.29996257121E+03  0.30415460798E+03  0.00000000000E+00 0. -1.
        -14    1    4    4    0    0  0.43363412797E+02  0.64876903477E+01 -0.30972408761E+03  0.31281222185E+03  0.00000000000E+00 0.  1.
        -13    1    3    3    0    0  0.30210492458E+02  0.40166668523E+00  0.12690969293E+02  0.32770350811E+02  0.00000000000E+00 0.  1.
         13    1    3    3    0    0 -0.49678630370E+02 -0.12580915437E+01 -0.43090980202E+02  0.65775236104E+02  0.00000000000E+00 0. -1.
         21    1    1    2  502  501  0.12562832348E+02 -0.40319705211E+02 -0.15714949693E+02  0.45060659436E+02  0.00000000000E+00 0.  1.
<scales pt_clust_5="13000.00000" pt_clust_6="13000.00000" pt_clust_7="13000.00000" pt_clust_8="13000.00000" pt_clust_9="42.23154"></scales>
<clustering>
<clus scale="   42.232">  1  9  2 -1</clus>
<clus scale="   84.777">  5  6 -1 -1</clus>
<clus scale="   91.691">  7  8 -1 -1</clus>
<clus scale="   92.968">  2  5  1 -1</clus>
<clus scale="   92.968">  2  5  1 -1</clus>
</clustering>
</event>
<event>
 9    1  0.2802611E-005  0.1044922E+03  0.7546771E-02  0.1274944E+00
         -4   -1    0    0    0  501 -0.00000000000E+00  0.00000000000E+00  0.33963635620E+03  0.33963635620E+03  0.00000000000E+00 0.  1.
          3   -1    0    0  502    0  0.00000000000E+00 -0.00000000000E+00 -0.26186344497E+03  0.26186344497E+03  0.00000000000E+00 0. -1.
         23    2    1    2    0    0 -0.50754634805E+02 -0.22050395754E+00  0.19853260571E+03  0.22421238762E+03  0.90994052852E+02 0.  0.
        -24    2    1    2    0    0  0.21981028004E+02  0.47925397604E+02 -0.23260623287E+03  0.25233412037E+03  0.82382276045E+02 0.  0.
         13    1    4    4    0    0  0.48481196350E+02  0.51818389166E+02 -0.17286717907E+03  0.18686528156E+03  0.00000000000E+00 0. -1.
        -14    1    4    4    0    0 -0.26500168346E+02 -0.38929915619E+01 -0.59739053802E+02  0.65468838808E+02  0.00000000000E+00 0.  1.
        -11    1    3    3    0    0  0.23408228564E+02 -0.15709410532E+02  0.60786235236E+02  0.67005202320E+02  0.00000000000E+00 0. -1.
         11    1    3    3    0    0 -0.74162863369E+02  0.15488906574E+02  0.13774637047E+03  0.15720718530E+03  0.00000000000E+00 0.  1.
         21    1    1    2  502  501  0.28773606801E+02 -0.47704893646E+02  0.11184653840E+03  0.12495329318E+03  0.00000000000E+00 0. -1.
<scales pt_clust_5="13000.00000" pt_clust_6="13000.00000" pt_clust_7="13000.00000" pt_clust_8="13000.00000" pt_clust_9="55.71066"></scales>
<clustering>
<clus scale="   55.711">  1  9  2 -1</clus>
<clus scale="   82.382">  5  6 -1 -1</clus>
<clus scale="   90.994">  7  8 -1 -1</clus>
<clus scale="   97.085">  2  5  1 -1</clus>
<clus scale="   97.085">  2  5  1 -1</clus>
</clustering>
</event>
<event>
 9    1  0.2802611E-005  0.1184999E+03  0.7546771E-02  0.1250282E+00
          1   -1    0    0  502    0  0.00000000000E+00  0.00000000000E+00  0.43990442819E+03  0.43990442819E+03  0.00000000000E+00 0. -1.
         -2   -1    0    0    0  501 -0.00000000000E+00 -0.00000000000E+00 -0.31462030026E+03  0.31462030026E+03  0.00000000000E+00 0.  1.
         23    2    1    2    0    0  0.64605813732E+01  0.87697776383E+02  0.42160644518E+02  0.13586159899E+03  0.94595005359E+02 0.  0.
        -24    2    1    2    0    0 -0.29831745731E+02 -0.62614616234E+02  0.34164750717E+03  0.35787576951E+03  0.80879688585E+02 0.  0.
         13    1    4    4    0    0 -0.41469542564E+02 -0.66931994044E+02  0.18928346394E+03  0.20500693771E+03  0.00000000000E+00 0. -1.
        -14    1    4    4    0    0  0.11637796834E+02  0.43173778107E+01  0.15236404323E+03  0.15286883180E+03  0.00000000000E+00 0.  1.
        -11    1    3    3    0    0  0.46228744713E+02  0.55790620805E+02  0.47259772909E+01  0.72608712073E+02  0.00000000000E+00 0.  1.
         11    1    3    3    0    0 -0.39768163340E+02  0.31907155579E+02  0.37434667227E+02  0.63252886914E+02  0.00000000000E+00 0. -1.
         21    1    1    2  502  501  0.23371164357E+02 -0.25083160150E+02 -0.25852402377E+03  0.26078735995E+03  0.00000000000E+00 0.  1.
<scales pt_clust_5="13000.00000" pt_clust_6="13000.00000" pt_clust_7="13000.00000" pt_clust_8="13000.00000" pt_clust_9="34.28376"></scales>
<clustering>
<clus scale="   34.284">  2  9  1 -1</clus>
<clus scale="   80.880">  5  6 -1 -1</clus>
<clus scale="   94.595">  7  8 -1 -1</clus>
<clus scale="  107.868">  1  5  2 -1</clus>
<clus scale="  107.868">  1  5  2 -1</clus>
</clustering>
</event>
<event>
 9    1  0.2802611E-005  0.8598649E+02  0.7546771E-02  0.1317098E+00
         -2   -1    0    0    0  501 -0.00000000000E+00  0.00000000000E+00  0.23800837399E+03  0.23800837399E+03  0.00000000000E+00 0.  1.
          1   -1    0    0  502    0  0.00000000000E+00 -0.00000000000E+00 -0.15617585349E+03  0.15617585349E+03  0.00000000000E+00 0. -1.
        -24    2    1    2    0    0 -0.24393796079E+01  0.20303817566E+02  0.17377945587E+03  0.19294823966E+03  0.81311305032E+02 0.  0.
         23    2    1    2    0    0  0.29515207469E+02  0.32532548119E+01 -0.12752179420E+03  0.15070276416E+03  0.74617584998E+02 0.  0.
         13    1    3    3    0    0  0.29208161606E+02  0.32097667976E+02  0.13353431649E+03  0.14040936818E+03  0.00000000000E+00 0. -1.
        -14    1    3    3    0    0 -0.31647541214E+02 -0.11793850410E+02  0.40245139380E+02  0.52538871477E+02  0.00000000000E+00 0.  1.
        -11    1    4    4    0    0  0.49135070011E+02  0.18118167015E+02 -0.10501811351E+03  0.11735129844E+03  0.00000000000E+00 0. -1.
         11    1    4    4    0    0 -0.19619862542E+02 -0.14864912204E+02 -0.22503680690E+02  0.33351465719E+02  0.00000000000E+00 0.  1.
         21    1    1    2  502  501 -0.27075827861E+02 -0.23557072378E+02  0.35574858831E+02  0.50533223668E+02  0.00000000000E+00 0. -1.
<scales pt_clust_5="13000.00000" pt_clust_6="13000.00000" pt_clust_7="13000.00000" pt_clust_8="13000.00000" pt_clust_9="35.88922"></scales>
<clustering>
<clus scale="   35.889">  1  9  2 -1</clus>
<clus scale="   74.618">  7  8 -1 -1</clus>
<clus scale="   79.686">  2  7  1 -1</clus>
<clus scale="   81.311">  5  6 -1 -1</clus>
<clus scale="   79.686">  2  5  1 -1</clus>
</clustering>
</event>
<event>
 9    1  0.2802611E-005  0.1563439E+03  0.7546771E-02  0.1194416E+00
         -2   -1    0    0    0  501 -0.00000000000E+00  0.00000000000E+00  0.73448919255E+02  0.73448919255E+02  0.00000000000E+00 0.  1.
          1   -1    0    0  502    0  0.00000000000E+00 -0.00000000000E+00 -0.58165108775E+03  0.58165108775E+03  0.00000000000E+00 0. -1.
        -24    2    1    2    0    0  0.11792387385E+03  0.33915641388E+02 -0.77329914063E+02  0.16571092882E+03  0.80149145763E+02 0.  0.
         23    2    1    2    0    0 -0.13140487094E+03  0.34778923376E+01 -0.41859683296E+03  0.44778740010E+03  0.89503694255E+02 0.  0.
         13    1    3    3    0    0  0.21837337738E+02  0.25859637596E+02  0.10339249990E+02  0.35390539222E+02  0.00000000000E+00 0. -1.
        -14    1    3    3    0    0  0.96086536110E+02  0.80560037924E+01 -0.87669164052E+02  0.13032038960E+03  0.00000000000E+00 0.  1.
        -11    1    4    4    0    0 -0.59986015956E+02  0.45803852028E+02 -0.21775202444E+03  0.23046097092E+03  0.00000000000E+00 0.  1.
         11    1    4    4    0    0 -0.71418854987E+02 -0.42325959691E+02 -0.20084480852E+03  0.21732642918E+03  0.00000000000E+00 0. -1.
         21    1    1    2  502  501  0.13480997095E+02 -0.37393533726E+02 -0.12275421477E+02  0.41601678087E+02  0.00000000000E+00 0. -1.
<scales pt_clust_5="13000.00000" pt_clust_6="13000.00000" pt_clust_7="13000.00000" pt_clust_8="13000.00000" pt_clust_9="39.74939"></scales>
<clustering>
<clus scale="   39.749">  1  9  2 -1</clus>
<clus scale="   80.149">  5  6 -1 -1</clus>
<clus scale="   89.504">  7  8 -1 -1</clus>
<clus scale="  151.183">  1  5  2 -1</clus>
<clus scale="  156.344">  2  5  1 -1</clus>
</clustering>
</event>
<event>
 9    1  0.2802611E-005  0.8748804E+02  0.7546771E-02  0.1309920E+00
         -2   -1    0    0    0  501 -0.00000000000E+00  0.00000000000E+00  0.27940658747E+02  0.27940658747E+02  0.00000000000E+00 0.  1.
          1   -1    0    0  502    0  0.00000000000E+00 -0.00000000000E+00 -0.66443474604E+03  0.66443474604E+03  0.00000000000E+00 0. -1.
         23    2    1    2    0    0 -0.38099439143E+02  0.32769085557E+02 -0.11789275237E+03  0.15361248515E+03  0.84691878606E+02 0.  0.
        -24    2    1    2    0    0 -0.11644695843E+01 -0.18508999955E+02 -0.45318923599E+03  0.46115011620E+03  0.83276689345E+02 0.  0.
         13    1    4    4    0    0 -0.17432185194E+02 -0.48308589110E+02 -0.27598892309E+03  0.28072671146E+03  0.00000000000E+00 0. -1.
        -14    1    4    4    0    0  0.16267715609E+02  0.29799589155E+02 -0.17720031290E+03  0.18042340474E+03  0.00000000000E+00 0.  1.
        -11    1    3    3    0    0  0.27003074314E+02  0.52151805663E+01 -0.38401048799E+02  0.47233512251E+02  0.00000000000E+00 0.  1.
         11    1    3    3    0    0 -0.65102513457E+02  0.27553904991E+02 -0.79491703569E+02  0.10637897290E+03  0.00000000000E+00 0. -1.
         21    1    1    2  502  501  0.39263908727E+02 -0.14260085602E+02 -0.65412098941E+02  0.77612803440E+02  0.00000000000E+00 0.  1.
<scales pt_clust_5="13000.00000" pt_clust_6="13000.00000" pt_clust_7="13000.00000" pt_clust_8="13000.00000" pt_clust_9="41.77325"></scales>
<clustering>
<clus scale="   41.773">  1  9  2 -1</clus>
<clus scale="   83.277">  5  6 -1 -1</clus>
<clus scale="   84.692">  7  8 -1 -1</clus>
<clus scale="   86.119">  2  5  1 -1</clus>
<clus scale="   86.119">  2  5  1 -1</clus>
</clustering>
</event>
<event>
 9    1  0.2802611E-005  0.1098481E+03  0.7546771E-02  0.1264290E+00
         -2   -1    0    0    0  501 -0.00000000000E+00  0.00000000000E+00  0.65490273123E+02  0.65490273123E+02  0.00000000000E+00 0.  1.
          1   -1    0    0  502    0  0.00000000000E+00 -0.00000000000E+00 -0.37651540778E+03  0.37651540778E+03  0.00000000000E+00 0. -1.
        -24    2    1    2    0    0  0.63860425857E+01  0.84972690491E+02 -0.34293129085E+02  0.12027309882E+03  0.77643157643E+02 0.  0.
         23    2    1    2    0    0 -0.27493905291E+01 -0.62998452870E+02 -0.27938675585E+03  0.29930179840E+03  0.86880624840E+02 0.  0.
         11    1    3    3    0    0  0.34992440515E+02  0.26635146036E+02  0.51303148270E+01  0.44274394719E+02  0.00000000000E+00 0. -1.
        -12    1    3    3    0    0 -0.28606397929E+02  0.58337544455E+02 -0.39423443912E+02  0.75998704104E+02  0.00000000000E+00 0.  1.
        -13    1    4    4    0    0 -0.25257403759E+02  0.84725975520E+01 -0.36971323855E+02  0.45569728345E+02  0.00000000000E+00 0.  1.
         13    1    4    4    0    0  0.22508013230E+02 -0.71471050422E+02 -0.24241543199E+03  0.25373207006E+03  0.00000000000E+00 0. -1.
         21    1    1    2  502  501 -0.36366520566E+01 -0.21974237621E+02  0.26547502761E+01  0.22430783675E+02  0.00000000000E+00 0.  1.
<scales pt_clust_5="13000.00000" pt_clust_6="13000.00000" pt_clust_7="13000.00000" pt_clust_8="13000.00000" pt_clust_9="22.27313"></scales>
<clustering>
<clus scale="   22.273">  1  9  2 -1</clus>
<clus scale="   77.643">  5  6 -1 -1</clus>
<clus scale="   86.881">  7  8 -1 -1</clus>
<clus scale="  102.698">  1  5  2 -1</clus>
<clus scale="  109.848">  2  5  1 -1</clus>
</clustering>
</event>
<event>
 9    1  0.2802611E-005  0.1340535E+03  0.7546771E-02  0.1222826E+00
          1   -1    0    0  502    0  0.00000000000E+00  0.00000000000E+00  0.12687924982E+04  0.12687924982E+04  0.00000000000E+00 0. -1.
         -2   -1    0    0    0  501 -0.00000000000E+00 -0.00000000000E+00 -0.76016816205E+02  0.76016816205E+02  0.00000000000E+00 0.  1.
         23    2    1    2    0    0  0.10566298397E+03 -0.48465741923E+01  0.17244969151E+01  0.13757287275E+03  0.87949792291E+02 0.  0.
        -24    2    1    2    0    0 -0.60318037305E+02 -0.57805827365E+02  0.62620601271E+03  0.63712105302E+03  0.82519613118E+02 0.  0.
         13    1    4    4    0    0 -0.58442016810E+02 -0.51306367824E+02  0.27327041284E+03  0.28412062798E+03  0.00000000000E+00 0. -1.
        -14    1    4    4    0    0 -0.18760204945E+01 -0.64994595410E+01  0.35293559987E+03  0.35300042504E+03  0.00000000000E+00 0.  1.
        -11    1    3    3    0    0  0.29184912461E+02  0.36221297351E+02  0.16818815256E+02  0.49463259534E+02  0.00000000000E+00 0. -1.
         11    1    3    3    0    0  0.76478071506E+02 -0.41067871543E+02 -0.15094318341E+02  0.88109613213E+02  0.00000000000E+00 0.  1.
         21    1    1    2  502  501 -0.45344946662E+02  0.62652401557E+02  0.56484517233E+03  0.57011538860E+03  0.00000000000E+00 0. -1.
<scales pt_clust_5="13000.00000" pt_clust_6="13000.00000" pt_clust_7="13000.00000" pt_clust_8="13000.00000" pt_clust_9="77.34008"></scales>
<clustering>
<clus scale="   77.340">  1  9  2 -1</clus>
<clus scale="   82.520">  5  6 -1 -1</clus>
<clus scale="   87.950">  7  8 -1 -1</clus>
<clus scale="  130.555">  1  5  2 -1</clus>
<clus scale="   77.340">  1  5  2 -1</clus>
</clustering>
</event>
<event>
 9    1  0.2802611E-005  0.1526008E+03  0.7546771E-02  0.1198439E+00
         -4   -1    0    0    0  501 -0.00000000000E+00  0.00000000000E+00  0.61164206136E+03  0.61164206136E+03  0.00000000000E+00 0.  1.
          3   -1    0    0  502    0  0.00000000000E+00 -0.00000000000E+00 -0.54472678963E+02  0.54472678963E+02  0.00000000000E+00 0. -1.
        -24    2    1    2    0    0  0.10816782410E+03 -0.63621364546E+02  0.23722468630E+03  0.28178254204E+03  0.85894662296E+02 0.  0.
         23    2    1    2    0    0 -0.12432091687E+03  0.79820248265E+01  0.22918348616E+03  0.27665557241E+03  0.92161989593E+02 0.  0.
         11    1    3    3    0    0  0.10546992046E+03 -0.18901506527E+02  0.16209066103E+03  0.19430530992E+03  0.00000000000E+00 0. -1.
        -12    1    3    3    0    0  0.26979036355E+01 -0.44719858020E+02  0.75134025276E+02  0.87477232121E+02  0.00000000000E+00 0.  1.
        -11    1    4    4    0    0 -0.83425552706E+02 -0.93475636960E+01  0.63878952939E+02  0.10548801079E+03  0.00000000000E+00 0.  1.
         11    1    4    4    0    0 -0.40895364163E+02  0.17329588522E+02  0.16530453322E+03  0.17116756163E+03  0.00000000000E+00 0. -1.
         21    1    1    2  502  501  0.16153092773E+02  0.55639339720E+02  0.90761209932E+02  0.10767662587E+03  0.00000000000E+00 0. -1.
<scales pt_clust_5="13000.00000" pt_clust_6="13000.00000" pt_clust_7="13000.00000" pt_clust_8="13000.00000" pt_clust_9="57.93668"></scales>
<clustering>
<clus scale="   57.937">  1  9  2 -1</clus>
<clus scale="   85.895">  5  6 -1 -1</clus>
<clus scale="   92.162">  7  8 -1 -1</clus>
<clus scale="  148.900">  1  5  2 -1</clus>
<clus scale="  152.601">  2  5  1 -1</clus>
</clustering>
</event>
<event>
 9    1  0.2802611E-005  0.1045580E+03  0.7546771E-02  0.1275514E+00
         -2   -1    0    0    0  501 -0.00000000000E+00  0.00000000000E+00  0.20412944535E+03  0.20412944535E+03  0.00000000000E+00 0.  1.
          1   -1    0    0  502    0  0.00000000000E+00 -0.00000000000E+00 -0.19243068805E+03  0.19243068805E+03  0.00000000000E+00 0. -1.
         23    2    1    2    0    0  0.99461842557E+01  0.48107305029E+02  0.13082389294E+03  0.16677863824E+03  0.91032872252E+02 0.  0.
        -24    2    1    2    0    0 -0.33380206576E+02 -0.40044612096E+02 -0.15722343889E+03  0.18433217031E+03  0.80878489881E+02 0.  0.
         13    1    4    4    0    0  0.13158523443E+02 -0.44203793475E+02 -0.10234699568E+03  0.11225876189E+03  0.00000000000E+00 0. -1.
        -14    1    4    4    0    0 -0.46538730018E+02  0.41591813785E+01 -0.54876443208E+02  0.72073408416E+02  0.00000000000E+00 0.  1.
        -11    1    3    3    0    0 -0.21026920760E+02  0.55476630181E+02  0.42746330411E+02  0.73123434387E+02  0.00000000000E+00 0. -1.
         11    1    3    3    0    0  0.30973105016E+02 -0.73693251515E+01  0.88077562533E+02  0.93655203856E+02  0.00000000000E+00 0.  1.
         21    1    1    2  502  501  0.23434022320E+02 -0.80626929333E+01  0.38098303243E+02  0.45449324851E+02  0.00000000000E+00 0.  1.
<scales pt_clust_5="13000.00000" pt_clust_6="13000.00000" pt_clust_7="13000.00000" pt_clust_8="13000.00000" pt_clust_9="24.78226"></scales>
<clustering>
<clus scale="   24.782">  1  9  2 -1</clus>
<clus scale="   80.878">  5  6 -1 -1</clus>
<clus scale="   91.033">  7  8 -1 -1</clus>
<clus scale="   95.847">  2  5  1 -1</clus>
<clus scale="   95.847">  2  5  1 -1</clus>
</clustering>
</event>
<event>
 9    1  0.2802611E-005  0.1226987E+03  0.7546771E-02  0.1244732E+00
          3   -1    0    0  502    0  0.00000000000E+00  0.00000000000E+00  0.41291790363E+03  0.41291790363E+03  0.00000000000E+00 0. -1.
         -4   -1    0    0    0  501 -0.00000000000E+00 -0.00000000000E+00 -0.61508029588E+02  0.61508029588E+02  0.00000000000E+00 0.  1.
        -24    2    1    2    0    0 -0.59937733012E+02  0.26387890286E+02  0.11264809134E+02  0.10094928893E+03  0.75993489318E+02 0.  0.
         23    2    1    2    0    0  0.79138144922E+02 -0.17377829112E+02  0.32266255396E+03  0.34599073501E+03  0.95045410505E+02 0.  0.
         11    1    3    3    0    0 -0.36467606509E+02  0.35926335695E+02  0.38274050183E+02  0.63917844444E+02  0.00000000000E+00 0. -1.
        -12    1    3    3    0    0 -0.23470126503E+02 -0.95384454088E+01 -0.27009241049E+02  0.37031444488E+02  0.00000000000E+00 0.  1.
        -11    1    4    4    0    0  0.21043857544E+02 -0.49740467425E+02  0.10055365377E+03  0.11414024411E+03  0.00000000000E+00 0. -1.
         11    1    4    4    0    0  0.58094287378E+02  0.32362638313E+02  0.22210890019E+03  0.23185049090E+03  0.00000000000E+00 0.  1.
         21    1    1    2  502  501 -0.19200411910E+02 -0.90100611737E+01  0.17482510955E+02  0.27485909284E+02  0.00000000000E+00 0. -1.
<scales pt_clust_5="13000.00000" pt_clust_6="13000.00000" pt_clust_7="13000.00000" pt_clust_8="13000.00000" pt_clust_9="21.20936"></scales>
<clustering>
<clus scale="   21.209">  2  9  1 -1</clus>
<clus scale="   75.993">  5  6 -1 -1</clus>
<clus scale="   95.045">  7  8 -1 -1</clus>
<clus scale="  108.611">  2  5  1 -1</clus>
<clus scale="  122.699">  1  5  2 -1</clus>
</clustering>
</event>
<event>
 9    1  0.2802611E-005  0.9466670E+02  0.7546771E-02  0.1300100E+00
         -2   -1    0    0    0  501 -0.00000000000E+00  0.00000000000E+00  0.18713940172E+03  0.18713940172E+03  0.00000000000E+00 0.  1.
          1   -1    0    0  502    0  0.00000000000E+00 -0.00000000000E+00 -0.19480606186E+03  0.19480606186E+03  0.00000000000E+00 0. -1.
         23    2    1    2    0    0  0.23149579565E+02 -0.10719677707E+02  0.10849627742E+03  0.14604144209E+03  0.94370790341E+02 0.  0.
        -24    2    1    2    0    0 -0.94633990549E-01  0.70255448385E+01 -0.16378972397E+03  0.18286169956E+03  0.81005927267E+02 0.  0.
         13    1    4    4    0    0  0.27355469348E+02  0.16678441016E+02 -0.14436126676E+03  0.14787382270E+03  0.00000000000E+00 0. -1.
        -14    1    4    4    0    0 -0.27450103339E+02 -0.96528961777E+01 -0.19428457207E+02  0.34987876863E+02  0.00000000000E+00 0.  1.
        -13    1    3    3    0    0 -0.28182259325E+02 -0.29906374322E+02  0.32732447413E+02  0.52536121663E+02  0.00000000000E+00 0.  1.
         13    1    3    3    0    0  0.51331838890E+02  0.19186696615E+02  0.75763830010E+02  0.93505320430E+02  0.00000000000E+00 0. -1.
         21    1    1    2  502  501 -0.23054945574E+02  0.36941328683E+01  0.47626786398E+02  0.53042321929E+02  0.00000000000E+00 0.  1.
<scales pt_clust_5="13000.00000" pt_clust_6="13000.00000" pt_clust_7="13000.00000" pt_clust_8="13000.00000" pt_clust_9="23.34903"></scales>
<clustering>
<clus scale="   23.349">  1  9  2 -1</clus>
<clus scale="   81.006">  5  6 -1 -1</clus>
<clus scale="   81.350">  2  5  1 -1</clus>
<clus scale="   94.371">  7  8 -1 -1</clus>
<clus scale="   81.350">  2  5  1 -1</clus>
</clustering>
</event>
<event>
 9    1  0.2802611E-005  0.1320469E+03  0.7546771E-02  0.1227476E+00
          1   -1    0    0  502    0  0.00000000000E+00  0.00000000000E+00  0.40086673635E+03  0.40086673635E+03  0.00000000000E+00 0. -1.
         -2   -1    0    0    0  501 -0.00000000000E+00 -0.00000000000E+00 -0.68185565320E+02  0.68185565320E+02  0.00000000000E+00 0.  1.
        -24    2    1    2    0    0 -0.43854271024E+02  0.86873451425E+02  0.76731655740E+02  0.14746685253E+03  0.79928292569E+02 0.  0.
         23    2    1    2    0    0  0.85322309187E+02 -0.50337013680E+02  0.20992409112E+03  0.24966292734E+03  0.91922477466E+02 0.  0.
         11    1    3    3    0    0 -0.58883964238E+02  0.56695846384E+02  0.24562688424E+02  0.85352597525E+02  0.00000000000E+00 0. -1.
        -12    1    3    3    0    0  0.15029693214E+02  0.30177605040E+02  0.52168967316E+02  0.62114255006E+02  0.00000000000E+00 0.  1.
        -13    1    4    4    0    0 -0.19047470460E+02 -0.91604370857E+01  0.20145175052E+02  0.29198421471E+02  0.00000000000E+00 0.  1.
         13    1    4    4    0    0  0.10436977965E+03 -0.41176576594E+02  0.18977891607E+03  0.22046450587E+03  0.00000000000E+00 0. -1.
         21    1    1    2  502  501 -0.41468038163E+02 -0.36536437745E+02  0.46025424165E+02  0.71922521798E+02  0.00000000000E+00 0.  1.
<scales pt_clust_5="13000.00000" pt_clust_6="13000.00000" pt_clust_7="13000.00000" pt_clust_8="13000.00000" pt_clust_9="55.26762"></scales>
<clustering>
<clus scale="   55.268">  2  9  1 -1</clus>
<clus scale="   79.928">  5  6 -1 -1</clus>
<clus scale="   91.922">  7  8 -1 -1</clus>
<clus scale="  123.997">  2  5  1 -1</clus>
<clus scale="  132.047">  1  5  2 -1</clus>
</clustering>
</event>
<event>
 9    1  0.2802611E-005  0.9260731E+02  0.7546771E-02  0.1300413E+00
          1   -1    0    0  502    0  0.00000000000E+00  0.00000000000E+00  0.44885282429E+02  0.44885282429E+02  0.00000000000E+00 0. -1.
         -2   -1    0    0    0  501 -0.00000000000E+00 -0.00000000000E+00 -0.52485780363E+03  0.52485780363E+03  0.00000000000E+00 0.  1.
        -24    2    1    2    0    0  0.11593645170E+02 -0.94167079107E+01 -0.40733896529E+03  0.41635514196E+03  0.84873344430E+02 0.  0.
         23    2    1    2    0    0  0.77138884787E+01  0.16028059805E+02 -0.17419424692E+02  0.94522919547E+02  0.91185213639E+02 0.  0.
         13    1    3    3    0    0 -0.45428847948E+01 -0.38745523880E+02 -0.10231509912E+03  0.10949992206E+03  0.00000000000E+00 0. -1.
        -14    1    3    3    0    0  0.16136529965E+02  0.29328815969E+02 -0.30502386618E+03  0.30685521990E+03  0.00000000000E+00 0.  1.
        -11    1    4    4    0    0 -0.18099322528E+02  0.20649014007E+02 -0.47346220429E+02  0.54732365601E+02  0.00000000000E+00 0.  1.
         11    1    4    4    0    0  0.25813211007E+02 -0.46209542022E+01  0.29926795737E+02  0.39790553945E+02  0.00000000000E+00 0. -1.
         21    1    1    2  502  501 -0.19307533649E+02 -0.66113518943E+01 -0.55214131220E+02  0.58865024555E+02  0.00000000000E+00 0.  1.
<scales pt_clust_5="13000.00000" pt_clust_6="13000.00000" pt_clust_7="13000.00000" pt_clust_8="13000.00000" pt_clust_9="20.40811"></scales>
<clustering>
<clus scale="   20.408">  2  9  1 -1</clus>
<clus scale="   84.873">  5  6 -1 -1</clus>
<clus scale="   86.399">  2  5  1 -1</clus>
<clus scale="   91.185">  7  8 -1 -1</clus>
<clus scale="   92.607">  1  5  2 -1</clus>
</clustering>
</event>
<event>
 9    1  0.2802611E-005  0.1324566E+03  0.7546771E-02  0.1226294E+00
         -2   -1    0    0    0  501 -0.00000000000E+00  0.00000000000E+00  0.94130056319E+02  0.94130056319E+02  0.00000000000E+00 0.  1.
          1   -1    0    0  502    0  0.00000000000E+00 -0.00000000000E+00 -0.41593944772E+03  0.41593944772E+03  0.00000000000E+00 0. -1.
        -24    2    1    2    0    0  0.47689333884E+02  0.12214753785E+03 -0.34540063889E+02  0.15763228980E+03  0.80378039324E+02 0.  0.
         23    2    1    2    0    0 -0.51120785024E+02 -0.73706761714E+02 -0.27396115655E+03  0.30208454734E+03  0.90301367989E+02 0.  0.
         11    1    3    3    0    0  0.36154056019E+02  0.66431624385E+02 -0.58778396616E+02  0.95787141067E+02  0.00000000000E+00 0. -1.
        -12    1    3    3    0    0  0.11535277865E+02  0.55715913462E+02  0.24238332727E+02  0.61845148732E+02  0.00000000000E+00 0.  1.
        -13    1    4    4    0    0  0.14297008247E+02 -0.54434114534E+02 -0.15582068401E+03  0.16567306008E+03  0.00000000000E+00 0. -1.
         13    1    4    4    0    0 -0.65417793271E+02 -0.19272647179E+02 -0.11814047254E+03  0.13641148726E+03  0.00000000000E+00 0.  1.
         21    1    1    2  502  501  0.34314511406E+01 -0.48440776133E+02 -0.13308170961E+02  0.50352666897E+02  0.00000000000E+00 0. -1.
<scales pt_clust_5="13000.00000" pt_clust_6="13000.00000" pt_clust_7="13000.00000" pt_clust_8="13000.00000" pt_clust_9="48.56216"></scales>
<clustering>
<clus scale="   48.562">  1  9  2 -1</clus>
<clus scale="   80.378">  5  6 -1 -1</clus>
<clus scale="   90.301">  7  8 -1 -1</clus>
<clus scale="  125.901">  1  5  2 -1</clus>
<clus scale="  132.457">  2  5  1 -1</clus>
</clustering>
</event>
<event>
 9    1  0.2802611E-005  0.1010929E+03  0.7546771E-02  0.1282805E+00
         -4   -1    0    0    0  501 -0.00000000000E+00  0.00000000000E+00  0.10730964211E+03  0.10730964211E+03  0.00000000000E+00 0.  1.
          3   -1    0    0  502    0  0.00000000000E+00 -0.00000000000E+00 -0.14698648951E+03  0.14698648951E+03  0.00000000000E+00 0. -1.
         23    2    1    2    0    0 -0.49801456507E+02 -0.26930450783E+02  0.25439410045E+02  0.11014813022E+03  0.90994575429E+02 0.  0.
        -24    2    1    2    0    0  0.77730604486E+01  0.28399238570E+02 -0.48091118961E+02  0.98778421799E+02  0.81101687221E+02 0.  0.
         11    1    4    4    0    0 -0.16066772520E+02 -0.14105936920E+02 -0.45148941328E+02  0.49955435527E+02  0.00000000000E+00 0. -1.
        -12    1    4    4    0    0  0.23839832968E+02  0.42505175489E+02 -0.29421776330E+01  0.48822986272E+02  0.00000000000E+00 0.  1.
        -13    1    3    3    0    0  0.99389262682E+01 -0.32269238129E+02 -0.15881699071E+02  0.37313728710E+02  0.00000000000E+00 0.  1.
         13    1    3    3    0    0 -0.59740382776E+02  0.53387873461E+01  0.41321109116E+02  0.72834401508E+02  0.00000000000E+00 0. -1.
         21    1    1    2  502  501  0.42028396059E+02 -0.14687877862E+01 -0.17025138481E+02  0.45369579601E+02  0.00000000000E+00 0.  1.
<scales pt_clust_5="13000.00000" pt_clust_6="13000.00000" pt_clust_7="13000.00000" pt_clust_8="13000.00000" pt_clust_9="42.05405"></scales>
<clustering>
<clus scale="   42.054">  2  9  1 -1</clus>
<clus scale="   81.102">  5  6 -1 -1</clus>
<clus scale="   90.995">  7  8 -1 -1</clus>
<clus scale="   92.289">  2  5  1 -1</clus>
<clus scale="   42.054">  2  5  1 -1</clus>
</clustering>
</event>
<event>
 9    1  0.2802611E-005  0.1267013E+03  0.7546771E-02  0.1235332E+00
          1   -1    0    0  502    0  0.00000000000E+00  0.00000000000E+00  0.29724759839E+03  0.29724759839E+03  0.00000000000E+00 0. -1.
         -2   -1    0    0    0  501 -0.00000000000E+00 -0.00000000000E+00 -0.19323420770E+03  0.19323420770E+03  0.00000000000E+00 0.  1.
        -24    2    1    2    0    0 -0.58386684616E+02 -0.21206791621E+02  0.14907928396E+02  0.10253614052E+03  0.80203995116E+02 0.  0.
         23    2    1    2    0    0  0.79362606670E+02  0.63205771644E+02  0.21450634019E+03  0.25404538997E+03  0.90734212267E+02 0.  0.
         11    1    3    3    0    0 -0.27014751266E+02  0.93191116815E+00  0.45849103483E+02  0.53224106705E+02  0.00000000000E+00 0. -1.
        -12    1    3    3    0    0 -0.31371933350E+02 -0.22138702789E+02 -0.30941175086E+02  0.49312033816E+02  0.00000000000E+00 0.  1.
        -13    1    4    4    0    0  0.43669193979E+02  0.81389816328E+02  0.12024334120E+03  0.15162375080E+03  0.00000000000E+00 0. -1.
         13    1    4    4    0    0  0.35693412691E+02 -0.18184044684E+02  0.94262998992E+02  0.10242163917E+03  0.00000000000E+00 0.  1.
         21    1    1    2  502  501 -0.20975922054E+02 -0.41998980023E+02 -0.12540087789E+03  0.13390027560E+03  0.00000000000E+00 0.  1.
<scales pt_clust_5="13000.00000" pt_clust_6="13000.00000" pt_clust_7="13000.00000" pt_clust_8="13000.00000" pt_clust_9="46.94575"></scales>
<clustering>
<clus scale="   46.946">  2  9  1 -1</clus>
<clus scale="   80.204">  5  6 -1 -1</clus>
<clus scale="   90.734">  7  8 -1 -1</clus>
<clus scale="  119.387">  2  5  1 -1</clus>
<clus scale="  126.701">  1  5  2 -1</clus>
</clustering>
</event>
<event>
 9    1  0.2802611E-005  0.1137212E+03  0.7546771E-02  0.1257704E+00
          1   -1    0    0  502    0  0.00000000000E+00  0.00000000000E+00  0.42647717121E+03  0.42647717121E+03  0.00000000000E+00 0. -1.
         -2   -1    0    0    0  501 -0.00000000000E+00 -0.00000000000E+00 -0.50110973660E+02  0.50110973660E+02  0.00000000000E+00 0.  1.
        -24    2    1    2    0    0  0.76745995227E+02 -0.59303138473E+02  0.13112554728E+03  0.18161368855E+03  0.79892507174E+02 0.  0.
         23    2    1    2    0    0 -0.51035584490E+02  0.22014973087E+02  0.21683198965E+03  0.24150965953E+03  0.90672564668E+02 0.  0.
         13    1    3    3    0    0  0.23658950107E+02  0.18722900163E+02  0.42725484977E+02  0.52304492897E+02  0.00000000000E+00 0. -1.
        -14    1    3    3    0    0  0.53087045120E+02 -0.78026038636E+02  0.88400062307E+02  0.12930919565E+03  0.00000000000E+00 0.  1.
        -13    1    4    4    0    0 -0.28134467837E+02  0.40365258310E+02  0.43387708021E+02  0.65600271083E+02  0.00000000000E+00 0.  1.
         13    1    4    4    0    0 -0.22901116653E+02 -0.18350285222E+02  0.17344428163E+03  0.17590938844E+03  0.00000000000E+00 0. -1.
         21    1    1    2  502  501 -0.25710410736E+02  0.37288165385E+02  0.28408660610E+02  0.53464796789E+02  0.00000000000E+00 0.  1.
<scales pt_clust_5="13000.00000" pt_clust_6="13000.00000" pt_clust_7="13000.00000" pt_clust_8="13000.00000" pt_clust_9="45.29274"></scales>
<clustering>
<clus scale="   45.293">  2  9  1 -1</clus>
<clus scale="   79.893">  5  6 -1 -1</clus>
<clus scale="   90.673">  7  8 -1 -1</clus>
<clus scale="  105.327">  2  5  1 -1</clus>
<clus scale="  113.721">  1  5  2 -1</clus>
</clustering>
</event>
<event>
 9    1  0.2802611E-005  0.2198251E+03  0.7546771E-02  0.1160126E+00
          1   -1    0    0  502    0  0.00000000000E+00  0.00000000000E+00  0.87069844821E+03  0.87069844821E+03  0.00000000000E+00 0. -1.
         -2   -1    0    0    0  501 -0.00000000000E+00 -0.00000000000E+00 -0.14250648386E+03  0.14250648386E+03  0.00000000000E+00 0.  1.
         23    2    1    2    0    0  0.10214209809E+03  0.99913095185E+02  0.26964558370E+03  0.31900449639E+03  0.92948873654E+02 0.  0.
        -24    2    1    2    0    0  0.21996572958E+02  0.83310368230E+02  0.45791968670E+03  0.47288247450E+03  0.80640737532E+02 0.  0.
         11    1    4    4    0    0  0.50005889744E+02  0.32181498463E+02  0.24659880687E+03  0.25366751744E+03  0.00000000000E+00 0. -1.
        -12    1    4    4    0    0 -0.28009316786E+02  0.51128869767E+02  0.21132087983E+03  0.21921495707E+03  0.00000000000E+00 0.  1.
        -11    1    3    3    0    0  0.70181978903E+02  0.34183412940E+02  0.64615632743E+02  0.10133704100E+03  0.00000000000E+00 0.  1.
         11    1    3    3    0    0  0.31960119188E+02  0.65729682245E+02  0.20502995096E+03  0.21766745539E+03  0.00000000000E+00 0. -1.
         21    1    1    2  502  501 -0.12413867105E+03 -0.18322346341E+03  0.62669395287E+00  0.22131796118E+03  0.00000000000E+00 0.  1.
<scales pt_clust_5="13000.00000" pt_clust_6="13000.00000" pt_clust_7="13000.00000" pt_clust_8="13000.00000" pt_clust_9="199.20743"></scales>
<clustering>
<clus scale="   80.641">  5  6 -1 -1</clus>
<clus scale="   92.949">  7  8 -1 -1</clus>
<clus scale="  118.014">  1  5  2 -1</clus>
<clus scale="  199.207">  2  9  1 -1</clus>
<clus scale="  118.014">  1  5  2 -1</clus>
</clustering>
</event>
<event>
 9    1  0.2802611E-005  0.1006488E+03  0.7546771E-02  0.1284875E+00
         -2   -1    0    0    0  501 -0.00000000000E+00  0.00000000000E+00  0.31586636093E+02  0.31586636093E+02  0.00000000000E+00 0.  1.
          1   -1    0    0  502    0  0.00000000000E+00 -0.00000000000E+00 -0.73006618765E+03  0.73006618765E+03  0.00000000000E+00 0. -1.
         23    2    1    2    0    0  0.27172745503E+02 -0.17818873940E+02 -0.79598142855E+02  0.12623375186E+03  0.92429569918E+02 0.  0.
        -24    2    1    2    0    0  0.26636212940E+01  0.43479187364E+02 -0.53467565679E+03  0.54247140315E+03  0.80620286892E+02 0.  0.
         11    1    4    4    0    0  0.14276395302E+02  0.55627737898E+02 -0.22081709298E+03  0.22816320746E+03  0.00000000000E+00 0. -1.
        -12    1    4    4    0    0 -0.11612774008E+02 -0.12148550534E+02 -0.31385856381E+03  0.31430819569E+03  0.00000000000E+00 0.  1.
        -11    1    3    3    0    0 -0.29376573070E+01  0.34088591791E+02 -0.46410786352E+02  0.57659543968E+02  0.00000000000E+00 0. -1.
         11    1    3    3    0    0  0.30110402810E+02 -0.51907465731E+02 -0.33187356503E+02  0.68574207889E+02  0.00000000000E+00 0.  1.
         21    1    1    2  502  501 -0.29836366797E+02 -0.25660313424E+02 -0.84205751918E+02  0.92947668743E+02  0.00000000000E+00 0.  1.
<scales pt_clust_5="13000.00000" pt_clust_6="13000.00000" pt_clust_7="13000.00000" pt_clust_8="13000.00000" pt_clust_9="39.35302"></scales>
<clustering>
<clus scale="   39.353">  1  9  2 -1</clus>
<clus scale="   80.620">  5  6 -1 -1</clus>
<clus scale="   89.925">  2  5  1 -1</clus>
<clus scale="   92.430">  7  8 -1 -1</clus>
<clus scale="   89.925">  2  5  1 -1</clus>
</clustering>
</event>
<event>
 9    1  0.2802611E-005  0.9615226E+02  0.7546771E-02  0.1295408E+00
          1   -1    0    0  502    0  0.00000000000E+00  0.00000000000E+00  0.19337136282E+03  0.19337136282E+03  0.00000000000E+00 0. -1.
         -2   -1    0    0    0  501 -0.00000000000E+00 -0.00000000000E+00 -0.10506801532E+03  0.10506801532E+03  0.00000000000E+00 0.  1.
         23    2    1    2    0    0 -0.16420571290E+01  0.10898200596E+02  0.10361072028E+02  0.93251533403E+02  0.92016463421E+02 0.  0.
        -24    2    1    2    0    0  0.12237499154E+02 -0.31165794866E+02  0.12543808488E+03  0.15247266019E+03  0.79950833726E+02 0.  0.
         11    1    4    4    0    0 -0.13831602675E+02 -0.19216544143E+02  0.12119157632E+03  0.12348273957E+03  0.00000000000E+00 0. -1.
        -12    1    4    4    0    0  0.26069101828E+02 -0.11949250722E+02  0.42465085642E+01  0.28989920627E+02  0.00000000000E+00 0.  1.
        -13    1    3    3    0    0  0.29449216015E+02 -0.25128314643E+02 -0.12195876872E+02  0.40588519724E+02  0.00000000000E+00 0.  1.
         13    1    3    3    0    0 -0.31091273144E+02  0.36026515240E+02  0.22556948900E+02  0.52663013679E+02  0.00000000000E+00 0. -1.
         21    1    1    2  502  501 -0.10595442025E+02  0.20267594269E+02 -0.47495809416E+02  0.52715184542E+02  0.00000000000E+00 0.  1.
<scales pt_clust_5="13000.00000" pt_clust_6="13000.00000" pt_clust_7="13000.00000" pt_clust_8="13000.00000" pt_clust_9="22.87004"></scales>
<clustering>
<clus scale="   22.870">  2  9  1 -1</clus>
<clus scale="   79.951">  5  6 -1 -1</clus>
<clus scale="   84.678">  1  5  2 -1</clus>
<clus scale="   92.016">  7  8 -1 -1</clus>
<clus scale="   84.678">  1  5  2 -1</clus>
</clustering>
</event>
<event>
 9    1  0.2802611E-005  0.1285238E+03  0.7546771E-02  0.1235459E+00
         -4   -1    0    0    0  501 -0.00000000000E+00  0.00000000000E+00  0.10144686286E+03  0.10144686286E+03  0.00000000000E+00 0.  1.
          3   -1    0    0  502    0  0.00000000000E+00 -0.00000000000E+00 -0.62960406885E+03  0.62960406885E+03  0.00000000000E+00 0. -1.
         23    2    1    2    0    0  0.86096766703E+02 -0.27176914442E+02 -0.18446058337E+03  0.22759364134E+03  0.98091390287E+02 0.  0.
        -24    2    1    2    0    0 -0.81465437799E+02  0.11217790049E+01 -0.41358341055E+03  0.42872789577E+03  0.78220810408E+02 0.  0.
         11    1    4    4    0    0 -0.32653864601E+02 -0.36051195920E+02 -0.13577215341E+03  0.14422219400E+03  0.00000000000E+00 0. -1.
        -12    1    4    4    0    0 -0.48811573198E+02  0.37172974925E+02 -0.27781125714E+03  0.28450570177E+03  0.00000000000E+00 0.  1.
        -13    1    3    3    0    0  0.41849781027E+02  0.12687468922E+02 -0.15518866252E+03  0.16123243165E+03  0.00000000000E+00 0. -1.
         13    1    3    3    0    0  0.44246985676E+02 -0.39864383364E+02 -0.29271920847E+02  0.66361209697E+02  0.00000000000E+00 0.  1.
         21    1    1    2  502  501 -0.46313289045E+01  0.26055135437E+02  0.69886787928E+02  0.74729394598E+02  0.00000000000E+00 0.  1.
<scales pt_clust_5="13000.00000" pt_clust_6="13000.00000" pt_clust_7="13000.00000" pt_clust_8="13000.00000" pt_clust_9="26.46355"></scales>
<clustering>
<clus scale="   26.464">  1  9  2 -1</clus>
<clus scale="   78.221">  5  6 -1 -1</clus>
<clus scale="   98.091">  7  8 -1 -1</clus>
<clus scale="  114.083">  2  5  1 -1</clus>
<clus scale="  114.083">  2  5  1 -1</clus>
</clustering>
</event>
<event>
 9    1  0.2802611E-005  0.1114321E+03  0.7546771E-02  0.1260397E+00
         -2   -1    0    0    0  501 -0.00000000000E+00  0.00000000000E+00  0.45395600039E+02  0.45395600039E+02  0.00000000000E+00 0.  1.
          1   -1    0    0  502    0  0.00000000000E+00 -0.00000000000E+00 -0.48405530278E+03  0.48405530278E+03  0.00000000000E+00 0. -1.
        -24    2    1    2    0    0 -0.37666408888E+02  0.27555743564E+02 -0.38170852328E+02  0.10297148617E+03  0.83474760470E+02 0.  0.
         23    2    1    2    0    0  0.60599843768E+02 -0.36447224299E+02 -0.36994691969E+03  0.38726449095E+03  0.90068425874E+02 0.  0.
         13    1    3    3    0    0  0.40866478308E+01 -0.20421275532E+02  0.10081428354E+02  0.23137942486E+02  0.00000000000E+00 0. -1.
        -14    1    3    3    0    0 -0.41753056718E+02  0.47977019096E+02 -0.48252280682E+02  0.79833543687E+02  0.00000000000E+00 0.  1.
        -11    1    4    4    0    0  0.41696471254E+01 -0.54960630744E+02 -0.17973303960E+03  0.18799474039E+03  0.00000000000E+00 0.  1.
         11    1    4    4    0    0  0.56430196643E+02  0.18513406444E+02 -0.19021388009E+03  0.19926975056E+03  0.00000000000E+00 0. -1.
         21    1    1    2  502  501 -0.22933434881E+02  0.88914807351E+01 -0.30541930730E+02  0.39214925702E+02  0.00000000000E+00 0.  1.
<scales pt_clust_5="13000.00000" pt_clust_6="13000.00000" pt_clust_7="13000.00000" pt_clust_8="13000.00000" pt_clust_9="24.59677"></scales>
<clustering>
<clus scale="   24.597">  1  9  2 -1</clus>
<clus scale="   83.475">  5  6 -1 -1</clus>
<clus scale="   90.068">  7  8 -1 -1</clus>
<clus scale="  106.174">  1  5  2 -1</clus>
<clus scale="  111.432">  2  5  1 -1</clus>
</clustering>
</event>
<event>
 9    1  0.2802611E-005  0.1248988E+03  0.7546771E-02  0.1238148E+00
         -2   -1    0    0    0  501 -0.00000000000E+00  0.00000000000E+00  0.18051816895E+03  0.18051816895E+03  0.00000000000E+00 0.  1.
          1   -1    0    0  502    0  0.00000000000E+00 -0.00000000000E+00 -0.31190281525E+03  0.31190281525E+03  0.00000000000E+00 0. -1.
        -24    2    1    2    0    0  0.80483838529E+02 -0.69047660812E+02  0.86914081107E+02  0.15936876329E+03  0.81234952390E+02 0.  0.
         23    2    1    2    0    0 -0.32434418979E+02  0.77270190114E+02 -0.24707435589E+03  0.27644485829E+03  0.91396654880E+02 0.  0.
         13    1    3    3    0    0 -0.89619841659E+01 -0.32261285268E+02  0.77068515213E+01  0.34358452348E+02  0.00000000000E+00 0. -1.
        -14    1    3    3    0    0  0.89445822695E+02 -0.36786375544E+02  0.79207229586E+02  0.12501031094E+03  0.00000000000E+00 0.  1.
        -11    1    4    4    0    0  0.11915176839E+02  0.62413760586E+02 -0.20094662995E+03  0.21075340339E+03  0.00000000000E+00 0. -1.
         11    1    4    4    0    0 -0.44349595818E+02  0.14856429528E+02 -0.46127725937E+02  0.65691454906E+02  0.00000000000E+00 0.  1.
         21    1    1    2  502  501 -0.48049419550E+02 -0.82225293022E+01  0.28775628485E+02  0.56607362612E+02  0.00000000000E+00 0. -1.
<scales pt_clust_5="13000.00000" pt_clust_6="13000.00000" pt_clust_7="13000.00000" pt_clust_8="13000.00000" pt_clust_9="48.74789"></scales>
<clustering>
<clus scale="   48.748">  1  9  2 -1</clus>
<clus scale="   81.235">  5  6 -1 -1</clus>
<clus scale="   91.397">  7  8 -1 -1</clus>
<clus scale="  117.667">  1  5  2 -1</clus>
<clus scale="  124.899">  2  5  1 -1</clus>
</clustering>
</event>
<event>
 9    1  0.2802611E-005  0.1112131E+03  0.7546771E-02  0.1259553E+00
          3   -1    0    0  502    0  0.00000000000E+00  0.00000000000E+00  0.15324895327E+03  0.15324895327E+03  0.00000000000E+00 0. -1.
         -4   -1    0    0    0  501 -0.00000000000E+00 -0.00000000000E+00 -0.15091789179E+03  0.15091789179E+03  0.00000000000E+00 0.  1.
        -24    2    1    2    0    0  0.17989135881E+02 -0.69902414733E+02 -0.66833963650E+02  0.13086769604E+03  0.86311172937E+02 0.  0.
         23    2    1    2    0    0  0.61622031729E+01  0.64803997503E+02  0.88647493783E+02  0.14185320141E+03  0.89590299445E+02 0.  0.
         13    1    3    3    0    0 -0.25928165671E+02  0.42673367402E+01 -0.17122841684E+02  0.31363540063E+02  0.00000000000E+00 0. -1.
        -14    1    3    3    0    0  0.43917301552E+02 -0.74169751474E+02 -0.49711121966E+02  0.99504155975E+02  0.00000000000E+00 0.  1.
        -13    1    4    4    0    0  0.45652684647E+02  0.45043161421E+02  0.37545302710E+02  0.74314895962E+02  0.00000000000E+00 0.  1.
         13    1    4    4    0    0 -0.39490481474E+02  0.19760836083E+02  0.51102191074E+02  0.67538305444E+02  0.00000000000E+00 0. -1.
         21    1    1    2  502  501 -0.24151339054E+02  0.50984172300E+01 -0.19482468652E+02  0.31445947610E+02  0.00000000000E+00 0.  1.
<scales pt_clust_5="13000.00000" pt_clust_6="13000.00000" pt_clust_7="13000.00000" pt_clust_8="13000.00000" pt_clust_9="24.68362"></scales>
<clustering>
<clus scale="   24.684">  2  9  1 -1</clus>
<clus scale="   86.311">  5  6 -1 -1</clus>
<clus scale="   89.590">  7  8 -1 -1</clus>
<clus scale="  108.589">  2  5  1 -1</clus>
<clus scale="  111.213">  1  5  2 -1</clus>
</clustering>
</event>
<event>
 9    1  0.2802611E-005  0.1496467E+03  0.7546771E-02  0.1204444E+00
         -2   -1    0    0    0  501 -0.00000000000E+00  0.00000000000E+00  0.27383356802E+03  0.27383356802E+03  0.00000000000E+00 0.  1.
          1   -1    0    0  502    0  0.00000000000E+00 -0.00000000000E+00 -0.15558638234E+03  0.15558638234E+03  0.00000000000E+00 0. -1.
         23    2    1    2    0    0 -0.27369770658E+02 -0.85809638005E+02  0.13677532307E+03  0.18717530000E+03  0.90635013161E+02 0.  0.
        -24    2    1    2    0    0  0.58122678624E+02  0.93137720031E+02 -0.80272528667E+02  0.17287742474E+03  0.10672415127E+03 0.  0.
         11    1    4    4    0    0  0.54845316597E+02  0.40445586568E+02 -0.96056962363E+02  0.11777433610E+03  0.00000000000E+00 0. -1.
        -12    1    4    4    0    0  0.32773620271E+01  0.52692133463E+02  0.15784433696E+02  0.55103088642E+02  0.00000000000E+00 0.  1.
        -11    1    3    3    0    0 -0.23986779135E+01 -0.59567322084E+02  0.16926983864E+02  0.61972109039E+02  0.00000000000E+00 0. -1.
         11    1    3    3    0    0 -0.24971092745E+02 -0.26242315921E+02  0.11984833920E+03  0.12520319097E+03  0.00000000000E+00 0.  1.
         21    1    1    2  502  501 -0.30752907966E+02 -0.73280820263E+01  0.61744391276E+02  0.69367225609E+02  0.00000000000E+00 0.  1.
<scales pt_clust_5="13000.00000" pt_clust_6="13000.00000" pt_clust_7="13000.00000" pt_clust_8="13000.00000" pt_clust_9="31.61395"></scales>
<clustering>
<clus scale="   31.614">  1  9  2 -1</clus>
<clus scale="   90.635">  7  8 -1 -1</clus>
<clus scale="  106.724">  5  6 -1 -1</clus>
<clus scale="  138.632">  1  7  2 -1</clus>
<clus scale="  149.647">  2  5  1 -1</clus>
</clustering>
</event>
<event>
 9    1  0.2802611E-005  0.1173309E+03  0.7546771E-02  0.1252202E+00
         -2   -1    0    0    0  501 -0.00000000000E+00  0.00000000000E+00  0.16913852893E+03  0.16913852893E+03  0.00000000000E+00 0.  1.
          1   -1    0    0  502    0  0.00000000000E+00 -0.00000000000E+00 -0.47260281665E+03  0.47260281665E+03  0.00000000000E+00 0. -1.
        -24    2    1    2    0    0 -0.17708721755E+01  0.27818590053E+02  0.12512342500E+03  0.15071284460E+03  0.79255789076E+02 0.  0.
         23    2    1    2    0    0  0.37006428079E+00 -0.74396466619E+02 -0.42821944846E+03  0.44442810971E+03  0.92787269964E+02 0.  0.
         11    1    3    3    0    0  0.39781184349E+01  0.47405723346E+02  0.37030993814E+02  0.60286172006E+02  0.00000000000E+00 0. -1.
        -12    1    3    3    0    0 -0.57489906104E+01 -0.19587133293E+02  0.88092431188E+02  0.90426672593E+02  0.00000000000E+00 0.  1.
        -11    1    4    4    0    0  0.29573978281E+02 -0.94618849887E+01 -0.45140940560E+02  0.54789159270E+02  0.00000000000E+00 0.  1.
         11    1    4    4    0    0 -0.29203914000E+02 -0.64934581631E+02 -0.38307850790E+03  0.38963895044E+03  0.00000000000E+00 0. -1.
         21    1    1    2  502  501  0.14008078947E+01  0.46577876566E+02 -0.36826426739E+00  0.46600391272E+02  0.00000000000E+00 0.  1.
<scales pt_clust_5="13000.00000" pt_clust_6="13000.00000" pt_clust_7="13000.00000" pt_clust_8="13000.00000" pt_clust_9="46.59894"></scales>
<clustering>
<clus scale="   46.599">  1  9  2 -1</clus>
<clus scale="   79.256">  5  6 -1 -1</clus>
<clus scale="   92.787">  7  8 -1 -1</clus>
<clus scale="  106.951">  1  5  2 -1</clus>
<clus scale="  117.331">  2  5  1 -1</clus>
</clustering>
</event>
<event>
 9    1  0.2802611E-005  0.9754898E+02  0.7546771E-02  0.1293705E+00
          1   -1    0    0  502    0  0.00000000000E+00  0.00000000000E+00  0.46464538284E+02  0.46464538284E+02  0.00000000000E+00 0. -1.
         -2   -1    0    0    0  501 -0.00000000000E+00 -0.00000000000E+00 -0.47426196718E+03  0.47426196718E+03  0.00000000000E+00 0.  1.
         23    2    1    2    0    0 -0.72478179738E+00  0.11788737100E+01 -0.10840092538E+03  0.14397471469E+03  0.94741980105E+02 0.  0.
        -24    2    1    2    0    0  0.69811076972E+01  0.36316542871E+02 -0.44181173821E+02  0.98923560431E+02  0.80413105507E+02 0.  0.
         11    1    4    4    0    0  0.26963371180E+02  0.29913795312E+02  0.94220063612E+01  0.41359796170E+02  0.00000000000E+00 0. -1.
        -12    1    4    4    0    0 -0.19982263483E+02  0.64027475592E+01 -0.53603180182E+02  0.57563764260E+02  0.00000000000E+00 0.  1.
        -11    1    3    3    0    0  0.32120859853E+02  0.97268042982E+01 -0.35275287024E+01  0.33746167461E+02  0.00000000000E+00 0. -1.
         11    1    3    3    0    0 -0.32845641651E+02 -0.85479305882E+01 -0.10487339668E+03  0.11022854723E+03  0.00000000000E+00 0.  1.
         21    1    1    2  502  501 -0.62563258998E+01 -0.37495416581E+02 -0.27521532969E+03  0.27782823034E+03  0.00000000000E+00 0.  1.
<scales pt_clust_5="13000.00000" pt_clust_6="13000.00000" pt_clust_7="13000.00000" pt_clust_8="13000.00000" pt_clust_9="38.01379"></scales>
<clustering>
<clus scale="   38.014">  2  9  1 -1</clus>
<clus scale="   80.413">  5  6 -1 -1</clus>
<clus scale="   83.702">  1  5  2 -1</clus>
<clus scale="   94.742">  7  8 -1 -1</clus>
<clus scale="   83.702">  1  5  2 -1</clus>
</clustering>
</event>
<event>
 9    1  0.2802611E-005  0.9673439E+02  0.7546771E-02  0.1292817E+00
          1   -1    0    0  502    0  0.00000000000E+00  0.00000000000E+00  0.68027687721E+03  0.68027687721E+03  0.00000000000E+00 0. -1.
         -2   -1    0    0    0  501 -0.00000000000E+00 -0.00000000000E+00 -0.27632207418E+02  0.27632207418E+02  0.00000000000E+00 0.  1.
         23    2    1    2    0    0 -0.17555353071E+02  0.27521126157E+02  0.12770917145E+03  0.16007500895E+03  0.90822757126E+02 0.  0.
        -24    2    1    2    0    0 -0.10825651893E+02 -0.34120775964E+02  0.50470277042E+03  0.51236014018E+03  0.80663527597E+02 0.  0.
         11    1    4    4    0    0 -0.34774769386E+02 -0.48866683371E+02  0.32944658789E+03  0.33486160067E+03  0.00000000000E+00 0. -1.
        -12    1    4    4    0    0  0.23949117493E+02  0.14745907407E+02  0.17525618253E+03  0.17749853951E+03  0.00000000000E+00 0.  1.
        -13    1    3    3    0    0 -0.43670266993E+02  0.37396416441E+02  0.45702582472E+02  0.73445968075E+02  0.00000000000E+00 0. -1.
         13    1    3    3    0    0  0.26114913922E+02 -0.98752902843E+01  0.82006588981E+02  0.86629040879E+02  0.00000000000E+00 0.  1.
         21    1    1    2  502  501  0.28381004964E+02  0.65996498069E+01  0.20232727918E+02  0.35473935493E+02  0.00000000000E+00 0.  1.
<scales pt_clust_5="13000.00000" pt_clust_6="13000.00000" pt_clust_7="13000.00000" pt_clust_8="13000.00000" pt_clust_9="29.13824"></scales>
<clustering>
<clus scale="   29.138">  2  9  1 -1</clus>
<clus scale="   80.664">  5  6 -1 -1</clus>
<clus scale="   87.266">  1  5  2 -1</clus>
<clus scale="   90.823">  7  8 -1 -1</clus>
<clus scale="   87.266">  1  5  2 -1</clus>
</clustering>
</event>
<event>
 9    1  0.2802611E-005  0.9233800E+02  0.7546771E-02  0.1303012E+00
          1   -1    0    0  502    0  0.00000000000E+00  0.00000000000E+00  0.12468297211E+03  0.12468297211E+03  0.00000000000E+00 0. -1.
         -2   -1    0    0    0  501 -0.00000000000E+00 -0.00000000000E+00 -0.17854818564E+03  0.17854818564E+03  0.00000000000E+00 0.  1.
        -24    2    1    2    0    0 -0.35182649023E+01 -0.27880134971E+02 -0.68556868846E+02  0.11049325461E+03  0.81969719623E+02 0.  0.
         23    2    1    2    0    0 -0.11900174034E-01 -0.24721364847E+02  0.68957476189E+02  0.11707973000E+03  0.91331175577E+02 0.  0.
         13    1    3    3    0    0  0.10434802124E+02 -0.46903611255E+02 -0.72092209780E+02  0.86637870213E+02  0.00000000000E+00 0. -1.
        -14    1    3    3    0    0 -0.13953067026E+02  0.19023476284E+02  0.35353409338E+01  0.23855384400E+02  0.00000000000E+00 0.  1.
        -13    1    4    4    0    0  0.34030509492E+02 -0.43262881463E+02  0.32829113352E+02  0.64089805525E+02  0.00000000000E+00 0.  1.
         13    1    4    4    0    0 -0.34042409666E+02  0.18541516616E+02  0.36128362838E+02  0.52989924473E+02  0.00000000000E+00 0. -1.
         21    1    1    2  502  501  0.35301650763E+01  0.52601499818E+02 -0.54265820871E+02  0.75658173143E+02  0.00000000000E+00 0. -1.
<scales pt_clust_5="13000.00000" pt_clust_6="13000.00000" pt_clust_7="13000.00000" pt_clust_8="13000.00000" pt_clust_9="52.71982"></scales>
<clustering>
<clus scale="   52.720">  2  9  1 -1</clus>
<clus scale="   81.970">  5  6 -1 -1</clus>
<clus scale="   83.090">  2  5  1 -1</clus>
<clus scale="   91.331">  7  8 -1 -1</clus>
<clus scale="   92.338">  1  5  2 -1</clus>
</clustering>
</event>
<event>
 9    1  0.2802611E-005  0.1193035E+03  0.7546771E-02  0.1248812E+00
          1   -1    0    0  502    0  0.00000000000E+00  0.00000000000E+00  0.34473804465E+03  0.34473804465E+03  0.00000000000E+00 0. -1.
         -2   -1    0    0    0  501 -0.00000000000E+00 -0.00000000000E+00 -0.82988100264E+02  0.82988100264E+02  0.00000000000E+00 0.  1.
        -24    2    1    2    0    0  0.50586650495E+02  0.98008650581E+02  0.38396986297E+02  0.14254922586E+03  0.81738904073E+02 0.  0.
         23    2    1    2    0    0 -0.11604414766E+02 -0.60198868656E+02  0.19076284285E+03  0.22184201617E+03  0.95209514747E+02 0.  0.
         13    1    3    3    0    0  0.93685070001E+01  0.95517463305E+02  0.27687765883E+02  0.99889774748E+02  0.00000000000E+00 0. -1.
        -14    1    3    3    0    0  0.41218143495E+02  0.24911872769E+01  0.10709220414E+02  0.42659451111E+02  0.00000000000E+00 0.  1.
        -11    1    4    4    0    0 -0.39553139274E+02  0.39065018895E+01  0.97356937755E+02  0.10515742918E+03  0.00000000000E+00 0. -1.
         11    1    4    4    0    0  0.27948724508E+02 -0.64105370546E+02  0.93405905094E+02  0.11668458699E+03  0.00000000000E+00 0.  1.
         21    1    1    2  502  501 -0.38982235729E+02 -0.37809781925E+02  0.32590115237E+02  0.63334902880E+02  0.00000000000E+00 0. -1.
<scales pt_clust_5="13000.00000" pt_clust_6="13000.00000" pt_clust_7="13000.00000" pt_clust_8="13000.00000" pt_clust_9="54.30648"></scales>
<clustering>
<clus scale="   54.306">  2  9  1 -1</clus>
<clus scale="   81.739">  5  6 -1 -1</clus>
<clus scale="   95.210">  7  8 -1 -1</clus>
<clus scale="  108.856">  2  5  1 -1</clus>
<clus scale="  119.303">  1  5  2 -1</clus>
</clustering>
</event>
<event>
 9    1  0.2802611E-005  0.1516321E+03  0.7546771E-02  0.1222508E+00
         -2   -1    0    0    0  501 -0.00000000000E+00  0.00000000000E+00  0.12804201037E+03  0.12804201037E+03  0.00000000000E+00 0.  1.
          1   -1    0    0  502    0  0.00000000000E+00 -0.00000000000E+00 -0.42958880697E+03  0.42958880697E+03  0.00000000000E+00 0. -1.
        -24    2    1    2    0    0 -0.91891472547E+01  0.45247001864E+02  0.12756416372E+02  0.91703352678E+02  0.78198766799E+02 0.  0.
         23    2    1    2    0    0  0.79110817698E+02  0.82897316182E+02 -0.28000140535E+03  0.31597207046E+03  0.91143161046E+02 0.  0.
         13    1    3    3    0    0  0.15814628057E+02  0.53637660184E+02  0.26591268997E+02  0.61920890154E+02  0.00000000000E+00 0. -1.
        -14    1    3    3    0    0 -0.25003775311E+02 -0.83906583203E+01 -0.13834852625E+02  0.29782462525E+02  0.00000000000E+00 0.  1.
        -13    1    4    4    0    0  0.14295130433E+02  0.68861101237E+02 -0.20029824558E+03  0.21228657329E+03  0.00000000000E+00 0.  1.
         13    1    4    4    0    0  0.64815687266E+02  0.14036214946E+02 -0.79703159774E+02  0.10368549717E+03  0.00000000000E+00 0. -1.
         21    1    1    2  502  501 -0.69921670443E+02 -0.12814431805E+03 -0.34301807613E+02  0.14995539420E+03  0.00000000000E+00 0.  1.
<scales pt_clust_5="13000.00000" pt_clust_6="13000.00000" pt_clust_7="13000.00000" pt_clust_8="13000.00000" pt_clust_9="121.18256"></scales>
<clustering>
<clus scale="   78.199">  5  6 -1 -1</clus>
<clus scale="   90.812">  1  5  2 -1</clus>
<clus scale="   91.143">  7  8 -1 -1</clus>
<clus scale="  121.183">  1  9  2 -1</clus>
<clus scale="  151.632">  2  5  1 -1</clus>
</clustering>
</event>
<event>
 9    1  0.2802611E-005  0.9631904E+02  0.7546771E-02  0.1295131E+00
         -2   -1    0    0    0  501 -0.00000000000E+00  0.00000000000E+00  0.12839852385E+03  0.12839852385E+03  0.00000000000E+00 0.  1.
          1   -1    0    0  502    0  0.00000000000E+00 -0.00000000000E+00 -0.24369027611E+03  0.24369027611E+03  0.00000000000E+00 0. -1.
         23    2    1    2    0    0  0.12956393548E+02 -0.36007222247E+02  0.25412048428E+02  0.10228805799E+03  0.91393032631E+02 0.  0.
        -24    2    1    2    0    0  0.28096133965E+02  0.17733004099E+02 -0.18673511958E+03  0.20547237046E+03  0.79025552572E+02 0.  0.
         11    1    4    4    0    0  0.34810723145E+02  0.45128214026E+02 -0.13522677962E+03  0.14674680260E+03  0.00000000000E+00 0. -1.
        -12    1    4    4    0    0 -0.67145891806E+01 -0.27395209927E+02 -0.51508339953E+02  0.58725567852E+02  0.00000000000E+00 0.  1.
        -13    1    3    3    0    0  0.16933752599E+02  0.26983668245E+02  0.22692963497E+02  0.39113180915E+02  0.00000000000E+00 0. -1.
         13    1    3    3    0    0 -0.39773590511E+01 -0.62990890492E+02  0.27190849309E+01  0.63174877070E+02  0.00000000000E+00 0.  1.
         21    1    1    2  502  501 -0.41052527513E+02  0.18274218148E+02  0.46031318881E+02  0.64328371517E+02  0.00000000000E+00 0.  1.
<scales pt_clust_5="13000.00000" pt_clust_6="13000.00000" pt_clust_7="13000.00000" pt_clust_8="13000.00000" pt_clust_9="44.93614"></scales>
<clustering>
<clus scale="   44.936">  1  9  2 -1</clus>
<clus scale="   79.026">  5  6 -1 -1</clus>
<clus scale="   84.674">  2  5  1 -1</clus>
<clus scale="   91.393">  7  8 -1 -1</clus>
<clus scale="   84.674">  2  5  1 -1</clus>
</clustering>
</event>
<event>
 9    1  0.2802611E-005  0.1025388E+03  0.7546771E-02  0.1280212E+00
         -2   -1    0    0    0  501 -0.00000000000E+00  0.00000000000E+00  0.16095483183E+03  0.16095483183E+03  0.00000000000E+00 0.  1.
          1   -1    0    0  502    0  0.00000000000E+00 -0.00000000000E+00 -0.25867431490E+03  0.25867431490E+03  0.00000000000E+00 0. -1.
         23    2    1    2    0    0 -0.15079355938E+02  0.16002522399E+02  0.75910686327E+02  0.12132748797E+03  0.92056826694E+02 0.  0.
        -24    2    1    2    0    0 -0.41380866847E+02 -0.28435795117E+02 -0.20952965994E+03  0.23024935204E+03  0.81185683076E+02 0.  0.
         13    1    4    4    0    0 -0.22437265999E+02 -0.26629945805E+02 -0.20828868328E+03  0.21117945095E+03  0.00000000000E+00 0. -1.
        -14    1    4    4    0    0 -0.18943600848E+02 -0.18058493128E+01 -0.12409766608E+01  0.19069901098E+02  0.00000000000E+00 0.  1.
        -13    1    3    3    0    0 -0.45811155364E+02  0.34550737165E+02  0.56466914218E+02  0.80504209801E+02  0.00000000000E+00 0. -1.
         13    1    3    3    0    0  0.30731799426E+02 -0.18548214766E+02  0.19443772108E+02  0.40823278173E+02  0.00000000000E+00 0.  1.
         21    1    1    2  502  501  0.56460222785E+02  0.12433272719E+02  0.35899490542E+02  0.68052306710E+02  0.00000000000E+00 0.  1.
<scales pt_clust_5="13000.00000" pt_clust_6="13000.00000" pt_clust_7="13000.00000" pt_clust_8="13000.00000" pt_clust_9="57.81300"></scales>
<clustering>
<clus scale="   57.813">  1  9  2 -1</clus>
<clus scale="   81.186">  5  6 -1 -1</clus>
<clus scale="   92.057">  7  8 -1 -1</clus>
<clus scale="   92.902">  2  5  1 -1</clus>
<clus scale="   92.902">  2  5  1 -1</clus>
</clustering>
</event>
<event>
 9    1  0.2802611E-005  0.1469777E+03  0.7546771E-02  0.1206565E+00
         -4   -1    0    0    0  501 -0.00000000000E+00  0.00000000000E+00  0.13337592168E+03  0.13337592168E+03  0.00000000000E+00 0.  1.
          3   -1    0    0  502    0  0.00000000000E+00 -0.00000000000E+00 -0.19636560880E+03  0.19636560880E+03  0.00000000000E+00 0. -1.
        -24    2    1    2    0    0  0.97023622624E+02 -0.85040720307E+02 -0.49219274945E+02  0.16010289557E+03  0.81024025368E+02 0.  0.
         23    2    1    2    0    0 -0.71389379251E+02  0.67768959249E+02 -0.23242301090E+02  0.13730993492E+03  0.92869469467E+02 0.  0.
         13    1    3    3    0    0  0.52322846118E+02  0.17363910064E+01 -0.39425845246E+01  0.52499897641E+02  0.00000000000E+00 0. -1.
        -14    1    3    3    0    0  0.44700776507E+02 -0.86777111314E+02 -0.45276690420E+02  0.10760299793E+03  0.00000000000E+00 0.  1.
        -11    1    4    4    0    0 -0.47750214645E+02  0.87117294374E+02 -0.70457715662E+00  0.99347885768E+02  0.00000000000E+00 0.  1.
         11    1    4    4    0    0 -0.23639164606E+02 -0.19348335125E+02 -0.22537723933E+02  0.37962049147E+02  0.00000000000E+00 0. -1.
         21    1    1    2  502  501 -0.25634243373E+02  0.17271761059E+02  0.94718889145E+01  0.32328699989E+02  0.00000000000E+00 0.  1.
<scales pt_clust_5="13000.00000" pt_clust_6="13000.00000" pt_clust_7="13000.00000" pt_clust_8="13000.00000" pt_clust_9="30.91000"></scales>
<clustering>
<clus scale="   30.910">  1  9  2 -1</clus>
<clus scale="   81.024">  5  6 -1 -1</clus>
<clus scale="   92.869">  7  8 -1 -1</clus>
<clus scale="  139.795">  1  5  2 -1</clus>
<clus scale="  146.978">  2  5  1 -1</clus>
</clustering>
</event>
<event>
 9    1  0.2802611E-005  0.7951161E+02  0.7546771E-02  0.1339714E+00
          1   -1    0    0  502    0  0.00000000000E+00  0.00000000000E+00  0.25453658008E+03  0.25453658008E+03  0.00000000000E+00 0. -1.
         -2   -1    0    0    0  501 -0.00000000000E+00 -0.00000000000E+00 -0.12696515715E+03  0.12696515715E+03  0.00000000000E+00 0.  1.
        -24    2    1    2    0    0 -0.14001909142E+02  0.12948919160E+02 -0.40915574701E+02  0.90876916976E+02  0.78872059811E+02 0.  0.
         23    2    1    2    0    0 -0.82961657548E+01 -0.70854711049E+01  0.22213063293E+03  0.23223626165E+03  0.66877745731E+02 0.  0.
         11    1    3    3    0    0 -0.41262054684E+02  0.26632484201E+02 -0.33616546991E+02  0.59514020223E+02  0.00000000000E+00 0. -1.
        -12    1    3    3    0    0  0.27260145542E+02 -0.13683565041E+02 -0.72990277102E+01  0.31362896753E+02  0.00000000000E+00 0.  1.
        -13    1    4    4    0    0 -0.29627670887E+02 -0.25655544669E+02  0.13942116355E+03  0.14482495193E+03  0.00000000000E+00 0. -1.
         13    1    4    4    0    0  0.21331505132E+02  0.18570073564E+02  0.82709469379E+02  0.87411309728E+02  0.00000000000E+00 0.  1.
         21    1    1    2  502  501  0.22298074897E+02 -0.58634480548E+01 -0.53643635298E+02  0.58388558599E+02  0.00000000000E+00 0.  1.
<scales pt_clust_5="13000.00000" pt_clust_6="13000.00000" pt_clust_7="13000.00000" pt_clust_8="13000.00000" pt_clust_9="23.05611"></scales>
<clustering>
<clus scale="   23.056">  2  9  1 -1</clus>
<clus scale="   66.878">  7  8 -1 -1</clus>
<clus scale="   67.631">  1  7  2 -1</clus>
<clus scale="   78.872">  5  6 -1 -1</clus>
<clus scale="   67.631">  1  5  2 -1</clus>
</clustering>
</event>
<event>
 9    1  0.2802611E-005  0.1847912E+03  0.7546771E-02  0.1164329E+00
          1   -1    0    0  502    0  0.00000000000E+00  0.00000000000E+00  0.41031730830E+03  0.41031730830E+03  0.00000000000E+00 0. -1.
         -2   -1    0    0    0  501 -0.00000000000E+00 -0.00000000000E+00 -0.13163108990E+03  0.13163108990E+03  0.00000000000E+00 0.  1.
        -24    2    1    2    0    0 -0.10306497562E+03  0.14494746756E+03  0.91786408268E+02  0.21587935292E+03  0.80913489137E+02 0.  0.
         23    2    1    2    0    0  0.79185282586E+02 -0.13054323223E+03  0.22004606986E+03  0.28275165536E+03  0.90644256791E+02 0.  0.
         13    1    3    3    0    0 -0.45154873914E+02  0.10245334256E+03  0.90621650033E+02  0.14404142979E+03  0.00000000000E+00 0. -1.
        -14    1    3    3    0    0 -0.57910101704E+02  0.42494125000E+02  0.11647582347E+01  0.71837923137E+02  0.00000000000E+00 0.  1.
        -11    1    4    4    0    0  0.90637904557E+02 -0.69663584880E+02  0.12593146872E+03  0.17007933330E+03  0.00000000000E+00 0. -1.
         11    1    4    4    0    0 -0.11452621971E+02 -0.60879647354E+02  0.94114601139E+02  0.11267232206E+03  0.00000000000E+00 0.  1.
         21    1    1    2  502  501  0.23879693032E+02 -0.14404235329E+02 -0.33146259734E+02  0.43317389915E+02  0.00000000000E+00 0.  1.
<scales pt_clust_5="13000.00000" pt_clust_6="13000.00000" pt_clust_7="13000.00000" pt_clust_8="13000.00000" pt_clust_9="27.88766"></scales>
<clustering>
<clus scale="   27.888">  2  9  1 -1</clus>
<clus scale="   80.913">  5  6 -1 -1</clus>
<clus scale="   90.644">  7  8 -1 -1</clus>
<clus scale="  180.218">  2  5  1 -1</clus>
<clus scale="  184.791">  1  5  2 -1</clus>
</clustering>
</event>
<event>
 9    1  0.2802611E-005  0.9878192E+02  0.7546771E-02  0.1293219E+00
          1   -1    0    0  502    0  0.00000000000E+00  0.00000000000E+00  0.79594717995E+02  0.79594717995E+02  0.00000000000E+00 0. -1.
         -2   -1    0    0    0  501 -0.00000000000E+00 -0.00000000000E+00 -0.40873460956E+03  0.40873460956E+03  0.00000000000E+00 0.  1.
        -24    2    1    2    0    0  0.14510238085E+02  0.37752615984E+02 -0.16911964833E+03  0.18776500249E+03  0.70840904043E+02 0.  0.
         23    2    1    2    0    0  0.17016664293E+02 -0.38303034157E+02  0.33058964078E+02  0.10492734280E+03  0.90333619829E+02 0.  0.
         11    1    3    3    0    0  0.35199117735E+02  0.37585325524E+02 -0.72323690177E+02  0.88782603842E+02  0.00000000000E+00 0. -1.
        -12    1    3    3    0    0 -0.20688879650E+02  0.16729045939E+00 -0.96795958155E+02  0.98982398649E+02  0.00000000000E+00 0.  1.
        -13    1    4    4    0    0 -0.31537587867E+02  0.78896026456E+01  0.91408160628E+01  0.33770102112E+02  0.00000000000E+00 0.  1.
         13    1    4    4    0    0  0.48554252159E+02 -0.46192636803E+02  0.23918148015E+02  0.71157240686E+02  0.00000000000E+00 0. -1.
         21    1    1    2  502  501 -0.31526902378E+02  0.55041817353E+00 -0.19307920732E+03  0.19563698227E+03  0.00000000000E+00 0.  1.
<scales pt_clust_5="13000.00000" pt_clust_6="13000.00000" pt_clust_7="13000.00000" pt_clust_8="13000.00000" pt_clust_9="31.53171"></scales>
<clustering>
<clus scale="   31.532">  2  9  1 -1</clus>
<clus scale="   70.841">  5  6 -1 -1</clus>
<clus scale="   81.340">  2  5  1 -1</clus>
<clus scale="   90.334">  7  8 -1 -1</clus>
<clus scale="   98.782">  1  5  2 -1</clus>
</clustering>
</event>
<event>
 9    1  0.2802611E-005  0.1411600E+03  0.7546771E-02  0.1214275E+00
          1   -1    0    0  502    0  0.00000000000E+00  0.00000000000E+00  0.42490110956E+03  0.42490110956E+03  0.00000000000E+00 0. -1.
         -2   -1    0    0    0  501 -0.00000000000E+00 -0.00000000000E+00 -0.14629194728E+03  0.14629194728E+03  0.00000000000E+00 0.  1.
         23    2    1    2    0    0  0.23649591747E+02  0.97548174731E+02 -0.37832230697E+02  0.14305957599E+03  0.94656299424E+02 0.  0.
        -24    2    1    2    0    0 -0.44458810581E+01 -0.10544404952E+03  0.35758633583E+03  0.38204624112E+03  0.83385426449E+02 0.  0.
         13    1    4    4    0    0 -0.32760401811E+02 -0.31692812965E+02  0.20739964872E+03  0.21234945870E+03  0.00000000000E+00 0. -1.
        -14    1    4    4    0    0  0.28314520753E+02 -0.73751236560E+02  0.15018668711E+03  0.16969678242E+03  0.00000000000E+00 0.  1.
        -11    1    3    3    0    0  0.43872415780E+01  0.34050526762E+02 -0.63279021154E+02  0.71992505024E+02  0.00000000000E+00 0.  1.
         11    1    3    3    0    0  0.19262350170E+02  0.63497647969E+02  0.25446790456E+02  0.71067070970E+02  0.00000000000E+00 0. -1.
         21    1    1    2  502  501 -0.19203710689E+02  0.78958747940E+01 -0.41144942856E+02  0.46087239726E+02  0.00000000000E+00 0.  1.
<scales pt_clust_5="13000.00000" pt_clust_6="13000.00000" pt_clust_7="13000.00000" pt_clust_8="13000.00000" pt_clust_9="20.76361"></scales>
<clustering>
<clus scale="   20.764">  2  9  1 -1</clus>
<clus scale="   83.385">  5  6 -1 -1</clus>
<clus scale="   94.656">  7  8 -1 -1</clus>
<clus scale="  133.864">  1  5  2 -1</clus>
<clus scale="  133.864">  1  5  2 -1</clus>
</clustering>
</event>
<event>
 9    1  0.2802611E-005  0.1022681E+03  0.7546771E-02  0.1282540E+00
          1   -1    0    0  502    0  0.00000000000E+00  0.00000000000E+00  0.31240159527E+03  0.31240159527E+03  0.00000000000E+00 0. -1.
         -2   -1    0    0    0  501 -0.00000000000E+00 -0.00000000000E+00 -0.60522936581E+02  0.60522936581E+02  0.00000000000E+00 0.  1.
         23    2    1    2    0    0 -0.16454238494E+02 -0.21908141709E+02  0.11181783248E+02  0.95799304563E+02  0.91114026585E+02 0.  0.
        -24    2    1    2    0    0  0.60495566991E+01  0.50914709795E+02  0.22365687697E+03  0.24191159437E+03  0.76615377462E+02 0.  0.
         11    1    4    4    0    0  0.38607211618E+02  0.34208201785E+02  0.94389003288E+02  0.10756394284E+03  0.00000000000E+00 0. -1.
        -12    1    4    4    0    0 -0.32557654919E+02  0.16706508010E+02  0.12926787369E+03  0.13434765153E+03  0.00000000000E+00 0.  1.
        -13    1    3    3    0    0  0.25654321116E+01 -0.32181029927E+02  0.45169257475E+02  0.55519923900E+02  0.00000000000E+00 0. -1.
         13    1    3    3    0    0 -0.19019670606E+02  0.10272888219E+02 -0.33987474226E+02  0.40279380663E+02  0.00000000000E+00 0.  1.
         21    1    1    2  502  501  0.10404681795E+02 -0.29006568087E+02  0.17039998466E+02  0.35213632916E+02  0.00000000000E+00 0.  1.
<scales pt_clust_5="13000.00000" pt_clust_6="13000.00000" pt_clust_7="13000.00000" pt_clust_8="13000.00000" pt_clust_9="30.81620"></scales>
<clustering>
<clus scale="   30.816">  2  9  1 -1</clus>
<clus scale="   76.615">  5  6 -1 -1</clus>
<clus scale="   89.593">  1  5  2 -1</clus>
<clus scale="   91.114">  7  8 -1 -1</clus>
<clus scale="   89.593">  1  5  2 -1</clus>
</clustering>
</event>
<event>
 9    1  0.2802611E-005  0.1056819E+03  0.7546771E-02  0.1272721E+00
          1   -1    0    0  502    0  0.00000000000E+00  0.00000000000E+00  0.15547911259E+03  0.15547911259E+03  0.00000000000E+00 0. -1.
         -2   -1    0    0    0  501 -0.00000000000E+00 -0.00000000000E+00 -0.15558659810E+03  0.15558659810E+03  0.00000000000E+00 0.  1.
        -24    2    1    2    0    0 -0.58823953649E+02 -0.13548349747E+02 -0.90020069174E+02  0.13475448399E+03  0.80070861098E+02 0.  0.
         23    2    1    2    0    0  0.45169492293E+02  0.33877653332E+02  0.10380101459E+03  0.14815783591E+03  0.89376256816E+02 0.  0.
         11    1    3    3    0    0  0.64162699523E+01 -0.30708231453E+02 -0.39677568751E+02  0.50581354875E+02  0.00000000000E+00 0. -1.
        -12    1    3    3    0    0 -0.65240223601E+02  0.17159881706E+02 -0.50342500423E+02  0.84173129112E+02  0.00000000000E+00 0.  1.
        -11    1    4    4    0    0 -0.27286722312E+02  0.55949027328E+01  0.29981274234E+02  0.40923647880E+02  0.00000000000E+00 0.  1.
         11    1    4    4    0    0  0.72456214604E+02  0.28282750599E+02  0.73819740360E+02  0.10723418803E+03  0.00000000000E+00 0. -1.
         21    1    1    2  502  501  0.13654461356E+02 -0.20329303584E+02 -0.13888430933E+02  0.28153390789E+02  0.00000000000E+00 0.  1.
<scales pt_clust_5="13000.00000" pt_clust_6="13000.00000" pt_clust_7="13000.00000" pt_clust_8="13000.00000" pt_clust_9="24.48928"></scales>
<clustering>
<clus scale="   24.489">  2  9  1 -1</clus>
<clus scale="   80.071">  5  6 -1 -1</clus>
<clus scale="   89.376">  7  8 -1 -1</clus>
<clus scale="   97.938">  2  5  1 -1</clus>
<clus scale="  105.682">  1  5  2 -1</clus>
</clustering>
</event>
<event>
 9    1  0.2802611E-005  0.1077791E+03  0.7546771E-02  0.1267373E+00
          1   -1    0    0  502    0  0.00000000000E+00  0.00000000000E+00  0.14801776805E+03  0.14801776805E+03  0.00000000000E+00 0. -1.
         -2   -1    0    0    0  501 -0.00000000000E+00 -0.00000000000E+00 -0.26078632172E+03  0.26078632172E+03  0.00000000000E+00 0.  1.
        -24    2    1    2    0    0  0.62077893934E+02  0.53113430464E+02 -0.33766931803E+02  0.12228868780E+03  0.84496248842E+02 0.  0.
         23    2    1    2    0    0 -0.34131599873E+02 -0.36370239647E+02  0.75704710916E+02  0.12841613191E+03  0.90949102458E+02 0.  0.
         11    1    3    3    0    0 -0.67647563525E+01  0.36077422690E+02  0.11125274888E+02  0.38355105238E+02  0.00000000000E+00 0. -1.
        -12    1    3    3    0    0  0.68842650286E+02  0.17036007774E+02 -0.44892206691E+02  0.83933582558E+02  0.00000000000E+00 0.  1.
        -13    1    4    4    0    0 -0.21536458296E+02 -0.11529451951E+02 -0.18203417047E+02  0.30464925576E+02  0.00000000000E+00 0.  1.
         13    1    4    4    0    0 -0.12595141577E+02 -0.24840787697E+02  0.93908127963E+02  0.97951206333E+02  0.00000000000E+00 0. -1.
         21    1    1    2  502  501 -0.27946294061E+02 -0.16743190817E+02 -0.15470633279E+03  0.15809927006E+03  0.00000000000E+00 0.  1.
<scales pt_clust_5="13000.00000" pt_clust_6="13000.00000" pt_clust_7="13000.00000" pt_clust_8="13000.00000" pt_clust_9="32.57806"></scales>
<clustering>
<clus scale="   32.578">  2  9  1 -1</clus>
<clus scale="   84.496">  5  6 -1 -1</clus>
<clus scale="   90.949">  7  8 -1 -1</clus>
<clus scale="  102.392">  2  5  1 -1</clus>
<clus scale="  107.779">  1  5  2 -1</clus>
</clustering>
</event>
<event>
 9    1  0.2802611E-005  0.1573894E+03  0.7546771E-02  0.1193824E+00
         -2   -1    0    0    0  501 -0.00000000000E+00  0.00000000000E+00  0.63821889669E+02  0.63821889669E+02  0.00000000000E+00 0.  1.
          1   -1    0    0  502    0  0.00000000000E+00 -0.00000000000E+00 -0.53992840858E+03  0.53992840858E+03  0.00000000000E+00 0. -1.
        -24    2    1    2    0    0 -0.96912574483E+02  0.76335805086E+02 -0.92484567998E+02  0.17372199292E+03  0.80042071902E+02 0.  0.
         23    2    1    2    0    0  0.91678723117E+02 -0.10237126655E+03 -0.30739938843E+03  0.34931202764E+03  0.92949686153E+02 0.  0.
         11    1    3    3    0    0 -0.10856252526E+03  0.64564604847E+02 -0.93465966416E+02  0.15713146396E+03  0.00000000000E+00 0. -1.
        -12    1    3    3    0    0  0.11649950774E+02  0.11771200239E+02  0.98139841770E+00  0.16590528954E+02  0.00000000000E+00 0.  1.
        -11    1    4    4    0    0  0.73683379441E+02 -0.37836258495E+02 -0.24161068935E+03  0.25541446332E+03  0.00000000000E+00 0.  1.
         11    1    4    4    0    0  0.17995343677E+02 -0.64535008054E+02 -0.65788699084E+02  0.93897564323E+02  0.00000000000E+00 0. -1.
         21    1    1    2  502  501  0.52338513659E+01  0.26035461463E+02 -0.76222562478E+02  0.80716277692E+02  0.00000000000E+00 0.  1.
<scales pt_clust_5="13000.00000" pt_clust_6="13000.00000" pt_clust_7="13000.00000" pt_clust_8="13000.00000" pt_clust_9="26.55633"></scales>
<clustering>
<clus scale="   26.556">  2  9  1 -1</clus>
<clus scale="   80.042">  5  6 -1 -1</clus>
<clus scale="   92.950">  7  8 -1 -1</clus>
<clus scale="  150.128">  1  5  2 -1</clus>
<clus scale="   26.556">  2  5  1 -1</clus>
</clustering>
</event>
<event>
 9    1  0.2802611E-005  0.9737464E+02  0.7546771E-02  0.1291376E+00
         -4   -1    0    0    0  501 -0.00000000000E+00  0.00000000000E+00  0.32977126461E+03  0.32977126461E+03  0.00000000000E+00 0.  1.
          3   -1    0    0  502    0  0.00000000000E+00 -0.00000000000E+00 -0.15393208829E+03  0.15393208829E+03  0.00000000000E+00 0. -1.
         23    2    1    2    0    0  0.57616507532E+02 -0.23491266544E+01  0.66813169603E+02  0.12691874326E+03  0.91209579663E+02 0.  0.
        -24    2    1    2    0    0 -0.20934236834E+02  0.25189021305E+02 -0.10605116049E+03  0.13740950252E+03  0.81004899086E+02 0.  0.
         13    1    4    4    0    0  0.13402651519E+02 -0.23502571940E+02 -0.41731227871E+02  0.49734267212E+02  0.00000000000E+00 0. -1.
        -14    1    4    4    0    0 -0.34336888353E+02  0.48691593245E+02 -0.64319932616E+02  0.87675235308E+02  0.00000000000E+00 0.  1.
        -13    1    3    3    0    0 -0.19080923324E+02  0.17430090519E+02  0.29935775433E+02  0.39547949899E+02  0.00000000000E+00 0.  1.
         13    1    3    3    0    0  0.76697430856E+02 -0.19779217173E+02  0.36877394170E+02  0.87370793362E+02  0.00000000000E+00 0. -1.
         21    1    1    2  502  501 -0.36682270698E+02 -0.22839894651E+02  0.21507716720E+03  0.21937510712E+03  0.00000000000E+00 0. -1.
<scales pt_clust_5="13000.00000" pt_clust_6="13000.00000" pt_clust_7="13000.00000" pt_clust_8="13000.00000" pt_clust_9="43.21169"></scales>
<clustering>
<clus scale="   43.212">  1  9  2 -1</clus>
<clus scale="   81.005">  5  6 -1 -1</clus>
<clus scale="   87.889">  2  5  1 -1</clus>
<clus scale="   91.210">  7  8 -1 -1</clus>
<clus scale="   87.889">  2  5  1 -1</clus>
</clustering>
</event>
<event>
 9    1  0.2802611E-005  0.9572556E+02  0.7546771E-02  0.1295332E+00
          3   -1    0    0  502    0  0.00000000000E+00  0.00000000000E+00  0.17126221613E+03  0.17126221613E+03  0.00000000000E+00 0. -1.
         -4   -1    0    0    0  501 -0.00000000000E+00 -0.00000000000E+00 -0.13621561976E+03  0.13621561976E+03  0.00000000000E+00 0.  1.
         23    2    1    2    0    0  0.47485023708E+02  0.35526324885E+02 -0.78160488547E+02  0.13404090213E+03  0.91328824791E+02 0.  0.
        -24    2    1    2    0    0 -0.20428407957E+02 -0.13555063154E+02  0.10948311670E+03  0.13838461947E+03  0.81010434355E+02 0.  0.
         11    1    4    4    0    0 -0.31442039698E+01 -0.23872013985E+02  0.11501565953E+03  0.11750898266E+03  0.00000000000E+00 0. -1.
        -12    1    4    4    0    0 -0.17284203988E+02  0.10316950831E+02 -0.55325428254E+01  0.20875636806E+02  0.00000000000E+00 0.  1.
        -13    1    3    3    0    0  0.73588828225E+02  0.29875902032E+02 -0.44390480411E+02  0.90985712685E+02  0.00000000000E+00 0.  1.
         13    1    3    3    0    0 -0.26103804517E+02  0.56504228527E+01 -0.33770008137E+02  0.43055189446E+02  0.00000000000E+00 0. -1.
         21    1    1    2  502  501 -0.27056615751E+02 -0.21971261731E+02  0.37239682172E+01  0.35052314292E+02  0.00000000000E+00 0. -1.
<scales pt_clust_5="13000.00000" pt_clust_6="13000.00000" pt_clust_7="13000.00000" pt_clust_8="13000.00000" pt_clust_9="34.85394"></scales>
<clustering>
<clus scale="   34.854">  2  9  1 -1</clus>
<clus scale="   81.010">  5  6 -1 -1</clus>
<clus scale="   85.937">  1  5  2 -1</clus>
<clus scale="   91.329">  7  8 -1 -1</clus>
<clus scale="   85.937">  1  5  2 -1</clus>
</clustering>
</event>
<event>
 9    1  0.2802611E-005  0.9591830E+02  0.7546771E-02  0.1295204E+00
         -2   -1    0    0    0  501 -0.00000000000E+00  0.00000000000E+00  0.25131126538E+03  0.25131126538E+03  0.00000000000E+00 0.  1.
          1   -1    0    0  502    0  0.00000000000E+00 -0.00000000000E+00 -0.11059549000E+03  0.11059549000E+03  0.00000000000E+00 0. -1.
        -24    2    1    2    0    0 -0.41693612015E+02 -0.20884672699E+02  0.79078649779E+02  0.12185191585E+03  0.80124463862E+02 0.  0.
         23    2    1    2    0    0  0.25791175604E+02  0.51935095249E+01 -0.62760932490E+02  0.11366664014E+03  0.91044017673E+02 0.  0.
         13    1    3    3    0    0 -0.57255082848E+02 -0.23943031241E+02  0.27481121347E+02  0.67872124524E+02  0.00000000000E+00 0. -1.
        -14    1    3    3    0    0  0.15561470833E+02  0.30583585422E+01  0.51597528432E+02  0.53979791327E+02  0.00000000000E+00 0.  1.
        -11    1    4    4    0    0  0.36403110644E+01 -0.28093737546E+02 -0.67691353727E+02  0.73380033547E+02  0.00000000000E+00 0.  1.
         11    1    4    4    0    0  0.22150864539E+02  0.33287247071E+02  0.49304212370E+01  0.40286606595E+02  0.00000000000E+00 0. -1.
         21    1    1    2  502  501  0.15902436411E+02  0.15691163174E+02  0.12439805810E+03  0.12638819939E+03  0.00000000000E+00 0.  1.
<scales pt_clust_5="13000.00000" pt_clust_6="13000.00000" pt_clust_7="13000.00000" pt_clust_8="13000.00000" pt_clust_9="22.34055"></scales>
<clustering>
<clus scale="   22.341">  1  9  2 -1</clus>
<clus scale="   80.124">  5  6 -1 -1</clus>
<clus scale="   85.623">  1  5  2 -1</clus>
<clus scale="   91.044">  7  8 -1 -1</clus>
<clus scale="   95.918">  2  5  1 -1</clus>
</clustering>
</event>
<event>
 9    1  0.2802611E-005  0.9582958E+02  0.7546771E-02  0.1294643E+00
         -2   -1    0    0    0  501 -0.00000000000E+00  0.00000000000E+00  0.27697343236E+03  0.27697343236E+03  0.00000000000E+00 0.  1.
          1   -1    0    0  502    0  0.00000000000E+00 -0.00000000000E+00 -0.68619335724E+02  0.68619335724E+02  0.00000000000E+00 0. -1.
        -24    2    1    2    0    0 -0.26568913314E+02 -0.57404766027E+02  0.10301911145E+03  0.14508030018E+03  0.80213102801E+02 0.  0.
         23    2    1    2    0    0  0.27260728815E+02  0.17754319751E+01  0.16121165754E+02  0.95373478968E+02  0.89943921478E+02 0.  0.
         11    1    3    3    0    0 -0.21013296827E+02  0.16405507392E+02  0.38858757613E+02  0.47124328744E+02  0.00000000000E+00 0. -1.
        -12    1    3    3    0    0 -0.55556164876E+01 -0.73810273419E+02  0.64160353832E+02  0.97955971439E+02  0.00000000000E+00 0.  1.
        -13    1    4    4    0    0  0.51076743754E+02 -0.79791306872E+01  0.35879656022E+02  0.62927339013E+02  0.00000000000E+00 0.  1.
         13    1    4    4    0    0 -0.23816014938E+02  0.97545626624E+01 -0.19758490268E+02  0.32446139954E+02  0.00000000000E+00 0. -1.
         21    1    1    2  502  501 -0.69181550116E+00  0.55629334051E+02  0.89213819437E+02  0.10513898893E+03  0.00000000000E+00 0. -1.
<scales pt_clust_5="13000.00000" pt_clust_6="13000.00000" pt_clust_7="13000.00000" pt_clust_8="13000.00000" pt_clust_9="55.63364"></scales>
<clustering>
<clus scale="   55.634">  1  9  2 -1</clus>
<clus scale="   80.213">  5  6 -1 -1</clus>
<clus scale="   86.761">  1  5  2 -1</clus>
<clus scale="   89.944">  7  8 -1 -1</clus>
<clus scale="   95.830">  2  5  1 -1</clus>
</clustering>
</event>
<event>
 9    1  0.2802611E-005  0.1331683E+03  0.7546771E-02  0.1225345E+00
         -2   -1    0    0    0  501 -0.00000000000E+00  0.00000000000E+00  0.57745411922E+02  0.57745411922E+02  0.00000000000E+00 0.  1.
          1   -1    0    0  502    0  0.00000000000E+00 -0.00000000000E+00 -0.42948517216E+03  0.42948517216E+03  0.00000000000E+00 0. -1.
         23    2    1    2    0    0  0.47734859495E+02  0.67850761693E+02 -0.65343893538E+02  0.13923005857E+03  0.90735010405E+02 0.  0.
        -24    2    1    2    0    0 -0.38943473853E+02 -0.96449634851E+02 -0.27395377422E+03  0.30386807292E+03  0.80411498626E+02 0.  0.
         13    1    4    4    0    0 -0.34129551401E+02 -0.20379381557E+01 -0.10287638156E+03  0.10840908336E+03  0.00000000000E+00 0. -1.
        -14    1    4    4    0    0 -0.48139224518E+01 -0.94411696696E+02 -0.17107739266E+03  0.19545898956E+03  0.00000000000E+00 0.  1.
        -11    1    3    3    0    0  0.47031914963E+02 -0.74210970971E+01 -0.23297656461E+02  0.53008060744E+02  0.00000000000E+00 0.  1.
         11    1    3    3    0    0  0.70294453169E+00  0.75271858790E+02 -0.42046237077E+02  0.86221997826E+02  0.00000000000E+00 0. -1.
         21    1    1    2  502  501 -0.87913856419E+01  0.28598873158E+02 -0.32442092482E+02  0.44132452595E+02  0.00000000000E+00 0. -1.
<scales pt_clust_5="13000.00000" pt_clust_6="13000.00000" pt_clust_7="13000.00000" pt_clust_8="13000.00000" pt_clust_9="29.91963"></scales>
<clustering>
<clus scale="   29.920">  1  9  2 -1</clus>
<clus scale="   80.411">  5  6 -1 -1</clus>
<clus scale="   90.735">  7  8 -1 -1</clus>
<clus scale="  126.360">  2  5  1 -1</clus>
<clus scale="  126.360">  2  5  1 -1</clus>
</clustering>
</event>
<event>
 9    1  0.2802611E-005  0.1530542E+03  0.7546771E-02  0.1224944E+00
          1   -1    0    0  502    0  0.00000000000E+00  0.00000000000E+00  0.69902195421E+03  0.69902195421E+03  0.00000000000E+00 0. -1.
         -2   -1    0    0    0  501 -0.00000000000E+00 -0.00000000000E+00 -0.60318822985E+02  0.60318822985E+02  0.00000000000E+00 0.  1.
         23    2    1    2    0    0  0.11103758024E+03 -0.16594216929E+02  0.12986738055E+03  0.19479983097E+03  0.92069133553E+02 0.  0.
        -24    2    1    2    0    0  0.21539255039E+02 -0.67894910331E+01  0.33112497493E+03  0.34159580753E+03  0.80832604835E+02 0.  0.
         13    1    4    4    0    0 -0.28919370430E+01 -0.32242163798E+02  0.59916437712E+02  0.68102128707E+02  0.00000000000E+00 0. -1.
        -14    1    4    4    0    0  0.24431192082E+02  0.25452672765E+02  0.27120853721E+03  0.27349367882E+03  0.00000000000E+00 0.  1.
        -11    1    3    3    0    0 -0.81416308363E+00  0.25618702736E+02  0.23830563281E+02  0.34998236208E+02  0.00000000000E+00 0.  1.
         11    1    3    3    0    0  0.11185174333E+03 -0.42212919665E+02  0.10603681727E+03  0.15980159476E+03  0.00000000000E+00 0. -1.
         21    1    1    2  502  501 -0.13257683528E+03  0.23383707962E+02  0.17771077575E+03  0.22294513870E+03  0.00000000000E+00 0.  1.
<scales pt_clust_5="13000.00000" pt_clust_6="13000.00000" pt_clust_7="13000.00000" pt_clust_8="13000.00000" pt_clust_9="122.26557"></scales>
<clustering>
<clus scale="   80.833">  5  6 -1 -1</clus>
<clus scale="   83.928">  1  5  2 -1</clus>
<clus scale="   92.069">  7  8 -1 -1</clus>
<clus scale="  122.266">  1  9  2 -1</clus>
<clus scale="   83.928">  1  5  2 -1</clus>
</clustering>
</event>
<event>
 9    1  0.2802611E-005  0.9987395E+02  0.7546771E-02  0.1285888E+00
         -4   -1    0    0    0  501 -0.00000000000E+00  0.00000000000E+00  0.19181752566E+03  0.19181752566E+03  0.00000000000E+00 0.  1.
          3   -1    0    0  502    0  0.00000000000E+00 -0.00000000000E+00 -0.23189164486E+03  0.23189164486E+03  0.00000000000E+00 0. -1.
        -24    2    1    2    0    0  0.29745170563E+02  0.10832888615E+02  0.91394388318E+02  0.12359115366E+03  0.76939667268E+02 0.  0.
         23    2    1    2    0    0 -0.40339720478E+02 -0.27957167916E+02 -0.20255850271E+03  0.22623112462E+03  0.87986808324E+02 0.  0.
         11    1    3    3    0    0  0.48950790359E+02  0.20339812359E+02  0.35681206713E+02  0.63898641270E+02  0.00000000000E+00 0. -1.
        -12    1    3    3    0    0 -0.19205619796E+02 -0.95069237443E+01  0.55713181605E+02  0.59692512390E+02  0.00000000000E+00 0.  1.
        -11    1    4    4    0    0 -0.16715390852E+02  0.21540721620E+02 -0.15641458660E+02  0.31433456829E+02  0.00000000000E+00 0.  1.
         11    1    4    4    0    0 -0.23624329626E+02 -0.49497889536E+02 -0.18691704405E+03  0.19479766779E+03  0.00000000000E+00 0. -1.
         21    1    1    2  502  501  0.10594549915E+02  0.17124279301E+02  0.71089995186E+02  0.73886892241E+02  0.00000000000E+00 0. -1.
<scales pt_clust_5="13000.00000" pt_clust_6="13000.00000" pt_clust_7="13000.00000" pt_clust_8="13000.00000" pt_clust_9="20.13667"></scales>
<clustering>
<clus scale="   20.137">  1  9  2 -1</clus>
<clus scale="   76.940">  5  6 -1 -1</clus>
<clus scale="   87.987">  7  8 -1 -1</clus>
<clus scale="   90.293">  1  5  2 -1</clus>
<clus scale="   99.874">  2  5  1 -1</clus>
</clustering>
</event>
<event>
 9    1  0.2802611E-005  0.1690060E+03  0.7546771E-02  0.1179857E+00
          1   -1    0    0  502    0  0.00000000000E+00  0.00000000000E+00  0.70651328304E+03  0.70651328304E+03  0.00000000000E+00 0. -1.
         -2   -1    0    0    0  501 -0.00000000000E+00 -0.00000000000E+00 -0.76251844628E+02  0.76251844628E+02  0.00000000000E+00 0.  1.
        -24    2    1    2    0    0  0.14593492622E+03 -0.34779959063E+02  0.66602723243E+02  0.18485316789E+03  0.85018366788E+02 0.  0.
         23    2    1    2    0    0 -0.11378507886E+03 -0.26896445951E+01  0.46694406844E+03  0.48932417605E+03  0.91908149026E+02 0.  0.
         11    1    3    3    0    0  0.13027563673E+03 -0.14237153887E+02  0.82182231540E+02  0.15468793508E+03  0.00000000000E+00 0. -1.
        -12    1    3    3    0    0  0.15659289485E+02 -0.20542805176E+02 -0.15579508298E+02  0.30165232810E+02  0.00000000000E+00 0.  1.
        -11    1    4    4    0    0 -0.82471629959E+01  0.31250906551E+02  0.15312732703E+03  0.15650116019E+03  0.00000000000E+00 0.  1.
         11    1    4    4    0    0 -0.10553791586E+03 -0.33940551146E+02  0.31381674141E+03  0.33282301586E+03  0.00000000000E+00 0. -1.
         21    1    1    2  502  501 -0.32149847362E+02  0.37469603658E+02  0.96714646728E+02  0.10858778373E+03  0.00000000000E+00 0. -1.
<scales pt_clust_5="13000.00000" pt_clust_6="13000.00000" pt_clust_7="13000.00000" pt_clust_8="13000.00000" pt_clust_9="49.37189"></scales>
<clustering>
<clus scale="   49.372">  1  9  2 -1</clus>
<clus scale="   85.018">  5  6 -1 -1</clus>
<clus scale="   91.908">  7  8 -1 -1</clus>
<clus scale="  165.360">  2  5  1 -1</clus>
<clus scale="   49.372">  1  5  2 -1</clus>
</clustering>
</event>
<event>
 9    1  0.2802611E-005  0.9357262E+02  0.7546771E-02  0.1300414E+00
          1   -1    0    0  502    0  0.00000000000E+00  0.00000000000E+00  0.38033591525E+03  0.38033591525E+03  0.00000000000E+00 0. -1.
         -2   -1    0    0    0  501 -0.00000000000E+00 -0.00000000000E+00 -0.99006098290E+02  0.99006098290E+02  0.00000000000E+00 0.  1.
         23    2    1    2    0    0 -0.10538438938E+01 -0.91032107081E+01  0.63675248834E+02  0.11061602818E+03  0.89985495182E+02 0.  0.
        -24    2    1    2    0    0  0.88700745481E+01  0.28735592924E+02  0.28535476326E+03  0.29780461825E+03  0.79723504777E+02 0.  0.
         13    1    4    4    0    0 -0.25374061350E+02 -0.12909993906E+02  0.13773979791E+03  0.14065120995E+03  0.00000000000E+00 0. -1.
        -14    1    4    4    0    0  0.34244135898E+02  0.41645586830E+02  0.14761496535E+03  0.15715340830E+03  0.00000000000E+00 0.  1.
        -13    1    3    3    0    0 -0.38843068829E+02 -0.16983582297E+02  0.57630151777E+02  0.71543416591E+02  0.00000000000E+00 0. -1.
         13    1    3    3    0    0  0.37789224935E+02  0.78803715884E+01  0.60450970564E+01  0.39072611584E+02  0.00000000000E+00 0.  1.
         21    1    1    2  502  501 -0.78162306543E+01 -0.19632382216E+02 -0.67700195130E+02  0.70921367117E+02  0.00000000000E+00 0.  1.
<scales pt_clust_5="13000.00000" pt_clust_6="13000.00000" pt_clust_7="13000.00000" pt_clust_8="13000.00000" pt_clust_9="21.13111"></scales>
<clustering>
<clus scale="   21.131">  2  9  1 -1</clus>
<clus scale="   79.724">  5  6 -1 -1</clus>
<clus scale="   83.751">  1  5  2 -1</clus>
<clus scale="   89.985">  7  8 -1 -1</clus>
<clus scale="   83.751">  1  5  2 -1</clus>
</clustering>
</event>
<event>
 9    1  0.2802611E-005  0.1430299E+03  0.7546771E-02  0.1211969E+00
          1   -1    0    0  502    0  0.00000000000E+00  0.00000000000E+00  0.52801048393E+03  0.52801048393E+03  0.00000000000E+00 0. -1.
         -2   -1    0    0    0  501 -0.00000000000E+00 -0.00000000000E+00 -0.83270672977E+02  0.83270672977E+02  0.00000000000E+00 0.  1.
         23    2    1    2    0    0  0.47789500581E+02 -0.71508138398E+02  0.10765444996E+03  0.16201505424E+03  0.85218231501E+02 0.  0.
        -24    2    1    2    0    0  0.35905397924E+01  0.14214666345E+03  0.32403283902E+03  0.36094805185E+03  0.71187424894E+02 0.  0.
         11    1    4    4    0    0  0.27765976561E+02  0.94989257011E+02  0.25768008002E+03  0.27603067228E+03  0.00000000000E+00 0. -1.
        -12    1    4    4    0    0 -0.24175436769E+02  0.47157406443E+02  0.66352758998E+02  0.84917379564E+02  0.00000000000E+00 0.  1.
        -13    1    3    3    0    0  0.87280781533E+01 -0.35059275144E+02 -0.58177097231E+01  0.36594779249E+02  0.00000000000E+00 0.  1.
         13    1    3    3    0    0  0.39061422428E+02 -0.36448863254E+02  0.11347215969E+03  0.12542027499E+03  0.00000000000E+00 0. -1.
         21    1    1    2  502  501 -0.51380040373E+02 -0.70638525056E+02  0.13052521970E+02  0.88318050820E+02  0.00000000000E+00 0.  1.
<scales pt_clust_5="13000.00000" pt_clust_6="13000.00000" pt_clust_7="13000.00000" pt_clust_8="13000.00000" pt_clust_9="87.34821"></scales>
<clustering>
<clus scale="   71.187">  5  6 -1 -1</clus>
<clus scale="   85.218">  7  8 -1 -1</clus>
<clus scale="   87.348">  2  9  1 -1</clus>
<clus scale="  135.141">  1  5  2 -1</clus>
<clus scale="  135.141">  1  5  2 -1</clus>
</clustering>
</event>
<event>
 9    1  0.2802611E-005  0.1101953E+03  0.7546771E-02  0.1265693E+00
          1   -1    0    0  502    0  0.00000000000E+00  0.00000000000E+00  0.40845570307E+03  0.40845570307E+03  0.00000000000E+00 0. -1.
         -2   -1    0    0    0  501 -0.00000000000E+00 -0.00000000000E+00 -0.39008799042E+02  0.39008799042E+02  0.00000000000E+00 0.  1.
         23    2    1    2    0    0  0.65340551966E+02 -0.11062148818E+02  0.16457175145E+03  0.19985785876E+03  0.92019255954E+02 0.  0.
        -24    2    1    2    0    0 -0.56739178376E+02 -0.19040132486E+02  0.18749502924E+03  0.21179882780E+03  0.78246383040E+02 0.  0.
         11    1    4    4    0    0 -0.45226188495E+02  0.10161355644E+02  0.16927069866E+03  0.17550279399E+03  0.00000000000E+00 0. -1.
        -12    1    4    4    0    0 -0.11512989881E+02 -0.29201488130E+02  0.18224330583E+02  0.36296033808E+02  0.00000000000E+00 0.  1.
        -13    1    3    3    0    0  0.28367850261E+02 -0.50927157721E+02  0.73778947293E+02  0.94030013217E+02  0.00000000000E+00 0.  1.
         13    1    3    3    0    0  0.36972701705E+02  0.39865008903E+02  0.90792804159E+02  0.10582784555E+03  0.00000000000E+00 0. -1.
         21    1    1    2  502  501 -0.86013735898E+01  0.30102281304E+02  0.17380123339E+02  0.35807815552E+02  0.00000000000E+00 0.  1.
<scales pt_clust_5="13000.00000" pt_clust_6="13000.00000" pt_clust_7="13000.00000" pt_clust_8="13000.00000" pt_clust_9="31.30704"></scales>
<clustering>
<clus scale="   31.307">  2  9  1 -1</clus>
<clus scale="   78.246">  5  6 -1 -1</clus>
<clus scale="   92.019">  7  8 -1 -1</clus>
<clus scale="   98.985">  1  5  2 -1</clus>
<clus scale="   98.985">  1  5  2 -1</clus>
</clustering>
</event>
<event>
 9    1  0.2802611E-005  0.1143088E+03  0.7546771E-02  0.1253922E+00
          1   -1    0    0  502    0  0.00000000000E+00  0.00000000000E+00  0.45037944352E+03  0.45037944352E+03  0.00000000000E+00 0. -1.
         -2   -1    0    0    0  501 -0.00000000000E+00 -0.00000000000E+00 -0.10713448097E+03  0.10713448097E+03  0.00000000000E+00 0.  1.
         23    2    1    2    0    0 -0.54497149944E+02  0.31951287472E+02  0.46658605653E+02  0.11888725865E+03  0.89254303338E+02 0.  0.
        -24    2    1    2    0    0  0.70441731562E+02  0.14752462972E+02  0.34810617788E+03  0.36728409831E+03  0.92412256150E+02 0.  0.
         11    1    4    4    0    0  0.81321861602E+02  0.25080184177E+02  0.33947000076E+03  0.34997448797E+03  0.00000000000E+00 0. -1.
        -12    1    4    4    0    0 -0.10880130040E+02 -0.10327721205E+02  0.86361771151E+01  0.17309610341E+02  0.00000000000E+00 0.  1.
        -13    1    3    3    0    0 -0.25274477831E+02 -0.28217809293E+02  0.33807362883E+02  0.50773829637E+02  0.00000000000E+00 0. -1.
         13    1    3    3    0    0 -0.29222672113E+02  0.60169096765E+02  0.12851242771E+02  0.68113429012E+02  0.00000000000E+00 0.  1.
         21    1    1    2  502  501 -0.15944581618E+02 -0.46703750444E+02 -0.51519820974E+02  0.71342567529E+02  0.00000000000E+00 0.  1.
<scales pt_clust_5="13000.00000" pt_clust_6="13000.00000" pt_clust_7="13000.00000" pt_clust_8="13000.00000" pt_clust_9="49.35048"></scales>
<clustering>
<clus scale="   49.350">  2  9  1 -1</clus>
<clus scale="   89.254">  7  8 -1 -1</clus>
<clus scale="   92.412">  5  6 -1 -1</clus>
<clus scale="  111.771">  2  7  1 -1</clus>
<clus scale="  114.309">  1  5  2 -1</clus>
</clustering>
</event>
<event>
 9    1  0.2802611E-005  0.1249936E+03  0.7546771E-02  0.1239774E+00
          1   -1    0    0  502    0  0.00000000000E+00  0.00000000000E+00  0.40410375000E+03  0.40410375000E+03  0.00000000000E+00 0. -1.
         -2   -1    0    0    0  501 -0.00000000000E+00 -0.00000000000E+00 -0.97027745423E+02  0.97027745423E+02  0.00000000000E+00 0.  1.
         23    2    1    2    0    0  0.44814863601E+02 -0.52701920604E+02 -0.31265030488E+02  0.12269414845E+03  0.96387174960E+02 0.  0.
        -24    2    1    2    0    0 -0.24714506913E+02  0.77711718674E+02  0.32304305018E+03  0.34289100145E+03  0.81040166207E+02 0.  0.
         11    1    4    4    0    0  0.18204148496E+02  0.57246274400E+02  0.11804109111E+03  0.13244706922E+03  0.00000000000E+00 0. -1.
        -12    1    4    4    0    0 -0.42918655409E+02  0.20465444273E+02  0.20500195907E+03  0.21044393223E+03  0.00000000000E+00 0.  1.
        -13    1    3    3    0    0  0.27844541135E+02  0.23224095501E+02  0.54513591969E+01  0.36665984235E+02  0.00000000000E+00 0.  1.
         13    1    3    3    0    0  0.16970322466E+02 -0.75926016105E+02 -0.36716389685E+02  0.86028164212E+02  0.00000000000E+00 0. -1.
         21    1    1    2  502  501 -0.20100356688E+02 -0.25009798070E+02  0.15297984891E+02  0.35546345526E+02  0.00000000000E+00 0. -1.
<scales pt_clust_5="13000.00000" pt_clust_6="13000.00000" pt_clust_7="13000.00000" pt_clust_8="13000.00000" pt_clust_9="32.08605"></scales>
<clustering>
<clus scale="   32.086">  2  9  1 -1</clus>
<clus scale="   81.040">  5  6 -1 -1</clus>
<clus scale="   96.387">  7  8 -1 -1</clus>
<clus scale="  113.580">  1  5  2 -1</clus>
<clus scale="  113.580">  1  5  2 -1</clus>
</clustering>
</event>
<event>
 9    1  0.2802611E-005  0.1433573E+03  0.7546771E-02  0.1218133E+00
          1   -1    0    0  502    0  0.00000000000E+00  0.00000000000E+00  0.27254645284E+03  0.27254645284E+03  0.00000000000E+00 0. -1.
         -2   -1    0    0    0  501 -0.00000000000E+00 -0.00000000000E+00 -0.12229057602E+03  0.12229057602E+03  0.00000000000E+00 0.  1.
         23    2    1    2    0    0  0.10173851356E+02  0.13284158873E+03  0.28753073808E+02  0.17731922369E+03  0.11342386384E+03 0.  0.
        -24    2    1    2    0    0  0.19839394433E+02 -0.71712726567E+02  0.96278464423E+02  0.14489687176E+03  0.78671748501E+02 0.  0.
         11    1    4    4    0    0  0.14556235661E+02 -0.49622049900E+02  0.62993960052E+01  0.52095241846E+02  0.00000000000E+00 0. -1.
        -12    1    4    4    0    0  0.52831587717E+01 -0.22090676667E+02  0.89979068417E+02  0.92801629918E+02  0.00000000000E+00 0.  1.
        -13    1    3    3    0    0  0.48854468716E+02  0.28700806705E+02  0.34042075296E+02  0.66101121847E+02  0.00000000000E+00 0. -1.
         13    1    3    3    0    0 -0.38680617360E+02  0.10414078202E+03 -0.52890014881E+01  0.11121810184E+03  0.00000000000E+00 0.  1.
         21    1    1    2  502  501 -0.30013245789E+02 -0.61128862162E+02  0.25224338583E+02  0.72620933407E+02  0.00000000000E+00 0.  1.
<scales pt_clust_5="13000.00000" pt_clust_6="13000.00000" pt_clust_7="13000.00000" pt_clust_8="13000.00000" pt_clust_9="68.09943"></scales>
<clustering>
<clus scale="   68.099">  2  9  1 -1</clus>
<clus scale="   78.672">  5  6 -1 -1</clus>
<clus scale="  113.424">  7  8 -1 -1</clus>
<clus scale="  117.795">  1  5  2 -1</clus>
<clus scale="  117.795">  1  5  2 -1</clus>
</clustering>
</event>
<event>
 9    1  0.2802611E-005  0.1132042E+03  0.7546771E-02  0.1258403E+00
         -4   -1    0    0    0  501 -0.00000000000E+00  0.00000000000E+00  0.30181585684E+03  0.30181585684E+03  0.00000000000E+00 0.  1.
          3   -1    0    0  502    0  0.00000000000E+00 -0.00000000000E+00 -0.11527096442E+03  0.11527096442E+03  0.00000000000E+00 0. -1.
        -24    2    1    2    0    0  0.63532726666E+02  0.29000367805E+01  0.21046157792E+03  0.23409811061E+03  0.80392985028E+02 0.  0.
         23    2    1    2    0    0 -0.62818218469E+02  0.30229414526E+02 -0.64040872732E+02  0.13095005707E+03  0.90480594557E+02 0.  0.
         13    1    3    3    0    0  0.43237778880E+01  0.26410252233E+02  0.12310112210E+03  0.12597651662E+03  0.00000000000E+00 0. -1.
        -14    1    3    3    0    0  0.59208948778E+02 -0.23510215453E+02  0.87360455816E+02  0.10812159399E+03  0.00000000000E+00 0.  1.
        -11    1    4    4    0    0 -0.52918857423E+02  0.57069469711E+02 -0.66318607269E+02  0.10225207829E+03  0.00000000000E+00 0. -1.
         11    1    4    4    0    0 -0.98993610464E+01 -0.26840055185E+02  0.22777345369E+01  0.28697978780E+02  0.00000000000E+00 0.  1.
         21    1    1    2  502  501 -0.71450819690E+00 -0.33129451307E+02  0.40124187236E+02  0.52038653587E+02  0.00000000000E+00 0.  1.
<scales pt_clust_5="13000.00000" pt_clust_6="13000.00000" pt_clust_7="13000.00000" pt_clust_8="13000.00000" pt_clust_9="33.13716"></scales>
<clustering>
<clus scale="   33.137">  1  9  2 -1</clus>
<clus scale="   80.393">  5  6 -1 -1</clus>
<clus scale="   90.481">  7  8 -1 -1</clus>
<clus scale="  105.316">  1  5  2 -1</clus>
<clus scale="  113.204">  2  5  1 -1</clus>
</clustering>
</event>
<event>
 9    1  0.2802611E-005  0.1887607E+03  0.7546771E-02  0.1161765E+00
         -2   -1    0    0    0  501 -0.00000000000E+00  0.00000000000E+00  0.99038571144E+02  0.99038571144E+02  0.00000000000E+00 0.  1.
          1   -1    0    0  502    0  0.00000000000E+00 -0.00000000000E+00 -0.10857856458E+04  0.10857856458E+04  0.00000000000E+00 0. -1.
         23    2    1    2    0    0 -0.17979082448E+03 -0.11396334763E+02 -0.14113590687E+03  0.24924676676E+03  0.98742035214E+02 0.  0.
        -24    2    1    2    0    0  0.14265810476E+03 -0.75561998522E+02 -0.81730619810E+03  0.83687708593E+03  0.79453665890E+02 0.  0.
         11    1    4    4    0    0  0.11029127359E+03 -0.90982036798E+02 -0.61334911322E+03  0.62979284748E+03  0.00000000000E+00 0. -1.
        -12    1    4    4    0    0  0.32366831171E+02  0.15420038275E+02 -0.20395708488E+03  0.20708423844E+03  0.00000000000E+00 0.  1.
        -11    1    3    3    0    0 -0.55622279523E+02 -0.21040229112E+02  0.20141263160E+01  0.59502822834E+02  0.00000000000E+00 0. -1.
         11    1    3    3    0    0 -0.12416854496E+03  0.96438943491E+01 -0.14315003318E+03  0.18974394392E+03  0.00000000000E+00 0.  1.
         21    1    1    2  502  501  0.37132719715E+02  0.86958333285E+02 -0.28304969729E+02  0.98700364298E+02  0.00000000000E+00 0. -1.
<scales pt_clust_5="13000.00000" pt_clust_6="13000.00000" pt_clust_7="13000.00000" pt_clust_8="13000.00000" pt_clust_9="94.55470"></scales>
<clustering>
<clus scale="   79.454">  5  6 -1 -1</clus>
<clus scale="   94.555">  1  9  2 -1</clus>
<clus scale="   98.742">  7  8 -1 -1</clus>
<clus scale="  179.425">  2  5  1 -1</clus>
<clus scale="  179.425">  2  5  1 -1</clus>
</clustering>
</event>
<event>
 9    1  0.2802611E-005  0.2999200E+03  0.7546771E-02  0.1126798E+00
         -2   -1    0    0    0  501 -0.00000000000E+00  0.00000000000E+00  0.33359333372E+03  0.33359333372E+03  0.00000000000E+00 0.  1.
          1   -1    0    0  502    0  0.00000000000E+00 -0.00000000000E+00 -0.67873730838E+03  0.67873730838E+03  0.00000000000E+00 0. -1.
         23    2    1    2    0    0  0.34959975177E+02  0.35015203974E+02  0.14518831928E+03  0.17820077337E+03  0.90706136510E+02 0.  0.
        -24    2    1    2    0    0  0.23899868374E+03 -0.15802546192E+03 -0.43804218261E+03  0.52930348191E+03  0.78668956821E+02 0.  0.
         11    1    4    4    0    0  0.67851213557E+01 -0.24960549700E+02 -0.66907671738E+02  0.71733558747E+02  0.00000000000E+00 0. -1.
        -12    1    4    4    0    0  0.23221356238E+03 -0.13306491222E+03 -0.37113451087E+03  0.45756992316E+03  0.00000000000E+00 0.  1.
        -11    1    3    3    0    0  0.78656471509E+00  0.55316221967E+02  0.48165078522E+02  0.73351059200E+02  0.00000000000E+00 0. -1.
         11    1    3    3    0    0  0.34173410462E+02 -0.20301017993E+02  0.97023240763E+02  0.10484971417E+03  0.00000000000E+00 0.  1.
         21    1    1    2  502  501 -0.27395865892E+03  0.12301025795E+03 -0.52290111335E+02  0.30482638681E+03  0.00000000000E+00 0. -1.
<scales pt_clust_5="13000.00000" pt_clust_6="13000.00000" pt_clust_7="13000.00000" pt_clust_8="13000.00000" pt_clust_9="289.41870"></scales>
<clustering>
<clus scale="   78.669">  5  6 -1 -1</clus>
<clus scale="   90.706">  7  8 -1 -1</clus>
<clus scale="  103.324">  1  7  2 -1</clus>
<clus scale="  289.419">  1  9  2 -1</clus>
<clus scale="  299.920">  2  5  1 -1</clus>
</clustering>
</event>
<event>
 9    1  0.2802611E-005  0.1223573E+03  0.7546771E-02  0.1242902E+00
         -2   -1    0    0    0  501 -0.00000000000E+00  0.00000000000E+00  0.30674042787E+03  0.30674042787E+03  0.00000000000E+00 0.  1.
          1   -1    0    0  502    0  0.00000000000E+00 -0.00000000000E+00 -0.11897642590E+03  0.11897642590E+03  0.00000000000E+00 0. -1.
        -24    2    1    2    0    0  0.27361946158E+01  0.26250037142E+02  0.16646099719E+03  0.18637921151E+03  0.79570067768E+02 0.  0.
         23    2    1    2    0    0 -0.68790820811E+02 -0.70329343332E+02 -0.38626650324E+02  0.13985014337E+03  0.91584119388E+02 0.  0.
         13    1    3    3    0    0 -0.23766627774E+02  0.41392961554E+02  0.66463578233E+02  0.81826872686E+02  0.00000000000E+00 0. -1.
        -14    1    3    3    0    0  0.26502822390E+02 -0.15142924412E+02  0.99997418960E+02  0.10455233882E+03  0.00000000000E+00 0.  1.
        -11    1    4    4    0    0 -0.41368178692E+02 -0.33753521653E+02  0.27032315525E+02  0.59844569636E+02  0.00000000000E+00 0.  1.
         11    1    4    4    0    0 -0.27422642118E+02 -0.36575821679E+02 -0.65658965848E+02  0.80005573734E+02  0.00000000000E+00 0. -1.
         21    1    1    2  502  501  0.66054626195E+02  0.44079306190E+02  0.59929655104E+02  0.99487498898E+02  0.00000000000E+00 0.  1.
<scales pt_clust_5="13000.00000" pt_clust_6="13000.00000" pt_clust_7="13000.00000" pt_clust_8="13000.00000" pt_clust_9="79.41158"></scales>
<clustering>
<clus scale="   79.412">  1  9  2 -1</clus>
<clus scale="   79.570">  5  6 -1 -1</clus>
<clus scale="   91.584">  7  8 -1 -1</clus>
<clus scale="  113.644">  1  5  2 -1</clus>
<clus scale="  122.357">  2  5  1 -1</clus>
</clustering>
</event>
<event>
 9    1  0.2895489E-005  0.1298015E+03  0.7546771E-02  0.1239509E+00
          1   -1    0    0  502    0  0.00000000000E+00  0.00000000000E+00  0.27674336167E+03  0.27674336167E+03  0.00000000000E+00 0. -1.
         -2   -1    0    0    0  501 -0.00000000000E+00 -0.00000000000E+00 -0.24537843802E+03  0.24537843802E+03  0.00000000000E+00 0.  1.
        -24    2    1    2    0    0 -0.72007681008E+02  0.44827009837E+02 -0.20325671805E+03  0.23333727128E+03  0.77061156248E+02 0.  0.
         23    2    1    2    0    0  0.58339269263E+02 -0.29628479830E+02  0.23522987200E+03  0.26833481599E+03  0.11130661992E+03 0.  0.
         13    1    3    3    0    0 -0.28070887186E+02 -0.97289185311E+01 -0.12423524946E+03  0.12773810618E+03  0.00000000000E+00 0. -1.
        -14    1    3    3    0    0 -0.43936793822E+02  0.54555928368E+02 -0.79021468590E+02  0.10559916510E+03  0.00000000000E+00 0.  1.
        -13    1    4    4    0    0 -0.15238086851E+02 -0.20939381924E+02  0.48662815435E+01  0.26350288467E+02  0.00000000000E+00 0.  1.
         13    1    4    4    0    0  0.73577356114E+02 -0.86890979062E+01  0.23036359045E+03  0.24198452753E+03  0.00000000000E+00 0. -1.
         21    1    1    2  502  501  0.13668411745E+02 -0.15198530007E+02 -0.60823029734E+00  0.20449712421E+02  0.00000000000E+00 0. -1.
<scales pt_clust_5="13000.00000" pt_clust_6="13000.00000" pt_clust_7="13000.00000" pt_clust_8="13000.00000" pt_clust_9="20.44067"></scales>
<clustering>
<clus scale="   20.441">  2  9  1 -1</clus>
<clus scale="   77.061">  5  6 -1 -1</clus>
<clus scale="  101.969">  2  5  1 -1</clus>
<clus scale="  111.307">  7  8 -1 -1</clus>
<clus scale="  129.802">  1  5  2 -1</clus>
</clustering>
</event>
<event>
 9    1  0.2802611E-005  0.1093602E+03  0.7546771E-02  0.1266728E+00
          3   -1    0    0  502    0  0.00000000000E+00  0.00000000000E+00  0.18380769363E+03  0.18380769363E+03  0.00000000000E+00 0. -1.
         -4   -1    0    0    0  501 -0.00000000000E+00 -0.00000000000E+00 -0.82583039024E+02  0.82583039024E+02  0.00000000000E+00 0.  1.
         23    2    1    2    0    0 -0.27828362189E+02  0.33315257898E+02  0.25924520725E+01  0.10226756098E+03  0.92561380012E+02 0.  0.
        -24    2    1    2    0    0  0.41488749750E+02 -0.49798986453E+02  0.98525295715E+02  0.14271450697E+03  0.80367538209E+02 0.  0.
         13    1    4    4    0    0  0.46894292783E+02 -0.11162300511E+02  0.91004859236E+02  0.10298328045E+03  0.00000000000E+00 0. -1.
        -14    1    4    4    0    0 -0.54055430334E+01 -0.38636685942E+02  0.75204364787E+01  0.39731226521E+02  0.00000000000E+00 0.  1.
        -13    1    3    3    0    0  0.15714159370E+02  0.51556904215E+02  0.89353940289E+01  0.54634150889E+02  0.00000000000E+00 0.  1.
         13    1    3    3    0    0 -0.43542521559E+02 -0.18241646317E+02 -0.63429419563E+01  0.47633410089E+02  0.00000000000E+00 0. -1.
         21    1    1    2  502  501 -0.13660387561E+02  0.16483728555E+02  0.10690682258E+00  0.21408664705E+02  0.00000000000E+00 0.  1.
<scales pt_clust_5="13000.00000" pt_clust_6="13000.00000" pt_clust_7="13000.00000" pt_clust_8="13000.00000" pt_clust_9="21.40840"></scales>
<clustering>
<clus scale="   21.408">  2  9  1 -1</clus>
<clus scale="   80.368">  5  6 -1 -1</clus>
<clus scale="   92.561">  7  8 -1 -1</clus>
<clus scale="   99.252">  1  5  2 -1</clus>
<clus scale="   99.252">  1  5  2 -1</clus>
</clustering>
</event>
<event>
 9    1  0.2802611E-005  0.1203189E+03  0.7546771E-02  0.1251187E+00
          1   -1    0    0  502    0  0.00000000000E+00  0.00000000000E+00  0.24695400862E+03  0.24695400862E+03  0.00000000000E+00 0. -1.
         -2   -1    0    0    0  501 -0.00000000000E+00 -0.00000000000E+00 -0.12245911974E+03  0.12245911974E+03  0.00000000000E+00 0.  1.
         23    2    1    2    0    0  0.72739686106E+02  0.25064249124E+02 -0.20870509529E+02  0.13133125489E+03  0.10436973615E+03 0.  0.
        -24    2    1    2    0    0 -0.54626674175E+02 -0.16034171933E+02  0.17552295467E+03  0.20176243384E+03  0.81600268944E+02 0.  0.
         13    1    4    4    0    0 -0.53464319680E+02  0.69646056317E+01  0.16962985701E+03  0.17799221219E+03  0.00000000000E+00 0. -1.
        -14    1    4    4    0    0 -0.11623544947E+01 -0.22998777564E+02  0.58930976633E+01  0.23770221654E+02  0.00000000000E+00 0.  1.
        -11    1    3    3    0    0 -0.14554273036E+02  0.36266907218E+02 -0.18632324294E+02  0.43292943205E+02  0.00000000000E+00 0.  1.
         11    1    3    3    0    0  0.87293959142E+02 -0.11202658094E+02 -0.22381852351E+01  0.88038311684E+02  0.00000000000E+00 0. -1.
         21    1    1    2  502  501 -0.18113011931E+02 -0.90300771915E+01 -0.30157556267E+02  0.36319439634E+02  0.00000000000E+00 0.  1.
<scales pt_clust_5="13000.00000" pt_clust_6="13000.00000" pt_clust_7="13000.00000" pt_clust_8="13000.00000" pt_clust_9="20.23916"></scales>
<clustering>
<clus scale="   20.239">  2  9  1 -1</clus>
<clus scale="   81.600">  5  6 -1 -1</clus>
<clus scale="  101.204">  1  5  2 -1</clus>
<clus scale="  104.370">  7  8 -1 -1</clus>
<clus scale="  101.204">  1  5  2 -1</clus>
</clustering>
</event>
<event>
 9    1  0.2802611E-005  0.1770694E+03  0.7546771E-02  0.1181275E+00
          1   -1    0    0  502    0  0.00000000000E+00  0.00000000000E+00  0.75667996792E+03  0.75667996792E+03  0.00000000000E+00 0. -1.
         -2   -1    0    0    0  501 -0.00000000000E+00 -0.00000000000E+00 -0.17890194981E+03  0.17890194981E+03  0.00000000000E+00 0.  1.
        -24    2    1    2    0    0  0.14479519486E+02  0.12047646375E+03  0.30967928145E+02  0.14902663432E+03  0.80781745234E+02 0.  0.
         23    2    1    2    0    0  0.92956912581E+02  0.50293429078E+02  0.56694126089E+03  0.58379876126E+03  0.90709336556E+02 0.  0.
         11    1    3    3    0    0  0.26104701562E+02  0.10816457129E+03 -0.27408618295E+01  0.11130382855E+03  0.00000000000E+00 0. -1.
        -12    1    3    3    0    0 -0.11625182075E+02  0.12311892458E+02  0.33708789975E+02  0.37722805778E+02  0.00000000000E+00 0.  1.
        -11    1    4    4    0    0 -0.25380709697E+01  0.28822315150E+02  0.50828588945E+02  0.58486862704E+02  0.00000000000E+00 0.  1.
         11    1    4    4    0    0  0.95494983551E+02  0.21471113927E+02  0.51611267195E+03  0.52531189855E+03  0.00000000000E+00 0. -1.
         21    1    1    2  502  501 -0.10743643207E+03 -0.17076989282E+03 -0.20131170921E+02  0.20275652215E+03  0.00000000000E+00 0.  1.
<scales pt_clust_5="13000.00000" pt_clust_6="13000.00000" pt_clust_7="13000.00000" pt_clust_8="13000.00000" pt_clust_9="157.56868"></scales>
<clustering>
<clus scale="   80.782">  5  6 -1 -1</clus>
<clus scale="   90.709">  7  8 -1 -1</clus>
<clus scale="  139.279">  1  7  2 -1</clus>
<clus scale="  157.569">  1  9  2 -1</clus>
<clus scale="  139.279">  1  5  2 -1</clus>
</clustering>
</event>
<event>
 9    1  0.4365130E-005  0.1302198E+03  0.7546771E-02  0.1228401E+00
         -2   -1    0    0    0  501 -0.00000000000E+00  0.00000000000E+00  0.93934325611E+03  0.93934325611E+03  0.00000000000E+00 0.  1.
          1   -1    0    0  502    0  0.00000000000E+00 -0.00000000000E+00 -0.50099426320E+03  0.50099426320E+03  0.00000000000E+00 0. -1.
        -24    2    1    2    0    0  0.52104191088E+02 -0.87462458067E+02  0.76826392578E+03  0.77977953168E+03  0.86383621576E+02 0.  0.
         23    2    1    2    0    0 -0.83182946558E+01  0.92506356138E+02 -0.48352219653E+03  0.50075236481E+03  0.91283056310E+02 0.  0.
         11    1    3    3    0    0  0.35124720759E+02 -0.41436537434E+02  0.14930597219E+03  0.15888047701E+03  0.00000000000E+00 0. -1.
        -12    1    3    3    0    0  0.16979470329E+02 -0.46025920633E+02  0.61895795359E+03  0.62089905467E+03  0.00000000000E+00 0.  1.
        -13    1    4    4    0    0  0.36440068367E+02  0.72081026816E+02 -0.28489798470E+03  0.29612567382E+03  0.00000000000E+00 0.  1.
         13    1    4    4    0    0 -0.44758363023E+02  0.20425329321E+02 -0.19862421183E+03  0.20462669098E+03  0.00000000000E+00 0. -1.
         21    1    1    2  502  501 -0.43785896432E+02 -0.50438980705E+01  0.15360726366E+03  0.15980562282E+03  0.00000000000E+00 0.  1.
<scales pt_clust_5="13000.00000" pt_clust_6="13000.00000" pt_clust_7="13000.00000" pt_clust_8="13000.00000" pt_clust_9="44.07545"></scales>
<clustering>
<clus scale="   44.075">  1  9  2 -1</clus>
<clus scale="   86.384">  5  6 -1 -1</clus>
<clus scale="   91.283">  7  8 -1 -1</clus>
<clus scale="  126.833">  1  5  2 -1</clus>
<clus scale="  130.220">  2  5  1 -1</clus>
</clustering>
</event>
<event>
 9    1  0.2802611E-005  0.9466739E+02  0.7546771E-02  0.1296229E+00
          1   -1    0    0  502    0  0.00000000000E+00  0.00000000000E+00  0.13907813080E+03  0.13907813080E+03  0.00000000000E+00 0. -1.
         -2   -1    0    0    0  501 -0.00000000000E+00 -0.00000000000E+00 -0.22684322592E+03  0.22684322592E+03  0.00000000000E+00 0.  1.
         23    2    1    2    0    0 -0.96910682793E+01  0.22558096801E+02 -0.97710725206E+02  0.13420343346E+03  0.88658847261E+02 0.  0.
        -24    2    1    2    0    0  0.34304365705E+02 -0.95638667447E+01  0.10235932154E+03  0.13520390981E+03  0.80835694275E+02 0.  0.
         11    1    4    4    0    0  0.16234150131E+02 -0.43959657311E+02  0.71949823725E+02  0.85864871953E+02  0.00000000000E+00 0. -1.
        -12    1    4    4    0    0  0.18070215573E+02  0.34395790566E+02  0.30409497813E+02  0.49339037858E+02  0.00000000000E+00 0.  1.
        -13    1    3    3    0    0 -0.43299526083E+02  0.80324184574E+01 -0.84486834013E+02  0.95275357920E+02  0.00000000000E+00 0.  1.
         13    1    3    3    0    0  0.33608457804E+02  0.14525678344E+02 -0.13223891193E+02  0.38928075544E+02  0.00000000000E+00 0. -1.
         21    1    1    2  502  501 -0.24613297425E+02 -0.12994230056E+02 -0.92413691445E+02  0.96514013446E+02  0.00000000000E+00 0.  1.
<scales pt_clust_5="13000.00000" pt_clust_6="13000.00000" pt_clust_7="13000.00000" pt_clust_8="13000.00000" pt_clust_9="27.83279"></scales>
<clustering>
<clus scale="   27.833">  2  9  1 -1</clus>
<clus scale="   80.836">  5  6 -1 -1</clus>
<clus scale="   87.384">  1  5  2 -1</clus>
<clus scale="   88.659">  7  8 -1 -1</clus>
<clus scale="   87.384">  1  5  2 -1</clus>
</clustering>
</event>
<event>
 9    1  0.2802611E-005  0.1160002E+03  0.7546771E-02  0.1252823E+00
          1   -1    0    0  502    0  0.00000000000E+00  0.00000000000E+00  0.66184164824E+03  0.66184164824E+03  0.00000000000E+00 0. -1.
         -2   -1    0    0    0  501 -0.00000000000E+00 -0.00000000000E+00 -0.13882670321E+03  0.13882670321E+03  0.00000000000E+00 0.  1.
        -24    2    1    2    0    0  0.13037665199E+02 -0.15712581786E+02  0.20503861636E+02  0.86898784396E+02  0.81939761089E+02 0.  0.
         23    2    1    2    0    0 -0.46562868932E+02  0.67685646520E+02  0.59226453019E+03  0.60477039296E+03  0.90667011495E+02 0.  0.
         11    1    3    3    0    0  0.50675651862E+01  0.27367340060E+02  0.31190666239E+02  0.41803219724E+02  0.00000000000E+00 0. -1.
        -12    1    3    3    0    0  0.79701000129E+01 -0.43079921846E+02 -0.10686804603E+02  0.45095564672E+02  0.00000000000E+00 0.  1.
        -11    1    4    4    0    0 -0.31180563147E+02 -0.17352909596E+02  0.15603679679E+03  0.16006508971E+03  0.00000000000E+00 0.  1.
         11    1    4    4    0    0 -0.15382305786E+02  0.85038556116E+02  0.43622773340E+03  0.44470530326E+03  0.00000000000E+00 0. -1.
         21    1    1    2  502  501  0.33525203733E+02 -0.51973064733E+02 -0.89753446792E+02  0.10899917410E+03  0.00000000000E+00 0.  1.
<scales pt_clust_5="13000.00000" pt_clust_6="13000.00000" pt_clust_7="13000.00000" pt_clust_8="13000.00000" pt_clust_9="61.84771"></scales>
<clustering>
<clus scale="   61.848">  2  9  1 -1</clus>
<clus scale="   81.940">  5  6 -1 -1</clus>
<clus scale="   90.667">  7  8 -1 -1</clus>
<clus scale="  109.314">  2  5  1 -1</clus>
<clus scale="  116.000">  1  5  2 -1</clus>
</clustering>
</event>
<event>
 9    1  0.2802611E-005  0.1181550E+03  0.7546771E-02  0.1249565E+00
          1   -1    0    0  502    0  0.00000000000E+00  0.00000000000E+00  0.30739580844E+03  0.30739580844E+03  0.00000000000E+00 0. -1.
         -2   -1    0    0    0  501 -0.00000000000E+00 -0.00000000000E+00 -0.14315509539E+03  0.14315509539E+03  0.00000000000E+00 0.  1.
         23    2    1    2    0    0 -0.37872055640E+02 -0.20742326937E+02 -0.81065326485E+02  0.12871493665E+03  0.90174336887E+02 0.  0.
        -24    2    1    2    0    0  0.39120839269E+02  0.70982647284E+02  0.24662030233E+03  0.27156294722E+03  0.79723801354E+02 0.  0.
         13    1    4    4    0    0  0.36503970218E+02  0.83693507514E+02  0.16205752998E+03  0.18601017732E+03  0.00000000000E+00 0. -1.
        -14    1    4    4    0    0  0.26168690515E+01 -0.12710860230E+02  0.84562772345E+02  0.85552769903E+02  0.00000000000E+00 0.  1.
        -13    1    3    3    0    0 -0.62384658615E+02 -0.18996144787E+02 -0.81193692954E+02  0.10413988152E+03  0.00000000000E+00 0.  1.
         13    1    3    3    0    0  0.24512602974E+02 -0.17461821501E+01  0.12836646883E+00  0.24575055130E+02  0.00000000000E+00 0. -1.
         21    1    1    2  502  501 -0.12487836288E+01 -0.50240320347E+02 -0.13142628004E+01  0.50273019959E+02  0.00000000000E+00 0. -1.
<scales pt_clust_5="13000.00000" pt_clust_6="13000.00000" pt_clust_7="13000.00000" pt_clust_8="13000.00000" pt_clust_9="50.25584"></scales>
<clustering>
<clus scale="   50.256">  2  9  1 -1</clus>
<clus scale="   79.724">  5  6 -1 -1</clus>
<clus scale="   90.174">  7  8 -1 -1</clus>
<clus scale="  110.386">  1  5  2 -1</clus>
<clus scale="  110.386">  1  5  2 -1</clus>
</clustering>
</event>
<event>
 9    1  0.2802611E-005  0.3629926E+03  0.7546771E-02  0.1101411E+00
         -4   -1    0    0    0  501 -0.00000000000E+00  0.00000000000E+00  0.17309085833E+03  0.17309085833E+03  0.00000000000E+00 0.  1.
          3   -1    0    0  502    0  0.00000000000E+00 -0.00000000000E+00 -0.10309347642E+04  0.10309347642E+04  0.00000000000E+00 0. -1.
         23    2    1    2    0    0 -0.10360502145E+03 -0.32076210771E+03 -0.41950959323E+03  0.54605362001E+03  0.92541487438E+02 0.  0.
        -24    2    1    2    0    0 -0.77824577220E+02  0.47841744963E+01 -0.17996024012E+03  0.21129995849E+03  0.78628438162E+02 0.  0.
         11    1    4    4    0    0 -0.26704005275E+02 -0.33829590347E+02 -0.99620060011E+02  0.10854354627E+03  0.00000000000E+00 0. -1.
        -12    1    4    4    0    0 -0.51120571945E+02  0.38613764843E+02 -0.80340180107E+02  0.10275641221E+03  0.00000000000E+00 0.  1.
        -13    1    3    3    0    0 -0.10366977233E+03 -0.23785172151E+03 -0.36103259260E+03  0.44459576700E+03  0.00000000000E+00 0.  1.
         13    1    3    3    0    0  0.64750875773E-01 -0.82910386204E+02 -0.58477000628E+02  0.10145785300E+03  0.00000000000E+00 0. -1.
         21    1    1    2  502  501  0.18142959867E+03  0.31597793321E+03 -0.25837407248E+03  0.44667204399E+03  0.00000000000E+00 0. -1.
<scales pt_clust_5="13000.00000" pt_clust_6="13000.00000" pt_clust_7="13000.00000" pt_clust_8="13000.00000" pt_clust_9="350.99814"></scales>
<clustering>
<clus scale="   78.628">  5  6 -1 -1</clus>
<clus scale="   92.541">  7  8 -1 -1</clus>
<clus scale="  110.734">  2  5  1 -1</clus>
<clus scale="  350.998">  1  9  2 -1</clus>
<clus scale="  110.734">  2  5  1 -1</clus>
</clustering>
</event>
<event>
 9    1  0.2802611E-005  0.1207610E+03  0.7546771E-02  0.1244727E+00
          1   -1    0    0  502    0  0.00000000000E+00  0.00000000000E+00  0.77638380835E+03  0.77638380835E+03  0.00000000000E+00 0. -1.
         -2   -1    0    0    0  501 -0.00000000000E+00 -0.00000000000E+00 -0.11012264903E+03  0.11012264903E+03  0.00000000000E+00 0.  1.
         23    2    1    2    0    0  0.39545726416E+02  0.46123547770E+02 -0.31538887996E+01  0.10905900286E+03  0.90513385494E+02 0.  0.
        -24    2    1    2    0    0 -0.59823749584E+02 -0.55409290126E+02  0.71632380934E+03  0.72550657356E+03  0.81184468991E+02 0.  0.
         11    1    4    4    0    0 -0.49974106118E+02 -0.59981510528E+02  0.33302072617E+03  0.34204969952E+03  0.00000000000E+00 0. -1.
        -12    1    4    4    0    0 -0.98496434652E+01  0.45722204026E+01  0.38330308317E+03  0.38345687404E+03  0.00000000000E+00 0.  1.
        -11    1    3    3    0    0  0.67487490620E+02  0.37864188521E+02 -0.12655760481E+02  0.78411902386E+02  0.00000000000E+00 0.  1.
         11    1    3    3    0    0 -0.27941764204E+02  0.82593592489E+01  0.95018716813E+01  0.30647100474E+02  0.00000000000E+00 0. -1.
         21    1    1    2  502  501  0.20278023168E+02  0.92857423560E+01 -0.46908761229E+02  0.51940880958E+02  0.00000000000E+00 0.  1.
<scales pt_clust_5="13000.00000" pt_clust_6="13000.00000" pt_clust_7="13000.00000" pt_clust_8="13000.00000" pt_clust_9="22.30299"></scales>
<clustering>
<clus scale="   22.303">  2  9  1 -1</clus>
<clus scale="   81.184">  5  6 -1 -1</clus>
<clus scale="   90.513">  7  8 -1 -1</clus>
<clus scale="  113.936">  1  5  2 -1</clus>
<clus scale="  113.936">  1  5  2 -1</clus>
</clustering>
</event>
<event>
 9    1  0.2802611E-005  0.1847104E+03  0.7546771E-02  0.1164056E+00
          3   -1    0    0  502    0  0.00000000000E+00  0.00000000000E+00  0.29244080491E+03  0.29244080491E+03  0.00000000000E+00 0. -1.
         -4   -1    0    0    0  501 -0.00000000000E+00 -0.00000000000E+00 -0.18934191785E+03  0.18934191785E+03  0.00000000000E+00 0.  1.
        -24    2    1    2    0    0 -0.11403758566E+03  0.13892713106E+03 -0.45592683322E+02  0.20183332019E+03  0.79703686731E+02 0.  0.
         23    2    1    2    0    0  0.10375552224E+03 -0.11916494101E+03  0.17101962891E+03  0.24840883850E+03  0.86566425452E+02 0.  0.
         13    1    3    3    0    0 -0.99965288782E+02  0.14795583439E+03 -0.34764598144E+02  0.18191362010E+03  0.00000000000E+00 0. -1.
        -14    1    3    3    0    0 -0.14072296882E+02 -0.90287033308E+01 -0.10828085177E+02  0.19919700098E+02  0.00000000000E+00 0.  1.
        -13    1    4    4    0    0  0.64674827519E+02 -0.12202533894E+03  0.15017864089E+03  0.20402607881E+03  0.00000000000E+00 0.  1.
         13    1    4    4    0    0  0.39080694720E+02  0.28603979310E+01  0.20840988020E+02  0.44382759691E+02  0.00000000000E+00 0. -1.
         21    1    1    2  502  501  0.10282063425E+02 -0.19762190054E+02 -0.22328058528E+02  0.31540564066E+02  0.00000000000E+00 0.  1.
<scales pt_clust_5="13000.00000" pt_clust_6="13000.00000" pt_clust_7="13000.00000" pt_clust_8="13000.00000" pt_clust_9="22.27701"></scales>
<clustering>
<clus scale="   22.277">  2  9  1 -1</clus>
<clus scale="   79.704">  5  6 -1 -1</clus>
<clus scale="   86.566">  7  8 -1 -1</clus>
<clus scale="  181.595">  2  5  1 -1</clus>
<clus scale="  184.710">  1  5  2 -1</clus>
</clustering>
</event>
<event>
 9    1  0.2802611E-005  0.1113004E+03  0.7546771E-02  0.1258530E+00
         -2   -1    0    0    0  501 -0.00000000000E+00  0.00000000000E+00  0.41611968964E+02  0.41611968964E+02  0.00000000000E+00 0.  1.
          1   -1    0    0  502    0  0.00000000000E+00 -0.00000000000E+00 -0.61822299040E+03  0.61822299040E+03  0.00000000000E+00 0. -1.
         23    2    1    2    0    0  0.70098413215E+02  0.31954020840E+02 -0.11287062163E+03  0.16391751910E+03  0.90522532307E+02 0.  0.
        -24    2    1    2    0    0 -0.28765954675E+02 -0.58313127166E+02 -0.40265923989E+03  0.41759705523E+03  0.89582007822E+02 0.  0.
         11    1    4    4    0    0 -0.59241627407E+02 -0.42158039322E+02 -0.31746087812E+03  0.32568125496E+03  0.00000000000E+00 0. -1.
        -12    1    4    4    0    0  0.30475672732E+02 -0.16155087843E+02 -0.85198361769E+02  0.91915800273E+02  0.00000000000E+00 0.  1.
        -11    1    3    3    0    0  0.43494095908E+02  0.39673530196E+02 -0.13016683452E+02  0.60292283297E+02  0.00000000000E+00 0.  1.
         11    1    3    3    0    0  0.26604317308E+02 -0.77195093553E+01 -0.99853938181E+02  0.10362523580E+03  0.00000000000E+00 0. -1.
         21    1    1    2  502  501 -0.41332458540E+02  0.26359106325E+02 -0.61081159914E+02  0.78320385032E+02  0.00000000000E+00 0.  1.
<scales pt_clust_5="13000.00000" pt_clust_6="13000.00000" pt_clust_7="13000.00000" pt_clust_8="13000.00000" pt_clust_9="49.02218"></scales>
<clustering>
<clus scale="   49.022">  1  9  2 -1</clus>
<clus scale="   89.582">  5  6 -1 -1</clus>
<clus scale="   90.523">  7  8 -1 -1</clus>
<clus scale="  110.537">  2  5  1 -1</clus>
<clus scale="  110.537">  2  5  1 -1</clus>
</clustering>
</event>
<event>
 9    1  0.2802611E-005  0.1306201E+03  0.7546771E-02  0.1229176E+00
         -2   -1    0    0    0  501 -0.00000000000E+00  0.00000000000E+00  0.68025438751E+02  0.68025438751E+02  0.00000000000E+00 0.  1.
          1   -1    0    0  502    0  0.00000000000E+00 -0.00000000000E+00 -0.32632346685E+03  0.32632346685E+03  0.00000000000E+00 0. -1.
        -24    2    1    2    0    0 -0.73342642414E+02  0.41218677972E+02 -0.68320057781E+02  0.13441656794E+03  0.79511388055E+02 0.  0.
         23    2    1    2    0    0  0.81904022018E+02 -0.60487484789E+02 -0.19556413600E+03  0.23811974075E+03  0.89937061376E+02 0.  0.
         11    1    3    3    0    0 -0.81779488990E+02  0.10305385963E+02 -0.57866828423E+02  0.10071075231E+03  0.00000000000E+00 0. -1.
        -12    1    3    3    0    0  0.84368465758E+01  0.30913292008E+02 -0.10453229357E+02  0.33705815625E+02  0.00000000000E+00 0.  1.
        -11    1    4    4    0    0  0.35359556006E+02 -0.53259927301E+02 -0.39604825285E+02  0.75202794116E+02  0.00000000000E+00 0.  1.
         11    1    4    4    0    0  0.46544466013E+02 -0.72275574887E+01 -0.15595931071E+03  0.16291694664E+03  0.00000000000E+00 0. -1.
         21    1    1    2  502  501 -0.85613796042E+01  0.19268806818E+02  0.55861656812E+01  0.21812596909E+02  0.00000000000E+00 0.  1.
<scales pt_clust_5="13000.00000" pt_clust_6="13000.00000" pt_clust_7="13000.00000" pt_clust_8="13000.00000" pt_clust_9="21.08516"></scales>
<clustering>
<clus scale="   21.085">  1  9  2 -1</clus>
<clus scale="   79.511">  5  6 -1 -1</clus>
<clus scale="   89.937">  7  8 -1 -1</clus>
<clus scale="  123.673">  1  5  2 -1</clus>
<clus scale="  130.620">  2  5  1 -1</clus>
</clustering>
</event>
<event>
 9    1  0.2802611E-005  0.9104630E+02  0.7546771E-02  0.1301003E+00
          1   -1    0    0  502    0  0.00000000000E+00  0.00000000000E+00  0.12594735127E+03  0.12594735127E+03  0.00000000000E+00 0. -1.
         -2   -1    0    0    0  501 -0.00000000000E+00 -0.00000000000E+00 -0.22091676200E+03  0.22091676200E+03  0.00000000000E+00 0.  1.
        -24    2    1    2    0    0  0.35355095516E+02 -0.15046385538E+01 -0.16245998282E+03  0.18461235736E+03  0.80226116413E+02 0.  0.
         23    2    1    2    0    0 -0.27796593866E+02 -0.32471068928E+02  0.83221309156E+02  0.12405573865E+03  0.81467901941E+02 0.  0.
         13    1    3    3    0    0 -0.14639591405E+02  0.16277895955E+02 -0.10131402312E+03  0.10365239416E+03  0.00000000000E+00 0. -1.
        -14    1    3    3    0    0  0.49994686921E+02 -0.17782534509E+02 -0.61145959699E+02  0.80959963200E+02  0.00000000000E+00 0.  1.
        -13    1    4    4    0    0 -0.37052094584E+02  0.54162894372E+01  0.65217080967E+01  0.38009559072E+02  0.00000000000E+00 0.  1.
         13    1    4    4    0    0  0.92555007184E+01 -0.37887358365E+02  0.76699601060E+02  0.86046179579E+02  0.00000000000E+00 0. -1.
         21    1    1    2  502  501 -0.75585016497E+01  0.33975707481E+02 -0.15730737073E+02  0.38196017265E+02  0.00000000000E+00 0. -1.
<scales pt_clust_5="13000.00000" pt_clust_6="13000.00000" pt_clust_7="13000.00000" pt_clust_8="13000.00000" pt_clust_9="34.80632"></scales>
<clustering>
<clus scale="   34.806">  2  9  1 -1</clus>
<clus scale="   80.226">  5  6 -1 -1</clus>
<clus scale="   81.468">  7  8 -1 -1</clus>
<clus scale="   89.937">  2  5  1 -1</clus>
<clus scale="   91.046">  1  5  2 -1</clus>
</clustering>
</event>
<event>
 9    1  0.2802611E-005  0.1008604E+03  0.7546771E-02  0.1282167E+00
          1   -1    0    0  502    0  0.00000000000E+00  0.00000000000E+00  0.30399049064E+03  0.30399049064E+03  0.00000000000E+00 0. -1.
         -2   -1    0    0    0  501 -0.00000000000E+00 -0.00000000000E+00 -0.72659799021E+02  0.72659799021E+02  0.00000000000E+00 0.  1.
        -24    2    1    2    0    0 -0.32301266623E+02 -0.12980742665E+02  0.19442046585E+02  0.86414787265E+02  0.76665838397E+02 0.  0.
         23    2    1    2    0    0  0.54755768438E+02  0.27083390757E+02  0.23361793785E+03  0.25595356106E+03  0.84871551777E+02 0.  0.
         13    1    3    3    0    0 -0.49625380555E+01 -0.37328396365E+02  0.30185718055E+02  0.48261926336E+02  0.00000000000E+00 0. -1.
        -14    1    3    3    0    0 -0.27338728567E+02  0.24347653700E+02 -0.10743671471E+02  0.38152860929E+02  0.00000000000E+00 0.  1.
        -11    1    4    4    0    0  0.32832853793E+02 -0.28621927506E+02  0.80105418530E+02  0.91181626988E+02  0.00000000000E+00 0.  1.
         11    1    4    4    0    0  0.21922914645E+02  0.55705318263E+02  0.15351251932E+03  0.16477193407E+03  0.00000000000E+00 0. -1.
         21    1    1    2  502  501 -0.22454501815E+02 -0.14102648092E+02 -0.21729292822E+02  0.34281941332E+02  0.00000000000E+00 0.  1.
<scales pt_clust_5="13000.00000" pt_clust_6="13000.00000" pt_clust_7="13000.00000" pt_clust_8="13000.00000" pt_clust_9="26.51583"></scales>
<clustering>
<clus scale="   26.516">  2  9  1 -1</clus>
<clus scale="   76.666">  5  6 -1 -1</clus>
<clus scale="   84.872">  7  8 -1 -1</clus>
<clus scale="   94.060">  2  5  1 -1</clus>
<clus scale="  100.860">  1  5  2 -1</clus>
</clustering>
</event>
<event>
 9    1  0.2802611E-005  0.1655191E+03  0.7546771E-02  0.1184336E+00
         -2   -1    0    0    0  501 -0.00000000000E+00  0.00000000000E+00  0.31944657117E+03  0.31944657117E+03  0.00000000000E+00 0.  1.
          1   -1    0    0  502    0  0.00000000000E+00 -0.00000000000E+00 -0.42177254388E+03  0.42177254388E+03  0.00000000000E+00 0. -1.
        -24    2    1    2    0    0 -0.28822052308E+02  0.11834677403E+03  0.21916012604E+03  0.26335226118E+03  0.80539325792E+02 0.  0.
         23    2    1    2    0    0  0.67698187980E+02 -0.12117705054E+03 -0.37573736705E+03  0.41106442501E+03  0.92349717249E+02 0.  0.
         11    1    3    3    0    0 -0.47472576707E+02  0.52435379789E+02  0.71488809589E+02  0.10056721379E+03  0.00000000000E+00 0. -1.
        -12    1    3    3    0    0  0.18650524399E+02  0.65911394242E+02  0.14767131645E+03  0.16278504739E+03  0.00000000000E+00 0.  1.
        -13    1    4    4    0    0  0.66658037915E+02 -0.10052168644E+03 -0.37062925935E+03  0.38976140310E+03  0.00000000000E+00 0. -1.
         13    1    4    4    0    0  0.10401500645E+01 -0.20655364093E+02 -0.51081077034E+01  0.21303021905E+02  0.00000000000E+00 0.  1.
         21    1    1    2  502  501 -0.38876135672E+02  0.28302765064E+01  0.54251268307E+02  0.66802428869E+02  0.00000000000E+00 0.  1.
<scales pt_clust_5="13000.00000" pt_clust_6="13000.00000" pt_clust_7="13000.00000" pt_clust_8="13000.00000" pt_clust_9="38.97902"></scales>
<clustering>
<clus scale="   38.979">  1  9  2 -1</clus>
<clus scale="   80.539">  5  6 -1 -1</clus>
<clus scale="   92.350">  7  8 -1 -1</clus>
<clus scale="  159.232">  1  5  2 -1</clus>
<clus scale="  165.519">  2  5  1 -1</clus>
</clustering>
</event>
<event>
 9    1  0.2802611E-005  0.1068077E+03  0.7546771E-02  0.1278180E+00
          1   -1    0    0  502    0  0.00000000000E+00  0.00000000000E+00  0.13078356101E+03  0.13078356101E+03  0.00000000000E+00 0. -1.
         -2   -1    0    0    0  501 -0.00000000000E+00 -0.00000000000E+00 -0.12015734417E+03  0.12015734417E+03  0.00000000000E+00 0.  1.
         23    2    1    2    0    0  0.36226996100E+02  0.98788098306E+00 -0.40578425206E+02  0.11630092782E+03  0.10279069055E+03 0.  0.
        -24    2    1    2    0    0 -0.20896816263E+02  0.20675214110E+02  0.62323617415E+02  0.10586610525E+03  0.80369506312E+02 0.  0.
         11    1    4    4    0    0 -0.19831798365E+02 -0.13805549023E+02  0.66840704401E+02  0.71074419977E+02  0.00000000000E+00 0. -1.
        -12    1    4    4    0    0 -0.10650178977E+01  0.34480763133E+02 -0.45170869859E+01  0.34791685274E+02  0.00000000000E+00 0.  1.
        -13    1    3    3    0    0 -0.18289917622E+02  0.13113295027E+02  0.22656338817E+02  0.31934139752E+02  0.00000000000E+00 0. -1.
         13    1    3    3    0    0  0.54516913722E+02 -0.12125414044E+02 -0.63234764023E+02  0.84366788066E+02  0.00000000000E+00 0.  1.
         21    1    1    2  502  501 -0.15330179838E+02 -0.21663095093E+02 -0.11118975378E+02  0.28773872112E+02  0.00000000000E+00 0.  1.
<scales pt_clust_5="13000.00000" pt_clust_6="13000.00000" pt_clust_7="13000.00000" pt_clust_8="13000.00000" pt_clust_9="26.53873"></scales>
<clustering>
<clus scale="   26.539">  2  9  1 -1</clus>
<clus scale="   80.370">  5  6 -1 -1</clus>
<clus scale="   85.447">  1  5  2 -1</clus>
<clus scale="  102.791">  7  8 -1 -1</clus>
<clus scale="   85.447">  1  5  2 -1</clus>
</clustering>
</event>
<event>
 9    1  0.2802611E-005  0.1099294E+03  0.7546771E-02  0.1261825E+00
         -4   -1    0    0    0  501 -0.00000000000E+00  0.00000000000E+00  0.35615308542E+03  0.35615308542E+03  0.00000000000E+00 0.  1.
          3   -1    0    0  502    0  0.00000000000E+00 -0.00000000000E+00 -0.16141426581E+03  0.16141426581E+03  0.00000000000E+00 0. -1.
         23    2    1    2    0    0 -0.64402337617E+01  0.62195860582E+01  0.11981311094E+03  0.14573108558E+03  0.82475498725E+02 0.  0.
        -24    2    1    2    0    0  0.78186387514E+02  0.34099815183E+02 -0.11573658652E+03  0.16417000575E+03  0.79252285394E+02 0.  0.
         11    1    4    4    0    0  0.82009644335E+02  0.44215465195E+02 -0.12052937812E+03  0.15234145896E+03  0.00000000000E+00 0. -1.
        -12    1    4    4    0    0 -0.38232568212E+01 -0.10115650012E+02  0.47927916015E+01  0.11828546793E+02  0.00000000000E+00 0.  1.
        -13    1    3    3    0    0  0.44261596930E+01  0.43547742377E+02  0.69713173984E+02  0.82315997125E+02  0.00000000000E+00 0. -1.
         13    1    3    3    0    0 -0.10866393455E+02 -0.37328156319E+02  0.50099936958E+02  0.63415088457E+02  0.00000000000E+00 0.  1.
         21    1    1    2  502  501 -0.71746153753E+02 -0.40319401241E+02  0.19066229518E+03  0.20766625990E+03  0.00000000000E+00 0.  1.
<scales pt_clust_5="13000.00000" pt_clust_6="13000.00000" pt_clust_7="13000.00000" pt_clust_8="13000.00000" pt_clust_9="82.29924"></scales>
<clustering>
<clus scale="   79.252">  5  6 -1 -1</clus>
<clus scale="   82.299">  1  9  2 -1</clus>
<clus scale="   82.475">  7  8 -1 -1</clus>
<clus scale="  107.532">  2  5  1 -1</clus>
<clus scale="  107.532">  2  5  1 -1</clus>
</clustering>
</event>
<event>
 9    1  0.2802611E-005  0.1255710E+03  0.7546771E-02  0.1239405E+00
          1   -1    0    0  502    0  0.00000000000E+00  0.00000000000E+00  0.43616076213E+03  0.43616076213E+03  0.00000000000E+00 0. -1.
         -2   -1    0    0    0  501 -0.00000000000E+00 -0.00000000000E+00 -0.90839762665E+02  0.90839762665E+02  0.00000000000E+00 0.  1.
        -24    2    1    2    0    0 -0.91672986792E+02  0.43279788034E+02  0.10416831846E+03  0.16582802736E+03  0.79817413677E+02 0.  0.
         23    2    1    2    0    0  0.63154836253E+02 -0.33027025495E+02  0.28414400309E+03  0.30857346869E+03  0.96955935017E+02 0.  0.
         11    1    3    3    0    0 -0.92222342621E+02  0.14991144401E+02  0.10062372326E+03  0.13731288567E+03  0.00000000000E+00 0. -1.
        -12    1    3    3    0    0  0.54935582816E+00  0.28288643632E+02  0.35445952093E+01  0.28515141690E+02  0.00000000000E+00 0.  1.
        -11    1    4    4    0    0  0.73106897022E+02  0.10272210931E+02  0.20386871419E+03  0.21682386708E+03  0.00000000000E+00 0.  1.
         11    1    4    4    0    0 -0.99520607692E+01 -0.43299236426E+02  0.80275288896E+02  0.91749601612E+02  0.00000000000E+00 0. -1.
         21    1    1    2  502  501  0.28518150540E+02 -0.10252762539E+02 -0.42991322089E+02  0.52599028744E+02  0.00000000000E+00 0. -1.
<scales pt_clust_5="13000.00000" pt_clust_6="13000.00000" pt_clust_7="13000.00000" pt_clust_8="13000.00000" pt_clust_9="30.30518"></scales>
<clustering>
<clus scale="   30.305">  2  9  1 -1</clus>
<clus scale="   79.817">  5  6 -1 -1</clus>
<clus scale="   96.956">  7  8 -1 -1</clus>
<clus scale="  112.865">  2  5  1 -1</clus>
<clus scale="  125.571">  1  5  2 -1</clus>
</clustering>
</event>
<event>
 9    1  0.2802611E-005  0.9676376E+02  0.7546771E-02  0.1296217E+00
         -2   -1    0    0    0  501 -0.00000000000E+00  0.00000000000E+00  0.21277210886E+03  0.21277210886E+03  0.00000000000E+00 0.  1.
          1   -1    0    0  502    0  0.00000000000E+00 -0.00000000000E+00 -0.16827445181E+03  0.16827445181E+03  0.00000000000E+00 0. -1.
        -24    2    1    2    0    0  0.19183096721E+02  0.47373508322E+01  0.17320170559E+03  0.19140338321E+03  0.79031579724E+02 0.  0.
         23    2    1    2    0    0 -0.68221062353E+01 -0.21076234315E+02 -0.13674660277E+03  0.16763327338E+03  0.94395615305E+02 0.  0.
         13    1    3    3    0    0 -0.26844242660E+02 -0.13050997862E+02  0.88237546297E+02  0.93149377269E+02  0.00000000000E+00 0. -1.
        -14    1    3    3    0    0  0.46027339381E+02  0.17788348694E+02  0.84964159293E+02  0.98254005944E+02  0.00000000000E+00 0.  1.
        -11    1    4    4    0    0 -0.50715751830E+02 -0.10116305574E+02 -0.72171529831E+02  0.88787143440E+02  0.00000000000E+00 0. -1.
         11    1    4    4    0    0  0.43893645594E+02 -0.10959928741E+02 -0.64575072934E+02  0.78846129937E+02  0.00000000000E+00 0.  1.
         21    1    1    2  502  501 -0.12360990486E+02  0.16338883482E+02  0.80425542295E+01  0.22009904084E+02  0.00000000000E+00 0. -1.
<scales pt_clust_5="13000.00000" pt_clust_6="13000.00000" pt_clust_7="13000.00000" pt_clust_8="13000.00000" pt_clust_9="20.48788"></scales>
<clustering>
<clus scale="   20.488">  1  9  2 -1</clus>
<clus scale="   79.032">  5  6 -1 -1</clus>
<clus scale="   81.845">  1  5  2 -1</clus>
<clus scale="   94.396">  7  8 -1 -1</clus>
<clus scale="   96.764">  2  5  1 -1</clus>
</clustering>
</event>
<event>
 9    1  0.2802611E-005  0.1440471E+03  0.7546771E-02  0.1208470E+00
          3   -1    0    0  502    0  0.00000000000E+00  0.00000000000E+00  0.47132728640E+03  0.47132728640E+03  0.00000000000E+00 0. -1.
         -4   -1    0    0    0  501 -0.00000000000E+00 -0.00000000000E+00 -0.67990103006E+02  0.67990103006E+02  0.00000000000E+00 0.  1.
        -24    2    1    2    0    0  0.47106355469E+02 -0.91876086681E+02  0.16585844918E+03  0.21423540349E+03  0.87906535113E+02 0.  0.
         23    2    1    2    0    0 -0.16811460880E+02  0.12255411053E+03  0.23673866971E+03  0.28196041960E+03  0.90301413391E+02 0.  0.
         11    1    3    3    0    0  0.62963962612E+02 -0.97330520679E+02  0.15732481928E+03  0.19541952207E+03  0.00000000000E+00 0. -1.
        -12    1    3    3    0    0 -0.15857607143E+02  0.54544339982E+01  0.85336299022E+01  0.18815881426E+02  0.00000000000E+00 0.  1.
        -11    1    4    4    0    0 -0.44238116527E+02  0.29495721186E+02  0.58667885282E+02  0.79176570307E+02  0.00000000000E+00 0.  1.
         11    1    4    4    0    0  0.27426655647E+02  0.93058389347E+02  0.17807078443E+03  0.20278384930E+03  0.00000000000E+00 0. -1.
         21    1    1    2  502  501 -0.30294894589E+02 -0.30678023852E+02  0.74006450178E+00  0.43121566311E+02  0.00000000000E+00 0.  1.
<scales pt_clust_5="13000.00000" pt_clust_6="13000.00000" pt_clust_7="13000.00000" pt_clust_8="13000.00000" pt_clust_9="43.11522"></scales>
<clustering>
<clus scale="   43.115">  2  9  1 -1</clus>
<clus scale="   87.907">  5  6 -1 -1</clus>
<clus scale="   90.301">  7  8 -1 -1</clus>
<clus scale="  142.558">  2  5  1 -1</clus>
<clus scale="  144.047">  1  5  2 -1</clus>
</clustering>
</event>
<event>
 9    1  0.2802611E-005  0.1415552E+03  0.7546771E-02  0.1213576E+00
         -2   -1    0    0    0  501 -0.00000000000E+00  0.00000000000E+00  0.27141036524E+03  0.27141036524E+03  0.00000000000E+00 0.  1.
          1   -1    0    0  502    0  0.00000000000E+00 -0.00000000000E+00 -0.22226687513E+03  0.22226687513E+03  0.00000000000E+00 0. -1.
         23    2    1    2    0    0  0.59437054116E+02 -0.10178543953E+02  0.15713675878E+03  0.19173534188E+03  0.91837433573E+02 0.  0.
        -24    2    1    2    0    0 -0.86460424529E+02  0.77954638542E+02 -0.15891472412E+03  0.21296518147E+03  0.80919393831E+02 0.  0.
         13    1    4    4    0    0 -0.74990195305E+02  0.94779646972E+02 -0.14219481674E+03  0.18661746108E+03  0.00000000000E+00 0. -1.
        -14    1    4    4    0    0 -0.11470229224E+02 -0.16825008430E+02 -0.16719907375E+02  0.26347720390E+02  0.00000000000E+00 0.  1.
        -11    1    3    3    0    0  0.26467870107E+02  0.65083032970E+01  0.15200474077E+03  0.15442910146E+03  0.00000000000E+00 0.  1.
         11    1    3    3    0    0  0.32969184010E+02 -0.16686847250E+02  0.51320180097E+01  0.37306240420E+02  0.00000000000E+00 0. -1.
         21    1    1    2  502  501  0.27023370413E+02 -0.67776094589E+02  0.50921455446E+02  0.88976717017E+02  0.00000000000E+00 0. -1.
<scales pt_clust_5="13000.00000" pt_clust_6="13000.00000" pt_clust_7="13000.00000" pt_clust_8="13000.00000" pt_clust_9="72.96480"></scales>
<clustering>
<clus scale="   72.965">  1  9  2 -1</clus>
<clus scale="   80.919">  5  6 -1 -1</clus>
<clus scale="   91.837">  7  8 -1 -1</clus>
<clus scale="  134.728">  2  5  1 -1</clus>
<clus scale="  134.728">  2  5  1 -1</clus>
</clustering>
</event>
<event>
 9    1  0.2802611E-005  0.9862709E+02  0.7546771E-02  0.1290593E+00
         -2   -1    0    0    0  501 -0.00000000000E+00  0.00000000000E+00  0.54735352996E+02  0.54735352996E+02  0.00000000000E+00 0.  1.
          1   -1    0    0  502    0  0.00000000000E+00 -0.00000000000E+00 -0.30231270757E+03  0.30231270757E+03  0.00000000000E+00 0. -1.
        -24    2    1    2    0    0 -0.24810072707E+02  0.28882312675E+02 -0.18815017800E+02  0.88958253105E+02  0.78165454054E+02 0.  0.
         23    2    1    2    0    0  0.58353583410E+01 -0.35469899223E+02 -0.22742392677E+03  0.24795954608E+03  0.92033303033E+02 0.  0.
         11    1    3    3    0    0 -0.49821066830E+02  0.13584198153E+02  0.40201957270E+01  0.51796053066E+02  0.00000000000E+00 0. -1.
        -12    1    3    3    0    0  0.25010994123E+02  0.15298114523E+02 -0.22835213527E+02  0.37162200040E+02  0.00000000000E+00 0.  1.
        -11    1    4    4    0    0 -0.35004450517E+02 -0.44111819970E+02 -0.11530113838E+03  0.12831802964E+03  0.00000000000E+00 0. -1.
         11    1    4    4    0    0  0.40839808858E+02  0.86419207467E+01 -0.11212278839E+03  0.11964151645E+03  0.00000000000E+00 0.  1.
         21    1    1    2  502  501  0.18974714366E+02  0.65875865481E+01 -0.13384100010E+01  0.20130261378E+02  0.00000000000E+00 0. -1.
<scales pt_clust_5="13000.00000" pt_clust_6="13000.00000" pt_clust_7="13000.00000" pt_clust_8="13000.00000" pt_clust_9="20.08572"></scales>
<clustering>
<clus scale="   20.086">  1  9  2 -1</clus>
<clus scale="   78.165">  5  6 -1 -1</clus>
<clus scale="   85.831">  1  5  2 -1</clus>
<clus scale="   92.033">  7  8 -1 -1</clus>
<clus scale="   98.627">  2  5  1 -1</clus>
</clustering>
</event>
<event>
 9    1  0.2802611E-005  0.9700381E+02  0.7546771E-02  0.1291477E+00
         -2   -1    0    0    0  501 -0.00000000000E+00  0.00000000000E+00  0.35780144733E+02  0.35780144733E+02  0.00000000000E+00 0.  1.
          1   -1    0    0  502    0  0.00000000000E+00 -0.00000000000E+00 -0.36805717274E+03  0.36805717274E+03  0.00000000000E+00 0. -1.
        -24    2    1    2    0    0  0.42590075337E+01 -0.19205350047E+02 -0.67981641368E+02  0.10789309964E+03  0.81439749333E+02 0.  0.
         23    2    1    2    0    0 -0.11082682491E+02  0.41320438481E+02 -0.24866419369E+03  0.26801620556E+03  0.90380311650E+02 0.  0.
         11    1    3    3    0    0  0.42130937051E+02 -0.13779506205E+02 -0.27357938794E+02  0.52089801911E+02  0.00000000000E+00 0. -1.
        -12    1    3    3    0    0 -0.37871929517E+02 -0.54258438420E+01 -0.40623702574E+02  0.55803297730E+02  0.00000000000E+00 0.  1.
        -11    1    4    4    0    0 -0.29852312951E+02  0.63935666243E+02 -0.17908041776E+03  0.19248045623E+03  0.00000000000E+00 0. -1.
         11    1    4    4    0    0  0.18769630460E+02 -0.22615227762E+02 -0.69583775927E+02  0.75535749328E+02  0.00000000000E+00 0.  1.
         21    1    1    2  502  501  0.68236749571E+01 -0.22115088434E+02 -0.15631192954E+02  0.27928012273E+02  0.00000000000E+00 0.  1.
<scales pt_clust_5="13000.00000" pt_clust_6="13000.00000" pt_clust_7="13000.00000" pt_clust_8="13000.00000" pt_clust_9="23.14389"></scales>
<clustering>
<clus scale="   23.144">  1  9  2 -1</clus>
<clus scale="   81.440">  5  6 -1 -1</clus>
<clus scale="   88.733">  1  5  2 -1</clus>
<clus scale="   90.380">  7  8 -1 -1</clus>
<clus scale="   97.004">  2  5  1 -1</clus>
</clustering>
</event>
<event>
 9    1  0.2802611E-005  0.9585953E+02  0.7546771E-02  0.1292819E+00
         -2   -1    0    0    0  501 -0.00000000000E+00  0.00000000000E+00  0.24968411007E+02  0.24968411007E+02  0.00000000000E+00 0.  1.
          1   -1    0    0  502    0  0.00000000000E+00 -0.00000000000E+00 -0.64909875159E+03  0.64909875159E+03  0.00000000000E+00 0. -1.
        -24    2    1    2    0    0  0.16082203559E+02  0.44821343747E+02 -0.15383745586E+03  0.17946494629E+03  0.79209304962E+02 0.  0.
         23    2    1    2    0    0 -0.30736452141E+02 -0.27765270071E+02 -0.46007921739E+03  0.46990453118E+03  0.86149535293E+02 0.  0.
         11    1    3    3    0    0 -0.15685735390E+02  0.38817158895E+02 -0.13650617839E+03  0.14278217977E+03  0.00000000000E+00 0. -1.
        -12    1    3    3    0    0  0.31767938949E+02  0.60041848521E+01 -0.17331277470E+02  0.36682766520E+02  0.00000000000E+00 0.  1.
        -13    1    4    4    0    0  0.28608174521E+02 -0.20890675939E+02 -0.15039194517E+03  0.15450755698E+03  0.00000000000E+00 0.  1.
         13    1    4    4    0    0 -0.59344626662E+02 -0.68745941320E+01 -0.30968727222E+03  0.31539697420E+03  0.00000000000E+00 0. -1.
         21    1    1    2  502  501  0.14654248582E+02 -0.17056073676E+02 -0.10213667328E+02  0.24697685135E+02  0.00000000000E+00 0.  1.
<scales pt_clust_5="13000.00000" pt_clust_6="13000.00000" pt_clust_7="13000.00000" pt_clust_8="13000.00000" pt_clust_9="22.48681"></scales>
<clustering>
<clus scale="   22.487">  1  9  2 -1</clus>
<clus scale="   79.209">  5  6 -1 -1</clus>
<clus scale="   86.150">  7  8 -1 -1</clus>
<clus scale="   89.674">  1  5  2 -1</clus>
<clus scale="   95.860">  2  5  1 -1</clus>
</clustering>
</event>
<event>
 9    1  0.2802611E-005  0.1356365E+03  0.7546771E-02  0.1222431E+00
         -2   -1    0    0    0  501 -0.00000000000E+00  0.00000000000E+00  0.67532568712E+03  0.67532568712E+03  0.00000000000E+00 0.  1.
          1   -1    0    0  502    0  0.00000000000E+00 -0.00000000000E+00 -0.46957930854E+02  0.46957930854E+02  0.00000000000E+00 0. -1.
        -24    2    1    2    0    0  0.74008082451E+02 -0.35056167798E+02  0.44473543511E+03  0.45918939871E+03  0.79744375856E+02 0.  0.
         23    2    1    2    0    0 -0.98789362634E+02  0.32196714297E+02  0.89161959389E+02  0.16538578782E+03  0.92771963596E+02 0.  0.
         11    1    3    3    0    0  0.66729686116E+02  0.20386749888E+01  0.18418570792E+03  0.19591166940E+03  0.00000000000E+00 0. -1.
        -12    1    3    3    0    0  0.72783963355E+01 -0.37094842787E+02  0.26054972719E+03  0.26327772932E+03  0.00000000000E+00 0.  1.
        -11    1    4    4    0    0 -0.53731731446E+02  0.39513782750E+02  0.98340148834E+02  0.11882433616E+03  0.00000000000E+00 0.  1.
         11    1    4    4    0    0 -0.45057631189E+02 -0.73170684530E+01 -0.91781894454E+01  0.46561451659E+02  0.00000000000E+00 0. -1.
         21    1    1    2  502  501  0.24781280183E+02  0.28594535010E+01  0.94470361770E+02  0.97708431442E+02  0.00000000000E+00 0.  1.
<scales pt_clust_5="13000.00000" pt_clust_6="13000.00000" pt_clust_7="13000.00000" pt_clust_8="13000.00000" pt_clust_9="24.94571"></scales>
<clustering>
<clus scale="   24.946">  1  9  2 -1</clus>
<clus scale="   79.744">  5  6 -1 -1</clus>
<clus scale="   92.772">  7  8 -1 -1</clus>
<clus scale="  127.082">  1  5  2 -1</clus>
<clus scale="  135.637">  2  5  1 -1</clus>
</clustering>
</event>
<event>
 9    1  0.2802611E-005  0.1090141E+03  0.7546771E-02  0.1266096E+00
         -2   -1    0    0    0  501 -0.00000000000E+00  0.00000000000E+00  0.40350806405E+03  0.40350806405E+03  0.00000000000E+00 0.  1.
          1   -1    0    0  502    0  0.00000000000E+00 -0.00000000000E+00 -0.56778961245E+02  0.56778961245E+02  0.00000000000E+00 0. -1.
        -24    2    1    2    0    0  0.37688619821E+02  0.69265310374E+02  0.19813029491E+03  0.22829689489E+03  0.81521427665E+02 0.  0.
         23    2    1    2    0    0 -0.42523663583E+02 -0.35497912350E+02  0.32818050269E+02  0.11128885181E+03  0.90773456303E+02 0.  0.
         11    1    3    3    0    0  0.20517938482E+02  0.86238434077E+02  0.14521215986E+03  0.17013119844E+03  0.00000000000E+00 0. -1.
        -12    1    3    3    0    0  0.17170681340E+02 -0.16973123703E+02  0.52918135045E+02  0.58165696442E+02  0.00000000000E+00 0.  1.
        -13    1    4    4    0    0 -0.17009523791E+02  0.28600258314E+02  0.25478525228E+02  0.41910069471E+02  0.00000000000E+00 0.  1.
         13    1    4    4    0    0 -0.25514139792E+02 -0.64098170664E+02  0.73395250407E+01  0.69378782344E+02  0.00000000000E+00 0. -1.
         21    1    1    2  502  501  0.48350437617E+01 -0.33767398024E+02  0.11578075763E+03  0.12070127860E+03  0.00000000000E+00 0.  1.
<scales pt_clust_5="13000.00000" pt_clust_6="13000.00000" pt_clust_7="13000.00000" pt_clust_8="13000.00000" pt_clust_9="34.11180"></scales>
<clustering>
<clus scale="   34.112">  1  9  2 -1</clus>
<clus scale="   81.521">  5  6 -1 -1</clus>
<clus scale="   90.773">  7  8 -1 -1</clus>
<clus scale="  101.440">  1  5  2 -1</clus>
<clus scale="  109.014">  2  5  1 -1</clus>
</clustering>
</event>
<event>
 9    1  0.2802611E-005  0.1066847E+03  0.7546771E-02  0.1270628E+00
         -2   -1    0    0    0  501 -0.00000000000E+00  0.00000000000E+00  0.69780374469E+02  0.69780374469E+02  0.00000000000E+00 0.  1.
          1   -1    0    0  502    0  0.00000000000E+00 -0.00000000000E+00 -0.24688166380E+03  0.24688166380E+03  0.00000000000E+00 0. -1.
        -24    2    1    2    0    0 -0.29391672723E+02  0.30817958462E+02 -0.40693730511E+02  0.99283804097E+02  0.79922944540E+02 0.  0.
         23    2    1    2    0    0  0.11050229481E+02 -0.76885891359E+02 -0.10857009051E+03  0.16051359117E+03  0.89126878860E+02 0.  0.
         13    1    3    3    0    0 -0.27523644368E+02 -0.28028207161E+00 -0.57599364287E+02  0.63838204263E+02  0.00000000000E+00 0. -1.
        -14    1    3    3    0    0 -0.18680283550E+01  0.31098240534E+02  0.16905633776E+02  0.35445599834E+02  0.00000000000E+00 0.  1.
        -13    1    4    4    0    0  0.37737153781E+02 -0.82687887872E+02 -0.82153819706E+02  0.12251787489E+03  0.00000000000E+00 0. -1.
         13    1    4    4    0    0 -0.26686924301E+02  0.58019965129E+01 -0.26416270805E+02  0.37995716277E+02  0.00000000000E+00 0.  1.
         21    1    1    2  502  501  0.18341443242E+02  0.46067932897E+02 -0.27837468309E+02  0.56864643000E+02  0.00000000000E+00 0. -1.
<scales pt_clust_5="13000.00000" pt_clust_6="13000.00000" pt_clust_7="13000.00000" pt_clust_8="13000.00000" pt_clust_9="49.58491"></scales>
<clustering>
<clus scale="   49.585">  1  9  2 -1</clus>
<clus scale="   79.923">  5  6 -1 -1</clus>
<clus scale="   89.127">  7  8 -1 -1</clus>
<clus scale="   99.125">  1  5  2 -1</clus>
<clus scale="  106.685">  2  5  1 -1</clus>
</clustering>
</event>
<event>
 9    1  0.2802611E-005  0.9339169E+02  0.7546771E-02  0.1301788E+00
          1   -1    0    0  502    0  0.00000000000E+00  0.00000000000E+00  0.37372419952E+02  0.37372419952E+02  0.00000000000E+00 0. -1.
         -2   -1    0    0    0  501 -0.00000000000E+00 -0.00000000000E+00 -0.33299740111E+03  0.33299740111E+03  0.00000000000E+00 0.  1.
        -24    2    1    2    0    0 -0.19035991147E+02 -0.32020329184E+02 -0.13902847419E+03  0.16474658407E+03  0.80155161325E+02 0.  0.
         23    2    1    2    0    0 -0.77823305314E+01  0.76329329521E+01 -0.85484511984E+02  0.12580542380E+03  0.91654659095E+02 0.  0.
         11    1    3    3    0    0 -0.44888906847E+02  0.17273469104E+01 -0.83456008673E+02  0.94778178231E+02  0.00000000000E+00 0. -1.
        -12    1    3    3    0    0  0.25852915700E+02 -0.33747676094E+02 -0.55572465518E+02  0.69968405839E+02  0.00000000000E+00 0.  1.
        -13    1    4    4    0    0 -0.43003883384E+02  0.92918290188E+01 -0.14122388167E+02  0.46207292933E+02  0.00000000000E+00 0. -1.
         13    1    4    4    0    0  0.35221552853E+02 -0.16588960667E+01 -0.71362123818E+02  0.79598130865E+02  0.00000000000E+00 0.  1.
         21    1    1    2  502  501  0.26818321678E+02  0.24387396232E+02 -0.71111994979E+02  0.79817813190E+02  0.00000000000E+00 0.  1.
<scales pt_clust_5="13000.00000" pt_clust_6="13000.00000" pt_clust_7="13000.00000" pt_clust_8="13000.00000" pt_clust_9="36.24869"></scales>
<clustering>
<clus scale="   36.249">  2  9  1 -1</clus>
<clus scale="   80.155">  5  6 -1 -1</clus>
<clus scale="   82.136">  2  5  1 -1</clus>
<clus scale="   91.655">  7  8 -1 -1</clus>
<clus scale="   93.392">  1  5  2 -1</clus>
</clustering>
</event>
<event>
 9    1  0.2802611E-005  0.1370772E+03  0.7546771E-02  0.1219208E+00
          1   -1    0    0  502    0  0.00000000000E+00  0.00000000000E+00  0.87034198344E+02  0.87034198344E+02  0.00000000000E+00 0. -1.
         -2   -1    0    0    0  501 -0.00000000000E+00 -0.00000000000E+00 -0.34802797145E+03  0.34802797145E+03  0.00000000000E+00 0.  1.
        -24    2    1    2    0    0 -0.95979267997E+02 -0.75306692410E+02 -0.13534100094E+03  0.19922860376E+03  0.80571286527E+02 0.  0.
         23    2    1    2    0    0  0.46254398295E+02  0.86231460931E+02 -0.43671951261E+02  0.13933088094E+03  0.89053471810E+02 0.  0.
         11    1    3    3    0    0 -0.53463722584E+02 -0.35867706161E+02 -0.15690130241E+02  0.66264939181E+02  0.00000000000E+00 0. -1.
        -12    1    3    3    0    0 -0.42515545414E+02 -0.39438986249E+02 -0.11965087070E+03  0.13296366458E+03  0.00000000000E+00 0.  1.
        -13    1    4    4    0    0  0.71359537561E+02  0.65226979757E+02 -0.19463240896E+02  0.98618255082E+02  0.00000000000E+00 0.  1.
         13    1    4    4    0    0 -0.25105139266E+02  0.21004481174E+02 -0.24208710365E+02  0.40712625861E+02  0.00000000000E+00 0. -1.
         21    1    1    2  502  501  0.49724869702E+02 -0.10924768521E+02 -0.81980820902E+02  0.96502685091E+02  0.00000000000E+00 0.  1.
<scales pt_clust_5="13000.00000" pt_clust_6="13000.00000" pt_clust_7="13000.00000" pt_clust_8="13000.00000" pt_clust_9="50.91084"></scales>
<clustering>
<clus scale="   50.911">  2  9  1 -1</clus>
<clus scale="   80.571">  5  6 -1 -1</clus>
<clus scale="   89.053">  7  8 -1 -1</clus>
<clus scale="  131.725">  2  5  1 -1</clus>
<clus scale="  137.077">  1  5  2 -1</clus>
</clustering>
</event>
<event>
 9    1  0.2802611E-005  0.9367564E+02  0.7546771E-02  0.1301739E+00
         -2   -1    0    0    0  501 -0.00000000000E+00  0.00000000000E+00  0.30785298721E+03  0.30785298721E+03  0.00000000000E+00 0.  1.
          1   -1    0    0  502    0  0.00000000000E+00 -0.00000000000E+00 -0.91831744747E+02  0.91831744747E+02  0.00000000000E+00 0. -1.
        -24    2    1    2    0    0 -0.79367770444E+00  0.27384859285E+02  0.22030168600E+03  0.23574951106E+03  0.79337498511E+02 0.  0.
         23    2    1    2    0    0 -0.20926724513E+02  0.32680365252E+01 -0.48435453148E+02  0.10596073713E+03  0.91831785508E+02 0.  0.
         13    1    3    3    0    0 -0.30751202455E+02  0.35404096298E+02  0.17256799164E+03  0.17882616762E+03  0.00000000000E+00 0. -1.
        -14    1    3    3    0    0  0.29957524750E+02 -0.80192370132E+01  0.47733694355E+02  0.56923343439E+02  0.00000000000E+00 0.  1.
        -13    1    4    4    0    0  0.29703316661E+02  0.24731986187E+02 -0.14171451814E+02  0.41167805479E+02  0.00000000000E+00 0.  1.
         13    1    4    4    0    0 -0.50630041174E+02 -0.21463949662E+02 -0.34264001334E+02  0.64792931650E+02  0.00000000000E+00 0. -1.
         21    1    1    2  502  501  0.21720402217E+02 -0.30652895810E+02  0.44155009613E+02  0.57974483766E+02  0.00000000000E+00 0. -1.
<scales pt_clust_5="13000.00000" pt_clust_6="13000.00000" pt_clust_7="13000.00000" pt_clust_8="13000.00000" pt_clust_9="37.56828"></scales>
<clustering>
<clus scale="   37.568">  1  9  2 -1</clus>
<clus scale="   79.337">  5  6 -1 -1</clus>
<clus scale="   81.465">  1  5  2 -1</clus>
<clus scale="   91.832">  7  8 -1 -1</clus>
<clus scale="   93.676">  2  5  1 -1</clus>
</clustering>
</event>
<event>
 9    1  0.2802611E-005  0.1160977E+03  0.7546771E-02  0.1252120E+00
          1   -1    0    0  502    0  0.00000000000E+00  0.00000000000E+00  0.45053770369E+03  0.45053770369E+03  0.00000000000E+00 0. -1.
         -2   -1    0    0    0  501 -0.00000000000E+00 -0.00000000000E+00 -0.13623468515E+03  0.13623468515E+03  0.00000000000E+00 0.  1.
         23    2    1    2    0    0 -0.66241482784E+02 -0.63763996456E+02  0.92533094705E+02  0.15763752286E+03  0.88506687394E+02 0.  0.
        -24    2    1    2    0    0  0.67699871627E+02  0.24659022769E+02  0.31224474929E+03  0.33055992034E+03  0.81127907989E+02 0.  0.
         11    1    4    4    0    0  0.50035726415E+02 -0.32771158456E+01  0.27975423294E+03  0.28421249841E+03  0.00000000000E+00 0. -1.
        -12    1    4    4    0    0  0.17664145212E+02  0.27936138615E+02  0.32490516353E+02  0.46347421931E+02  0.00000000000E+00 0.  1.
        -13    1    3    3    0    0 -0.45493117922E+02 -0.84192816864E+02  0.83896378230E+02  0.12726608531E+03  0.00000000000E+00 0. -1.
         13    1    3    3    0    0 -0.20748364862E+02  0.20428820407E+02  0.86367164745E+01  0.30371437555E+02  0.00000000000E+00 0.  1.
         21    1    1    2  502  501 -0.14583888428E+01  0.39104973687E+02 -0.90474825458E+02  0.98574945634E+02  0.00000000000E+00 0.  1.
<scales pt_clust_5="13000.00000" pt_clust_6="13000.00000" pt_clust_7="13000.00000" pt_clust_8="13000.00000" pt_clust_9="39.13216"></scales>
<clustering>
<clus scale="   39.132">  2  9  1 -1</clus>
<clus scale="   81.128">  5  6 -1 -1</clus>
<clus scale="   88.507">  7  8 -1 -1</clus>
<clus scale="  110.576">  1  5  2 -1</clus>
<clus scale="  110.576">  1  5  2 -1</clus>
</clustering>
</event>
<event>
 9    1  0.2802611E-005  0.1107115E+03  0.7546771E-02  0.1265880E+00
         -2   -1    0    0    0  501 -0.00000000000E+00  0.00000000000E+00  0.45462925978E+03  0.45462925978E+03  0.00000000000E+00 0.  1.
          1   -1    0    0  502    0  0.00000000000E+00 -0.00000000000E+00 -0.81040045927E+02  0.81040045927E+02  0.00000000000E+00 0. -1.
        -24    2    1    2    0    0  0.84103872102E+02  0.19893620109E+02  0.27920627100E+03  0.30324537421E+03  0.80823250308E+02 0.  0.
         23    2    1    2    0    0 -0.35942430334E+02 -0.35481779453E+02 -0.16769445944E+02  0.11028725101E+03  0.96598387392E+02 0.  0.
         13    1    3    3    0    0  0.58457036095E+02  0.35721728465E+02  0.98127259324E+02  0.11967550282E+03  0.00000000000E+00 0. -1.
        -14    1    3    3    0    0  0.25646836007E+02 -0.15828108356E+02  0.18107901168E+03  0.18356987139E+03  0.00000000000E+00 0.  1.
        -13    1    4    4    0    0  0.31814071715E+02 -0.13957141459E+01  0.27660913962E+01  0.31964581002E+02  0.00000000000E+00 0.  1.
         13    1    4    4    0    0 -0.67756502049E+02 -0.34086065307E+02 -0.19535537340E+02  0.78322670008E+02  0.00000000000E+00 0. -1.
         21    1    1    2  502  501 -0.48161441768E+02  0.15588159344E+02  0.11115238879E+03  0.12213668048E+03  0.00000000000E+00 0. -1.
<scales pt_clust_5="13000.00000" pt_clust_6="13000.00000" pt_clust_7="13000.00000" pt_clust_8="13000.00000" pt_clust_9="50.62129"></scales>
<clustering>
<clus scale="   50.621">  1  9  2 -1</clus>
<clus scale="   80.823">  5  6 -1 -1</clus>
<clus scale="   96.598">  7  8 -1 -1</clus>
<clus scale="   97.253">  1  5  2 -1</clus>
<clus scale="  110.712">  2  5  1 -1</clus>
</clustering>
</event>
<event>
 9    1  0.2802611E-005  0.1268067E+03  0.7546771E-02  0.1248427E+00
         -2   -1    0    0    0  501 -0.00000000000E+00  0.00000000000E+00  0.76176924952E+03  0.76176924952E+03  0.00000000000E+00 0.  1.
          1   -1    0    0  502    0  0.00000000000E+00 -0.00000000000E+00 -0.11578532507E+03  0.11578532507E+03  0.00000000000E+00 0. -1.
        -24    2    1    2    0    0  0.18180620992E+02  0.43597462606E+02  0.43124130218E+03  0.44081163413E+03  0.78195667104E+02 0.  0.
         23    2    1    2    0    0 -0.13849915855E+02  0.81873111842E+02 -0.58047217712E+02  0.13644988884E+03  0.91400580241E+02 0.  0.
         13    1    3    3    0    0 -0.22624525228E+02  0.42883843749E+02  0.18696990658E+03  0.19315444381E+03  0.00000000000E+00 0. -1.
        -14    1    3    3    0    0  0.40805146220E+02  0.71361885670E+00  0.24427139560E+03  0.24765719032E+03  0.00000000000E+00 0.  1.
        -13    1    4    4    0    0 -0.52318428125E+02  0.35747018492E+02 -0.27661915862E+02  0.69139343660E+02  0.00000000000E+00 0. -1.
         13    1    4    4    0    0  0.38468512269E+02  0.46126093350E+02 -0.30385301850E+02  0.67310545180E+02  0.00000000000E+00 0.  1.
         21    1    1    2  502  501 -0.43307051370E+01 -0.12547057445E+03  0.27278983998E+03  0.30029305162E+03  0.00000000000E+00 0.  1.
<scales pt_clust_5="13000.00000" pt_clust_6="13000.00000" pt_clust_7="13000.00000" pt_clust_8="13000.00000" pt_clust_9="87.89690"></scales>
<clustering>
<clus scale="   78.196">  5  6 -1 -1</clus>
<clus scale="   91.356">  1  5  2 -1</clus>
<clus scale="   87.897">  1  9  2 -1</clus>
<clus scale="   91.401">  7  8 -1 -1</clus>
<clus scale="  126.807">  2  5  1 -1</clus>
</clustering>
</event>
<event>
 9    1  0.1383935E-004  0.1036854E+03  0.7546771E-02  0.1277607E+00
         -2   -1    0    0    0  501 -0.00000000000E+00  0.00000000000E+00  0.24464546800E+03  0.24464546800E+03  0.00000000000E+00 0.  1.
          1   -1    0    0  502    0  0.00000000000E+00 -0.00000000000E+00 -0.45725273801E+03  0.45725273801E+03  0.00000000000E+00 0. -1.
        -24    2    1    2    0    0  0.38328034107E+02  0.44082513994E+02  0.21072094523E+03  0.23305975891E+03  0.80630194260E+02 0.  0.
         23    2    1    2    0    0 -0.43034696306E+02 -0.23414874680E+02 -0.43322672951E+03  0.44544433313E+03  0.91296294099E+02 0.  0.
         11    1    3    3    0    0  0.69483672821E+01 -0.21755969599E+02  0.26834948463E+02  0.35237997674E+02  0.00000000000E+00 0. -1.
        -12    1    3    3    0    0  0.31379666825E+02  0.65838483593E+02  0.18388599676E+03  0.19782176123E+03  0.00000000000E+00 0.  1.
        -11    1    4    4    0    0  0.11262167465E+02  0.21646361705E+02 -0.48406596084E+02  0.54208854770E+02  0.00000000000E+00 0.  1.
         11    1    4    4    0    0 -0.54296863771E+02 -0.45061236385E+02 -0.38482013342E+03  0.39123547836E+03  0.00000000000E+00 0. -1.
         21    1    1    2  502  501  0.47066621985E+01 -0.20667639314E+02  0.98985142730E+01  0.23394113975E+02  0.00000000000E+00 0.  1.
<scales pt_clust_5="13000.00000" pt_clust_6="13000.00000" pt_clust_7="13000.00000" pt_clust_8="13000.00000" pt_clust_9="21.19679"></scales>
<clustering>
<clus scale="   21.197">  1  9  2 -1</clus>
<clus scale="   80.630">  5  6 -1 -1</clus>
<clus scale="   91.296">  7  8 -1 -1</clus>
<clus scale="   94.429">  1  5  2 -1</clus>
<clus scale="  103.685">  2  5  1 -1</clus>
</clustering>
</event>
<event>
 9    1  0.2802611E-005  0.1002899E+03  0.7546771E-02  0.1285756E+00
          3   -1    0    0  502    0  0.00000000000E+00  0.00000000000E+00  0.72421547081E+02  0.72421547081E+02  0.00000000000E+00 0. -1.
         -4   -1    0    0    0  501 -0.00000000000E+00 -0.00000000000E+00 -0.56249755992E+03  0.56249755992E+03  0.00000000000E+00 0.  1.
        -24    2    1    2    0    0  0.26834139940E+02 -0.53162565517E+02 -0.33754744175E+03  0.35211303112E+03  0.80616262713E+02 0.  0.
         23    2    1    2    0    0 -0.38013234553E+02  0.67612125687E+01  0.21322313242E+02  0.10252244464E+03  0.92549935796E+02 0.  0.
         11    1    3    3    0    0 -0.26128805455E+02 -0.17720637828E+01 -0.99512924928E+02  0.10290129694E+03  0.00000000000E+00 0. -1.
        -12    1    3    3    0    0  0.52962945395E+02 -0.51390501734E+02 -0.23803451682E+03  0.24921173418E+03  0.00000000000E+00 0.  1.
        -11    1    4    4    0    0  0.18022782048E+02  0.20713097257E+02 -0.17844940699E+02  0.32745915459E+02  0.00000000000E+00 0.  1.
         11    1    4    4    0    0 -0.56036016601E+02 -0.13951884688E+02  0.39167253941E+02  0.69776529178E+02  0.00000000000E+00 0. -1.
         21    1    1    2  502  501  0.11179094613E+02  0.46401352948E+02 -0.17385088433E+03  0.18028363125E+03  0.00000000000E+00 0. -1.
<scales pt_clust_5="13000.00000" pt_clust_6="13000.00000" pt_clust_7="13000.00000" pt_clust_8="13000.00000" pt_clust_9="47.72900"></scales>
<clustering>
<clus scale="   47.729">  2  9  1 -1</clus>
<clus scale="   80.616">  5  6 -1 -1</clus>
<clus scale="   89.395">  2  5  1 -1</clus>
<clus scale="   92.550">  7  8 -1 -1</clus>
<clus scale="  100.290">  1  5  2 -1</clus>
</clustering>
</event>
<event>
 9    1  0.2802611E-005  0.9835921E+02  0.7546771E-02  0.1290517E+00
          1   -1    0    0  502    0  0.00000000000E+00  0.00000000000E+00  0.20161985537E+03  0.20161985537E+03  0.00000000000E+00 0. -1.
         -2   -1    0    0    0  501 -0.00000000000E+00 -0.00000000000E+00 -0.96351867427E+02  0.96351867427E+02  0.00000000000E+00 0.  1.
        -24    2    1    2    0    0 -0.25422252234E+01 -0.46622898800E+02 -0.28759931764E+01  0.93464156875E+02  0.80914273661E+02 0.  0.
         23    2    1    2    0    0 -0.35267373163E+02  0.80245877777E+01  0.11215153146E+03  0.15032771909E+03  0.93339570914E+02 0.  0.
         11    1    3    3    0    0 -0.32638790243E+02 -0.10900524269E+02  0.21701093298E+02  0.40682299692E+02  0.00000000000E+00 0. -1.
        -12    1    3    3    0    0  0.30096565020E+02 -0.35722374531E+02 -0.24577086475E+02  0.52781857183E+02  0.00000000000E+00 0.  1.
        -13    1    4    4    0    0  0.28217078401E+02 -0.15122242780E+02  0.29135233576E+02  0.43286806023E+02  0.00000000000E+00 0.  1.
         13    1    4    4    0    0 -0.63484451565E+02  0.23146830557E+02  0.83016297881E+02  0.10704091306E+03  0.00000000000E+00 0. -1.
         21    1    1    2  502  501  0.37809598387E+02  0.38598311022E+02 -0.40075503339E+01  0.54179846840E+02  0.00000000000E+00 0.  1.
<scales pt_clust_5="13000.00000" pt_clust_6="13000.00000" pt_clust_7="13000.00000" pt_clust_8="13000.00000" pt_clust_9="54.03143"></scales>
<clustering>
<clus scale="   54.031">  2  9  1 -1</clus>
<clus scale="   80.914">  5  6 -1 -1</clus>
<clus scale="   86.657">  2  5  1 -1</clus>
<clus scale="   93.340">  7  8 -1 -1</clus>
<clus scale="   98.359">  1  5  2 -1</clus>
</clustering>
</event>
<event>
 9    1  0.2852864E-005  0.1584592E+03  0.7546771E-02  0.1192385E+00
         -2   -1    0    0    0  501 -0.00000000000E+00  0.00000000000E+00  0.29768526265E+03  0.29768526265E+03  0.00000000000E+00 0.  1.
          1   -1    0    0  502    0  0.00000000000E+00 -0.00000000000E+00 -0.63682505187E+03  0.63682505187E+03  0.00000000000E+00 0. -1.
         23    2    1    2    0    0 -0.39375149402E+02  0.12522594025E+03  0.26054638441E+03  0.30592850267E+03  0.92064606754E+02 0.  0.
        -24    2    1    2    0    0  0.96431558895E+01 -0.76969497058E+02 -0.51319424041E+03  0.52517228492E+03  0.80126815267E+02 0.  0.
         11    1    4    4    0    0  0.11946581948E+02 -0.93083299844E+02 -0.40303456937E+03  0.41381648788E+03  0.00000000000E+00 0. -1.
        -12    1    4    4    0    0 -0.23034260589E+01  0.16113802785E+02 -0.11015967104E+03  0.11135579704E+03  0.00000000000E+00 0.  1.
        -11    1    3    3    0    0  0.22804090628E+02  0.56800920417E+02  0.14877031123E+03  0.16086943965E+03  0.00000000000E+00 0.  1.
         11    1    3    3    0    0 -0.62179240030E+02  0.68425019831E+02  0.11177607318E+03  0.14505906302E+03  0.00000000000E+00 0. -1.
         21    1    1    2  502  501  0.29731993512E+02 -0.48256443190E+02 -0.86491933225E+02  0.10340952693E+03  0.00000000000E+00 0.  1.
<scales pt_clust_5="13000.00000" pt_clust_6="13000.00000" pt_clust_7="13000.00000" pt_clust_8="13000.00000" pt_clust_9="56.68047"></scales>
<clustering>
<clus scale="   56.680">  2  9  1 -1</clus>
<clus scale="   80.127">  5  6 -1 -1</clus>
<clus scale="   92.065">  7  8 -1 -1</clus>
<clus scale="  151.835">  2  5  1 -1</clus>
<clus scale="   56.680">  2  5  1 -1</clus>
</clustering>
</event>
<event>
 9    1  0.2802611E-005  0.1546654E+03  0.7546771E-02  0.1196030E+00
         -2   -1    0    0    0  501 -0.00000000000E+00  0.00000000000E+00  0.62009983571E+03  0.62009983571E+03  0.00000000000E+00 0.  1.
          1   -1    0    0  502    0  0.00000000000E+00 -0.00000000000E+00 -0.15693737723E+03  0.15693737723E+03  0.00000000000E+00 0. -1.
         23    2    1    2    0    0 -0.97635070350E+02 -0.81095816890E+02  0.54170694640E+03  0.56370446206E+03  0.90593411978E+02 0.  0.
        -24    2    1    2    0    0  0.98189589971E+02  0.47094967919E+02 -0.10279948137E+03  0.17156350465E+03  0.83708847665E+02 0.  0.
         11    1    4    4    0    0  0.94174667590E+02  0.45011163112E+02 -0.45130431156E+02  0.11371731898E+03  0.00000000000E+00 0. -1.
        -12    1    4    4    0    0  0.40149223805E+01  0.20838048069E+01 -0.57669050211E+02  0.57846185669E+02  0.00000000000E+00 0.  1.
        -13    1    3    3    0    0 -0.39669679626E+02 -0.87759488961E+02  0.30128408756E+03  0.31630288143E+03  0.00000000000E+00 0.  1.
         13    1    3    3    0    0 -0.57965390724E+02  0.66636720715E+01  0.24042285884E+03  0.24740158063E+03  0.00000000000E+00 0. -1.
         21    1    1    2  502  501 -0.55451962068E+00  0.34000848971E+02  0.24254993453E+02  0.41769246225E+02  0.00000000000E+00 0. -1.
<scales pt_clust_5="13000.00000" pt_clust_6="13000.00000" pt_clust_7="13000.00000" pt_clust_8="13000.00000" pt_clust_9="34.00537"></scales>
<clustering>
<clus scale="   34.005">  2  9  1 -1</clus>
<clus scale="   83.709">  5  6 -1 -1</clus>
<clus scale="   90.593">  7  8 -1 -1</clus>
<clus scale="  150.736">  2  5  1 -1</clus>
<clus scale="   34.005">  2  5  1 -1</clus>
</clustering>
</event>
<event>
 9    1  0.2802611E-005  0.1007520E+03  0.7546771E-02  0.1280988E+00
         -2   -1    0    0    0  501 -0.00000000000E+00  0.00000000000E+00  0.73105435462E+02  0.73105435462E+02  0.00000000000E+00 0.  1.
          1   -1    0    0  502    0  0.00000000000E+00 -0.00000000000E+00 -0.25846018471E+03  0.25846018471E+03  0.00000000000E+00 0. -1.
        -24    2    1    2    0    0  0.36695156323E+02  0.49074901064E+02 -0.47966018320E+02  0.11624792219E+03  0.86359481748E+02 0.  0.
         23    2    1    2    0    0  0.63935601163E+01 -0.39335069444E+02 -0.13925176105E+03  0.17110262492E+03  0.91087485427E+02 0.  0.
         13    1    3    3    0    0  0.47755838674E+02  0.18964578963E+02 -0.62601761095E+02  0.80989233080E+02  0.00000000000E+00 0. -1.
        -14    1    3    3    0    0 -0.11060682351E+02  0.30110322102E+02  0.14635742775E+02  0.35258689109E+02  0.00000000000E+00 0.  1.
        -11    1    4    4    0    0  0.41983744743E+02  0.28600002720E+00 -0.86450403114E+02  0.96106133089E+02  0.00000000000E+00 0.  1.
         11    1    4    4    0    0 -0.35590184627E+02 -0.39621069471E+02 -0.52801357933E+02  0.74996491834E+02  0.00000000000E+00 0. -1.
         21    1    1    2  502  501 -0.43088716440E+02 -0.97398316205E+01  0.18630301200E+01  0.44215073059E+02  0.00000000000E+00 0.  1.
<scales pt_clust_5="13000.00000" pt_clust_6="13000.00000" pt_clust_7="13000.00000" pt_clust_8="13000.00000" pt_clust_9="44.17581"></scales>
<clustering>
<clus scale="   44.176">  1  9  2 -1</clus>
<clus scale="   86.359">  5  6 -1 -1</clus>
<clus scale="   91.087">  7  8 -1 -1</clus>
<clus scale="   96.499">  1  5  2 -1</clus>
<clus scale="  100.752">  2  5  1 -1</clus>
</clustering>
</event>
<event>
 9    1  0.2802611E-005  0.1289320E+03  0.7546771E-02  0.1232142E+00
          3   -1    0    0  502    0  0.00000000000E+00  0.00000000000E+00  0.66542526846E+03  0.66542526846E+03  0.00000000000E+00 0. -1.
         -4   -1    0    0    0  501 -0.00000000000E+00 -0.00000000000E+00 -0.32817340134E+02  0.32817340134E+02  0.00000000000E+00 0.  1.
        -24    2    1    2    0    0 -0.86733900283E+02 -0.15703012120E+02  0.26287566916E+03  0.28829155215E+03  0.78987641784E+02 0.  0.
         23    2    1    2    0    0  0.96367456667E+02 -0.14307110492E+02  0.34529729748E+03  0.37007023122E+03  0.90721399234E+02 0.  0.
         11    1    3    3    0    0 -0.15374338611E+02  0.19495354505E+02  0.13803395668E+03  0.14024910813E+03  0.00000000000E+00 0. -1.
        -12    1    3    3    0    0 -0.71359561672E+02 -0.35198366624E+02  0.12484171248E+03  0.14804244402E+03  0.00000000000E+00 0.  1.
        -11    1    4    4    0    0  0.49382498958E+02  0.30938881895E+02  0.23324993123E+03  0.24041916736E+03  0.00000000000E+00 0. -1.
         11    1    4    4    0    0  0.46984957710E+02 -0.45245992387E+02  0.11204736625E+03  0.12965106386E+03  0.00000000000E+00 0.  1.
         21    1    1    2  502  501 -0.96335563844E+01  0.30010122611E+02  0.24434961689E+02  0.39880825223E+02  0.00000000000E+00 0. -1.
<scales pt_clust_5="13000.00000" pt_clust_6="13000.00000" pt_clust_7="13000.00000" pt_clust_8="13000.00000" pt_clust_9="31.51845"></scales>
<clustering>
<clus scale="   31.518">  2  9  1 -1</clus>
<clus scale="   78.988">  5  6 -1 -1</clus>
<clus scale="   90.721">  7  8 -1 -1</clus>
<clus scale="  120.963">  2  5  1 -1</clus>
<clus scale="  128.932">  1  5  2 -1</clus>
</clustering>
</event>
<event>
 9    1  0.2802611E-005  0.1373279E+03  0.7546771E-02  0.1220016E+00
          1   -1    0    0  502    0  0.00000000000E+00  0.00000000000E+00  0.35049399409E+03  0.35049399409E+03  0.00000000000E+00 0. -1.
         -2   -1    0    0    0  501 -0.00000000000E+00 -0.00000000000E+00 -0.16742848760E+03  0.16742848760E+03  0.00000000000E+00 0.  1.
        -24    2    1    2    0    0 -0.87284783555E+02 -0.15358524479E+02 -0.67203793540E+02  0.13720494661E+03  0.80338843624E+02 0.  0.
         23    2    1    2    0    0  0.10259052193E+03  0.23463197679E+01  0.29811440638E+03  0.32882594326E+03  0.93402255117E+02 0.  0.
         11    1    3    3    0    0 -0.41894703739E+02 -0.46663487094E+02 -0.23962531070E+02  0.67133077722E+02  0.00000000000E+00 0. -1.
        -12    1    3    3    0    0 -0.45390079816E+02  0.31304962615E+02 -0.43241262471E+02  0.70071868892E+02  0.00000000000E+00 0.  1.
        -11    1    4    4    0    0  0.54377498641E+02 -0.44247411682E+02  0.17724165101E+03  0.19060259351E+03  0.00000000000E+00 0. -1.
         11    1    4    4    0    0  0.48213023288E+02  0.46593731450E+02  0.12087275537E+03  0.13822334975E+03  0.00000000000E+00 0.  1.
         21    1    1    2  502  501 -0.15305738374E+02  0.13012204712E+02 -0.47845106354E+02  0.51891591811E+02  0.00000000000E+00 0. -1.
<scales pt_clust_5="13000.00000" pt_clust_6="13000.00000" pt_clust_7="13000.00000" pt_clust_8="13000.00000" pt_clust_9="20.08938"></scales>
<clustering>
<clus scale="   20.089">  2  9  1 -1</clus>
<clus scale="   80.339">  5  6 -1 -1</clus>
<clus scale="   93.402">  7  8 -1 -1</clus>
<clus scale="  128.799">  2  5  1 -1</clus>
<clus scale="  137.328">  1  5  2 -1</clus>
</clustering>
</event>
<event>
 9    1  0.2802611E-005  0.1555163E+03  0.7546771E-02  0.1195436E+00
         -2   -1    0    0    0  501 -0.00000000000E+00  0.00000000000E+00  0.11396646746E+03  0.11396646746E+03  0.00000000000E+00 0.  1.
          1   -1    0    0  502    0  0.00000000000E+00 -0.00000000000E+00 -0.34743017177E+03  0.34743017177E+03  0.00000000000E+00 0. -1.
        -24    2    1    2    0    0  0.50970412069E+02 -0.10271241439E+03 -0.65272184149E+02  0.15511738022E+03  0.81566663820E+02 0.  0.
         23    2    1    2    0    0 -0.88183171802E+02  0.10228353115E+03 -0.19959430597E+03  0.25758523078E+03  0.90961923943E+02 0.  0.
         13    1    3    3    0    0  0.16711653947E+02 -0.39357351578E+02 -0.70983303935E+02  0.82866820492E+02  0.00000000000E+00 0. -1.
        -14    1    3    3    0    0  0.34258758122E+02 -0.63355062814E+02  0.57111197859E+01  0.72250559731E+02  0.00000000000E+00 0.  1.
        -13    1    4    4    0    0 -0.98830246821E+01  0.35618982946E+02 -0.47498838240E+01  0.37268586227E+02  0.00000000000E+00 0.  1.
         13    1    4    4    0    0 -0.78300147119E+02  0.66664548204E+02 -0.19484442215E+03  0.22031664456E+03  0.00000000000E+00 0. -1.
         21    1    1    2  502  501  0.37212759733E+02  0.42888324283E+00  0.31402785813E+02  0.48694028223E+02  0.00000000000E+00 0.  1.
<scales pt_clust_5="13000.00000" pt_clust_6="13000.00000" pt_clust_7="13000.00000" pt_clust_8="13000.00000" pt_clust_9="37.21523"></scales>
<clustering>
<clus scale="   37.215">  1  9  2 -1</clus>
<clus scale="   81.567">  5  6 -1 -1</clus>
<clus scale="   90.962">  7  8 -1 -1</clus>
<clus scale="  150.214">  1  5  2 -1</clus>
<clus scale="  155.516">  2  5  1 -1</clus>
</clustering>
</event>
<event>
 9    1  0.2802611E-005  0.9841483E+02  0.7546771E-02  0.1289583E+00
          1   -1    0    0  502    0  0.00000000000E+00  0.00000000000E+00  0.19868639543E+03  0.19868639543E+03  0.00000000000E+00 0. -1.
         -2   -1    0    0    0  501 -0.00000000000E+00 -0.00000000000E+00 -0.39474190310E+03  0.39474190310E+03  0.00000000000E+00 0.  1.
         23    2    1    2    0    0  0.87126450759E+01 -0.38025045911E+02 -0.11693273742E+03  0.15351657398E+03  0.91500049755E+02 0.  0.
        -24    2    1    2    0    0 -0.11261540777E+02 -0.40851524594E+02  0.16228714960E+03  0.18592991488E+03  0.80231820131E+02 0.  0.
         13    1    4    4    0    0  0.33793136080E+02 -0.21692814365E+02  0.90814518385E+02  0.99296681670E+02  0.00000000000E+00 0. -1.
        -14    1    4    4    0    0 -0.45054676858E+02 -0.19158710229E+02  0.71472631211E+02  0.86633233211E+02  0.00000000000E+00 0.  1.
        -13    1    3    3    0    0 -0.35250133761E+01 -0.64221342308E+02 -0.10297259952E+03  0.12140907206E+03  0.00000000000E+00 0. -1.
         13    1    3    3    0    0  0.12237658452E+02  0.26196296397E+02 -0.13960137907E+02  0.32107501922E+02  0.00000000000E+00 0.  1.
         21    1    1    2  502  501  0.25488957016E+01  0.78876570505E+02 -0.24140991984E+03  0.25398180966E+03  0.00000000000E+00 0.  1.
<scales pt_clust_5="13000.00000" pt_clust_6="13000.00000" pt_clust_7="13000.00000" pt_clust_8="13000.00000" pt_clust_9="78.91774"></scales>
<clustering>
<clus scale="   78.918">  2  9  1 -1</clus>
<clus scale="   80.232">  5  6 -1 -1</clus>
<clus scale="   88.036">  1  5  2 -1</clus>
<clus scale="   91.500">  7  8 -1 -1</clus>
<clus scale="   88.036">  1  5  2 -1</clus>
</clustering>
</event>
<event>
 9    1  0.2802611E-005  0.9459147E+02  0.7546771E-02  0.1295933E+00
          3   -1    0    0  502    0  0.00000000000E+00  0.00000000000E+00  0.17377458616E+03  0.17377458616E+03  0.00000000000E+00 0. -1.
         -4   -1    0    0    0  501 -0.00000000000E+00 -0.00000000000E+00 -0.13260377666E+03  0.13260377666E+03  0.00000000000E+00 0.  1.
         23    2    1    2    0    0 -0.22290893933E+02  0.27221251452E+01 -0.74259148077E+02  0.11772069997E+03  0.88540658518E+02 0.  0.
        -24    2    1    2    0    0  0.31574730346E+02  0.15733833392E+02  0.13406621315E+03  0.16083461403E+03  0.81544505961E+02 0.  0.
         11    1    4    4    0    0  0.28914889465E+02 -0.13438254075E+02  0.12667113581E+03  0.13062248717E+03  0.00000000000E+00 0. -1.
        -12    1    4    4    0    0  0.26598408812E+01  0.29172087467E+02  0.73950773329E+01  0.30212126861E+02  0.00000000000E+00 0.  1.
        -11    1    3    3    0    0  0.62503018960E+01  0.31476760027E+02  0.11557034095E+01  0.32112121480E+02  0.00000000000E+00 0. -1.
         11    1    3    3    0    0 -0.28541195829E+02 -0.28754634881E+02 -0.75414851487E+02  0.85608578491E+02  0.00000000000E+00 0.  1.
         21    1    1    2  502  501 -0.92838364130E+01 -0.18455958538E+02 -0.18636255572E+02  0.27823048823E+02  0.00000000000E+00 0. -1.
<scales pt_clust_5="13000.00000" pt_clust_6="13000.00000" pt_clust_7="13000.00000" pt_clust_8="13000.00000" pt_clust_9="20.65943"></scales>
<clustering>
<clus scale="   20.659">  2  9  1 -1</clus>
<clus scale="   81.545">  5  6 -1 -1</clus>
<clus scale="   88.077">  1  5  2 -1</clus>
<clus scale="   88.541">  7  8 -1 -1</clus>
<clus scale="   88.077">  1  5  2 -1</clus>
</clustering>
</event>
<event>
 9    1  0.2802611E-005  0.1080498E+03  0.7546771E-02  0.1266313E+00
          1   -1    0    0  502    0  0.00000000000E+00  0.00000000000E+00  0.18327914592E+03  0.18327914592E+03  0.00000000000E+00 0. -1.
         -2   -1    0    0    0  501 -0.00000000000E+00 -0.00000000000E+00 -0.15674087493E+03  0.15674087493E+03  0.00000000000E+00 0.  1.
        -24    2    1    2    0    0  0.57175647819E+00  0.47595825322E+02 -0.29137752886E+02  0.98792857156E+02  0.81518896510E+02 0.  0.
         23    2    1    2    0    0  0.35230615065E+02 -0.62489824305E+02  0.12093537161E+03  0.16531653544E+03  0.86936864477E+02 0.  0.
         13    1    3    3    0    0  0.36278204357E+02  0.42183018816E+02 -0.61341952189E+01  0.55974490072E+02  0.00000000000E+00 0. -1.
        -14    1    3    3    0    0 -0.35706447879E+02  0.54128065057E+01 -0.23003557667E+02  0.42818367084E+02  0.00000000000E+00 0.  1.
        -13    1    4    4    0    0  0.37320532298E+02 -0.17520068417E+02  0.57260836859E+01  0.41624067110E+02  0.00000000000E+00 0.  1.
         13    1    4    4    0    0 -0.20899172332E+01 -0.44969755889E+02  0.11520928792E+03  0.12369246833E+03  0.00000000000E+00 0. -1.
         21    1    1    2  502  501 -0.35802371543E+02  0.14893998983E+02 -0.65259347741E+02  0.75910628251E+02  0.00000000000E+00 0.  1.
<scales pt_clust_5="13000.00000" pt_clust_6="13000.00000" pt_clust_7="13000.00000" pt_clust_8="13000.00000" pt_clust_9="38.77681"></scales>
<clustering>
<clus scale="   38.777">  2  9  1 -1</clus>
<clus scale="   81.519">  5  6 -1 -1</clus>
<clus scale="   86.937">  7  8 -1 -1</clus>
<clus scale="  103.740">  2  5  1 -1</clus>
<clus scale="  108.050">  1  5  2 -1</clus>
</clustering>
</event>
<event>
 9    1  0.2802611E-005  0.1158186E+03  0.7546771E-02  0.1254455E+00
          1   -1    0    0  502    0  0.00000000000E+00  0.00000000000E+00  0.16206041280E+03  0.16206041280E+03  0.00000000000E+00 0. -1.
         -2   -1    0    0    0  501 -0.00000000000E+00 -0.00000000000E+00 -0.32511148972E+03  0.32511148972E+03  0.00000000000E+00 0.  1.
        -24    2    1    2    0    0 -0.27822240270E+02 -0.33282853664E+02 -0.20696515488E+03  0.22584557404E+03  0.79308401668E+02 0.  0.
         23    2    1    2    0    0  0.15228715036E+01  0.74860481896E+02  0.12140319598E+03  0.16953896890E+03  0.91642321530E+02 0.  0.
         11    1    3    3    0    0  0.79838380292E+01 -0.29332867711E+02 -0.22306354786E+02  0.37705865083E+02  0.00000000000E+00 0. -1.
        -12    1    3    3    0    0 -0.35806078300E+02 -0.39499859526E+01 -0.18465880010E+03  0.18813970895E+03  0.00000000000E+00 0.  1.
        -11    1    4    4    0    0  0.34251601013E+02  0.60950620251E+02  0.39625816091E+02  0.80363894765E+02  0.00000000000E+00 0. -1.
         11    1    4    4    0    0 -0.32728729509E+02  0.13909861645E+02  0.81777379885E+02  0.89175074136E+02  0.00000000000E+00 0.  1.
         21    1    1    2  502  501  0.26299368767E+02 -0.41577628232E+02 -0.77489118021E+02  0.91787359580E+02  0.00000000000E+00 0. -1.
<scales pt_clust_5="13000.00000" pt_clust_6="13000.00000" pt_clust_7="13000.00000" pt_clust_8="13000.00000" pt_clust_9="49.19711"></scales>
<clustering>
<clus scale="   49.197">  2  9  1 -1</clus>
<clus scale="   79.308">  5  6 -1 -1</clus>
<clus scale="   91.642">  7  8 -1 -1</clus>
<clus scale="  106.327">  2  5  1 -1</clus>
<clus scale="  115.819">  1  5  2 -1</clus>
</clustering>
</event>
<event>
 9    1  0.2802611E-005  0.9331148E+02  0.7546771E-02  0.1302601E+00
         -2   -1    0    0    0  501 -0.00000000000E+00  0.00000000000E+00  0.12095998970E+03  0.12095998970E+03  0.00000000000E+00 0.  1.
          1   -1    0    0  502    0  0.00000000000E+00 -0.00000000000E+00 -0.14616235709E+03  0.14616235709E+03  0.00000000000E+00 0. -1.
         23    2    1    2    0    0  0.25915491838E+01  0.27108760732E+02  0.41940657983E+02  0.10523388138E+03  0.92593466086E+02 0.  0.
        -24    2    1    2    0    0 -0.11073436730E+02 -0.21367285397E+01 -0.94071681615E+02  0.12419632650E+03  0.80299810867E+02 0.  0.
         11    1    4    4    0    0 -0.45167305563E+02 -0.50288249026E+01 -0.41955797701E+02  0.61851948494E+02  0.00000000000E+00 0. -1.
        -12    1    4    4    0    0  0.34093868833E+02  0.28920963629E+01 -0.52115883913E+02  0.62344378010E+02  0.00000000000E+00 0.  1.
        -11    1    3    3    0    0 -0.28604811122E+02 -0.18458361991E+02 -0.28043767685E+01  0.34158613493E+02  0.00000000000E+00 0. -1.
         11    1    3    3    0    0  0.31196360306E+02  0.45567122723E+02  0.44745034752E+02  0.71075267882E+02  0.00000000000E+00 0.  1.
         21    1    1    2  502  501  0.84818875466E+01 -0.24972032192E+02  0.26928656241E+02  0.37692138904E+02  0.00000000000E+00 0. -1.
<scales pt_clust_5="13000.00000" pt_clust_6="13000.00000" pt_clust_7="13000.00000" pt_clust_8="13000.00000" pt_clust_9="26.37318"></scales>
<clustering>
<clus scale="   26.373">  1  9  2 -1</clus>
<clus scale="   80.300">  5  6 -1 -1</clus>
<clus scale="   81.127">  2  5  1 -1</clus>
<clus scale="   92.593">  7  8 -1 -1</clus>
<clus scale="   81.127">  2  5  1 -1</clus>
</clustering>
</event>
<event>
 9    1  0.2802611E-005  0.9429645E+02  0.7546771E-02  0.1294454E+00
          3   -1    0    0  502    0  0.00000000000E+00  0.00000000000E+00  0.16718727272E+03  0.16718727272E+03  0.00000000000E+00 0. -1.
         -4   -1    0    0    0  501 -0.00000000000E+00 -0.00000000000E+00 -0.23121697278E+03  0.23121697278E+03  0.00000000000E+00 0.  1.
        -24    2    1    2    0    0 -0.42731899473E+02  0.32556548030E+02 -0.32388370906E+02  0.10320428354E+03  0.81952263656E+02 0.  0.
         23    2    1    2    0    0  0.36134764668E+02 -0.11057986771E+02  0.11433329402E+03  0.14750331022E+03  0.85188755806E+02 0.  0.
         13    1    3    3    0    0  0.12869669180E+02 -0.17621508637E+02 -0.14508558872E+02  0.26203897267E+02  0.00000000000E+00 0. -1.
        -14    1    3    3    0    0 -0.55601568653E+02  0.50178056666E+02 -0.17879812035E+02  0.77000386271E+02  0.00000000000E+00 0.  1.
        -11    1    4    4    0    0  0.12644621465E+02 -0.23953739847E+02 -0.29048603403E+01  0.27241628407E+02  0.00000000000E+00 0.  1.
         11    1    4    4    0    0  0.23490143203E+02  0.12895753076E+02  0.11723815436E+03  0.12026168181E+03  0.00000000000E+00 0. -1.
         21    1    1    2  502  501  0.65971348049E+01 -0.21498561258E+02 -0.14597462317E+03  0.14769665174E+03  0.00000000000E+00 0.  1.
<scales pt_clust_5="13000.00000" pt_clust_6="13000.00000" pt_clust_7="13000.00000" pt_clust_8="13000.00000" pt_clust_9="22.48800"></scales>
<clustering>
<clus scale="   22.488">  2  9  1 -1</clus>
<clus scale="   81.952">  5  6 -1 -1</clus>
<clus scale="   85.189">  7  8 -1 -1</clus>
<clus scale="   91.383">  2  5  1 -1</clus>
<clus scale="   94.296">  1  5  2 -1</clus>
</clustering>
</event>
<event>
 9    1  0.2802611E-005  0.9791660E+02  0.7546771E-02  0.1292495E+00
          1   -1    0    0  502    0  0.00000000000E+00  0.00000000000E+00  0.66946931034E+03  0.66946931034E+03  0.00000000000E+00 0. -1.
         -2   -1    0    0    0  501 -0.00000000000E+00 -0.00000000000E+00 -0.50907708375E+02  0.50907708375E+02  0.00000000000E+00 0.  1.
         23    2    1    2    0    0 -0.20912610070E+02 -0.28111536875E+01  0.51138004612E+01  0.93772496503E+02  0.91224395313E+02 0.  0.
        -24    2    1    2    0    0  0.28650605117E+02  0.23084231696E+02  0.58315546350E+03  0.58934194043E+03  0.76810736317E+02 0.  0.
         13    1    4    4    0    0  0.42005879107E+02  0.38669948496E+02  0.29615151121E+03  0.30160500061E+03  0.00000000000E+00 0. -1.
        -14    1    4    4    0    0 -0.13355273990E+02 -0.15585716800E+02  0.28700395229E+03  0.28773693983E+03  0.00000000000E+00 0.  1.
        -13    1    3    3    0    0  0.10250722956E+02  0.37590441493E+02 -0.10608069037E+02  0.40381304356E+02  0.00000000000E+00 0. -1.
         13    1    3    3    0    0 -0.31163333025E+02 -0.40401595181E+02  0.15721869499E+02  0.53391192147E+02  0.00000000000E+00 0.  1.
         21    1    1    2  502  501 -0.77379950468E+01 -0.20273078008E+02  0.30292338004E+02  0.37262581782E+02  0.00000000000E+00 0.  1.
<scales pt_clust_5="13000.00000" pt_clust_6="13000.00000" pt_clust_7="13000.00000" pt_clust_8="13000.00000" pt_clust_9="21.69964"></scales>
<clustering>
<clus scale="   21.700">  2  9  1 -1</clus>
<clus scale="   76.811">  5  6 -1 -1</clus>
<clus scale="   84.650">  1  5  2 -1</clus>
<clus scale="   91.224">  7  8 -1 -1</clus>
<clus scale="   84.650">  1  5  2 -1</clus>
</clustering>
</event>
<event>
 9    1  0.2802611E-005  0.2261370E+03  0.7546771E-02  0.1129789E+00
         -2   -1    0    0    0  501 -0.00000000000E+00  0.00000000000E+00  0.20629248489E+03  0.20629248489E+03  0.00000000000E+00 0.  1.
          1   -1    0    0  502    0  0.00000000000E+00 -0.00000000000E+00 -0.65095249676E+03  0.65095249676E+03  0.00000000000E+00 0. -1.
        -24    2    1    2    0    0  0.59159354098E+01  0.19970770347E+03  0.49077067739E+02  0.22253187691E+03  0.84815756475E+02 0.  0.
         23    2    1    2    0    0  0.16012640841E+02 -0.20805356178E+03 -0.53828433863E+03  0.58436457851E+03  0.90494431673E+02 0.  0.
         11    1    3    3    0    0 -0.32772412718E+02  0.40521887089E+02  0.23082417211E+01  0.52166870219E+02  0.00000000000E+00 0. -1.
        -12    1    3    3    0    0  0.38688348128E+02  0.15918581638E+03  0.46768826018E+02  0.17036500669E+03  0.00000000000E+00 0.  1.
        -11    1    4    4    0    0  0.31422680506E+02 -0.15709004457E+03 -0.47699498246E+03  0.50317877563E+03  0.00000000000E+00 0. -1.
         11    1    4    4    0    0 -0.15410039665E+02 -0.50963517210E+02 -0.61289356167E+02  0.81185802874E+02  0.00000000000E+00 0.  1.
         21    1    1    2  502  501 -0.21928576251E+02  0.83458583061E+01  0.44547259026E+02  0.50348526235E+02  0.00000000000E+00 0.  1.
<scales pt_clust_5="13000.00000" pt_clust_6="13000.00000" pt_clust_7="13000.00000" pt_clust_8="13000.00000" pt_clust_9="23.46307"></scales>
<clustering>
<clus scale="   23.463">  1  9  2 -1</clus>
<clus scale="   84.816">  5  6 -1 -1</clus>
<clus scale="   90.494">  7  8 -1 -1</clus>
<clus scale="  223.925">  1  5  2 -1</clus>
<clus scale="  226.137">  2  5  1 -1</clus>
</clustering>
</event>
<event>
 9    1  0.2802611E-005  0.1322705E+03  0.7546771E-02  0.1237340E+00
         -4   -1    0    0    0  501 -0.00000000000E+00  0.00000000000E+00  0.51934350009E+02  0.51934350009E+02  0.00000000000E+00 0.  1.
          3   -1    0    0  502    0  0.00000000000E+00 -0.00000000000E+00 -0.90316189936E+03  0.90316189936E+03  0.00000000000E+00 0. -1.
         23    2    1    2    0    0 -0.34096329821E+02 -0.16751031179E+02 -0.18660900963E+03  0.21205335710E+03  0.93276722886E+02 0.  0.
        -24    2    1    2    0    0  0.26445010064E+02 -0.91132849518E+02 -0.60594959981E+03  0.62000013986E+03  0.90668192330E+02 0.  0.
         13    1    4    4    0    0 -0.39792058050E+01 -0.98050501171E+02 -0.40986577985E+03  0.42144951341E+03  0.00000000000E+00 0. -1.
        -14    1    4    4    0    0  0.30424215869E+02  0.69176516533E+01 -0.19608381995E+03  0.19855062645E+03  0.00000000000E+00 0.  1.
        -11    1    3    3    0    0  0.41904046096E+01  0.30460549416E+02 -0.11023555540E+03  0.11444335820E+03  0.00000000000E+00 0.  1.
         11    1    3    3    0    0 -0.38286734430E+02 -0.47211580595E+02 -0.76373454224E+02  0.97609998902E+02  0.00000000000E+00 0. -1.
         21    1    1    2  502  501  0.76513197561E+01  0.10788388070E+03 -0.58668939913E+02  0.12304275240E+03  0.00000000000E+00 0.  1.
<scales pt_clust_5="13000.00000" pt_clust_6="13000.00000" pt_clust_7="13000.00000" pt_clust_8="13000.00000" pt_clust_9="96.30560"></scales>
<clustering>
<clus scale="   90.668">  5  6 -1 -1</clus>
<clus scale="   93.277">  7  8 -1 -1</clus>
<clus scale="  100.716">  1  7  2 -1</clus>
<clus scale="   96.306">  1  9  2 -1</clus>
<clus scale="  132.271">  2  5  1 -1</clus>
</clustering>
</event>
<event>
 9    1  0.2802611E-005  0.1669930E+03  0.7546771E-02  0.1183747E+00
         -2   -1    0    0    0  501 -0.00000000000E+00  0.00000000000E+00  0.73776731383E+02  0.73776731383E+02  0.00000000000E+00 0.  1.
          1   -1    0    0  502    0  0.00000000000E+00 -0.00000000000E+00 -0.65141173120E+03  0.65141173120E+03  0.00000000000E+00 0. -1.
        -24    2    1    2    0    0 -0.34388208242E+02 -0.10200184144E+03 -0.47114873975E+02  0.14150355399E+03  0.78844910545E+02 0.  0.
         23    2    1    2    0    0  0.32671104797E+02  0.14091046321E+03 -0.51148767650E+03  0.54033674346E+03  0.97061801917E+02 0.  0.
         11    1    3    3    0    0 -0.50866994488E+02 -0.32464581304E+02 -0.32579598686E+02  0.68577185842E+02  0.00000000000E+00 0. -1.
        -12    1    3    3    0    0  0.16478786246E+02 -0.69537260138E+02 -0.14535275288E+02  0.72926368149E+02  0.00000000000E+00 0.  1.
        -13    1    4    4    0    0 -0.24180426257E+02  0.97163540690E+02 -0.25338331229E+03  0.27244916884E+03  0.00000000000E+00 0.  1.
         13    1    4    4    0    0  0.56851531054E+02  0.43746922523E+02 -0.25810436421E+03  0.26788757462E+03  0.00000000000E+00 0. -1.
         21    1    1    2  502  501  0.17171034449E+01 -0.38908621771E+02 -0.19032449345E+02  0.43348165133E+02  0.00000000000E+00 0.  1.
<scales pt_clust_5="13000.00000" pt_clust_6="13000.00000" pt_clust_7="13000.00000" pt_clust_8="13000.00000" pt_clust_9="38.94649"></scales>
<clustering>
<clus scale="   38.946">  1  9  2 -1</clus>
<clus scale="   78.845">  5  6 -1 -1</clus>
<clus scale="   97.062">  7  8 -1 -1</clus>
<clus scale="  157.106">  1  5  2 -1</clus>
<clus scale="  166.993">  2  5  1 -1</clus>
</clustering>
</event>
<event>
 9    1  0.2802611E-005  0.2927037E+03  0.7546771E-02  0.1089651E+00
          1   -1    0    0  502    0  0.00000000000E+00  0.00000000000E+00  0.13573986264E+03  0.13573986264E+03  0.00000000000E+00 0. -1.
         -2   -1    0    0    0  501 -0.00000000000E+00 -0.00000000000E+00 -0.98617223992E+03  0.98617223992E+03  0.00000000000E+00 0.  1.
         23    2    1    2    0    0 -0.34447819013E+03  0.82682849694E+01 -0.30353727364E+03  0.46831969264E+03  0.91950367127E+02 0.  0.
        -24    2    1    2    0    0  0.21201718351E+03 -0.18952004231E+02 -0.34438416100E+03  0.41137196897E+03  0.72910780629E+02 0.  0.
         11    1    4    4    0    0  0.48150228483E+02  0.16253240294E+02 -0.12762878404E+03  0.13737437475E+03  0.00000000000E+00 0. -1.
        -12    1    4    4    0    0  0.16386695503E+03 -0.35205244524E+02 -0.21675537697E+03  0.27399759422E+03  0.00000000000E+00 0.  1.
        -13    1    3    3    0    0 -0.79058204370E+02 -0.33744557389E+02 -0.53409404930E+02  0.10120009568E+03  0.00000000000E+00 0.  1.
         13    1    3    3    0    0 -0.26541998576E+03  0.42012842359E+02 -0.25012786871E+03  0.36711959695E+03  0.00000000000E+00 0. -1.
         21    1    1    2  502  501  0.13246100661E+03  0.10683719261E+02 -0.20251094264E+03  0.24222044096E+03  0.00000000000E+00 0.  1.
<scales pt_clust_5="13000.00000" pt_clust_6="13000.00000" pt_clust_7="13000.00000" pt_clust_8="13000.00000" pt_clust_9="132.89116"></scales>
<clustering>
<clus scale="   72.911">  5  6 -1 -1</clus>
<clus scale="   91.950">  7  8 -1 -1</clus>
<clus scale="  132.891">  2  9  1 -1</clus>
<clus scale="  287.292">  1  5  2 -1</clus>
<clus scale="  287.292">  1  5  2 -1</clus>
</clustering>
</event>
<event>
 9    1  0.2802611E-005  0.1058006E+03  0.7546771E-02  0.1272885E+00
         -2   -1    0    0    0  501 -0.00000000000E+00  0.00000000000E+00  0.14303197277E+03  0.14303197277E+03  0.00000000000E+00 0.  1.
          1   -1    0    0  502    0  0.00000000000E+00 -0.00000000000E+00 -0.26754481610E+03  0.26754481610E+03  0.00000000000E+00 0. -1.
         23    2    1    2    0    0  0.97663702065E+01 -0.55652276431E+02  0.84818205080E+02  0.13764511480E+03  0.92517521890E+02 0.  0.
        -24    2    1    2    0    0 -0.49848060061E+02  0.19286383624E+02 -0.19257614400E+03  0.21627704633E+03  0.82664356574E+02 0.  0.
         13    1    4    4    0    0 -0.63470007295E+02  0.36920163264E+02 -0.12332214679E+03  0.14352662530E+03  0.00000000000E+00 0. -1.
        -14    1    4    4    0    0  0.13621947234E+02 -0.17633779640E+02 -0.69253997214E+02  0.72750421036E+02  0.00000000000E+00 0.  1.
        -13    1    3    3    0    0 -0.14713398571E+02 -0.39737685706E+02  0.97119724606E+02  0.10596135461E+03  0.00000000000E+00 0.  1.
         13    1    3    3    0    0  0.24479768778E+02 -0.15914590725E+02 -0.12301519526E+02  0.31683760193E+02  0.00000000000E+00 0. -1.
         21    1    1    2  502  501  0.40081689855E+02  0.36365892807E+02 -0.16754904409E+02  0.56654627728E+02  0.00000000000E+00 0. -1.
<scales pt_clust_5="13000.00000" pt_clust_6="13000.00000" pt_clust_7="13000.00000" pt_clust_8="13000.00000" pt_clust_9="54.12042"></scales>
<clustering>
<clus scale="   54.120">  1  9  2 -1</clus>
<clus scale="   82.664">  5  6 -1 -1</clus>
<clus scale="   92.518">  7  8 -1 -1</clus>
<clus scale="   97.302">  2  5  1 -1</clus>
<clus scale="   97.302">  2  5  1 -1</clus>
</clustering>
</event>
<event>
 9    1  0.2802611E-005  0.1482808E+03  0.7546771E-02  0.1204599E+00
         -2   -1    0    0    0  501 -0.00000000000E+00  0.00000000000E+00  0.94602126543E+03  0.94602126543E+03  0.00000000000E+00 0.  1.
          1   -1    0    0  502    0  0.00000000000E+00 -0.00000000000E+00 -0.31271439714E+02  0.31271439714E+02  0.00000000000E+00 0. -1.
        -24    2    1    2    0    0 -0.36720846612E+02  0.99908057743E+02  0.38528640560E+03  0.40765752045E+03  0.80056224373E+02 0.  0.
         23    2    1    2    0    0  0.81211180835E+02 -0.10155285276E+03  0.34202366880E+03  0.37698068679E+03  0.90697356062E+02 0.  0.
         13    1    3    3    0    0 -0.98684439537E+01  0.64541078126E+02  0.10335554288E+03  0.12225099262E+03  0.00000000000E+00 0. -1.
        -14    1    3    3    0    0 -0.26852402658E+02  0.35366979617E+02  0.28193086272E+03  0.28540652783E+03  0.00000000000E+00 0.  1.
        -11    1    4    4    0    0 -0.50035369247E+01 -0.52401274533E+02  0.17451245982E+03  0.18227870854E+03  0.00000000000E+00 0.  1.
         11    1    4    4    0    0  0.86214717760E+02 -0.49151578228E+02  0.16751120898E+03  0.19470197825E+03  0.00000000000E+00 0. -1.
         21    1    1    2  502  501 -0.44490334223E+02  0.16447950180E+01  0.18743975131E+03  0.19265449790E+03  0.00000000000E+00 0. -1.
<scales pt_clust_5="13000.00000" pt_clust_6="13000.00000" pt_clust_7="13000.00000" pt_clust_8="13000.00000" pt_clust_9="44.52073"></scales>
<clustering>
<clus scale="   44.521">  1  9  2 -1</clus>
<clus scale="   80.056">  5  6 -1 -1</clus>
<clus scale="   90.697">  7  8 -1 -1</clus>
<clus scale="  142.022">  1  5  2 -1</clus>
<clus scale="  148.281">  2  5  1 -1</clus>
</clustering>
</event>
<event>
 9    1  0.2802611E-005  0.1865632E+03  0.7546771E-02  0.1164393E+00
          1   -1    0    0  502    0  0.00000000000E+00  0.00000000000E+00  0.25228224190E+03  0.25228224190E+03  0.00000000000E+00 0. -1.
         -2   -1    0    0    0  501 -0.00000000000E+00 -0.00000000000E+00 -0.42909322821E+03  0.42909322821E+03  0.00000000000E+00 0.  1.
         23    2    1    2    0    0 -0.87499765747E+02  0.16158356199E+03 -0.31292693907E+03  0.37721939745E+03  0.10298421291E+03 0.  0.
        -24    2    1    2    0    0  0.10064695240E+03 -0.11530580368E+03  0.17233584587E+03  0.24393680591E+03  0.79876680657E+02 0.  0.
         11    1    4    4    0    0  0.79660127586E+02 -0.30692838158E+02  0.81169908048E+02  0.11779787865E+03  0.00000000000E+00 0. -1.
        -12    1    4    4    0    0  0.20986824814E+02 -0.84612965525E+02  0.91165937823E+02  0.12613892726E+03  0.00000000000E+00 0.  1.
        -13    1    3    3    0    0 -0.39394833620E+02  0.11953256236E+03 -0.27619781955E+03  0.30352136976E+03  0.00000000000E+00 0.  1.
         13    1    3    3    0    0 -0.48104932127E+02  0.42050999623E+02 -0.36729119521E+02  0.73698027688E+02  0.00000000000E+00 0. -1.
         21    1    1    2  502  501 -0.13147186653E+02 -0.46277758302E+02 -0.36219893115E+02  0.60219266748E+02  0.00000000000E+00 0.  1.
<scales pt_clust_5="13000.00000" pt_clust_6="13000.00000" pt_clust_7="13000.00000" pt_clust_8="13000.00000" pt_clust_9="48.10904"></scales>
<clustering>
<clus scale="   48.109">  2  9  1 -1</clus>
<clus scale="   79.877">  5  6 -1 -1</clus>
<clus scale="  102.984">  7  8 -1 -1</clus>
<clus scale="  174.872">  1  5  2 -1</clus>
<clus scale="  174.872">  1  5  2 -1</clus>
</clustering>
</event>
<event>
 9    1  0.2802611E-005  0.1071564E+03  0.7546771E-02  0.1269767E+00
         -2   -1    0    0    0  501 -0.00000000000E+00  0.00000000000E+00  0.25148541379E+03  0.25148541379E+03  0.00000000000E+00 0.  1.
          1   -1    0    0  502    0  0.00000000000E+00 -0.00000000000E+00 -0.13329062074E+03  0.13329062074E+03  0.00000000000E+00 0. -1.
         23    2    1    2    0    0  0.46034353580E+02  0.18076430147E+02  0.10433610891E+03  0.14553071346E+03  0.88584682086E+02 0.  0.
        -24    2    1    2    0    0 -0.45162395014E+02 -0.43786498252E+02 -0.88109935229E+02  0.13408179483E+03  0.79105421224E+02 0.  0.
         13    1    4    4    0    0 -0.38870407512E+02 -0.33725923495E+02 -0.10294112621E+03  0.11508788799E+03  0.00000000000E+00 0. -1.
        -14    1    4    4    0    0 -0.62919875016E+01 -0.10060574757E+02  0.14831190984E+02  0.18993906843E+02  0.00000000000E+00 0.  1.
        -11    1    3    3    0    0 -0.23517430453E+01  0.45416729780E+02  0.53431239937E+02  0.70164859014E+02  0.00000000000E+00 0. -1.
         11    1    3    3    0    0  0.48386096625E+02 -0.27340299633E+02  0.50904868973E+02  0.75365854443E+02  0.00000000000E+00 0.  1.
         21    1    1    2  502  501 -0.87195856654E+00  0.25710068105E+02  0.10196861937E+03  0.10516352623E+03  0.00000000000E+00 0.  1.
<scales pt_clust_5="13000.00000" pt_clust_6="13000.00000" pt_clust_7="13000.00000" pt_clust_8="13000.00000" pt_clust_9="25.72485"></scales>
<clustering>
<clus scale="   25.725">  1  9  2 -1</clus>
<clus scale="   79.105">  5  6 -1 -1</clus>
<clus scale="   88.585">  7  8 -1 -1</clus>
<clus scale="   99.463">  2  5  1 -1</clus>
<clus scale="   99.463">  2  5  1 -1</clus>
</clustering>
</event>
<event>
 9    1  0.2802611E-005  0.9635771E+02  0.7546771E-02  0.1296121E+00
          1   -1    0    0  502    0  0.00000000000E+00  0.00000000000E+00  0.21351458227E+03  0.21351458227E+03  0.00000000000E+00 0. -1.
         -2   -1    0    0    0  501 -0.00000000000E+00 -0.00000000000E+00 -0.15063643308E+03  0.15063643308E+03  0.00000000000E+00 0.  1.
         23    2    1    2    0    0 -0.13499490324E+02 -0.94380958224E+01 -0.85670417357E+02  0.12697211761E+03  0.92256080283E+02 0.  0.
        -24    2    1    2    0    0  0.19600168060E+02 -0.22866571164E+02  0.17561292949E+03  0.19459616040E+03  0.78235017569E+02 0.  0.
         13    1    4    4    0    0  0.31471431905E+02 -0.45987424229E+02  0.13847617249E+03  0.14926802927E+03  0.00000000000E+00 0. -1.
        -14    1    4    4    0    0 -0.11871263845E+02  0.23120853065E+02  0.37136757000E+02  0.45328131136E+02  0.00000000000E+00 0.  1.
        -11    1    3    3    0    0 -0.51548087366E+02  0.52943784872E+01 -0.57419738835E+02  0.77345084928E+02  0.00000000000E+00 0.  1.
         11    1    3    3    0    0  0.38048597042E+02 -0.14732474310E+02 -0.28250678523E+02  0.49627032685E+02  0.00000000000E+00 0. -1.
         21    1    1    2  502  501 -0.61006777362E+01  0.32304666986E+02 -0.27064362937E+02  0.42582737337E+02  0.00000000000E+00 0.  1.
<scales pt_clust_5="13000.00000" pt_clust_6="13000.00000" pt_clust_7="13000.00000" pt_clust_8="13000.00000" pt_clust_9="32.87567"></scales>
<clustering>
<clus scale="   32.876">  2  9  1 -1</clus>
<clus scale="   78.235">  5  6 -1 -1</clus>
<clus scale="   83.032">  1  5  2 -1</clus>
<clus scale="   92.256">  7  8 -1 -1</clus>
<clus scale="   83.032">  1  5  2 -1</clus>
</clustering>
</event>
<event>
 9    1  0.2802611E-005  0.1677288E+03  0.7546771E-02  0.1181988E+00
         -2   -1    0    0    0  501 -0.00000000000E+00  0.00000000000E+00  0.61949381986E+02  0.61949381986E+02  0.00000000000E+00 0.  1.
          1   -1    0    0  502    0  0.00000000000E+00 -0.00000000000E+00 -0.89105202058E+03  0.89105202058E+03  0.00000000000E+00 0. -1.
        -24    2    1    2    0    0  0.10136383478E+03  0.10503244438E+03 -0.33328904376E+03  0.37269941379E+03  0.80726854075E+02 0.  0.
         23    2    1    2    0    0 -0.11607055297E+03 -0.72907751384E+02 -0.51438229139E+03  0.54038858312E+03  0.92966475623E+02 0.  0.
         11    1    3    3    0    0  0.89605119330E+02  0.76481727470E+02 -0.17197025888E+03  0.20845215755E+03  0.00000000000E+00 0. -1.
        -12    1    3    3    0    0  0.11758715452E+02  0.28550716908E+02 -0.16131878489E+03  0.16424725624E+03  0.00000000000E+00 0.  1.
        -13    1    4    4    0    0 -0.12707905933E+03 -0.51248168938E+02 -0.47251953317E+03  0.49198594631E+03  0.00000000000E+00 0.  1.
         13    1    4    4    0    0  0.11008506362E+02 -0.21659582446E+02 -0.41862758217E+02  0.48402636804E+02  0.00000000000E+00 0. -1.
         21    1    1    2  502  501  0.14706718187E+02 -0.32124692994E+02  0.18568696559E+02  0.39913405664E+02  0.00000000000E+00 0.  1.
<scales pt_clust_5="13000.00000" pt_clust_6="13000.00000" pt_clust_7="13000.00000" pt_clust_8="13000.00000" pt_clust_9="35.33106"></scales>
<clustering>
<clus scale="   35.331">  1  9  2 -1</clus>
<clus scale="   80.727">  5  6 -1 -1</clus>
<clus scale="   92.966">  7  8 -1 -1</clus>
<clus scale="  161.267">  1  5  2 -1</clus>
<clus scale="  167.729">  2  5  1 -1</clus>
</clustering>
</event>
<event>
 9    1  0.2802611E-005  0.8891749E+02  0.7546771E-02  0.1308554E+00
          3   -1    0    0  502    0  0.00000000000E+00  0.00000000000E+00  0.80064680938E+02  0.80064680938E+02  0.00000000000E+00 0. -1.
         -4   -1    0    0    0  501 -0.00000000000E+00 -0.00000000000E+00 -0.24323568096E+03  0.24323568096E+03  0.00000000000E+00 0.  1.
         23    2    1    2    0    0 -0.13237955991E+01  0.13168186251E+02 -0.85396485997E+02  0.12174906854E+03  0.85762009686E+02 0.  0.
        -24    2    1    2    0    0 -0.18610870495E+02 -0.20346788647E+02  0.30960564394E+02  0.90771148373E+02  0.80749541921E+02 0.  0.
         11    1    4    4    0    0 -0.35829696595E+02  0.21362853872E+01  0.46284952463E+02  0.58571560487E+02  0.00000000000E+00 0. -1.
        -12    1    4    4    0    0  0.17218826100E+02 -0.22483074034E+02 -0.15324388069E+02  0.32199587886E+02  0.00000000000E+00 0.  1.
        -11    1    3    3    0    0  0.33473794215E+02  0.21404003748E+02 -0.74388221199E+02  0.84334060312E+02  0.00000000000E+00 0.  1.
         11    1    3    3    0    0 -0.34797589814E+02 -0.82358174973E+01 -0.11008264798E+02  0.37415008226E+02  0.00000000000E+00 0. -1.
         21    1    1    2  502  501  0.19934666094E+02  0.71786023964E+01 -0.10873507842E+03  0.11078014498E+03  0.00000000000E+00 0.  1.
<scales pt_clust_5="13000.00000" pt_clust_6="13000.00000" pt_clust_7="13000.00000" pt_clust_8="13000.00000" pt_clust_9="21.18781"></scales>
<clustering>
<clus scale="   21.188">  2  9  1 -1</clus>
<clus scale="   80.750">  5  6 -1 -1</clus>
<clus scale="   84.093">  1  5  2 -1</clus>
<clus scale="   85.762">  7  8 -1 -1</clus>
<clus scale="   84.093">  1  5  2 -1</clus>
</clustering>
</event>
<event>
 9    1  0.2802611E-005  0.1304797E+03  0.7546771E-02  0.1228921E+00
         -2   -1    0    0    0  501 -0.00000000000E+00  0.00000000000E+00  0.61320837868E+02  0.61320837868E+02  0.00000000000E+00 0.  1.
          1   -1    0    0  502    0  0.00000000000E+00 -0.00000000000E+00 -0.49163307196E+03  0.49163307196E+03  0.00000000000E+00 0. -1.
        -24    2    1    2    0    0  0.21086608837E+02  0.49792010447E+02 -0.53304890207E+02  0.11177514530E+03  0.82026717660E+02 0.  0.
         23    2    1    2    0    0 -0.41268556998E+02 -0.10664311473E+03 -0.34110061588E+03  0.37097440422E+03  0.90534693433E+02 0.  0.
         13    1    3    3    0    0  0.48037485401E+02  0.51136465393E+02 -0.30740391139E+02  0.76599671957E+02  0.00000000000E+00 0. -1.
        -14    1    3    3    0    0 -0.26950876564E+02 -0.13444549464E+01 -0.22564499068E+02  0.35175473342E+02  0.00000000000E+00 0.  1.
        -13    1    4    4    0    0  0.96041923556E+01 -0.92223757055E+02 -0.22753241529E+03  0.24569994278E+03  0.00000000000E+00 0.  1.
         13    1    4    4    0    0 -0.50872749353E+02 -0.14419357679E+02 -0.11356820059E+03  0.12527446144E+03  0.00000000000E+00 0. -1.
         21    1    1    2  502  501  0.20181948161E+02  0.56851104287E+02 -0.35906728001E+02  0.70204360306E+02  0.00000000000E+00 0. -1.
<scales pt_clust_5="13000.00000" pt_clust_6="13000.00000" pt_clust_7="13000.00000" pt_clust_8="13000.00000" pt_clust_9="60.32710"></scales>
<clustering>
<clus scale="   60.327">  1  9  2 -1</clus>
<clus scale="   82.027">  5  6 -1 -1</clus>
<clus scale="   90.535">  7  8 -1 -1</clus>
<clus scale="  124.727">  1  5  2 -1</clus>
<clus scale="  130.480">  2  5  1 -1</clus>
</clustering>
</event>
<event>
 9    1  0.2802611E-005  0.1169762E+03  0.7546771E-02  0.1251344E+00
         -2   -1    0    0    0  501 -0.00000000000E+00  0.00000000000E+00  0.19727575967E+02  0.19727575967E+02  0.00000000000E+00 0.  1.
          1   -1    0    0  502    0  0.00000000000E+00 -0.00000000000E+00 -0.81298138090E+03  0.81298138090E+03  0.00000000000E+00 0. -1.
        -24    2    1    2    0    0 -0.17226209369E+02 -0.61632572279E+02 -0.29878684300E+03  0.31610769343E+03  0.80964066363E+02 0.  0.
         23    2    1    2    0    0  0.34569780528E+02  0.77014753950E+02 -0.44645453896E+03  0.46328518956E+03  0.90471926353E+02 0.  0.
         13    1    3    3    0    0 -0.38231673953E+02 -0.70633907575E+02 -0.22931227495E+03  0.24297104609E+03  0.00000000000E+00 0. -1.
        -14    1    3    3    0    0  0.21005464584E+02  0.90013352968E+01 -0.69474568044E+02  0.73136647341E+02  0.00000000000E+00 0.  1.
        -13    1    4    4    0    0  0.64517432149E+02  0.45167975772E+02 -0.31750367982E+03  0.32712571251E+03  0.00000000000E+00 0.  1.
         13    1    4    4    0    0 -0.29947651621E+02  0.31846778178E+02 -0.12895085914E+03  0.13615947705E+03  0.00000000000E+00 0. -1.
         21    1    1    2  502  501 -0.17343571159E+02 -0.15382181672E+02 -0.48012422984E+02  0.53316073883E+02  0.00000000000E+00 0. -1.
<scales pt_clust_5="13000.00000" pt_clust_6="13000.00000" pt_clust_7="13000.00000" pt_clust_8="13000.00000" pt_clust_9="23.18213"></scales>
<clustering>
<clus scale="   23.182">  1  9  2 -1</clus>
<clus scale="   80.964">  5  6 -1 -1</clus>
<clus scale="   90.472">  7  8 -1 -1</clus>
<clus scale="  109.788">  1  5  2 -1</clus>
<clus scale="  116.976">  2  5  1 -1</clus>
</clustering>
</event>
<event>
 9    1  0.2802611E-005  0.1604664E+03  0.7546771E-02  0.1189817E+00
          1   -1    0    0  502    0  0.00000000000E+00  0.00000000000E+00  0.17989575895E+03  0.17989575895E+03  0.00000000000E+00 0. -1.
         -2   -1    0    0    0  501 -0.00000000000E+00 -0.00000000000E+00 -0.19244101172E+03  0.19244101172E+03  0.00000000000E+00 0.  1.
         23    2    1    2    0    0  0.18047653315E+02  0.13798831664E+03 -0.64880077295E+02  0.17817166781E+03  0.90383767678E+02 0.  0.
        -24    2    1    2    0    0 -0.40435268465E+02 -0.12409620880E+03  0.63418982155E+02  0.16558093726E+03  0.79750859001E+02 0.  0.
         13    1    4    4    0    0 -0.59695995509E+02 -0.10613982547E+03  0.34712761445E+02  0.12662641999E+03  0.00000000000E+00 0. -1.
        -14    1    4    4    0    0  0.19260727044E+02 -0.17956383325E+02  0.28706220710E+02  0.38954517271E+02  0.00000000000E+00 0.  1.
        -13    1    3    3    0    0  0.30777920181E+02  0.28824703709E+02  0.12241405938E+02  0.43908950499E+02  0.00000000000E+00 0. -1.
         13    1    3    3    0    0 -0.12730266867E+02  0.10916361293E+03 -0.77121483233E+02  0.13426271731E+03  0.00000000000E+00 0.  1.
         21    1    1    2  502  501  0.22387615150E+02 -0.13892107845E+02 -0.11084157637E+02  0.28584165599E+02  0.00000000000E+00 0. -1.
<scales pt_clust_5="13000.00000" pt_clust_6="13000.00000" pt_clust_7="13000.00000" pt_clust_8="13000.00000" pt_clust_9="26.34760"></scales>
<clustering>
<clus scale="   26.348">  2  9  1 -1</clus>
<clus scale="   79.751">  5  6 -1 -1</clus>
<clus scale="   90.384">  7  8 -1 -1</clus>
<clus scale="  154.727">  1  5  2 -1</clus>
<clus scale="  154.727">  1  5  2 -1</clus>
</clustering>
</event>
<event>
 9    1  0.2802611E-005  0.1592556E+03  0.7546771E-02  0.1193666E+00
         -2   -1    0    0    0  501 -0.00000000000E+00  0.00000000000E+00  0.10682390671E+03  0.10682390671E+03  0.00000000000E+00 0.  1.
          1   -1    0    0  502    0  0.00000000000E+00 -0.00000000000E+00 -0.38505308737E+03  0.38505308737E+03  0.00000000000E+00 0. -1.
        -24    2    1    2    0    0  0.69514277719E+02  0.12730280117E+03 -0.89615696161E+02  0.18771463288E+03  0.78533893350E+02 0.  0.
         23    2    1    2    0    0 -0.99975721817E+02 -0.58212515167E+02 -0.16317294002E+03  0.22448433098E+03  0.10190174005E+03 0.  0.
         11    1    3    3    0    0  0.38744855423E+01  0.79838725561E+02 -0.65085098667E+02  0.10307911431E+03  0.00000000000E+00 0. -1.
        -12    1    3    3    0    0  0.65639792176E+02  0.47464075612E+02 -0.24530597494E+02  0.84635518573E+02  0.00000000000E+00 0.  1.
        -11    1    4    4    0    0 -0.48982881637E+02  0.18852677431E+02 -0.24695829295E+02  0.58005431852E+02  0.00000000000E+00 0.  1.
         11    1    4    4    0    0 -0.50992840180E+02 -0.77065192598E+02 -0.13847711073E+03  0.16647889913E+03  0.00000000000E+00 0. -1.
         21    1    1    2  502  501  0.30461444098E+02 -0.69090286006E+02 -0.25440544479E+02  0.79678030224E+02  0.00000000000E+00 0. -1.
<scales pt_clust_5="13000.00000" pt_clust_6="13000.00000" pt_clust_7="13000.00000" pt_clust_8="13000.00000" pt_clust_9="75.50740"></scales>
<clustering>
<clus scale="   75.507">  1  9  2 -1</clus>
<clus scale="   78.534">  5  6 -1 -1</clus>
<clus scale="  101.902">  7  8 -1 -1</clus>
<clus scale="  145.417">  1  5  2 -1</clus>
<clus scale="  159.256">  2  5  1 -1</clus>
</clustering>
</event>
<event>
 9    1  0.2802611E-005  0.9156736E+02  0.7546771E-02  0.1302863E+00
          1   -1    0    0  502    0  0.00000000000E+00  0.00000000000E+00  0.30182998322E+03  0.30182998322E+03  0.00000000000E+00 0. -1.
         -2   -1    0    0    0  501 -0.00000000000E+00 -0.00000000000E+00 -0.48112295314E+02  0.48112295314E+02  0.00000000000E+00 0.  1.
        -24    2    1    2    0    0  0.37511902636E+02 -0.41309354753E+01  0.71368249450E+02  0.11474129337E+03  0.81534838610E+02 0.  0.
         23    2    1    2    0    0 -0.17509397863E+02 -0.14805103660E+02  0.18638864486E+03  0.20736236157E+03  0.87935498829E+02 0.  0.
         11    1    3    3    0    0 -0.10561670196E+02 -0.20156584461E+02  0.58042722256E+02  0.62344160764E+02  0.00000000000E+00 0. -1.
        -12    1    3    3    0    0  0.48073572832E+02  0.16025648986E+02  0.13325527194E+02  0.52397132605E+02  0.00000000000E+00 0.  1.
        -11    1    4    4    0    0  0.33147388038E+02 -0.56855351620E+00  0.10781560816E+03  0.11279750861E+03  0.00000000000E+00 0.  1.
         11    1    4    4    0    0 -0.50656785901E+02 -0.14236550144E+02  0.78573036707E+02  0.94564852959E+02  0.00000000000E+00 0. -1.
         21    1    1    2  502  501 -0.20002504772E+02  0.18936039135E+02 -0.40392064066E+01  0.27838623595E+02  0.00000000000E+00 0.  1.
<scales pt_clust_5="13000.00000" pt_clust_6="13000.00000" pt_clust_7="13000.00000" pt_clust_8="13000.00000" pt_clust_9="27.54403"></scales>
<clustering>
<clus scale="   27.544">  2  9  1 -1</clus>
<clus scale="   81.535">  5  6 -1 -1</clus>
<clus scale="   85.439">  2  5  1 -1</clus>
<clus scale="   87.935">  7  8 -1 -1</clus>
<clus scale="   91.567">  1  5  2 -1</clus>
</clustering>
</event>
<event>
 9    1  0.2802611E-005  0.9108176E+02  0.7546771E-02  0.1312963E+00
         -2   -1    0    0    0  501 -0.00000000000E+00  0.00000000000E+00  0.18118699460E+03  0.18118699460E+03  0.00000000000E+00 0.  1.
          1   -1    0    0  502    0  0.00000000000E+00 -0.00000000000E+00 -0.98411410043E+02  0.98411410043E+02  0.00000000000E+00 0. -1.
         23    2    1    2    0    0 -0.20754359646E+02  0.16576260796E+02  0.11011866498E+03  0.14507471811E+03  0.90636844553E+02 0.  0.
        -24    2    1    2    0    0 -0.10753750142E+02 -0.43100261823E+01 -0.54806801479E+02  0.90963642136E+02  0.71668537270E+02 0.  0.
         13    1    4    4    0    0 -0.17376141710E+02 -0.36121164277E+02 -0.29142227647E+02  0.49557423679E+02  0.00000000000E+00 0. -1.
        -14    1    4    4    0    0  0.66223915688E+01  0.31811138094E+02 -0.25664573832E+02  0.41406218457E+02  0.00000000000E+00 0.  1.
        -13    1    3    3    0    0 -0.52973239425E+02  0.10751711839E+02  0.94344094127E+02  0.10873164902E+03  0.00000000000E+00 0.  1.
         13    1    3    3    0    0  0.32218879779E+02  0.58245489572E+01  0.15774570852E+02  0.36343069082E+02  0.00000000000E+00 0. -1.
         21    1    1    2  502  501  0.31508109788E+02 -0.12266234614E+02  0.27463721059E+02  0.43560044403E+02  0.00000000000E+00 0. -1.
<scales pt_clust_5="13000.00000" pt_clust_6="13000.00000" pt_clust_7="13000.00000" pt_clust_8="13000.00000" pt_clust_9="33.81156"></scales>
<clustering>
<clus scale="   33.812">  1  9  2 -1</clus>
<clus scale="   71.669">  5  6 -1 -1</clus>
<clus scale="   72.230">  2  5  1 -1</clus>
<clus scale="   90.637">  7  8 -1 -1</clus>
<clus scale="   72.230">  2  5  1 -1</clus>
</clustering>
</event>
<event>
 9    1  0.2802611E-005  0.1500365E+03  0.7546771E-02  0.1201655E+00
         -2   -1    0    0    0  501 -0.00000000000E+00  0.00000000000E+00  0.15340284868E+03  0.15340284868E+03  0.00000000000E+00 0.  1.
          1   -1    0    0  502    0  0.00000000000E+00 -0.00000000000E+00 -0.18533879171E+03  0.18533879171E+03  0.00000000000E+00 0. -1.
        -24    2    1    2    0    0 -0.12015733638E+03 -0.12956184315E+02 -0.98023525883E+01  0.14526173303E+03  0.79995229654E+02 0.  0.
         23    2    1    2    0    0  0.11683447143E+03  0.45993206242E+02 -0.36902627348E+02  0.15713969959E+03  0.86979380021E+02 0.  0.
         11    1    3    3    0    0 -0.74536369902E+02 -0.42897731832E+02 -0.23196933849E+02  0.89072911564E+02  0.00000000000E+00 0. -1.
        -12    1    3    3    0    0 -0.45620966482E+02  0.29941547517E+02  0.13394581260E+02  0.56188821465E+02  0.00000000000E+00 0.  1.
        -11    1    4    4    0    0  0.44016436743E+02  0.45478907635E+02 -0.53011864951E+02  0.82559285176E+02  0.00000000000E+00 0. -1.
         11    1    4    4    0    0  0.72818034686E+02  0.51429860753E+00  0.16109237603E+02  0.74580414418E+02  0.00000000000E+00 0.  1.
         21    1    1    2  502  501  0.33228649546E+01 -0.33037021928E+02  0.14769036905E+02  0.36340207766E+02  0.00000000000E+00 0.  1.
<scales pt_clust_5="13000.00000" pt_clust_6="13000.00000" pt_clust_7="13000.00000" pt_clust_8="13000.00000" pt_clust_9="33.20371"></scales>
<clustering>
<clus scale="   33.204">  1  9  2 -1</clus>
<clus scale="   79.995">  5  6 -1 -1</clus>
<clus scale="   86.979">  7  8 -1 -1</clus>
<clus scale="  146.099">  1  5  2 -1</clus>
<clus scale="  150.037">  2  5  1 -1</clus>
</clustering>
</event>
<event>
 9    1  0.2802611E-005  0.1264851E+03  0.7546771E-02  0.1241800E+00
         -2   -1    0    0    0  501 -0.00000000000E+00  0.00000000000E+00  0.25138604571E+03  0.25138604571E+03  0.00000000000E+00 0.  1.
          1   -1    0    0  502    0  0.00000000000E+00 -0.00000000000E+00 -0.13112902281E+03  0.13112902281E+03  0.00000000000E+00 0. -1.
        -24    2    1    2    0    0 -0.69235889760E+02 -0.65305632098E+02  0.26654739558E+02  0.12669453983E+03  0.79262836609E+02 0.  0.
         23    2    1    2    0    0  0.65987683634E+02 -0.32708702583E+02  0.14457921951E+02  0.12979993281E+03  0.10589975181E+03 0.  0.
         13    1    3    3    0    0 -0.78893977089E+02 -0.28530713394E+02  0.28566430394E+02  0.88624500975E+02  0.00000000000E+00 0. -1.
        -14    1    3    3    0    0  0.96580873286E+01 -0.36774918704E+02 -0.19116908366E+01  0.38070038855E+02  0.00000000000E+00 0.  1.
        -13    1    4    4    0    0  0.54283003646E+02 -0.70604340402E+02  0.61107145087E+01  0.89269021504E+02  0.00000000000E+00 0.  1.
         13    1    4    4    0    0  0.11704679988E+02  0.37895637819E+02  0.83472074423E+01  0.40530911307E+02  0.00000000000E+00 0. -1.
         21    1    1    2  502  501  0.32482061264E+01  0.98014334681E+02  0.79144361390E+02  0.12602059588E+03  0.00000000000E+00 0. -1.
<scales pt_clust_5="13000.00000" pt_clust_6="13000.00000" pt_clust_7="13000.00000" pt_clust_8="13000.00000" pt_clust_9="98.06814"></scales>
<clustering>
<clus scale="   79.263">  5  6 -1 -1</clus>
<clus scale="   98.068">  1  9  2 -1</clus>
<clus scale="  105.197">  1  5  2 -1</clus>
<clus scale="  105.900">  7  8 -1 -1</clus>
<clus scale="  126.485">  2  5  1 -1</clus>
</clustering>
</event>
<event>
 9    1  0.2802611E-005  0.1154041E+03  0.7546771E-02  0.1256824E+00
          1   -1    0    0  502    0  0.00000000000E+00  0.00000000000E+00  0.36604646927E+02  0.36604646927E+02  0.00000000000E+00 0. -1.
         -2   -1    0    0    0  501 -0.00000000000E+00 -0.00000000000E+00 -0.45717114790E+03  0.45717114790E+03  0.00000000000E+00 0.  1.
        -24    2    1    2    0    0 -0.22040880050E+02 -0.55298012574E+02 -0.17201642064E+03  0.19887817708E+03  0.80119971057E+02 0.  0.
         23    2    1    2    0    0 -0.10211200364E+02  0.72411602933E+02 -0.17244441227E+03  0.21048704745E+03  0.96020898602E+02 0.  0.
         13    1    3    3    0    0 -0.36259485319E+02 -0.94275072354E+01 -0.27174972899E+02  0.46282905271E+02  0.00000000000E+00 0. -1.
        -14    1    3    3    0    0  0.14218605269E+02 -0.45870505339E+02 -0.14484144774E+03  0.15259527181E+03  0.00000000000E+00 0.  1.
        -13    1    4    4    0    0 -0.31172062337E+02  0.86529318309E+02 -0.15333615366E+03  0.17880435234E+03  0.00000000000E+00 0. -1.
         13    1    4    4    0    0  0.20960861973E+02 -0.14117715376E+02 -0.19108258610E+02  0.31682695106E+02  0.00000000000E+00 0.  1.
         21    1    1    2  502  501  0.32252080414E+02 -0.17113590359E+02 -0.76105668060E+02  0.84410570291E+02  0.00000000000E+00 0.  1.
<scales pt_clust_5="13000.00000" pt_clust_6="13000.00000" pt_clust_7="13000.00000" pt_clust_8="13000.00000" pt_clust_9="36.51125"></scales>
<clustering>
<clus scale="   36.511">  2  9  1 -1</clus>
<clus scale="   80.120">  5  6 -1 -1</clus>
<clus scale="   96.021">  7  8 -1 -1</clus>
<clus scale="  102.554">  2  5  1 -1</clus>
<clus scale="  115.404">  1  5  2 -1</clus>
</clustering>
</event>
<event>
 9    1  0.2802611E-005  0.1241421E+03  0.7546771E-02  0.1237140E+00
         -2   -1    0    0    0  501 -0.00000000000E+00  0.00000000000E+00  0.17845485342E+03  0.17845485342E+03  0.00000000000E+00 0.  1.
          1   -1    0    0  502    0  0.00000000000E+00 -0.00000000000E+00 -0.54149980536E+03  0.54149980536E+03  0.00000000000E+00 0. -1.
        -24    2    1    2    0    0  0.53369906476E+02 -0.42751168063E+02  0.39491397237E+02  0.12044366980E+03  0.90945576320E+02 0.  0.
         23    2    1    2    0    0 -0.74903388193E+02  0.36372206411E+02 -0.49180015839E+03  0.50746529586E+03  0.93381881270E+02 0.  0.
         11    1    3    3    0    0  0.89597081435E+01 -0.21927362623E+02 -0.28213299805E+02  0.36838510929E+02  0.00000000000E+00 0. -1.
        -12    1    3    3    0    0  0.44410198333E+02 -0.20823805440E+02  0.67704697042E+02  0.83605158875E+02  0.00000000000E+00 0.  1.
        -11    1    4    4    0    0  0.59792204798E+01  0.35544071407E+02 -0.79265315277E+02  0.87075382834E+02  0.00000000000E+00 0. -1.
         11    1    4    4    0    0 -0.80882608673E+02  0.82813500487E+00 -0.41253484311E+03  0.42038991302E+03  0.00000000000E+00 0.  1.
         21    1    1    2  502  501  0.21533481717E+02  0.63789616512E+01  0.89263809208E+02  0.92045693114E+02  0.00000000000E+00 0.  1.
<scales pt_clust_5="13000.00000" pt_clust_6="13000.00000" pt_clust_7="13000.00000" pt_clust_8="13000.00000" pt_clust_9="22.45845"></scales>
<clustering>
<clus scale="   22.458">  1  9  2 -1</clus>
<clus scale="   90.946">  5  6 -1 -1</clus>
<clus scale="   93.382">  7  8 -1 -1</clus>
<clus scale="  122.320">  1  5  2 -1</clus>
<clus scale="  124.142">  2  5  1 -1</clus>
</clustering>
</event>
<event>
 9    1  0.2802611E-005  0.1008828E+03  0.7546771E-02  0.1278579E+00
         -2   -1    0    0    0  501 -0.00000000000E+00  0.00000000000E+00  0.15327280527E+03  0.15327280527E+03  0.00000000000E+00 0.  1.
          1   -1    0    0  502    0  0.00000000000E+00 -0.00000000000E+00 -0.51823021212E+03  0.51823021212E+03  0.00000000000E+00 0. -1.
         23    2    1    2    0    0 -0.86568254008E+02  0.56192240213E+01  0.11098045603E+03  0.16317232037E+03  0.82358401118E+02 0.  0.
        -24    2    1    2    0    0  0.57150027931E+02  0.15949077622E+01 -0.46576093693E+03  0.47637689372E+03  0.82055012547E+02 0.  0.
         13    1    4    4    0    0  0.59243309508E+02  0.14015020403E+02 -0.17397055120E+03  0.18431479377E+03  0.00000000000E+00 0. -1.
        -14    1    4    4    0    0 -0.20932815776E+01 -0.12420112641E+02 -0.29179038573E+03  0.29206209995E+03  0.00000000000E+00 0.  1.
        -13    1    3    3    0    0 -0.16985670762E+02  0.36756789472E+02  0.22286366141E+02  0.46219657066E+02  0.00000000000E+00 0.  1.
         13    1    3    3    0    0 -0.69582583246E+02 -0.31137565450E+02  0.88694089891E+02  0.11695266331E+03  0.00000000000E+00 0. -1.
         21    1    1    2  502  501  0.29418226077E+02 -0.72141317835E+01 -0.10176925964E+02  0.31953803295E+02  0.00000000000E+00 0. -1.
<scales pt_clust_5="13000.00000" pt_clust_6="13000.00000" pt_clust_7="13000.00000" pt_clust_8="13000.00000" pt_clust_9="30.28986"></scales>
<clustering>
<clus scale="   30.290">  1  9  2 -1</clus>
<clus scale="   82.055">  5  6 -1 -1</clus>
<clus scale="   82.358">  7  8 -1 -1</clus>
<clus scale="  100.635">  2  5  1 -1</clus>
<clus scale="  100.635">  2  5  1 -1</clus>
</clustering>
</event>
<event>
 9    1  0.2802611E-005  0.1025739E+03  0.7546771E-02  0.1286057E+00
         -2   -1    0    0    0  501 -0.00000000000E+00  0.00000000000E+00  0.37892189219E+03  0.37892189219E+03  0.00000000000E+00 0.  1.
          1   -1    0    0  502    0  0.00000000000E+00 -0.00000000000E+00 -0.13566157529E+03  0.13566157529E+03  0.00000000000E+00 0. -1.
         23    2    1    2    0    0 -0.20094981513E+02  0.19981905971E+02  0.27691368153E+03  0.29600784673E+03  0.10067955830E+03 0.  0.
        -24    2    1    2    0    0 -0.89058261188E-01 -0.19586273765E+02 -0.11099606308E+03  0.13864161679E+03  0.80732532685E+02 0.  0.
         13    1    4    4    0    0  0.58408636604E+01 -0.49126124354E+02 -0.87169267410E+02  0.10022960123E+03  0.00000000000E+00 0. -1.
        -14    1    4    4    0    0 -0.59299219216E+01  0.29539850589E+02 -0.23826795672E+02  0.38412015553E+02  0.00000000000E+00 0.  1.
        -11    1    3    3    0    0 -0.20710584431E+02 -0.37240142930E+02  0.76306013496E+02  0.87397735946E+02  0.00000000000E+00 0. -1.
         11    1    3    3    0    0  0.61560291813E+00  0.57222048901E+02  0.20060766803E+03  0.20861011078E+03  0.00000000000E+00 0.  1.
         21    1    1    2  502  501  0.20184039774E+02 -0.39563220613E+00  0.77342698451E+02  0.79934003966E+02  0.00000000000E+00 0.  1.
<scales pt_clust_5="13000.00000" pt_clust_6="13000.00000" pt_clust_7="13000.00000" pt_clust_8="13000.00000" pt_clust_9="20.18792"></scales>
<clustering>
<clus scale="   20.188">  1  9  2 -1</clus>
<clus scale="   80.733">  5  6 -1 -1</clus>
<clus scale="   83.083">  2  5  1 -1</clus>
<clus scale="  100.680">  7  8 -1 -1</clus>
<clus scale="   83.083">  2  5  1 -1</clus>
</clustering>
</event>
<event>
 9    1  0.2802611E-005  0.1652623E+03  0.7546771E-02  0.1183084E+00
          1   -1    0    0  502    0  0.00000000000E+00  0.00000000000E+00  0.70315756730E+03  0.70315756730E+03  0.00000000000E+00 0. -1.
         -2   -1    0    0    0  501 -0.00000000000E+00 -0.00000000000E+00 -0.68871205534E+02  0.68871205534E+02  0.00000000000E+00 0.  1.
         23    2    1    2    0    0  0.76905514213E+02  0.13363312803E+03  0.12501734330E+03  0.21827873221E+03  0.90796463512E+02 0.  0.
        -24    2    1    2    0    0 -0.85531268220E+02 -0.10329274350E+03  0.49212315086E+03  0.51784846209E+03  0.89425082438E+02 0.  0.
         13    1    4    4    0    0 -0.63959604807E+02 -0.10131563116E+03  0.27915550399E+03  0.30378196716E+03  0.00000000000E+00 0. -1.
        -14    1    4    4    0    0 -0.21571663413E+02 -0.19771123368E+01  0.21296764687E+03  0.21406649492E+03  0.00000000000E+00 0.  1.
        -13    1    3    3    0    0 -0.24618386870E+01  0.81429244135E+02  0.39836181198E+02  0.90684639177E+02  0.00000000000E+00 0. -1.
         13    1    3    3    0    0  0.79367352900E+02  0.52203883893E+02  0.85181162102E+02  0.12759409303E+03  0.00000000000E+00 0.  1.
         21    1    1    2  502  501  0.86257540067E+01 -0.30340384531E+02  0.17145867606E+02  0.35901578540E+02  0.00000000000E+00 0. -1.
<scales pt_clust_5="13000.00000" pt_clust_6="13000.00000" pt_clust_7="13000.00000" pt_clust_8="13000.00000" pt_clust_9="31.54271"></scales>
<clustering>
<clus scale="   31.543">  2  9  1 -1</clus>
<clus scale="   89.425">  5  6 -1 -1</clus>
<clus scale="   90.796">  7  8 -1 -1</clus>
<clus scale="  164.513">  1  5  2 -1</clus>
<clus scale="  164.513">  1  5  2 -1</clus>
</clustering>
</event>
<event>
 9    1  0.2802611E-005  0.1276666E+03  0.7546771E-02  0.1233473E+00
         -2   -1    0    0    0  501 -0.00000000000E+00  0.00000000000E+00  0.20684383892E+03  0.20684383892E+03  0.00000000000E+00 0.  1.
          1   -1    0    0  502    0  0.00000000000E+00 -0.00000000000E+00 -0.20161647138E+03  0.20161647138E+03  0.00000000000E+00 0. -1.
        -24    2    1    2    0    0  0.71012643161E+02 -0.60184205496E+02  0.55465464171E+02  0.13477212854E+03  0.80138472878E+02 0.  0.
         23    2    1    2    0    0 -0.93584558003E+02  0.96466909083E+01 -0.12526085684E+03  0.18045757375E+03  0.89574134243E+02 0.  0.
         11    1    3    3    0    0  0.79787509748E+02 -0.40140359501E+02  0.17590806963E+02  0.91031487202E+02  0.00000000000E+00 0. -1.
        -12    1    3    3    0    0 -0.87748665866E+01 -0.20043845995E+02  0.37874657208E+02  0.43740641336E+02  0.00000000000E+00 0.  1.
        -11    1    4    4    0    0 -0.83870056205E+02 -0.29925664536E+02 -0.82514207209E+02  0.12140150789E+03  0.00000000000E+00 0.  1.
         11    1    4    4    0    0 -0.97145017984E+01  0.39572355445E+02 -0.42746649636E+02  0.59056065867E+02  0.00000000000E+00 0. -1.
         21    1    1    2  502  501  0.22571914842E+02  0.50537514587E+02  0.75022760206E+02  0.93230608006E+02  0.00000000000E+00 0. -1.
<scales pt_clust_5="13000.00000" pt_clust_6="13000.00000" pt_clust_7="13000.00000" pt_clust_8="13000.00000" pt_clust_9="55.34918"></scales>
<clustering>
<clus scale="   55.349">  1  9  2 -1</clus>
<clus scale="   80.138">  5  6 -1 -1</clus>
<clus scale="   89.574">  7  8 -1 -1</clus>
<clus scale="  121.233">  1  5  2 -1</clus>
<clus scale="  127.667">  2  5  1 -1</clus>
</clustering>
</event>
<event>
 9    1  0.2802611E-005  0.9485665E+02  0.7546771E-02  0.1298502E+00
          1   -1    0    0  502    0  0.00000000000E+00  0.00000000000E+00  0.71524439229E+02  0.71524439229E+02  0.00000000000E+00 0. -1.
         -2   -1    0    0    0  501 -0.00000000000E+00 -0.00000000000E+00 -0.27400709257E+03  0.27400709257E+03  0.00000000000E+00 0.  1.
         23    2    1    2    0    0 -0.96055535596E+01  0.54021666327E+01 -0.19857080886E+03  0.21901849646E+03  0.91745766086E+02 0.  0.
        -24    2    1    2    0    0  0.61146261419E+01 -0.25763703157E+02  0.27956970670E+02  0.88534092191E+02  0.79721617005E+02 0.  0.
         11    1    4    4    0    0 -0.19171008376E+02  0.13098299256E+02 -0.13052606191E+02  0.26635756681E+02  0.00000000000E+00 0. -1.
        -12    1    4    4    0    0  0.25285634518E+02 -0.38862002413E+02  0.41009576862E+02  0.61898335510E+02  0.00000000000E+00 0.  1.
        -13    1    3    3    0    0 -0.93943480976E+01 -0.41087922400E+02 -0.12572249381E+03  0.13259945925E+03  0.00000000000E+00 0.  1.
         13    1    3    3    0    0 -0.21120546199E+00  0.46490089033E+02 -0.72848315051E+02  0.86419037207E+02  0.00000000000E+00 0. -1.
         21    1    1    2  502  501  0.34909274177E+01  0.20361536525E+02 -0.31868815151E+02  0.37978943153E+02  0.00000000000E+00 0. -1.
<scales pt_clust_5="13000.00000" pt_clust_6="13000.00000" pt_clust_7="13000.00000" pt_clust_8="13000.00000" pt_clust_9="20.65862"></scales>
<clustering>
<clus scale="   20.659">  2  9  1 -1</clus>
<clus scale="   79.722">  5  6 -1 -1</clus>
<clus scale="   83.283">  1  5  2 -1</clus>
<clus scale="   91.746">  7  8 -1 -1</clus>
<clus scale="   83.283">  1  5  2 -1</clus>
</clustering>
</event>
<event>
 9    1  0.2802611E-005  0.1421969E+03  0.7546771E-02  0.1212923E+00
         -2   -1    0    0    0  501 -0.00000000000E+00  0.00000000000E+00  0.22460337268E+03  0.22460337268E+03  0.00000000000E+00 0.  1.
          1   -1    0    0  502    0  0.00000000000E+00 -0.00000000000E+00 -0.13070198976E+03  0.13070198976E+03  0.00000000000E+00 0. -1.
         23    2    1    2    0    0  0.11154953209E+03 -0.48062965715E+02  0.62701145887E+02  0.16554660776E+03  0.93385752992E+02 0.  0.
        -24    2    1    2    0    0 -0.98579708173E+02  0.21686164576E+02 -0.19386485071E+02  0.13125261463E+03  0.81628208640E+02 0.  0.
         13    1    4    4    0    0 -0.30461173030E+01  0.26393656573E+02  0.13889190504E+02  0.29980219325E+02  0.00000000000E+00 0. -1.
        -14    1    4    4    0    0 -0.95533590870E+02 -0.47074919973E+01 -0.33275675575E+02  0.10127239530E+03  0.00000000000E+00 0.  1.
        -13    1    3    3    0    0  0.16838935208E+02  0.26563965481E+02  0.21603360926E+02  0.38156247251E+02  0.00000000000E+00 0.  1.
         13    1    3    3    0    0  0.94710596882E+02 -0.74626931195E+02  0.41097784961E+02  0.12739036051E+03  0.00000000000E+00 0. -1.
         21    1    1    2  502  501 -0.12969823917E+02  0.26376801139E+02  0.50586722099E+02  0.58506140050E+02  0.00000000000E+00 0. -1.
<scales pt_clust_5="13000.00000" pt_clust_6="13000.00000" pt_clust_7="13000.00000" pt_clust_8="13000.00000" pt_clust_9="29.39306"></scales>
<clustering>
<clus scale="   29.393">  1  9  2 -1</clus>
<clus scale="   81.628">  5  6 -1 -1</clus>
<clus scale="   93.386">  7  8 -1 -1</clus>
<clus scale="  134.767">  2  5  1 -1</clus>
<clus scale="  134.767">  2  5  1 -1</clus>
</clustering>
</event>
<event>
 9    1  0.2802611E-005  0.9169350E+02  0.7546771E-02  0.1305793E+00
         -2   -1    0    0    0  501 -0.00000000000E+00  0.00000000000E+00  0.23835492362E+03  0.23835492362E+03  0.00000000000E+00 0.  1.
          1   -1    0    0  502    0  0.00000000000E+00 -0.00000000000E+00 -0.14399927306E+03  0.14399927306E+03  0.00000000000E+00 0. -1.
         23    2    1    2    0    0  0.10720340360E+02 -0.38539549517E+01  0.37607221671E+02  0.98083353744E+02  0.89868028206E+02 0.  0.
        -24    2    1    2    0    0  0.12165922244E+01 -0.23025063314E+02 -0.97457961423E+02  0.12728491110E+03  0.78560554426E+02 0.  0.
         13    1    4    4    0    0 -0.18204078117E+02 -0.44035418234E+02 -0.81807639976E+02  0.94673103242E+02  0.00000000000E+00 0. -1.
        -14    1    4    4    0    0  0.19420670342E+02  0.21010354919E+02 -0.15650321447E+02  0.32611807858E+02  0.00000000000E+00 0.  1.
        -13    1    3    3    0    0  0.24097871724E+02  0.13364538098E+02  0.60492917364E+02  0.66473388295E+02  0.00000000000E+00 0.  1.
         13    1    3    3    0    0 -0.13377531364E+02 -0.17218493050E+02 -0.22885695693E+02  0.31609965448E+02  0.00000000000E+00 0. -1.
         21    1    1    2  502  501 -0.11936932585E+02  0.26879018266E+02  0.15420639031E+03  0.15698593184E+03  0.00000000000E+00 0.  1.
<scales pt_clust_5="13000.00000" pt_clust_6="13000.00000" pt_clust_7="13000.00000" pt_clust_8="13000.00000" pt_clust_9="29.41041"></scales>
<clustering>
<clus scale="   29.410">  1  9  2 -1</clus>
<clus scale="   78.561">  5  6 -1 -1</clus>
<clus scale="   80.642">  2  5  1 -1</clus>
<clus scale="   89.868">  7  8 -1 -1</clus>
<clus scale="   80.642">  2  5  1 -1</clus>
</clustering>
</event>
<event>
 9    1  0.2802611E-005  0.4421451E+03  0.7546771E-02  0.1030265E+00
          1   -1    0    0  502    0  0.00000000000E+00  0.00000000000E+00  0.91640137301E+03  0.91640137301E+03  0.00000000000E+00 0. -1.
         -2   -1    0    0    0  501 -0.00000000000E+00 -0.00000000000E+00 -0.28326617084E+03  0.28326617084E+03  0.00000000000E+00 0.  1.
        -24    2    1    2    0    0  0.13653797134E+03  0.42390985655E+03  0.61966527341E+02  0.45687074560E+03  0.80924925563E+02 0.  0.
         23    2    1    2    0    0 -0.11398504334E+03 -0.41208528208E+03  0.56830122550E+03  0.71717108093E+03  0.92526788544E+02 0.  0.
         11    1    3    3    0    0  0.13944953405E+03  0.35427754161E+03  0.35748026418E+02  0.38240903549E+03  0.00000000000E+00 0. -1.
        -12    1    3    3    0    0 -0.29115627066E+01  0.69632314940E+02  0.26218500923E+02  0.74461710106E+02  0.00000000000E+00 0.  1.
        -11    1    4    4    0    0 -0.38835413907E+02 -0.25064128843E+03  0.27552121092E+03  0.37448789367E+03  0.00000000000E+00 0.  1.
         11    1    4    4    0    0 -0.75149629433E+02 -0.16144399365E+03  0.29278001458E+03  0.34268318726E+03  0.00000000000E+00 0. -1.
         21    1    1    2  502  501 -0.22552928004E+02 -0.11824574466E+02  0.28674493248E+01  0.25625717326E+02  0.00000000000E+00 0.  1.
<scales pt_clust_5="13000.00000" pt_clust_6="13000.00000" pt_clust_7="13000.00000" pt_clust_8="13000.00000" pt_clust_9="25.46478"></scales>
<clustering>
<clus scale="   25.465">  2  9  1 -1</clus>
<clus scale="   80.925">  5  6 -1 -1</clus>
<clus scale="   92.527">  7  8 -1 -1</clus>
<clus scale="  439.864">  2  5  1 -1</clus>
<clus scale="  442.145">  1  5  2 -1</clus>
</clustering>
</event>
<event>
 9    1  0.2802611E-005  0.9192843E+02  0.7546771E-02  0.1305581E+00
          1   -1    0    0  502    0  0.00000000000E+00  0.00000000000E+00  0.23571217522E+03  0.23571217522E+03  0.00000000000E+00 0. -1.
         -2   -1    0    0    0  501 -0.00000000000E+00 -0.00000000000E+00 -0.11239263846E+03  0.11239263846E+03  0.00000000000E+00 0.  1.
         23    2    1    2    0    0 -0.77987460241E+02 -0.38445680664E+00 -0.23222195983E+02  0.12221361613E+03  0.91185008739E+02 0.  0.
        -24    2    1    2    0    0 -0.83742597834E+00 -0.58490392388E+01  0.11681765395E+03  0.14141788804E+03  0.79484226370E+02 0.  0.
         13    1    4    4    0    0  0.31572722278E+02  0.19177365989E+02  0.70523589362E+02  0.79612717670E+02  0.00000000000E+00 0. -1.
        -14    1    4    4    0    0 -0.32410148256E+02 -0.25026405228E+02  0.46294064586E+02  0.61805170371E+02  0.00000000000E+00 0.  1.
        -11    1    3    3    0    0 -0.68682553967E+02  0.35108884769E+02 -0.33518505462E+02  0.84103610015E+02  0.00000000000E+00 0.  1.
         11    1    3    3    0    0 -0.93049062738E+01 -0.35493341575E+02  0.10296309479E+02  0.38110006112E+02  0.00000000000E+00 0. -1.
         21    1    1    2  502  501  0.78824886219E+02  0.62334960454E+01  0.29724078799E+02  0.84473309517E+02  0.00000000000E+00 0. -1.
<scales pt_clust_5="13000.00000" pt_clust_6="13000.00000" pt_clust_7="13000.00000" pt_clust_8="13000.00000" pt_clust_9="79.07098"></scales>
<clustering>
<clus scale="   79.071">  2  9  1 -1</clus>
<clus scale="   79.484">  5  6 -1 -1</clus>
<clus scale="   80.336">  1  5  2 -1</clus>
<clus scale="   91.185">  7  8 -1 -1</clus>
<clus scale="   80.336">  1  5  2 -1</clus>
</clustering>
</event>
<event>
 9    1  0.2802611E-005  0.1139417E+03  0.7546771E-02  0.1258342E+00
          1   -1    0    0  502    0  0.00000000000E+00  0.00000000000E+00  0.46954395276E+03  0.46954395276E+03  0.00000000000E+00 0. -1.
         -2   -1    0    0    0  501 -0.00000000000E+00 -0.00000000000E+00 -0.19202928349E+03  0.19202928349E+03  0.00000000000E+00 0.  1.
        -24    2    1    2    0    0 -0.47779088380E+02  0.53817116442E+02 -0.13819200262E+03  0.17364919519E+03  0.76667399154E+02 0.  0.
         23    2    1    2    0    0  0.66993394675E+02 -0.19506244527E+02  0.43089759938E+03  0.44576731235E+03  0.90372269575E+02 0.  0.
         11    1    3    3    0    0 -0.81182759581E+01  0.63745021435E+02 -0.85494287411E+02  0.10695142515E+03  0.00000000000E+00 0. -1.
        -12    1    3    3    0    0 -0.39660812422E+02 -0.99279049933E+01 -0.52697715211E+02  0.66697770038E+02  0.00000000000E+00 0.  1.
        -11    1    4    4    0    0 -0.97480553333E+01  0.24031452598E+02  0.95486350275E+02  0.98945330287E+02  0.00000000000E+00 0. -1.
         11    1    4    4    0    0  0.76741450008E+02 -0.43537697125E+02  0.33541124910E+03  0.34682198207E+03  0.00000000000E+00 0.  1.
         21    1    1    2  502  501 -0.19214306295E+02 -0.34310871915E+02 -0.15190927481E+02  0.42156728712E+02  0.00000000000E+00 0.  1.
<scales pt_clust_5="13000.00000" pt_clust_6="13000.00000" pt_clust_7="13000.00000" pt_clust_8="13000.00000" pt_clust_9="39.32462"></scales>
<clustering>
<clus scale="   39.325">  2  9  1 -1</clus>
<clus scale="   76.667">  5  6 -1 -1</clus>
<clus scale="   90.372">  7  8 -1 -1</clus>
<clus scale="  103.409">  2  5  1 -1</clus>
<clus scale="  113.942">  1  5  2 -1</clus>
</clustering>
</event>
<event>
 9    1  0.2802611E-005  0.1033752E+03  0.7546771E-02  0.1285542E+00
          1   -1    0    0  502    0  0.00000000000E+00  0.00000000000E+00  0.10939720168E+03  0.10939720168E+03  0.00000000000E+00 0. -1.
         -2   -1    0    0    0  501 -0.00000000000E+00 -0.00000000000E+00 -0.27612867613E+03  0.27612867613E+03  0.00000000000E+00 0.  1.
        -24    2    1    2    0    0 -0.33230080537E+01  0.28947142526E+02 -0.59413784538E+02  0.10421779855E+03  0.80513180897E+02 0.  0.
         23    2    1    2    0    0 -0.22005329569E+02  0.19052634201E+02  0.48110525338E+02  0.11667687521E+03  0.10223322924E+03 0.  0.
         11    1    3    3    0    0 -0.38405834738E+02  0.31496494247E+02 -0.27779242924E+02  0.56909785004E+02  0.00000000000E+00 0. -1.
        -12    1    3    3    0    0  0.35082826685E+02 -0.25493517204E+01 -0.31634541614E+02  0.47308013544E+02  0.00000000000E+00 0.  1.
        -11    1    4    4    0    0 -0.44264069972E+02  0.42471422681E+02  0.56389096967E+02  0.83323825475E+02  0.00000000000E+00 0. -1.
         11    1    4    4    0    0  0.22258740403E+02 -0.23418788480E+02 -0.82785716293E+01  0.33353049732E+02  0.00000000000E+00 0.  1.
         21    1    1    2  502  501  0.25328337623E+02 -0.47999776727E+02 -0.15542821525E+03  0.16463120405E+03  0.00000000000E+00 0.  1.
<scales pt_clust_5="13000.00000" pt_clust_6="13000.00000" pt_clust_7="13000.00000" pt_clust_8="13000.00000" pt_clust_9="54.27249"></scales>
<clustering>
<clus scale="   54.272">  2  9  1 -1</clus>
<clus scale="   80.513">  5  6 -1 -1</clus>
<clus scale="   81.958">  2  5  1 -1</clus>
<clus scale="  102.233">  7  8 -1 -1</clus>
<clus scale="  103.375">  1  5  2 -1</clus>
</clustering>
</event>
<event>
 9    1  0.2802611E-005  0.1018551E+03  0.7546771E-02  0.1282776E+00
         -4   -1    0    0    0  501 -0.00000000000E+00  0.00000000000E+00  0.31479080777E+03  0.31479080777E+03  0.00000000000E+00 0.  1.
          3   -1    0    0  502    0  0.00000000000E+00 -0.00000000000E+00 -0.87970480390E+02  0.87970480390E+02  0.00000000000E+00 0. -1.
        -24    2    1    2    0    0 -0.20445339307E+01 -0.45003907478E+02  0.16452560933E+03  0.18870098573E+03  0.80683666760E+02 0.  0.
         23    2    1    2    0    0  0.30179893265E+02  0.28795496158E+02 -0.37594808263E+02  0.10902588660E+03  0.93451954414E+02 0.  0.
         13    1    3    3    0    0  0.18855237721E+02  0.13147225409E+02  0.16499324048E+02  0.28294826727E+02  0.00000000000E+00 0. -1.
        -14    1    3    3    0    0 -0.20899771651E+02 -0.58151132887E+02  0.14802628528E+03  0.16040615900E+03  0.00000000000E+00 0.  1.
        -13    1    4    4    0    0  0.16995055925E+02 -0.31220576378E+02 -0.31109618711E+02  0.47237323078E+02  0.00000000000E+00 0. -1.
         13    1    4    4    0    0  0.13184837340E+02  0.60016072536E+02 -0.64851895522E+01  0.61788563520E+02  0.00000000000E+00 0.  1.
         21    1    1    2  502  501 -0.28135359335E+02  0.16208411320E+02  0.99889526311E+02  0.10503441583E+03  0.00000000000E+00 0.  1.
<scales pt_clust_5="13000.00000" pt_clust_6="13000.00000" pt_clust_7="13000.00000" pt_clust_8="13000.00000" pt_clust_9="32.47016"></scales>
<clustering>
<clus scale="   32.470">  1  9  2 -1</clus>
<clus scale="   80.684">  5  6 -1 -1</clus>
<clus scale="   90.283">  1  5  2 -1</clus>
<clus scale="   93.452">  7  8 -1 -1</clus>
<clus scale="  101.855">  2  5  1 -1</clus>
</clustering>
</event>
<event>
 9    1  0.2802611E-005  0.1958097E+03  0.7546771E-02  0.1158692E+00
         -2   -1    0    0    0  501 -0.00000000000E+00  0.00000000000E+00  0.33720092026E+03  0.33720092026E+03  0.00000000000E+00 0.  1.
          1   -1    0    0  502    0  0.00000000000E+00 -0.00000000000E+00 -0.20848808395E+03  0.20848808395E+03  0.00000000000E+00 0. -1.
        -24    2    1    2    0    0  0.13318751911E+03  0.86672190785E+02  0.23168384716E+03  0.29269784685E+03  0.82119672532E+02 0.  0.
         23    2    1    2    0    0 -0.80490993672E+02 -0.90129847021E+02 -0.10088614158E+03  0.20014017950E+03  0.12359566538E+03 0.  0.
         13    1    3    3    0    0  0.20898791294E+02  0.12431171992E+02 -0.49147368457E+00  0.24321493808E+02  0.00000000000E+00 0. -1.
        -14    1    3    3    0    0  0.11228872782E+03  0.74241018793E+02  0.23217532084E+03  0.26837635305E+03  0.00000000000E+00 0.  1.
        -11    1    4    4    0    0  0.26020833222E+02 -0.32220201297E+02 -0.58564945220E+02  0.71729198670E+02  0.00000000000E+00 0.  1.
         11    1    4    4    0    0 -0.10651182689E+03 -0.57909645724E+02 -0.42321196363E+02  0.12841098083E+03  0.00000000000E+00 0. -1.
         21    1    1    2  502  501 -0.52696525439E+02  0.34576562360E+01 -0.20848692709E+01  0.52850977852E+02  0.00000000000E+00 0. -1.
<scales pt_clust_5="13000.00000" pt_clust_6="13000.00000" pt_clust_7="13000.00000" pt_clust_8="13000.00000" pt_clust_9="52.80984"></scales>
<clustering>
<clus scale="   52.810">  2  9  1 -1</clus>
<clus scale="   82.120">  5  6 -1 -1</clus>
<clus scale="  123.596">  7  8 -1 -1</clus>
<clus scale="  172.653">  1  5  2 -1</clus>
<clus scale="   52.810">  2  5  1 -1</clus>
</clustering>
</event>
<event>
 9    1  0.2802611E-005  0.1231305E+03  0.7546771E-02  0.1242335E+00
         -2   -1    0    0    0  501 -0.00000000000E+00  0.00000000000E+00  0.79279016880E+02  0.79279016880E+02  0.00000000000E+00 0.  1.
          1   -1    0    0  502    0  0.00000000000E+00 -0.00000000000E+00 -0.32742009393E+03  0.32742009393E+03  0.00000000000E+00 0. -1.
        -24    2    1    2    0    0 -0.88422351360E+02 -0.36126050384E+02 -0.17280730790E+02  0.12429518652E+03  0.77634180603E+02 0.  0.
         23    2    1    2    0    0  0.76898781241E+02  0.15138091800E+02 -0.22831036168E+03  0.25832510590E+03  0.91998123412E+02 0.  0.
         11    1    3    3    0    0 -0.48575223884E+02 -0.44111367084E+02  0.20565172067E+02  0.68762572549E+02  0.00000000000E+00 0. -1.
        -12    1    3    3    0    0 -0.39847127476E+02  0.79853167002E+01 -0.37845902857E+02  0.55532613967E+02  0.00000000000E+00 0.  1.
        -13    1    4    4    0    0  0.49884817401E+02 -0.31247078023E+02 -0.71678088501E+02  0.92750327564E+02  0.00000000000E+00 0.  1.
         13    1    4    4    0    0  0.27013963840E+02  0.46385169823E+02 -0.15663227318E+03  0.16557477834E+03  0.00000000000E+00 0. -1.
         21    1    1    2  502  501  0.11523570119E+02  0.20987958584E+02 -0.25499845863E+01  0.24078818394E+02  0.00000000000E+00 0.  1.
<scales pt_clust_5="13000.00000" pt_clust_6="13000.00000" pt_clust_7="13000.00000" pt_clust_8="13000.00000" pt_clust_9="23.94341"></scales>
<clustering>
<clus scale="   23.943">  1  9  2 -1</clus>
<clus scale="   77.634">  5  6 -1 -1</clus>
<clus scale="   91.998">  7  8 -1 -1</clus>
<clus scale="  112.803">  1  5  2 -1</clus>
<clus scale="  123.131">  2  5  1 -1</clus>
</clustering>
</event>
<event>
 9    1  0.2802611E-005  0.1071015E+03  0.7546771E-02  0.1270153E+00
          1   -1    0    0  502    0  0.00000000000E+00  0.00000000000E+00  0.25638283858E+03  0.25638283858E+03  0.00000000000E+00 0. -1.
         -2   -1    0    0    0  501 -0.00000000000E+00 -0.00000000000E+00 -0.15447647049E+03  0.15447647049E+03  0.00000000000E+00 0.  1.
        -24    2    1    2    0    0  0.44443541889E+02 -0.11884621130E+02 -0.11057208071E+03  0.14480208006E+03  0.81394009118E+02 0.  0.
         23    2    1    2    0    0 -0.46284472767E+02  0.33992295720E+02  0.21800612661E+03  0.24319473737E+03  0.91210089674E+02 0.  0.
         13    1    3    3    0    0 -0.61606763898E+01 -0.34789245737E+02 -0.60279989403E+02  0.69870756937E+02  0.00000000000E+00 0. -1.
        -14    1    3    3    0    0  0.50604218279E+02  0.22904624607E+02 -0.50292091312E+02  0.74931323120E+02  0.00000000000E+00 0.  1.
        -13    1    4    4    0    0 -0.86564424870E+01  0.59070207926E+02  0.15084309215E+03  0.16222780868E+03  0.00000000000E+00 0. -1.
         13    1    4    4    0    0 -0.37628030280E+02 -0.25077912206E+02  0.67163034459E+02  0.80966928687E+02  0.00000000000E+00 0.  1.
         21    1    1    2  502  501  0.18409308771E+01 -0.22107674590E+02 -0.55276778014E+01  0.22862491643E+02  0.00000000000E+00 0. -1.
<scales pt_clust_5="13000.00000" pt_clust_6="13000.00000" pt_clust_7="13000.00000" pt_clust_8="13000.00000" pt_clust_9="22.18419"></scales>
<clustering>
<clus scale="   22.184">  2  9  1 -1</clus>
<clus scale="   81.394">  5  6 -1 -1</clus>
<clus scale="   91.210">  7  8 -1 -1</clus>
<clus scale="   98.876">  2  5  1 -1</clus>
<clus scale="  107.102">  1  5  2 -1</clus>
</clustering>
</event>
<event>
 9    1  0.2802611E-005  0.2471397E+03  0.7546771E-02  0.1115785E+00
         -2   -1    0    0    0  501 -0.00000000000E+00  0.00000000000E+00  0.18315940471E+03  0.18315940471E+03  0.00000000000E+00 0.  1.
          1   -1    0    0  502    0  0.00000000000E+00 -0.00000000000E+00 -0.55902716916E+03  0.55902716916E+03  0.00000000000E+00 0. -1.
        -24    2    1    2    0    0 -0.21162903832E+03 -0.10471790869E+03 -0.75389792172E+01  0.24955683486E+03  0.80430636919E+02 0.  0.
         23    2    1    2    0    0  0.19435895007E+03  0.11844017867E+03 -0.39056142343E+03  0.46131126454E+03  0.92012933432E+02 0.  0.
         13    1    3    3    0    0 -0.98828066286E+02 -0.52683032708E+02  0.36447504404E+02  0.11777482413E+03  0.00000000000E+00 0. -1.
        -14    1    3    3    0    0 -0.11280097203E+03 -0.52034875985E+02 -0.43986483621E+02  0.13178201073E+03  0.00000000000E+00 0.  1.
        -11    1    4    4    0    0  0.11288640918E+03  0.11291594477E+03 -0.29642948801E+03  0.33669540140E+03  0.00000000000E+00 0. -1.
         11    1    4    4    0    0  0.81472540891E+02  0.55242338981E+01 -0.94131935428E+02  0.12461586314E+03  0.00000000000E+00 0.  1.
         21    1    1    2  502  501  0.17270088247E+02 -0.13722269979E+02  0.22232638202E+02  0.31318474466E+02  0.00000000000E+00 0.  1.
<scales pt_clust_5="13000.00000" pt_clust_6="13000.00000" pt_clust_7="13000.00000" pt_clust_8="13000.00000" pt_clust_9="22.05803"></scales>
<clustering>
<clus scale="   22.058">  1  9  2 -1</clus>
<clus scale="   80.431">  5  6 -1 -1</clus>
<clus scale="   92.013">  7  8 -1 -1</clus>
<clus scale="  243.065">  1  5  2 -1</clus>
<clus scale="  247.140">  2  5  1 -1</clus>
</clustering>
</event>
<event>
 9    1  0.2802611E-005  0.9584838E+02  0.7546771E-02  0.1294155E+00
         -2   -1    0    0    0  501 -0.00000000000E+00  0.00000000000E+00  0.65024806298E+02  0.65024806298E+02  0.00000000000E+00 0.  1.
          1   -1    0    0  502    0  0.00000000000E+00 -0.00000000000E+00 -0.42295751601E+03  0.42295751601E+03  0.00000000000E+00 0. -1.
        -24    2    1    2    0    0 -0.18862061801E+02  0.14291872694E+02  0.18387176850E+02  0.87640598312E+02  0.82357459890E+02 0.  0.
         23    2    1    2    0    0  0.30786588478E+02  0.33213848641E+01 -0.36227314850E+03  0.37485188232E+03  0.91177047174E+02 0.  0.
         13    1    3    3    0    0  0.13229784849E+02  0.28851082593E+02 -0.18408542993E+02  0.36691778767E+02  0.00000000000E+00 0. -1.
        -14    1    3    3    0    0 -0.32091846650E+02 -0.14559209899E+02  0.36795719843E+02  0.50948819546E+02  0.00000000000E+00 0.  1.
        -13    1    4    4    0    0 -0.45984863113E+01  0.42058833117E+02 -0.12938755145E+03  0.13612946041E+03  0.00000000000E+00 0.  1.
         13    1    4    4    0    0  0.35385074789E+02 -0.38737448253E+02 -0.23288559704E+03  0.23872242191E+03  0.00000000000E+00 0. -1.
         21    1    1    2  502  501 -0.11924526677E+02 -0.17613257558E+02 -0.14046738068E+02  0.25489841675E+02  0.00000000000E+00 0.  1.
<scales pt_clust_5="13000.00000" pt_clust_6="13000.00000" pt_clust_7="13000.00000" pt_clust_8="13000.00000" pt_clust_9="21.27019"></scales>
<clustering>
<clus scale="   21.270">  1  9  2 -1</clus>
<clus scale="   82.357">  5  6 -1 -1</clus>
<clus scale="   87.501">  1  5  2 -1</clus>
<clus scale="   91.177">  7  8 -1 -1</clus>
<clus scale="   95.848">  2  5  1 -1</clus>
</clustering>
</event>
<event>
 9    1  0.2802611E-005  0.2232475E+03  0.7546771E-02  0.1135328E+00
         -2   -1    0    0    0  501 -0.00000000000E+00  0.00000000000E+00  0.13936823927E+03  0.13936823927E+03  0.00000000000E+00 0.  1.
          1   -1    0    0  502    0  0.00000000000E+00 -0.00000000000E+00 -0.47912746400E+03  0.47912746400E+03  0.00000000000E+00 0. -1.
        -24    2    1    2    0    0  0.29489996569E+02 -0.16521837762E+03 -0.25648373816E+02  0.18792380923E+03  0.80565171107E+02 0.  0.
         23    2    1    2    0    0 -0.50334932621E+02  0.18873503542E+03 -0.32395607250E+03  0.39764055727E+03  0.12253961336E+03 0.  0.
         11    1    3    3    0    0 -0.15011824582E+02 -0.11555923777E+03 -0.32265450545E+02  0.12091464597E+03  0.00000000000E+00 0. -1.
        -12    1    3    3    0    0  0.44501821151E+02 -0.49659139849E+02  0.66170767290E+01  0.67009163259E+02  0.00000000000E+00 0.  1.
        -13    1    4    4    0    0 -0.89848477377E+02  0.15232244341E+03 -0.24709701060E+03  0.30386149526E+03  0.00000000000E+00 0. -1.
         13    1    4    4    0    0  0.39513544756E+02  0.36412592009E+02 -0.76859061895E+02  0.93779062010E+02  0.00000000000E+00 0.  1.
         21    1    1    2  502  501  0.20844936053E+02 -0.23516657801E+02  0.98452215845E+01  0.32931336766E+02  0.00000000000E+00 0. -1.
<scales pt_clust_5="13000.00000" pt_clust_6="13000.00000" pt_clust_7="13000.00000" pt_clust_8="13000.00000" pt_clust_9="31.42522"></scales>
<clustering>
<clus scale="   31.425">  1  9  2 -1</clus>
<clus scale="   80.565">  5  6 -1 -1</clus>
<clus scale="  122.540">  7  8 -1 -1</clus>
<clus scale="  203.259">  1  5  2 -1</clus>
<clus scale="  223.248">  2  5  1 -1</clus>
</clustering>
</event>
<event>
 9    1  0.2802611E-005  0.9552917E+02  0.7546771E-02  0.1296265E+00
          1   -1    0    0  502    0  0.00000000000E+00  0.00000000000E+00  0.34824360147E+03  0.34824360147E+03  0.00000000000E+00 0. -1.
         -2   -1    0    0    0  501 -0.00000000000E+00 -0.00000000000E+00 -0.53616506844E+02  0.53616506844E+02  0.00000000000E+00 0.  1.
         23    2    1    2    0    0  0.33077365536E+01  0.20859580041E+02  0.57655076588E+02  0.11100134814E+03  0.92472310625E+02 0.  0.
        -24    2    1    2    0    0  0.29894022985E+02 -0.47469643231E+01  0.23856121552E+03  0.25391963768E+03  0.81532463269E+02 0.  0.
         11    1    4    4    0    0  0.45523611088E+02  0.15826469347E+02  0.20976868969E+03  0.21523424327E+03  0.00000000000E+00 0. -1.
        -12    1    4    4    0    0 -0.15629588104E+02 -0.20573433670E+02  0.28792525829E+02  0.38685394413E+02  0.00000000000E+00 0.  1.
        -13    1    3    3    0    0 -0.39108895697E+02  0.19337142256E+01  0.50662236892E+02  0.64030517882E+02  0.00000000000E+00 0.  1.
         13    1    3    3    0    0  0.42416632250E+02  0.18925865815E+02  0.69928396965E+01  0.46970830260E+02  0.00000000000E+00 0. -1.
         21    1    1    2  502  501 -0.33201759538E+02 -0.16112615718E+02 -0.15891974887E+01  0.36939122490E+02  0.00000000000E+00 0.  1.
<scales pt_clust_5="13000.00000" pt_clust_6="13000.00000" pt_clust_7="13000.00000" pt_clust_8="13000.00000" pt_clust_9="36.90492"></scales>
<clustering>
<clus scale="   36.905">  2  9  1 -1</clus>
<clus scale="   81.532">  5  6 -1 -1</clus>
<clus scale="   84.984">  1  5  2 -1</clus>
<clus scale="   92.472">  7  8 -1 -1</clus>
<clus scale="   84.984">  1  5  2 -1</clus>
</clustering>
</event>
<event>
 9    1  0.2802611E-005  0.1509527E+03  0.7546771E-02  0.1216330E+00
          1   -1    0    0  502    0  0.00000000000E+00  0.00000000000E+00  0.86001816758E+03  0.86001816758E+03  0.00000000000E+00 0. -1.
         -2   -1    0    0    0  501 -0.00000000000E+00 -0.00000000000E+00 -0.91171951898E+02  0.91171951898E+02  0.00000000000E+00 0.  1.
        -24    2    1    2    0    0  0.20103254338E+01 -0.17345225633E+03  0.61247855875E+03  0.64167649924E+03  0.80802339754E+02 0.  0.
         23    2    1    2    0    0 -0.10241570599E+02  0.50758178692E+02  0.15429848749E+03  0.18652633819E+03  0.91119532070E+02 0.  0.
         13    1    3    3    0    0  0.36702292326E+02 -0.10045991038E+03  0.28601911167E+03  0.30536238160E+03  0.00000000000E+00 0. -1.
        -14    1    3    3    0    0 -0.34691966892E+02 -0.72992345948E+02  0.32645944709E+03  0.33631411764E+03  0.00000000000E+00 0.  1.
        -11    1    4    4    0    0  0.18010909192E+02  0.49933001238E+02  0.14846091156E+03  0.15766527749E+03  0.00000000000E+00 0.  1.
         11    1    4    4    0    0 -0.28252479792E+02  0.82517745451E+00  0.58375759242E+01  0.28861060703E+02  0.00000000000E+00 0. -1.
         21    1    1    2  502  501  0.82312451656E+01  0.12269407763E+03  0.20691694388E+01  0.12298728205E+03  0.00000000000E+00 0.  1.
<scales pt_clust_5="13000.00000" pt_clust_6="13000.00000" pt_clust_7="13000.00000" pt_clust_8="13000.00000" pt_clust_9="127.50574"></scales>
<clustering>
<clus scale="   80.802">  5  6 -1 -1</clus>
<clus scale="   91.120">  7  8 -1 -1</clus>
<clus scale="  104.805">  1  7  2 -1</clus>
<clus scale="  127.506">  2  9  1 -1</clus>
<clus scale="  104.805">  1  5  2 -1</clus>
</clustering>
</event>
<event>
 9    1  0.2802611E-005  0.9174446E+02  0.7546771E-02  0.1304452E+00
          1   -1    0    0  502    0  0.00000000000E+00  0.00000000000E+00  0.30456386849E+02  0.30456386849E+02  0.00000000000E+00 0. -1.
         -2   -1    0    0    0  501 -0.00000000000E+00 -0.00000000000E+00 -0.84980896076E+03  0.84980896076E+03  0.00000000000E+00 0.  1.
        -24    2    1    2    0    0 -0.44548235844E+02 -0.28031750793E+02 -0.32324184197E+03  0.33722383261E+03  0.80400873828E+02 0.  0.
         23    2    1    2    0    0 -0.14181845925E+02  0.15639781735E+02 -0.78585661811E+02  0.12122405733E+03  0.89854539715E+02 0.  0.
         13    1    3    3    0    0 -0.60392778469E+02 -0.11087365587E+02 -0.14480649897E+03  0.15728680653E+03  0.00000000000E+00 0. -1.
        -14    1    3    3    0    0  0.15844542625E+02 -0.16944385206E+02 -0.17843534300E+03  0.17993702608E+03  0.00000000000E+00 0.  1.
        -11    1    4    4    0    0  0.29414672888E+02 -0.11121495150E+02 -0.53610081920E+01  0.31900643321E+02  0.00000000000E+00 0.  1.
         11    1    4    4    0    0 -0.43596518813E+02  0.26761276885E+02 -0.73224653618E+02  0.89323414011E+02  0.00000000000E+00 0. -1.
         21    1    1    2  502  501  0.58730081769E+02  0.12391969058E+02 -0.41752507013E+03  0.42181745767E+03  0.00000000000E+00 0.  1.
<scales pt_clust_5="13000.00000" pt_clust_6="13000.00000" pt_clust_7="13000.00000" pt_clust_8="13000.00000" pt_clust_9="60.02319"></scales>
<clustering>
<clus scale="   60.023">  2  9  1 -1</clus>
<clus scale="   80.401">  5  6 -1 -1</clus>
<clus scale="   82.508">  2  5  1 -1</clus>
<clus scale="   89.855">  7  8 -1 -1</clus>
<clus scale="   91.744">  1  5  2 -1</clus>
</clustering>
</event>
<event>
 9    1  0.2802611E-005  0.2718604E+03  0.7546771E-02  0.1100620E+00
          1   -1    0    0  502    0  0.00000000000E+00  0.00000000000E+00  0.18382235647E+04  0.18382235647E+04  0.00000000000E+00 0. -1.
         -2   -1    0    0    0  501 -0.00000000000E+00 -0.00000000000E+00 -0.67859274309E+02  0.67859274309E+02  0.00000000000E+00 0.  1.
        -24    2    1    2    0    0 -0.19354978237E+03  0.14334857377E+03  0.43221021308E+03  0.50151604991E+03  0.81867870171E+02 0.  0.
         23    2    1    2    0    0  0.17117126289E+03 -0.20216987183E+03  0.13024605920E+04  0.13322150915E+04  0.90670823351E+02 0.  0.
         13    1    3    3    0    0 -0.84952207365E+01  0.19997347889E+02  0.95841761156E+02  0.98273627589E+02  0.00000000000E+00 0. -1.
        -14    1    3    3    0    0 -0.18505456163E+03  0.12335122588E+03  0.33636845193E+03  0.40324242232E+03  0.00000000000E+00 0.  1.
        -13    1    4    4    0    0  0.63596907215E+02 -0.71627570862E+02  0.28185652420E+03  0.29768805107E+03  0.00000000000E+00 0.  1.
         13    1    4    4    0    0  0.10757435567E+03 -0.13054230097E+03  0.10206040678E+04  0.10345270405E+04  0.00000000000E+00 0. -1.
         21    1    1    2  502  501  0.22378519481E+02  0.58821298060E+02  0.35693485292E+02  0.72351697505E+02  0.00000000000E+00 0.  1.
<scales pt_clust_5="13000.00000" pt_clust_6="13000.00000" pt_clust_7="13000.00000" pt_clust_8="13000.00000" pt_clust_9="62.93444"></scales>
<clustering>
<clus scale="   62.934">  2  9  1 -1</clus>
<clus scale="   81.868">  5  6 -1 -1</clus>
<clus scale="   90.671">  7  8 -1 -1</clus>
<clus scale="  269.052">  2  5  1 -1</clus>
<clus scale="  271.860">  1  5  2 -1</clus>
</clustering>
</event>
<event>
 9    1  0.2802611E-005  0.1141055E+03  0.7546771E-02  0.1257710E+00
         -4   -1    0    0    0  501 -0.00000000000E+00  0.00000000000E+00  0.36973943301E+03  0.36973943301E+03  0.00000000000E+00 0.  1.
          3   -1    0    0  502    0  0.00000000000E+00 -0.00000000000E+00 -0.67466291218E+02  0.67466291218E+02  0.00000000000E+00 0. -1.
         23    2    1    2    0    0 -0.52253308859E+02 -0.29690497499E+02  0.26050849413E+03  0.28290298486E+03  0.92506699212E+02 0.  0.
        -24    2    1    2    0    0  0.67033609911E+02  0.14262118812E+02 -0.22275589355E+01  0.10539664149E+03  0.80041096499E+02 0.  0.
         13    1    4    4    0    0  0.74419607341E+02 -0.13706137852E+02 -0.73209929224E+01  0.76024555960E+02  0.00000000000E+00 0. -1.
        -14    1    4    4    0    0 -0.73859974300E+01  0.27968256663E+02  0.50934339869E+01  0.29372085534E+02  0.00000000000E+00 0.  1.
        -11    1    3    3    0    0 -0.78677428245E+02 -0.20521669957E+02  0.20957081401E+03  0.22479146500E+03  0.00000000000E+00 0.  1.
         11    1    3    3    0    0  0.26424119387E+02 -0.91688275418E+01  0.50937680115E+02  0.58111519851E+02  0.00000000000E+00 0. -1.
         21    1    1    2  502  501 -0.14780301052E+02  0.15428378687E+02  0.43992206600E+02  0.48906097878E+02  0.00000000000E+00 0.  1.
<scales pt_clust_5="13000.00000" pt_clust_6="13000.00000" pt_clust_7="13000.00000" pt_clust_8="13000.00000" pt_clust_9="21.36568"></scales>
<clustering>
<clus scale="   21.366">  1  9  2 -1</clus>
<clus scale="   80.041">  5  6 -1 -1</clus>
<clus scale="   92.507">  7  8 -1 -1</clus>
<clus scale="  104.255">  2  5  1 -1</clus>
<clus scale="  104.255">  2  5  1 -1</clus>
</clustering>
</event>
<event>
 9    1  0.2802611E-005  0.1628058E+03  0.7546771E-02  0.1211220E+00
         -2   -1    0    0    0  501 -0.00000000000E+00  0.00000000000E+00  0.74726370000E+02  0.74726370000E+02  0.00000000000E+00 0.  1.
          1   -1    0    0  502    0  0.00000000000E+00 -0.00000000000E+00 -0.63591884208E+03  0.63591884208E+03  0.00000000000E+00 0. -1.
        -24    2    1    2    0    0  0.41594917633E+02 -0.63598081086E+01 -0.11229429241E+03  0.14587287711E+03  0.83056028290E+02 0.  0.
         23    2    1    2    0    0 -0.54959402196E+02  0.13946791249E+03 -0.37715948918E+03  0.41297372953E+03  0.76329460287E+02 0.  0.
         13    1    3    3    0    0  0.45279481593E+02  0.17396320739E+02 -0.11175358691E+03  0.12182662934E+03  0.00000000000E+00 0. -1.
        -14    1    3    3    0    0 -0.36845639598E+01 -0.23756128847E+02 -0.54070550254E+00  0.24046247770E+02  0.00000000000E+00 0.  1.
        -11    1    4    4    0    0 -0.37212889937E+02  0.91732193485E+02 -0.32635389112E+03  0.34103732457E+03  0.00000000000E+00 0. -1.
         11    1    4    4    0    0 -0.17746512259E+02  0.47735719001E+02 -0.50805598057E+02  0.71936404969E+02  0.00000000000E+00 0.  1.
         21    1    1    2  502  501  0.13364484563E+02 -0.13310810438E+03 -0.71738690488E+02  0.15179860543E+03  0.00000000000E+00 0.  1.
<scales pt_clust_5="13000.00000" pt_clust_6="13000.00000" pt_clust_7="13000.00000" pt_clust_8="13000.00000" pt_clust_9="143.80386"></scales>
<clustering>
<clus scale="   76.329">  7  8 -1 -1</clus>
<clus scale="   83.056">  5  6 -1 -1</clus>
<clus scale="   93.107">  1  5  2 -1</clus>
<clus scale="  143.804">  1  9  2 -1</clus>
<clus scale="  162.806">  2  5  1 -1</clus>
</clustering>
</event>
<event>
 9    1  0.2802611E-005  0.1034322E+03  0.7546771E-02  0.1276750E+00
          1   -1    0    0  502    0  0.00000000000E+00  0.00000000000E+00  0.86104321769E+02  0.86104321769E+02  0.00000000000E+00 0. -1.
         -2   -1    0    0    0  501 -0.00000000000E+00 -0.00000000000E+00 -0.16045662486E+03  0.16045662486E+03  0.00000000000E+00 0.  1.
        -24    2    1    2    0    0  0.40174893230E+00  0.44643316174E+02 -0.38836122725E+02  0.10092373045E+03  0.81756760327E+02 0.  0.
         23    2    1    2    0    0  0.20030542574E+02 -0.55115073300E+02 -0.46979823220E+01  0.10720679119E+03  0.89623273203E+02 0.  0.
         11    1    3    3    0    0 -0.73863534816E+01  0.58818265126E+02 -0.46366134940E+00  0.59282050504E+02  0.00000000000E+00 0. -1.
        -12    1    3    3    0    0  0.77881024139E+01 -0.14174948952E+02 -0.38372461375E+02  0.41641679949E+02  0.00000000000E+00 0.  1.
        -13    1    4    4    0    0 -0.28251857849E+02  0.11679820099E+01  0.12764161412E+02  0.31023466448E+02  0.00000000000E+00 0. -1.
         13    1    4    4    0    0  0.48282400423E+02 -0.56283055310E+02 -0.17462143735E+02  0.76183324746E+02  0.00000000000E+00 0.  1.
         21    1    1    2  502  501 -0.20432291506E+02  0.10471757126E+02 -0.30818198040E+02  0.38430424977E+02  0.00000000000E+00 0. -1.
<scales pt_clust_5="13000.00000" pt_clust_6="13000.00000" pt_clust_7="13000.00000" pt_clust_8="13000.00000" pt_clust_9="22.95945"></scales>
<clustering>
<clus scale="   22.959">  2  9  1 -1</clus>
<clus scale="   81.757">  5  6 -1 -1</clus>
<clus scale="   89.623">  7  8 -1 -1</clus>
<clus scale="   96.696">  2  5  1 -1</clus>
<clus scale="  103.432">  1  5  2 -1</clus>
</clustering>
</event>
<event>
 9    1  0.2802611E-005  0.9205606E+02  0.7546771E-02  0.1305171E+00
          3   -1    0    0  502    0  0.00000000000E+00  0.00000000000E+00  0.12803678229E+03  0.12803678229E+03  0.00000000000E+00 0. -1.
         -4   -1    0    0    0  501 -0.00000000000E+00 -0.00000000000E+00 -0.26014330985E+03  0.26014330985E+03  0.00000000000E+00 0.  1.
        -24    2    1    2    0    0 -0.17741949947E+02 -0.15179490706E+02  0.96483432702E+00  0.82391850854E+02  0.79008179676E+02 0.  0.
         23    2    1    2    0    0 -0.16479009860E+02  0.15919722744E+02  0.59079934896E+02  0.11061205705E+03  0.90661971742E+02 0.  0.
         13    1    3    3    0    0 -0.30086743090E+02 -0.25630818106E+02  0.29684945184E+02  0.49430222710E+02  0.00000000000E+00 0. -1.
        -14    1    3    3    0    0  0.12344793144E+02  0.10451327400E+02 -0.28720110857E+02  0.32961628143E+02  0.00000000000E+00 0.  1.
        -11    1    4    4    0    0  0.44668028419E+01 -0.34444783407E+02  0.74866292911E+01  0.35530902742E+02  0.00000000000E+00 0.  1.
         11    1    4    4    0    0 -0.20945812702E+02  0.50364506150E+02  0.51593305605E+02  0.75081154312E+02  0.00000000000E+00 0. -1.
         21    1    1    2  502  501  0.34220959807E+02 -0.74023203768E+00 -0.19215129679E+03  0.19517618423E+03  0.00000000000E+00 0.  1.
<scales pt_clust_5="13000.00000" pt_clust_6="13000.00000" pt_clust_7="13000.00000" pt_clust_8="13000.00000" pt_clust_9="34.22896"></scales>
<clustering>
<clus scale="   34.229">  2  9  1 -1</clus>
<clus scale="   79.008">  5  6 -1 -1</clus>
<clus scale="   80.604">  2  5  1 -1</clus>
<clus scale="   90.662">  7  8 -1 -1</clus>
<clus scale="   92.056">  1  5  2 -1</clus>
</clustering>
</event>
<event>
 9    1  0.2802611E-005  0.1024276E+03  0.7546771E-02  0.1280027E+00
          1   -1    0    0  502    0  0.00000000000E+00  0.00000000000E+00  0.32238794102E+03  0.32238794102E+03  0.00000000000E+00 0. -1.
         -2   -1    0    0    0  501 -0.00000000000E+00 -0.00000000000E+00 -0.53123847806E+02  0.53123847806E+02  0.00000000000E+00 0.  1.
        -24    2    1    2    0    0  0.45618905824E+01  0.25902532448E+02  0.30882304512E+02  0.90485853039E+02  0.80883996163E+02 0.  0.
         23    2    1    2    0    0 -0.94654781442E+01 -0.54184640980E+02  0.23257896540E+03  0.25574120269E+03  0.91022068834E+02 0.  0.
         13    1    3    3    0    0  0.25808826297E+02 -0.21044568925E+02  0.15319369802E+02  0.36655865659E+02  0.00000000000E+00 0. -1.
        -14    1    3    3    0    0 -0.21246935715E+02  0.46947101372E+02  0.15562934711E+02  0.53829987380E+02  0.00000000000E+00 0.  1.
        -11    1    4    4    0    0 -0.32172280119E+02  0.94674961075E+00  0.28034055044E+02  0.42683254153E+02  0.00000000000E+00 0.  1.
         11    1    4    4    0    0  0.22706801975E+02 -0.55131390591E+02  0.20454491035E+03  0.21305794854E+03  0.00000000000E+00 0. -1.
         21    1    1    2  502  501  0.49035875618E+01  0.28282108533E+02  0.58028233017E+01  0.29284733093E+02  0.00000000000E+00 0.  1.
<scales pt_clust_5="13000.00000" pt_clust_6="13000.00000" pt_clust_7="13000.00000" pt_clust_8="13000.00000" pt_clust_9="28.70406"></scales>
<clustering>
<clus scale="   28.704">  2  9  1 -1</clus>
<clus scale="   80.884">  5  6 -1 -1</clus>
<clus scale="   91.022">  7  8 -1 -1</clus>
<clus scale="   93.534">  2  5  1 -1</clus>
<clus scale="  102.428">  1  5  2 -1</clus>
</clustering>
</event>
<event>
 9    1  0.2802611E-005  0.9288930E+02  0.7546771E-02  0.1300884E+00
          3   -1    0    0  502    0  0.00000000000E+00  0.00000000000E+00  0.81257731832E+02  0.81257731832E+02  0.00000000000E+00 0. -1.
         -4   -1    0    0    0  501 -0.00000000000E+00 -0.00000000000E+00 -0.29112907271E+03  0.29112907271E+03  0.00000000000E+00 0.  1.
        -24    2    1    2    0    0  0.29334443024E+01 -0.13420885055E+01 -0.14878644724E+03  0.17072172345E+03  0.83654609425E+02 0.  0.
         23    2    1    2    0    0  0.17751681630E+02 -0.30880281393E+00  0.37648825824E+02  0.10077431226E+03  0.91775870280E+02 0.  0.
         11    1    3    3    0    0  0.26112937659E+02 -0.24079536568E+02 -0.26823928143E+02  0.44511040378E+02  0.00000000000E+00 0. -1.
        -12    1    3    3    0    0 -0.23179493357E+02  0.22737448063E+02 -0.12196251910E+03  0.12621068307E+03  0.00000000000E+00 0.  1.
        -13    1    4    4    0    0  0.10474277301E+02 -0.39151933005E+02 -0.70210776970E+01  0.41132467408E+02  0.00000000000E+00 0. -1.
         13    1    4    4    0    0  0.72774043284E+01  0.38843130191E+02  0.44669903521E+02  0.59641844853E+02  0.00000000000E+00 0.  1.
         21    1    1    2  502  501 -0.20685125932E+02  0.16508913194E+01 -0.98733719455E+02  0.10089076883E+03  0.00000000000E+00 0.  1.
<scales pt_clust_5="13000.00000" pt_clust_6="13000.00000" pt_clust_7="13000.00000" pt_clust_8="13000.00000" pt_clust_9="20.75090"></scales>
<clustering>
<clus scale="   20.751">  2  9  1 -1</clus>
<clus scale="   83.655">  5  6 -1 -1</clus>
<clus scale="   84.875">  2  5  1 -1</clus>
<clus scale="   91.776">  7  8 -1 -1</clus>
<clus scale="   92.889">  1  5  2 -1</clus>
</clustering>
</event>
<event>
 9    1  0.2802611E-005  0.2253345E+03  0.7546771E-02  0.1131076E+00
         -2   -1    0    0    0  501 -0.00000000000E+00  0.00000000000E+00  0.64031017719E+02  0.64031017719E+02  0.00000000000E+00 0.  1.
          1   -1    0    0  502    0  0.00000000000E+00 -0.00000000000E+00 -0.14537160806E+04  0.14537160806E+04  0.00000000000E+00 0. -1.
         23    2    1    2    0    0 -0.20748405542E+03  0.13492082286E+03 -0.83068682500E+03  0.87168722445E+03  0.92437840430E+02 0.  0.
        -24    2    1    2    0    0  0.10100118464E+03 -0.14218454934E+03 -0.46989421344E+03  0.50702430051E+03  0.76520481645E+02 0.  0.
         11    1    4    4    0    0  0.76833066184E+02 -0.80970608542E+02 -0.37701569950E+03  0.39319257009E+03  0.00000000000E+00 0. -1.
        -12    1    4    4    0    0  0.24168118452E+02 -0.61213940795E+02 -0.92878513942E+02  0.11383173041E+03  0.00000000000E+00 0.  1.
        -13    1    3    3    0    0 -0.10292150048E+02  0.28675654376E+02 -0.42511892576E+02  0.52301840474E+02  0.00000000000E+00 0.  1.
         13    1    3    3    0    0 -0.19719190537E+03  0.10624516848E+03 -0.78817493243E+03  0.81938538398E+03  0.00000000000E+00 0. -1.
         21    1    1    2  502  501  0.10648287078E+03  0.72637264764E+01 -0.89104024474E+02  0.13903557340E+03  0.00000000000E+00 0. -1.
<scales pt_clust_5="13000.00000" pt_clust_6="13000.00000" pt_clust_7="13000.00000" pt_clust_8="13000.00000" pt_clust_9="106.73033"></scales>
<clustering>
<clus scale="   76.520">  5  6 -1 -1</clus>
<clus scale="   92.438">  7  8 -1 -1</clus>
<clus scale="  106.730">  1  9  2 -1</clus>
<clus scale="  219.286">  2  5  1 -1</clus>
<clus scale="  219.286">  2  5  1 -1</clus>
</clustering>
</event>
<event>
 9    1  0.2802611E-005  0.9285844E+02  0.7546771E-02  0.1298354E+00
         -4   -1    0    0    0  501 -0.00000000000E+00  0.00000000000E+00  0.74292364153E+02  0.74292364153E+02  0.00000000000E+00 0.  1.
          3   -1    0    0  502    0  0.00000000000E+00 -0.00000000000E+00 -0.35412211495E+03  0.35412211495E+03  0.00000000000E+00 0. -1.
        -24    2    1    2    0    0 -0.69798875787E+01 -0.20910619001E+02 -0.74165289881E+02  0.11491634024E+03  0.84966476999E+02 0.  0.
         23    2    1    2    0    0  0.12583235755E+02 -0.49894584885E+02 -0.21836249261E+03  0.24134542292E+03  0.88981051710E+02 0.  0.
         13    1    3    3    0    0  0.44961175611E+01 -0.26106938757E+02 -0.90494591653E+02  0.94292409254E+02  0.00000000000E+00 0. -1.
        -14    1    3    3    0    0 -0.11476005140E+02  0.51963197557E+01  0.16329301773E+02  0.20623930987E+02  0.00000000000E+00 0.  1.
        -11    1    4    4    0    0 -0.19808220899E+02 -0.50126901605E+02 -0.64241849107E+02  0.83857540248E+02  0.00000000000E+00 0.  1.
         11    1    4    4    0    0  0.32391456654E+02  0.23231672010E+00 -0.15412064350E+03  0.15748788267E+03  0.00000000000E+00 0. -1.
         21    1    1    2  502  501 -0.56033481766E+01  0.70805203886E+02  0.12698031698E+02  0.72152715937E+02  0.00000000000E+00 0.  1.
<scales pt_clust_5="13000.00000" pt_clust_6="13000.00000" pt_clust_7="13000.00000" pt_clust_8="13000.00000" pt_clust_9="71.02658"></scales>
<clustering>
<clus scale="   71.027">  1  9  2 -1</clus>
<clus scale="   84.966">  5  6 -1 -1</clus>
<clus scale="   88.981">  7  8 -1 -1</clus>
<clus scale="   89.019">  1  5  2 -1</clus>
<clus scale="   92.858">  2  5  1 -1</clus>
</clustering>
</event>
<event>
 9    1  0.2802611E-005  0.1156954E+03  0.7546771E-02  0.1254879E+00
          1   -1    0    0  502    0  0.00000000000E+00  0.00000000000E+00  0.26865398487E+02  0.26865398487E+02  0.00000000000E+00 0. -1.
         -2   -1    0    0    0  501 -0.00000000000E+00 -0.00000000000E+00 -0.79735799866E+03  0.79735799866E+03  0.00000000000E+00 0.  1.
         23    2    1    2    0    0 -0.17264772566E+02  0.70164351181E+02 -0.58428409262E+03  0.59575207464E+03  0.91167565466E+02 0.  0.
        -24    2    1    2    0    0 -0.54135281597E+01 -0.70362784176E+02 -0.12656410393E+03  0.16466066836E+03  0.78194856723E+02 0.  0.
         11    1    4    4    0    0  0.24108318575E+02 -0.22424515311E+02 -0.87224292078E+01  0.34060984759E+02  0.00000000000E+00 0. -1.
        -12    1    4    4    0    0 -0.29521846734E+02 -0.47938268865E+02 -0.11784167472E+03  0.13059968360E+03  0.00000000000E+00 0.  1.
        -13    1    3    3    0    0 -0.47938464332E+00 -0.21131219956E+02 -0.68684914684E+02  0.71863591419E+02  0.00000000000E+00 0. -1.
         13    1    3    3    0    0 -0.16785387922E+02  0.91295571137E+02 -0.51559917794E+03  0.52388848322E+03  0.00000000000E+00 0.  1.
         21    1    1    2  502  501  0.22678300725E+02  0.19843299497E+00 -0.59644403628E+02  0.63810654154E+02  0.00000000000E+00 0.  1.
<scales pt_clust_5="13000.00000" pt_clust_6="13000.00000" pt_clust_7="13000.00000" pt_clust_8="13000.00000" pt_clust_9="22.67917"></scales>
<clustering>
<clus scale="   22.679">  1  9  2 -1</clus>
<clus scale="   78.195">  5  6 -1 -1</clus>
<clus scale="   91.168">  7  8 -1 -1</clus>
<clus scale="  105.775">  1  5  2 -1</clus>
<clus scale="   22.679">  1  5  2 -1</clus>
</clustering>
</event>
<event>
 9    1  0.2802611E-005  0.1167314E+03  0.7546771E-02  0.1252931E+00
         -4   -1    0    0    0  501 -0.00000000000E+00  0.00000000000E+00  0.54823483409E+03  0.54823483409E+03  0.00000000000E+00 0.  1.
          3   -1    0    0  502    0  0.00000000000E+00 -0.00000000000E+00 -0.14191495320E+03  0.14191495320E+03  0.00000000000E+00 0. -1.
        -24    2    1    2    0    0 -0.41469825991E+02  0.10904606578E+03  0.23208370976E+03  0.27157320874E+03  0.79236156147E+02 0.  0.
         23    2    1    2    0    0 -0.12159935465E+02 -0.67506672123E+02 -0.89995881369E+02  0.14577582689E+03  0.91903853183E+02 0.  0.
         13    1    3    3    0    0  0.21084803783E+02  0.35480204997E+02  0.97993656725E+02  0.10633047849E+03  0.00000000000E+00 0. -1.
        -14    1    3    3    0    0 -0.62554629774E+02  0.73565860779E+02  0.13409005303E+03  0.16524273025E+03  0.00000000000E+00 0.  1.
        -13    1    4    4    0    0 -0.98587157785E+01  0.21086482652E+02 -0.33084846483E+02  0.40452949141E+02  0.00000000000E+00 0. -1.
         13    1    4    4    0    0 -0.23012196869E+01 -0.88593154775E+02 -0.56911034886E+02  0.10532287775E+03  0.00000000000E+00 0.  1.
         21    1    1    2  502  501  0.53629761457E+02 -0.41539393653E+02  0.26423205250E+03  0.27280075166E+03  0.00000000000E+00 0.  1.
<scales pt_clust_5="13000.00000" pt_clust_6="13000.00000" pt_clust_7="13000.00000" pt_clust_8="13000.00000" pt_clust_9="67.83563"></scales>
<clustering>
<clus scale="   67.836">  1  9  2 -1</clus>
<clus scale="   79.236">  5  6 -1 -1</clus>
<clus scale="   91.904">  7  8 -1 -1</clus>
<clus scale="  107.043">  1  5  2 -1</clus>
<clus scale="  116.731">  2  5  1 -1</clus>
</clustering>
</event>
<event>
 9    1  0.2802611E-005  0.1716729E+03  0.7546771E-02  0.1201643E+00
         -2   -1    0    0    0  501 -0.00000000000E+00  0.00000000000E+00  0.17987956305E+04  0.17987956305E+04  0.00000000000E+00 0.  1.
          1   -1    0    0  502    0  0.00000000000E+00 -0.00000000000E+00 -0.25445891157E+02  0.25445891157E+02  0.00000000000E+00 0. -1.
         23    2    1    2    0    0 -0.17803882313E+02  0.10797383922E+03  0.39385424907E+03  0.41901382303E+03  0.92065662425E+02 0.  0.
        -24    2    1    2    0    0  0.14890863305E+02  0.56246626975E+02  0.37973105526E+03  0.39206148684E+03  0.78301432142E+02 0.  0.
         11    1    4    4    0    0 -0.19004007528E+02  0.55839069261E+02  0.29427132542E+03  0.30012458567E+03  0.00000000000E+00 0. -1.
        -12    1    4    4    0    0  0.33894870833E+02  0.40755771387E+00  0.85459729841E+02  0.91936901169E+02  0.00000000000E+00 0.  1.
        -11    1    3    3    0    0 -0.55049124643E+02  0.71342487993E+02  0.22950836692E+03  0.24656489451E+03  0.00000000000E+00 0. -1.
         11    1    3    3    0    0  0.37245242329E+02  0.36631351230E+02  0.16434588215E+03  0.17244892852E+03  0.00000000000E+00 0.  1.
         21    1    1    2  502  501  0.29130190079E+01 -0.16422046620E+03  0.99976443500E+03  0.10131662118E+04  0.00000000000E+00 0.  1.
<scales pt_clust_5="13000.00000" pt_clust_6="13000.00000" pt_clust_7="13000.00000" pt_clust_8="13000.00000" pt_clust_9="144.89819"></scales>
<clustering>
<clus scale="   78.301">  5  6 -1 -1</clus>
<clus scale="   92.066">  7  8 -1 -1</clus>
<clus scale="   97.553">  2  5  1 -1</clus>
<clus scale="  144.898">  1  9  2 -1</clus>
<clus scale="   97.553">  2  5  1 -1</clus>
</clustering>
</event>
<event>
 9    1  0.2802611E-005  0.1025552E+03  0.7546771E-02  0.1279081E+00
         -2   -1    0    0    0  501 -0.00000000000E+00  0.00000000000E+00  0.23077996267E+03  0.23077996267E+03  0.00000000000E+00 0.  1.
          1   -1    0    0  502    0  0.00000000000E+00 -0.00000000000E+00 -0.11013951377E+03  0.11013951377E+03  0.00000000000E+00 0. -1.
         23    2    1    2    0    0  0.28053131356E+02 -0.26138251912E+02  0.14495135619E+03  0.17527106498E+03  0.90768189168E+02 0.  0.
        -24    2    1    2    0    0 -0.19478265551E+02  0.45670648649E+02 -0.67662560887E+02  0.11733269233E+03  0.81997119254E+02 0.  0.
         13    1    4    4    0    0  0.13216514437E+02  0.28567454680E+02 -0.73517957935E+02  0.79972907035E+02  0.00000000000E+00 0. -1.
        -14    1    4    4    0    0 -0.32694779989E+02  0.17103193969E+02  0.58553970474E+01  0.37359785292E+02  0.00000000000E+00 0.  1.
        -13    1    3    3    0    0  0.54206422160E+02 -0.47293419393E+01  0.12423643207E+03  0.13562962041E+03  0.00000000000E+00 0.  1.
         13    1    3    3    0    0 -0.26153290804E+02 -0.21408909972E+02  0.20714924117E+02  0.39641444566E+02  0.00000000000E+00 0. -1.
         21    1    1    2  502  501 -0.85748658050E+01 -0.19532396738E+02  0.43351653595E+02  0.48315719133E+02  0.00000000000E+00 0.  1.
<scales pt_clust_5="13000.00000" pt_clust_6="13000.00000" pt_clust_7="13000.00000" pt_clust_8="13000.00000" pt_clust_9="21.33173"></scales>
<clustering>
<clus scale="   21.332">  1  9  2 -1</clus>
<clus scale="   81.997">  5  6 -1 -1</clus>
<clus scale="   90.768">  7  8 -1 -1</clus>
<clus scale="   94.880">  2  5  1 -1</clus>
<clus scale="   94.880">  2  5  1 -1</clus>
</clustering>
</event>
<event>
 9    1  0.2802611E-005  0.9777498E+02  0.7546771E-02  0.1290549E+00
         -4   -1    0    0    0  501 -0.00000000000E+00  0.00000000000E+00  0.71881931086E+02  0.71881931086E+02  0.00000000000E+00 0.  1.
          3   -1    0    0  502    0  0.00000000000E+00 -0.00000000000E+00 -0.43991566256E+03  0.43991566256E+03  0.00000000000E+00 0. -1.
         23    2    1    2    0    0  0.68739827217E+02 -0.38019974652E+02 -0.26116638951E+02  0.12293607965E+03  0.90887394788E+02 0.  0.
        -24    2    1    2    0    0 -0.25369359475E+02  0.18151507553E+02 -0.32800850183E+03  0.33917044486E+03  0.80460746748E+02 0.  0.
         13    1    4    4    0    0 -0.37691690178E+02  0.40887205037E+02 -0.16488996176E+03  0.17401473080E+03  0.00000000000E+00 0. -1.
        -14    1    4    4    0    0  0.12322330703E+02 -0.22735697484E+02 -0.16311854006E+03  0.16515571406E+03  0.00000000000E+00 0.  1.
        -11    1    3    3    0    0  0.34650488617E+02 -0.56205704577E+02  0.13721950300E+02  0.67439079979E+02  0.00000000000E+00 0.  1.
         11    1    3    3    0    0  0.34089338599E+02  0.18185729925E+02 -0.39838589250E+02  0.55496999671E+02  0.00000000000E+00 0. -1.
         21    1    1    2  502  501 -0.43370467742E+02  0.19868467099E+02 -0.13908590696E+02  0.49691069139E+02  0.00000000000E+00 0. -1.
<scales pt_clust_5="13000.00000" pt_clust_6="13000.00000" pt_clust_7="13000.00000" pt_clust_8="13000.00000" pt_clust_9="47.70486"></scales>
<clustering>
<clus scale="   47.705">  1  9  2 -1</clus>
<clus scale="   80.461">  5  6 -1 -1</clus>
<clus scale="   88.167">  2  5  1 -1</clus>
<clus scale="   90.887">  7  8 -1 -1</clus>
<clus scale="   88.167">  2  5  1 -1</clus>
</clustering>
</event>
<event>
 9    1  0.2802611E-005  0.1088699E+03  0.7546771E-02  0.1266320E+00
         -4   -1    0    0    0  501 -0.00000000000E+00  0.00000000000E+00  0.42217215198E+03  0.42217215198E+03  0.00000000000E+00 0.  1.
          3   -1    0    0  502    0  0.00000000000E+00 -0.00000000000E+00 -0.13790409542E+03  0.13790409542E+03  0.00000000000E+00 0. -1.
        -24    2    1    2    0    0  0.67111394135E+02 -0.39136359585E+02  0.31205164897E+03  0.33343063259E+03  0.88114478148E+02 0.  0.
         23    2    1    2    0    0 -0.44184695692E+02  0.19287746873E+02 -0.10071722841E+03  0.14765880459E+03  0.96617068685E+02 0.  0.
         13    1    3    3    0    0  0.11157272380E+02 -0.23197746510E+02  0.13124133770E+02  0.28893996908E+02  0.00000000000E+00 0. -1.
        -14    1    3    3    0    0  0.55954121754E+02 -0.15938613075E+02  0.29892751520E+03  0.30453663568E+03  0.00000000000E+00 0.  1.
        -13    1    4    4    0    0 -0.59570677724E+02 -0.21282634591E+02 -0.70862941714E+02  0.94990382082E+02  0.00000000000E+00 0. -1.
         13    1    4    4    0    0  0.15385982033E+02  0.40570381464E+02 -0.29854286697E+02  0.52668422508E+02  0.00000000000E+00 0.  1.
         21    1    1    2  502  501 -0.22926698443E+02  0.19848612712E+02  0.72933636005E+02  0.78986810221E+02  0.00000000000E+00 0.  1.
<scales pt_clust_5="13000.00000" pt_clust_6="13000.00000" pt_clust_7="13000.00000" pt_clust_8="13000.00000" pt_clust_9="30.32492"></scales>
<clustering>
<clus scale="   30.325">  1  9  2 -1</clus>
<clus scale="   88.114">  5  6 -1 -1</clus>
<clus scale="   96.617">  7  8 -1 -1</clus>
<clus scale="  101.400">  1  5  2 -1</clus>
<clus scale="  108.870">  2  5  1 -1</clus>
</clustering>
</event>
<event>
 9    1  0.2802611E-005  0.2244678E+03  0.7546771E-02  0.1131431E+00
          1   -1    0    0  502    0  0.00000000000E+00  0.00000000000E+00  0.82695914218E+03  0.82695914218E+03  0.00000000000E+00 0. -1.
         -2   -1    0    0    0  501 -0.00000000000E+00 -0.00000000000E+00 -0.22176124475E+03  0.22176124475E+03  0.00000000000E+00 0.  1.
        -24    2    1    2    0    0 -0.22701770174E+03  0.30821204075E+02 -0.91690579198E+02  0.25945487807E+03  0.80141674039E+02 0.  0.
         23    2    1    2    0    0  0.20261960046E+03 -0.71631832860E+00  0.71329302012E+03  0.74718605379E+03  0.91895869432E+02 0.  0.
         13    1    3    3    0    0 -0.38143797887E+02  0.35992759321E+02 -0.90142243706E+01  0.53213572346E+02  0.00000000000E+00 0. -1.
        -14    1    3    3    0    0 -0.18887390385E+03 -0.51715552453E+01 -0.82676354828E+02  0.20624130572E+03  0.00000000000E+00 0.  1.
        -13    1    4    4    0    0  0.15781274654E+03 -0.38953134839E+02  0.55383399095E+03  0.57719520027E+03  0.00000000000E+00 0. -1.
         13    1    4    4    0    0  0.44806853918E+02  0.38236816511E+02  0.15945902917E+03  0.16999085351E+03  0.00000000000E+00 0.  1.
         21    1    1    2  502  501  0.24398101280E+02 -0.30104885747E+02 -0.16404543498E+02  0.42079455073E+02  0.00000000000E+00 0.  1.
<scales pt_clust_5="13000.00000" pt_clust_6="13000.00000" pt_clust_7="13000.00000" pt_clust_8="13000.00000" pt_clust_9="38.75012"></scales>
<clustering>
<clus scale="   38.750">  2  9  1 -1</clus>
<clus scale="   80.142">  5  6 -1 -1</clus>
<clus scale="   91.896">  7  8 -1 -1</clus>
<clus scale="  219.917">  2  5  1 -1</clus>
<clus scale="  224.468">  1  5  2 -1</clus>
</clustering>
</event>
<event>
 9    1  0.2802611E-005  0.1781793E+03  0.7546771E-02  0.1170761E+00
          1   -1    0    0  502    0  0.00000000000E+00  0.00000000000E+00  0.99843437525E+02  0.99843437525E+02  0.00000000000E+00 0. -1.
         -2   -1    0    0    0  501 -0.00000000000E+00 -0.00000000000E+00 -0.37221317564E+03  0.37221317564E+03  0.00000000000E+00 0.  1.
        -24    2    1    2    0    0 -0.13628744403E+03 -0.65785998999E+02 -0.12453324278E+03  0.21202780252E+03  0.80902382051E+02 0.  0.
         23    2    1    2    0    0  0.14911119482E+03  0.46095227831E+02 -0.99068597700E+02  0.20589487588E+03  0.90659772857E+02 0.  0.
         13    1    3    3    0    0 -0.13841280928E+03 -0.58296445659E+02 -0.86731709505E+02  0.17343289995E+03  0.00000000000E+00 0. -1.
        -14    1    3    3    0    0  0.21253652577E+01 -0.74895533399E+01 -0.37801533280E+02  0.38594902578E+02  0.00000000000E+00 0.  1.
        -11    1    4    4    0    0  0.13596422966E+02  0.38966337210E+02 -0.41370495016E+02  0.58435913708E+02  0.00000000000E+00 0.  1.
         11    1    4    4    0    0  0.13551477185E+03  0.71288906212E+01 -0.57698102684E+02  0.14745896217E+03  0.00000000000E+00 0. -1.
         21    1    1    2  502  501 -0.12823750791E+02  0.19690771168E+02 -0.48767897627E+02  0.54133934759E+02  0.00000000000E+00 0.  1.
<scales pt_clust_5="13000.00000" pt_clust_6="13000.00000" pt_clust_7="13000.00000" pt_clust_8="13000.00000" pt_clust_9="23.49841"></scales>
<clustering>
<clus scale="   23.498">  2  9  1 -1</clus>
<clus scale="   80.902">  5  6 -1 -1</clus>
<clus scale="   90.660">  7  8 -1 -1</clus>
<clus scale="  173.418">  2  5  1 -1</clus>
<clus scale="  178.179">  1  5  2 -1</clus>
</clustering>
</event>
<event>
 9    1  0.2802611E-005  0.9828698E+02  0.7546771E-02  0.1287893E+00
          1   -1    0    0  502    0  0.00000000000E+00  0.00000000000E+00  0.29078110366E+03  0.29078110366E+03  0.00000000000E+00 0. -1.
         -2   -1    0    0    0  501 -0.00000000000E+00 -0.00000000000E+00 -0.41630710912E+03  0.41630710912E+03  0.00000000000E+00 0.  1.
         23    2    1    2    0    0 -0.25889934156E+02 -0.26057670005E+02 -0.30055897947E+03  0.31599831838E+03  0.90387754829E+02 0.  0.
        -24    2    1    2    0    0 -0.63871838874E+00  0.38907852063E+02  0.27347376353E+03  0.28833053654E+03  0.82658151738E+02 0.  0.
         11    1    4    4    0    0  0.39485414685E+02  0.11127755293E+02  0.99079348877E+02  0.10723638508E+03  0.00000000000E+00 0. -1.
        -12    1    4    4    0    0 -0.40124133074E+02  0.27780096770E+02  0.17439441465E+03  0.18109415146E+03  0.00000000000E+00 0.  1.
        -11    1    3    3    0    0 -0.30317846713E+02 -0.57549734103E+02 -0.18312832106E+03  0.19433765899E+03  0.00000000000E+00 0. -1.
         11    1    3    3    0    0  0.44279125570E+01  0.31492064098E+02 -0.11743065841E+03  0.12166065939E+03  0.00000000000E+00 0.  1.
         21    1    1    2  502  501  0.26528652544E+02 -0.12850182059E+02 -0.98440789530E+02  0.10275935786E+03  0.00000000000E+00 0.  1.
<scales pt_clust_5="13000.00000" pt_clust_6="13000.00000" pt_clust_7="13000.00000" pt_clust_8="13000.00000" pt_clust_9="29.47705"></scales>
<clustering>
<clus scale="   29.477">  2  9  1 -1</clus>
<clus scale="   82.658">  5  6 -1 -1</clus>
<clus scale="   90.388">  7  8 -1 -1</clus>
<clus scale="   91.229">  1  5  2 -1</clus>
<clus scale="   91.229">  1  5  2 -1</clus>
</clustering>
</event>
<event>
 9    1  0.2802611E-005  0.9503868E+02  0.7546771E-02  0.1292406E+00
         -2   -1    0    0    0  501 -0.00000000000E+00  0.00000000000E+00  0.59221218685E+02  0.59221218685E+02  0.00000000000E+00 0.  1.
          1   -1    0    0  502    0  0.00000000000E+00 -0.00000000000E+00 -0.46422994112E+03  0.46422994112E+03  0.00000000000E+00 0. -1.
        -24    2    1    2    0    0 -0.74090192220E+01 -0.13359626386E+01 -0.13319125013E+03  0.16119279890E+03  0.90479450385E+02 0.  0.
         23    2    1    2    0    0  0.26781568017E+02 -0.55708277746E+01 -0.30678449367E+03  0.32169123156E+03  0.92845228178E+02 0.  0.
         13    1    3    3    0    0  0.29409548648E+02  0.30237107828E+02 -0.65907969731E+02  0.78250014156E+02  0.00000000000E+00 0. -1.
        -14    1    3    3    0    0 -0.36818567870E+02 -0.31573070466E+02 -0.67283280404E+02  0.82942784741E+02  0.00000000000E+00 0.  1.
        -11    1    4    4    0    0 -0.24450879532E+02  0.24410055052E+02 -0.77593132006E+02  0.84937567849E+02  0.00000000000E+00 0.  1.
         11    1    4    4    0    0  0.51232447549E+02 -0.29980882826E+02 -0.22919136167E+03  0.23675366371E+03  0.00000000000E+00 0. -1.
         21    1    1    2  502  501 -0.19372548795E+02  0.69067904132E+01  0.34967021368E+02  0.40567129354E+02  0.00000000000E+00 0.  1.
<scales pt_clust_5="13000.00000" pt_clust_6="13000.00000" pt_clust_7="13000.00000" pt_clust_8="13000.00000" pt_clust_9="20.56695"></scales>
<clustering>
<clus scale="   20.567">  1  9  2 -1</clus>
<clus scale="   90.479">  5  6 -1 -1</clus>
<clus scale="   92.729">  1  5  2 -1</clus>
<clus scale="   92.845">  7  8 -1 -1</clus>
<clus scale="   95.039">  2  5  1 -1</clus>
</clustering>
</event>
<event>
 9    1  0.2802611E-005  0.1732330E+03  0.7546771E-02  0.1175923E+00
         -2   -1    0    0    0  501 -0.00000000000E+00  0.00000000000E+00  0.50256689852E+02  0.50256689852E+02  0.00000000000E+00 0.  1.
          1   -1    0    0  502    0  0.00000000000E+00 -0.00000000000E+00 -0.83970126113E+03  0.83970126113E+03  0.00000000000E+00 0. -1.
        -24    2    1    2    0    0 -0.11657986312E+03  0.81247186995E+02 -0.17687936755E+03  0.24132896616E+03  0.82227667879E+02 0.  0.
         23    2    1    2    0    0  0.10727396529E+03 -0.10252895772E+03 -0.59290115564E+03  0.61819564312E+03  0.92812617797E+02 0.  0.
         11    1    3    3    0    0  0.53902814400E+00  0.26798963864E+02 -0.65529619452E+02  0.70799760176E+02  0.00000000000E+00 0. -1.
        -12    1    3    3    0    0 -0.11711889126E+03  0.54448223131E+02 -0.11134974809E+03  0.17052920598E+03  0.00000000000E+00 0.  1.
        -11    1    4    4    0    0  0.14067311363E+01 -0.61449019132E+02 -0.20987152983E+03  0.21868703637E+03  0.00000000000E+00 0.  1.
         11    1    4    4    0    0  0.10586723416E+03 -0.41079938586E+02 -0.38302962581E+03  0.39950860675E+03  0.00000000000E+00 0. -1.
         21    1    1    2  502  501  0.93058978234E+01  0.21281770723E+02 -0.19664048093E+02  0.30433341696E+02  0.00000000000E+00 0.  1.
<scales pt_clust_5="13000.00000" pt_clust_6="13000.00000" pt_clust_7="13000.00000" pt_clust_8="13000.00000" pt_clust_9="23.22743"></scales>
<clustering>
<clus scale="   23.227">  1  9  2 -1</clus>
<clus scale="   82.228">  5  6 -1 -1</clus>
<clus scale="   92.813">  7  8 -1 -1</clus>
<clus scale="  167.800">  1  5  2 -1</clus>
<clus scale="  173.233">  2  5  1 -1</clus>
</clustering>
</event>
<event>
 9    1  0.2802611E-005  0.9883396E+02  0.7546771E-02  0.1291678E+00
          1   -1    0    0  502    0  0.00000000000E+00  0.00000000000E+00  0.41164022585E+03  0.41164022585E+03  0.00000000000E+00 0. -1.
         -2   -1    0    0    0  501 -0.00000000000E+00 -0.00000000000E+00 -0.56987647364E+02  0.56987647364E+02  0.00000000000E+00 0.  1.
        -24    2    1    2    0    0 -0.39126143761E+02  0.80490072870E+02  0.10877063230E+03  0.15618346611E+03  0.67473829580E+02 0.  0.
         23    2    1    2    0    0 -0.99504807943E+00 -0.36205363728E+02  0.23361467905E+03  0.25144169125E+03  0.85646292101E+02 0.  0.
         13    1    3    3    0    0  0.14414983088E+02  0.39171993829E+02  0.58736759566E+02  0.72057225607E+02  0.00000000000E+00 0. -1.
        -14    1    3    3    0    0 -0.53541126849E+02  0.41318079041E+02  0.50033872734E+02  0.84126240500E+02  0.00000000000E+00 0.  1.
        -13    1    4    4    0    0 -0.40621649919E+02 -0.16658584768E+02  0.15674433055E+03  0.16277718528E+03  0.00000000000E+00 0. -1.
         13    1    4    4    0    0  0.39626601840E+02 -0.19546778960E+02  0.76870348495E+02  0.88664505970E+02  0.00000000000E+00 0.  1.
         21    1    1    2  502  501  0.40121191841E+02 -0.44284709142E+02  0.12267267140E+02  0.61002715854E+02  0.00000000000E+00 0. -1.
<scales pt_clust_5="13000.00000" pt_clust_6="13000.00000" pt_clust_7="13000.00000" pt_clust_8="13000.00000" pt_clust_9="59.75655"></scales>
<clustering>
<clus scale="   59.757">  2  9  1 -1</clus>
<clus scale="   67.474">  5  6 -1 -1</clus>
<clus scale="   83.580">  2  5  1 -1</clus>
<clus scale="   85.646">  7  8 -1 -1</clus>
<clus scale="   98.834">  1  5  2 -1</clus>
</clustering>
</event>
<event>
 9    1  0.2802611E-005  0.2227899E+03  0.7546771E-02  0.1132636E+00
          1   -1    0    0  502    0  0.00000000000E+00  0.00000000000E+00  0.72602109997E+03  0.72602109997E+03  0.00000000000E+00 0. -1.
         -2   -1    0    0    0  501 -0.00000000000E+00 -0.00000000000E+00 -0.11791929501E+03  0.11791929501E+03  0.00000000000E+00 0.  1.
        -24    2    1    2    0    0  0.25068717953E+02  0.18995629722E+03  0.18393627281E+03  0.27743618300E+03  0.80165127770E+02 0.  0.
         23    2    1    2    0    0 -0.42006502463E+02 -0.20564674101E+03  0.46572442368E+03  0.51896244049E+03  0.91474846198E+02 0.  0.
         11    1    3    3    0    0  0.48663720938E+02  0.15228834754E+03  0.16295449015E+03  0.22828505074E+03  0.00000000000E+00 0. -1.
        -12    1    3    3    0    0 -0.23595002985E+02  0.37667949682E+02  0.20981782660E+02  0.49151132262E+02  0.00000000000E+00 0.  1.
        -13    1    4    4    0    0 -0.60359491104E+02 -0.15911675481E+03  0.41091047765E+03  0.44475704657E+03  0.00000000000E+00 0. -1.
         13    1    4    4    0    0  0.18352988641E+02 -0.46529986198E+02  0.54813946036E+02  0.74205393925E+02  0.00000000000E+00 0.  1.
         21    1    1    2  502  501  0.16937784509E+02  0.15690443795E+02 -0.41558891530E+02  0.47541771483E+02  0.00000000000E+00 0.  1.
<scales pt_clust_5="13000.00000" pt_clust_6="13000.00000" pt_clust_7="13000.00000" pt_clust_8="13000.00000" pt_clust_9="23.08849"></scales>
<clustering>
<clus scale="   23.088">  2  9  1 -1</clus>
<clus scale="   80.165">  5  6 -1 -1</clus>
<clus scale="   91.475">  7  8 -1 -1</clus>
<clus scale="  218.390">  2  5  1 -1</clus>
<clus scale="  222.790">  1  5  2 -1</clus>
</clustering>
</event>
<event>
 9    1  0.2802611E-005  0.1482305E+03  0.7546771E-02  0.1205130E+00
         -2   -1    0    0    0  501 -0.00000000000E+00  0.00000000000E+00  0.97460246898E+02  0.97460246898E+02  0.00000000000E+00 0.  1.
          1   -1    0    0  502    0  0.00000000000E+00 -0.00000000000E+00 -0.41265505660E+03  0.41265505660E+03  0.00000000000E+00 0. -1.
        -24    2    1    2    0    0 -0.72395923517E+02  0.68429917528E+02 -0.28459270056E+02  0.13178552951E+03  0.81447359567E+02 0.  0.
         23    2    1    2    0    0  0.93418147815E+02 -0.74897891384E+02 -0.31057267014E+03  0.34589557306E+03  0.94083577480E+02 0.  0.
         13    1    3    3    0    0 -0.52233980643E+02 -0.41400155446E+01 -0.19617192886E+02  0.55949644496E+02  0.00000000000E+00 0. -1.
        -14    1    3    3    0    0 -0.20161942874E+02  0.72569933073E+02 -0.88420771704E+01  0.75835885011E+02  0.00000000000E+00 0.  1.
        -13    1    4    4    0    0  0.32674133509E+02 -0.39359114004E+02 -0.36267311745E+02  0.62706114191E+02  0.00000000000E+00 0.  1.
         13    1    4    4    0    0  0.60744014306E+02 -0.35538777379E+02 -0.27430535839E+03  0.28318945887E+03  0.00000000000E+00 0. -1.
         21    1    1    2  502  501 -0.21022224297E+02  0.64679738553E+01  0.23837130489E+02  0.32434200933E+02  0.00000000000E+00 0.  1.
<scales pt_clust_5="13000.00000" pt_clust_6="13000.00000" pt_clust_7="13000.00000" pt_clust_8="13000.00000" pt_clust_9="21.99474"></scales>
<clustering>
<clus scale="   21.995">  1  9  2 -1</clus>
<clus scale="   81.447">  5  6 -1 -1</clus>
<clus scale="   94.084">  7  8 -1 -1</clus>
<clus scale="  140.550">  1  5  2 -1</clus>
<clus scale="  148.231">  2  5  1 -1</clus>
</clustering>
</event>
<event>
 9    1  0.2802611E-005  0.1022129E+03  0.7546771E-02  0.1279989E+00
         -2   -1    0    0    0  501 -0.00000000000E+00  0.00000000000E+00  0.15203002504E+04  0.15203002504E+04  0.00000000000E+00 0.  1.
          1   -1    0    0  502    0  0.00000000000E+00 -0.00000000000E+00 -0.15378178748E+02  0.15378178748E+02  0.00000000000E+00 0. -1.
        -24    2    1    2    0    0 -0.29884049061E+02  0.47891684088E+02  0.96167156744E+03  0.96659467787E+03  0.79412831979E+02 0.  0.
         23    2    1    2    0    0 -0.29165651556E+02 -0.45089233790E+02  0.26426236818E+03  0.28390117657E+03  0.88778401562E+02 0.  0.
         11    1    3    3    0    0 -0.82197897324E+01  0.34276277217E+02  0.13495363372E+03  0.13948086384E+03  0.00000000000E+00 0. -1.
        -12    1    3    3    0    0 -0.21664259329E+02  0.13615406871E+02  0.82671793372E+03  0.82711381403E+03  0.00000000000E+00 0.  1.
        -13    1    4    4    0    0 -0.56539585241E+02 -0.44592079649E+02  0.14977697788E+03  0.16618760896E+03  0.00000000000E+00 0.  1.
         13    1    4    4    0    0  0.27373933685E+02 -0.49715414070E+00  0.11448539030E+03  0.11771356761E+03  0.00000000000E+00 0. -1.
         21    1    1    2  502  501  0.59049700617E+02 -0.28024502986E+01  0.27898813605E+03  0.28518257473E+03  0.00000000000E+00 0.  1.
<scales pt_clust_5="13000.00000" pt_clust_6="13000.00000" pt_clust_7="13000.00000" pt_clust_8="13000.00000" pt_clust_9="59.11616"></scales>
<clustering>
<clus scale="   59.116">  2  9  1 -1</clus>
<clus scale="   79.413">  5  6 -1 -1</clus>
<clus scale="   88.778">  7  8 -1 -1</clus>
<clus scale="   94.193">  1  5  2 -1</clus>
<clus scale="   59.116">  2  5  1 -1</clus>
</clustering>
</event>
<event>
 9    1  0.2802611E-005  0.1168187E+03  0.7546771E-02  0.1251117E+00
          1   -1    0    0  502    0  0.00000000000E+00  0.00000000000E+00  0.97487839595E+02  0.97487839595E+02  0.00000000000E+00 0. -1.
         -2   -1    0    0    0  501 -0.00000000000E+00 -0.00000000000E+00 -0.28047181944E+03  0.28047181944E+03  0.00000000000E+00 0.  1.
         23    2    1    2    0    0  0.38041993592E+02  0.38235809531E+02 -0.13711851213E+03  0.17302787287E+03  0.90708257695E+02 0.  0.
        -24    2    1    2    0    0 -0.54432244718E+02 -0.57194156470E+02  0.35545243132E+02  0.11975101902E+03  0.82721227311E+02 0.  0.
         11    1    4    4    0    0 -0.76264018150E+02 -0.49578634404E+02  0.31597233307E+02  0.96294478587E+02  0.00000000000E+00 0. -1.
        -12    1    4    4    0    0  0.21831773432E+02 -0.76155220669E+01  0.39480098250E+01  0.23456540434E+02  0.00000000000E+00 0.  1.
        -11    1    3    3    0    0  0.76745406061E+01  0.58138061339E+02 -0.44709636042E+02  0.73742011803E+02  0.00000000000E+00 0. -1.
         11    1    3    3    0    0  0.30367452986E+02 -0.19902251808E+02 -0.92408876084E+02  0.99285861063E+02  0.00000000000E+00 0.  1.
         21    1    1    2  502  501  0.16390251126E+02  0.18958346939E+02 -0.81410710851E+02  0.85180767148E+02  0.00000000000E+00 0. -1.
<scales pt_clust_5="13000.00000" pt_clust_6="13000.00000" pt_clust_7="13000.00000" pt_clust_8="13000.00000" pt_clust_9="25.06111"></scales>
<clustering>
<clus scale="   25.061">  2  9  1 -1</clus>
<clus scale="   82.721">  5  6 -1 -1</clus>
<clus scale="   90.708">  7  8 -1 -1</clus>
<clus scale="  110.731">  1  5  2 -1</clus>
<clus scale="  110.731">  1  5  2 -1</clus>
</clustering>
</event>
<event>
 9    1  0.2802611E-005  0.1820800E+03  0.7546771E-02  0.1166560E+00
         -2   -1    0    0    0  501 -0.00000000000E+00  0.00000000000E+00  0.21657526971E+03  0.21657526971E+03  0.00000000000E+00 0.  1.
          1   -1    0    0  502    0  0.00000000000E+00 -0.00000000000E+00 -0.35140025824E+03  0.35140025824E+03  0.00000000000E+00 0. -1.
        -24    2    1    2    0    0 -0.82328288719E+02 -0.10332892434E+03  0.23597115114E+02  0.15869804440E+03  0.84696113995E+02 0.  0.
         23    2    1    2    0    0  0.20500249792E+03  0.11655828124E+03 -0.91182543102E+02  0.26876009677E+03  0.91136580866E+02 0.  0.
         13    1    3    3    0    0 -0.32785480997E+02 -0.52805694593E+02 -0.30872562469E+02  0.69400607051E+02  0.00000000000E+00 0. -1.
        -14    1    3    3    0    0 -0.49542807722E+02 -0.50523229745E+02  0.54469677583E+02  0.89297437347E+02  0.00000000000E+00 0.  1.
        -13    1    4    4    0    0  0.11088839677E+03  0.10647320498E+03 -0.31685900153E+02  0.15696106583E+03  0.00000000000E+00 0.  1.
         13    1    4    4    0    0  0.94114101148E+02  0.10085076259E+02 -0.59496642949E+02  0.11179903095E+03  0.00000000000E+00 0. -1.
         21    1    1    2  502  501 -0.12267420920E+03 -0.13229356899E+02 -0.67239560540E+02  0.14051738679E+03  0.00000000000E+00 0.  1.
<scales pt_clust_5="13000.00000" pt_clust_6="13000.00000" pt_clust_7="13000.00000" pt_clust_8="13000.00000" pt_clust_9="123.38548"></scales>
<clustering>
<clus scale="   84.696">  5  6 -1 -1</clus>
<clus scale="   91.137">  7  8 -1 -1</clus>
<clus scale="  123.385">  2  9  1 -1</clus>
<clus scale="  178.943">  1  5  2 -1</clus>
<clus scale="  123.385">  2  5  1 -1</clus>
</clustering>
</event>
<event>
 9    1  0.2802611E-005  0.1004259E+03  0.7546771E-02  0.1284766E+00
         -2   -1    0    0    0  501 -0.00000000000E+00  0.00000000000E+00  0.30794313627E+03  0.30794313627E+03  0.00000000000E+00 0.  1.
          1   -1    0    0  502    0  0.00000000000E+00 -0.00000000000E+00 -0.21408192010E+03  0.21408192010E+03  0.00000000000E+00 0. -1.
        -24    2    1    2    0    0  0.31139333253E+02 -0.57040903695E+02  0.12754779669E+03  0.16750658632E+03  0.86986741811E+02 0.  0.
         23    2    1    2    0    0 -0.12118770516E+02  0.18703460595E+02 -0.17801215461E+03  0.20398138928E+03  0.97074177548E+02 0.  0.
         11    1    3    3    0    0  0.56220234770E+02 -0.30973500846E+02  0.48097442397E+02  0.80208705995E+02  0.00000000000E+00 0. -1.
        -12    1    3    3    0    0 -0.25080901517E+02 -0.26067402848E+02  0.79450354297E+02  0.87297880330E+02  0.00000000000E+00 0.  1.
        -13    1    4    4    0    0 -0.45288527495E+02  0.38361862865E+02 -0.12556907758E+03  0.13888943981E+03  0.00000000000E+00 0. -1.
         13    1    4    4    0    0  0.33169756980E+02 -0.19658402270E+02 -0.52443077022E+02  0.65091949467E+02  0.00000000000E+00 0.  1.
         21    1    1    2  502  501 -0.19020562738E+02  0.38337443100E+02  0.14432557408E+03  0.15053708076E+03  0.00000000000E+00 0.  1.
<scales pt_clust_5="13000.00000" pt_clust_6="13000.00000" pt_clust_7="13000.00000" pt_clust_8="13000.00000" pt_clust_9="42.79651"></scales>
<clustering>
<clus scale="   42.797">  1  9  2 -1</clus>
<clus scale="   86.987">  5  6 -1 -1</clus>
<clus scale="   90.712">  1  5  2 -1</clus>
<clus scale="   97.074">  7  8 -1 -1</clus>
<clus scale="  100.426">  2  5  1 -1</clus>
</clustering>
</event>
<event>
 9    1  0.2802611E-005  0.1288433E+03  0.7546771E-02  0.1240897E+00
         -2   -1    0    0    0  501 -0.00000000000E+00  0.00000000000E+00  0.52534532519E+03  0.52534532519E+03  0.00000000000E+00 0.  1.
          1   -1    0    0  502    0  0.00000000000E+00 -0.00000000000E+00 -0.64936315850E+02  0.64936315850E+02  0.00000000000E+00 0. -1.
         23    2    1    2    0    0 -0.69820215743E+00 -0.56662739968E+02  0.33494485795E+03  0.35899515308E+03  0.11609611741E+03 0.  0.
        -24    2    1    2    0    0 -0.28971844981E+02  0.48888738942E+02 -0.24423836981E+00  0.10189040593E+03  0.84570199077E+02 0.  0.
         13    1    4    4    0    0  0.12708770359E+02  0.41913188272E+02 -0.27395353756E+02  0.51659787093E+02  0.00000000000E+00 0. -1.
        -14    1    4    4    0    0 -0.41680615340E+02  0.69755506703E+01  0.27151115386E+02  0.50230618840E+02  0.00000000000E+00 0.  1.
        -13    1    3    3    0    0 -0.40122133248E+02 -0.75491503633E+02  0.21989117033E+03  0.23592558040E+03  0.00000000000E+00 0.  1.
         13    1    3    3    0    0  0.39423931091E+02  0.18828763665E+02  0.11505368762E+03  0.12306957268E+03  0.00000000000E+00 0. -1.
         21    1    1    2  502  501  0.29670047138E+02  0.77740010262E+01  0.12570838976E+03  0.12939608203E+03  0.00000000000E+00 0.  1.
<scales pt_clust_5="13000.00000" pt_clust_6="13000.00000" pt_clust_7="13000.00000" pt_clust_8="13000.00000" pt_clust_9="30.67160"></scales>
<clustering>
<clus scale="   30.672">  1  9  2 -1</clus>
<clus scale="   84.570">  5  6 -1 -1</clus>
<clus scale="  101.363">  2  5  1 -1</clus>
<clus scale="  116.096">  7  8 -1 -1</clus>
<clus scale="  101.363">  2  5  1 -1</clus>
</clustering>
</event>
<event>
 9    1  0.2802611E-005  0.1205778E+03  0.7546771E-02  0.1244055E+00
         -2   -1    0    0    0  501 -0.00000000000E+00  0.00000000000E+00  0.75259262897E+02  0.75259262897E+02  0.00000000000E+00 0.  1.
          1   -1    0    0  502    0  0.00000000000E+00 -0.00000000000E+00 -0.62205038215E+03  0.62205038215E+03  0.00000000000E+00 0. -1.
         23    2    1    2    0    0 -0.94035162577E+02  0.34739656515E+02 -0.93107218737E+01  0.13354862535E+03  0.87744459974E+02 0.  0.
        -24    2    1    2    0    0  0.68626164780E+02 -0.43258048654E+02 -0.51810437604E+03  0.53069123928E+03  0.81364843222E+02 0.  0.
         11    1    4    4    0    0  0.86724765935E+02 -0.42987457977E+02 -0.43565590174E+03  0.44627925259E+03  0.00000000000E+00 0. -1.
        -12    1    4    4    0    0 -0.18098601155E+02 -0.27059067674E+00 -0.82448474304E+02  0.84411986697E+02  0.00000000000E+00 0.  1.
        -11    1    3    3    0    0 -0.10041005931E+03  0.41880150158E+01 -0.15630305634E+02  0.10170558458E+03  0.00000000000E+00 0.  1.
         11    1    3    3    0    0  0.63748967346E+01  0.30551641499E+02  0.63195837602E+01  0.31843040772E+02  0.00000000000E+00 0. -1.
         21    1    1    2  502  501  0.25408997797E+02  0.85183921387E+01 -0.19376021341E+02  0.33069780415E+02  0.00000000000E+00 0.  1.
<scales pt_clust_5="13000.00000" pt_clust_6="13000.00000" pt_clust_7="13000.00000" pt_clust_8="13000.00000" pt_clust_9="26.79888"></scales>
<clustering>
<clus scale="   26.799">  1  9  2 -1</clus>
<clus scale="   81.365">  5  6 -1 -1</clus>
<clus scale="   87.744">  7  8 -1 -1</clus>
<clus scale="  116.018">  2  5  1 -1</clus>
<clus scale="  116.018">  2  5  1 -1</clus>
</clustering>
</event>
<event>
 9    1  0.2802611E-005  0.1565631E+03  0.7546771E-02  0.1194585E+00
         -2   -1    0    0    0  501 -0.00000000000E+00  0.00000000000E+00  0.26865409293E+03  0.26865409293E+03  0.00000000000E+00 0.  1.
          1   -1    0    0  502    0  0.00000000000E+00 -0.00000000000E+00 -0.32575456915E+03  0.32575456915E+03  0.00000000000E+00 0. -1.
        -24    2    1    2    0    0 -0.58195985995E+02 -0.97941923270E+02  0.17366073887E+03  0.22245578023E+03  0.79681420759E+02 0.  0.
         23    2    1    2    0    0  0.51233020057E+02  0.11789469728E+03 -0.27831409819E+03  0.31991565692E+03  0.91451125200E+02 0.  0.
         13    1    3    3    0    0 -0.32184184537E+02 -0.99652781674E+01  0.97707856118E+02  0.10335353719E+03  0.00000000000E+00 0. -1.
        -14    1    3    3    0    0 -0.26011801458E+02 -0.87976645103E+02  0.75952882755E+02  0.11910224304E+03  0.00000000000E+00 0.  1.
        -13    1    4    4    0    0 -0.33466932662E+01  0.26556298191E+02 -0.15388560882E+03  0.15619608808E+03  0.00000000000E+00 0.  1.
         13    1    4    4    0    0  0.54579713323E+02  0.91338399093E+02 -0.12442848938E+03  0.16371956885E+03  0.00000000000E+00 0. -1.
         21    1    1    2  502  501  0.69629659387E+01 -0.19952774014E+02  0.47552883101E+02  0.52037224914E+02  0.00000000000E+00 0.  1.
<scales pt_clust_5="13000.00000" pt_clust_6="13000.00000" pt_clust_7="13000.00000" pt_clust_8="13000.00000" pt_clust_9="21.13282"></scales>
<clustering>
<clus scale="   21.133">  1  9  2 -1</clus>
<clus scale="   79.681">  5  6 -1 -1</clus>
<clus scale="   91.451">  7  8 -1 -1</clus>
<clus scale="  149.993">  1  5  2 -1</clus>
<clus scale="  156.563">  2  5  1 -1</clus>
</clustering>
</event>
<event>
 9    1  0.2802611E-005  0.1261578E+03  0.7546771E-02  0.1235420E+00
         -2   -1    0    0    0  501 -0.00000000000E+00  0.00000000000E+00  0.32929265335E+03  0.32929265335E+03  0.00000000000E+00 0.  1.
          1   -1    0    0  502    0  0.00000000000E+00 -0.00000000000E+00 -0.20964441382E+03  0.20964441382E+03  0.00000000000E+00 0. -1.
         23    2    1    2    0    0  0.79281308628E+01  0.82179519703E+02  0.71817413224E+02  0.14037332180E+03  0.87923830183E+02 0.  0.
        -24    2    1    2    0    0  0.68757412219E+02 -0.69794055551E+02 -0.14398159656E+03  0.19161912040E+03  0.79927437294E+02 0.  0.
         11    1    4    4    0    0  0.22932070640E+02 -0.46381731077E+02 -0.12747716593E+03  0.13757751515E+03  0.00000000000E+00 0. -1.
        -12    1    4    4    0    0  0.45825341579E+02 -0.23412324475E+02 -0.16504430627E+02  0.54041605254E+02  0.00000000000E+00 0.  1.
        -11    1    3    3    0    0  0.22493343451E+02  0.65597389878E+02  0.44575147726E+01  0.69489837361E+02  0.00000000000E+00 0. -1.
         11    1    3    3    0    0 -0.14565212588E+02  0.16582129825E+02  0.67359898452E+02  0.70883484442E+02  0.00000000000E+00 0.  1.
         21    1    1    2  502  501 -0.76685543082E+02 -0.12385464152E+02  0.19181242286E+03  0.20694462497E+03  0.00000000000E+00 0.  1.
<scales pt_clust_5="13000.00000" pt_clust_6="13000.00000" pt_clust_7="13000.00000" pt_clust_8="13000.00000" pt_clust_9="77.67929"></scales>
<clustering>
<clus scale="   77.679">  1  9  2 -1</clus>
<clus scale="   79.927">  5  6 -1 -1</clus>
<clus scale="   87.924">  7  8 -1 -1</clus>
<clus scale="  120.721">  2  5  1 -1</clus>
<clus scale="  120.721">  2  5  1 -1</clus>
</clustering>
</event>
<event>
 9    1  0.2802611E-005  0.1065789E+03  0.7546771E-02  0.1270658E+00
         -4   -1    0    0    0  501 -0.00000000000E+00  0.00000000000E+00  0.54800795501E+02  0.54800795501E+02  0.00000000000E+00 0.  1.
          3   -1    0    0  502    0  0.00000000000E+00 -0.00000000000E+00 -0.39085887643E+03  0.39085887643E+03  0.00000000000E+00 0. -1.
        -24    2    1    2    0    0  0.32553575499E+02 -0.94605039705E+01 -0.20437267023E+02  0.90965679098E+02  0.81901382633E+02 0.  0.
         23    2    1    2    0    0 -0.60126009870E+02  0.16487497363E+02 -0.30520623522E+03  0.32439413768E+03  0.90519257127E+02 0.  0.
         13    1    3    3    0    0  0.38016125021E+02 -0.19524861390E+02 -0.46101070090E+02  0.62862983045E+02  0.00000000000E+00 0. -1.
        -14    1    3    3    0    0 -0.54625495217E+01  0.10064357420E+02  0.25663803067E+02  0.28102696053E+02  0.00000000000E+00 0.  1.
        -13    1    4    4    0    0 -0.28810404423E+01 -0.33662399513E+02 -0.90887314267E+02  0.96963711922E+02  0.00000000000E+00 0.  1.
         13    1    4    4    0    0 -0.57244969427E+02  0.50149896876E+02 -0.21431892095E+03  0.22743042576E+03  0.00000000000E+00 0. -1.
         21    1    1    2  502  501  0.27572434371E+02 -0.70269933920E+01 -0.10414578689E+02  0.30299855157E+02  0.00000000000E+00 0.  1.
<scales pt_clust_5="13000.00000" pt_clust_6="13000.00000" pt_clust_7="13000.00000" pt_clust_8="13000.00000" pt_clust_9="28.45378"></scales>
<clustering>
<clus scale="   28.454">  1  9  2 -1</clus>
<clus scale="   81.901">  5  6 -1 -1</clus>
<clus scale="   90.519">  7  8 -1 -1</clus>
<clus scale="   99.364">  1  5  2 -1</clus>
<clus scale="  106.579">  2  5  1 -1</clus>
</clustering>
</event>
<event>
 9    1  0.2802611E-005  0.1081110E+03  0.7546771E-02  0.1268784E+00
         -2   -1    0    0    0  501 -0.00000000000E+00  0.00000000000E+00  0.55086102729E+02  0.55086102729E+02  0.00000000000E+00 0.  1.
          1   -1    0    0  502    0  0.00000000000E+00 -0.00000000000E+00 -0.49209742640E+03  0.49209742640E+03  0.00000000000E+00 0. -1.
         23    2    1    2    0    0  0.81113275910E+02 -0.13391681771E+02 -0.86736046826E+02  0.15062535504E+03  0.91685086535E+02 0.  0.
        -24    2    1    2    0    0 -0.31721703677E+02  0.46087624862E+02 -0.30955066639E+03  0.32467600662E+03  0.80390040210E+02 0.  0.
         11    1    4    4    0    0 -0.12903646232E+02  0.67905313324E+02 -0.21625986793E+03  0.22703736728E+03  0.00000000000E+00 0. -1.
        -12    1    4    4    0    0 -0.18818057445E+02 -0.21817688462E+02 -0.93290798461E+02  0.97638639346E+02  0.00000000000E+00 0.  1.
        -11    1    3    3    0    0  0.42672753122E+02 -0.19648208366E+02  0.84926568992E+01  0.47740351614E+02  0.00000000000E+00 0.  1.
         11    1    3    3    0    0  0.38440522788E+02  0.62565265947E+01 -0.95228703726E+02  0.10288500343E+03  0.00000000000E+00 0. -1.
         21    1    1    2  502  501 -0.49391572233E+02 -0.32695943090E+02 -0.40724610449E+02  0.71882167458E+02  0.00000000000E+00 0.  1.
<scales pt_clust_5="13000.00000" pt_clust_6="13000.00000" pt_clust_7="13000.00000" pt_clust_8="13000.00000" pt_clust_9="59.23303"></scales>
<clustering>
<clus scale="   59.233">  1  9  2 -1</clus>
<clus scale="   80.390">  5  6 -1 -1</clus>
<clus scale="   91.685">  7  8 -1 -1</clus>
<clus scale="   98.714">  2  5  1 -1</clus>
<clus scale="   98.714">  2  5  1 -1</clus>
</clustering>
</event>
<event>
 9    1  0.2802611E-005  0.9912805E+02  0.7546771E-02  0.1282345E+00
          1   -1    0    0  502    0  0.00000000000E+00  0.00000000000E+00  0.57096323060E+03  0.57096323060E+03  0.00000000000E+00 0. -1.
         -2   -1    0    0    0  501 -0.00000000000E+00 -0.00000000000E+00 -0.29722572141E+03  0.29722572141E+03  0.00000000000E+00 0.  1.
        -24    2    1    2    0    0  0.76100534544E+02  0.39131770876E+02 -0.10947614652E+03  0.16643788318E+03  0.91618532254E+02 0.  0.
         23    2    1    2    0    0 -0.30324963802E+02 -0.17948729306E+02  0.53386271741E+03  0.54288236858E+03  0.92033172061E+02 0.  0.
         11    1    3    3    0    0  0.50427951536E+02 -0.11218828551E+02 -0.10883660548E+02  0.52794833811E+02  0.00000000000E+00 0. -1.
        -12    1    3    3    0    0  0.25672583008E+02  0.50350599426E+02 -0.98592485971E+02  0.11364304937E+03  0.00000000000E+00 0.  1.
        -13    1    4    4    0    0  0.89089757664E+00  0.36098814289E+02  0.20153385453E+03  0.20474328466E+03  0.00000000000E+00 0.  1.
         13    1    4    4    0    0 -0.31215861378E+02 -0.54047543595E+02  0.33232886288E+03  0.33813908392E+03  0.00000000000E+00 0. -1.
         21    1    1    2  502  501 -0.45775570743E+02 -0.21183041570E+02 -0.15064906170E+03  0.15886870024E+03  0.00000000000E+00 0.  1.
<scales pt_clust_5="13000.00000" pt_clust_6="13000.00000" pt_clust_7="13000.00000" pt_clust_8="13000.00000" pt_clust_9="50.43931"></scales>
<clustering>
<clus scale="   50.439">  2  9  1 -1</clus>
<clus scale="   91.619">  5  6 -1 -1</clus>
<clus scale="   92.033">  7  8 -1 -1</clus>
<clus scale="   98.743">  2  5  1 -1</clus>
<clus scale="   99.128">  1  5  2 -1</clus>
</clustering>
</event>
<event>
 9    1  0.2802611E-005  0.1023637E+03  0.7546771E-02  0.1277640E+00
          1   -1    0    0  502    0  0.00000000000E+00  0.00000000000E+00  0.68682064730E+02  0.68682064730E+02  0.00000000000E+00 0. -1.
         -2   -1    0    0    0  501 -0.00000000000E+00 -0.00000000000E+00 -0.26883506604E+03  0.26883506604E+03  0.00000000000E+00 0.  1.
         23    2    1    2    0    0  0.24872658484E+02 -0.13444585382E+02 -0.13711676037E+03  0.16421344644E+03  0.85823330155E+02 0.  0.
        -24    2    1    2    0    0 -0.52942695678E+02  0.39265332642E+02 -0.55464866885E+01  0.10431303409E+03  0.80658230789E+02 0.  0.
         11    1    4    4    0    0 -0.44021937745E+02  0.68245016368E+01  0.31278838083E+02  0.54432256404E+02  0.00000000000E+00 0. -1.
        -12    1    4    4    0    0 -0.89207579332E+01  0.32440831005E+02 -0.36825324771E+02  0.49880777690E+02  0.00000000000E+00 0.  1.
        -13    1    3    3    0    0 -0.58318939371E-01 -0.28529342628E+02 -0.13147267276E+03  0.13453248854E+03  0.00000000000E+00 0.  1.
         13    1    3    3    0    0  0.24930977423E+02  0.15084757246E+02 -0.56440876180E+01  0.29680957894E+02  0.00000000000E+00 0. -1.
         21    1    1    2  502  501  0.28070037194E+02 -0.25820747260E+02 -0.57489754252E+02  0.68990650245E+02  0.00000000000E+00 0. -1.
<scales pt_clust_5="13000.00000" pt_clust_6="13000.00000" pt_clust_7="13000.00000" pt_clust_8="13000.00000" pt_clust_9="38.13972"></scales>
<clustering>
<clus scale="   38.140">  2  9  1 -1</clus>
<clus scale="   80.658">  5  6 -1 -1</clus>
<clus scale="   85.823">  7  8 -1 -1</clus>
<clus scale="   98.074">  1  5  2 -1</clus>
<clus scale="   98.074">  1  5  2 -1</clus>
</clustering>
</event>
<event>
 9    1  0.2802611E-005  0.2344327E+03  0.7546771E-02  0.1124091E+00
          1   -1    0    0  502    0  0.00000000000E+00  0.00000000000E+00  0.96279899177E+03  0.96279899177E+03  0.00000000000E+00 0. -1.
         -2   -1    0    0    0  501 -0.00000000000E+00 -0.00000000000E+00 -0.10784034881E+03  0.10784034881E+03  0.00000000000E+00 0.  1.
        -24    2    1    2    0    0 -0.67335735030E+02  0.19635305805E+03  0.15066013207E+03  0.26966205400E+03  0.83249764899E+02 0.  0.
         23    2    1    2    0    0  0.50441654132E+02 -0.21280669552E+03  0.72914924059E+03  0.76671811376E+03  0.91471311303E+02 0.  0.
         13    1    3    3    0    0 -0.68067142999E+02  0.80543264886E+02  0.52263264074E+02  0.11769367972E+03  0.00000000000E+00 0. -1.
        -14    1    3    3    0    0  0.73140796915E+00  0.11580979316E+03  0.98396867999E+02  0.15196837428E+03  0.00000000000E+00 0.  1.
        -13    1    4    4    0    0 -0.20146766607E+02 -0.10953664818E+02  0.82571229935E+02  0.85696458449E+02  0.00000000000E+00 0.  1.
         13    1    4    4    0    0  0.70588420740E+02 -0.20185303070E+03  0.64657801065E+03  0.68102165531E+03  0.00000000000E+00 0. -1.
         21    1    1    2  502  501  0.16894080897E+02  0.16453637475E+02 -0.24850729697E+02  0.34259172816E+02  0.00000000000E+00 0. -1.
<scales pt_clust_5="13000.00000" pt_clust_6="13000.00000" pt_clust_7="13000.00000" pt_clust_8="13000.00000" pt_clust_9="23.58245"></scales>
<clustering>
<clus scale="   23.582">  2  9  1 -1</clus>
<clus scale="   83.250">  5  6 -1 -1</clus>
<clus scale="   91.471">  7  8 -1 -1</clus>
<clus scale="  231.349">  2  5  1 -1</clus>
<clus scale="  234.433">  1  5  2 -1</clus>
</clustering>
</event>
<event>
 9    1  0.2802611E-005  0.9717616E+02  0.7546771E-02  0.1291954E+00
         -2   -1    0    0    0  501 -0.00000000000E+00  0.00000000000E+00  0.29643966845E+02  0.29643966845E+02  0.00000000000E+00 0.  1.
          1   -1    0    0  502    0  0.00000000000E+00 -0.00000000000E+00 -0.56337183797E+03  0.56337183797E+03  0.00000000000E+00 0. -1.
        -24    2    1    2    0    0 -0.26026074650E+02 -0.19784319226E+02 -0.74804971631E+02  0.11418747917E+03  0.79838717238E+02 0.  0.
         23    2    1    2    0    0  0.21765229330E+02  0.48809415850E+02 -0.39085159760E+03  0.40470469123E+03  0.90359457028E+02 0.  0.
         11    1    3    3    0    0 -0.31526981989E+02  0.17391615670E+02 -0.66617498762E+02  0.75725227172E+02  0.00000000000E+00 0. -1.
        -12    1    3    3    0    0  0.55009073392E+01 -0.37175934896E+02 -0.81874728687E+01  0.38462252000E+02  0.00000000000E+00 0.  1.
        -11    1    4    4    0    0  0.45349433977E+02 -0.87868503986E+00 -0.11913773557E+03  0.12747997210E+03  0.00000000000E+00 0.  1.
         11    1    4    4    0    0 -0.23584204647E+02  0.49688100890E+02 -0.27171386203E+03  0.27722471913E+03  0.00000000000E+00 0. -1.
         21    1    1    2  502  501  0.42608453196E+01 -0.29025096624E+02 -0.68071301893E+02  0.74123634411E+02  0.00000000000E+00 0. -1.
<scales pt_clust_5="13000.00000" pt_clust_6="13000.00000" pt_clust_7="13000.00000" pt_clust_8="13000.00000" pt_clust_9="29.33617"></scales>
<clustering>
<clus scale="   29.336">  2  9  1 -1</clus>
<clus scale="   79.839">  5  6 -1 -1</clus>
<clus scale="   87.479">  1  5  2 -1</clus>
<clus scale="   90.359">  7  8 -1 -1</clus>
<clus scale="   29.336">  2  5  1 -1</clus>
</clustering>
</event>
<event>
 9    1  0.2802611E-005  0.9202936E+02  0.7546771E-02  0.1302865E+00
          1   -1    0    0  502    0  0.00000000000E+00  0.00000000000E+00  0.25976509624E+03  0.25976509624E+03  0.00000000000E+00 0. -1.
         -2   -1    0    0    0  501 -0.00000000000E+00 -0.00000000000E+00 -0.11456892499E+03  0.11456892499E+03  0.00000000000E+00 0.  1.
        -24    2    1    2    0    0 -0.34673539516E+02 -0.20476841870E+02 -0.72400212684E+01  0.91792963261E+02  0.82170401002E+02 0.  0.
         23    2    1    2    0    0  0.71263135026E+01 -0.20931197587E+02  0.19569832205E+03  0.21662378221E+03  0.90217129134E+02 0.  0.
         11    1    3    3    0    0  0.21432665750E+02 -0.19741643315E+02  0.13312774870E+02  0.32036254723E+02  0.00000000000E+00 0. -1.
        -12    1    3    3    0    0 -0.56106205266E+02 -0.73519855479E+00 -0.20552796138E+02  0.59756708539E+02  0.00000000000E+00 0.  1.
        -13    1    4    4    0    0 -0.40562573969E+02 -0.11225060900E+02  0.11410007512E+03  0.12161476696E+03  0.00000000000E+00 0.  1.
         13    1    4    4    0    0  0.47688887471E+02 -0.97061366869E+01  0.81598246927E+02  0.95009015252E+02  0.00000000000E+00 0. -1.
         21    1    1    2  502  501  0.27547226014E+02  0.41408039457E+02 -0.43262129531E+02  0.65917275765E+02  0.00000000000E+00 0.  1.
<scales pt_clust_5="13000.00000" pt_clust_6="13000.00000" pt_clust_7="13000.00000" pt_clust_8="13000.00000" pt_clust_9="49.73405"></scales>
<clustering>
<clus scale="   49.734">  2  9  1 -1</clus>
<clus scale="   82.170">  5  6 -1 -1</clus>
<clus scale="   84.156">  2  5  1 -1</clus>
<clus scale="   90.217">  7  8 -1 -1</clus>
<clus scale="   92.029">  1  5  2 -1</clus>
</clustering>
</event>
<event>
 9    1  0.2802611E-005  0.1127163E+03  0.7546771E-02  0.1260123E+00
         -4   -1    0    0    0  501 -0.00000000000E+00  0.00000000000E+00  0.76642699369E+02  0.76642699369E+02  0.00000000000E+00 0.  1.
          3   -1    0    0  502    0  0.00000000000E+00 -0.00000000000E+00 -0.32014215988E+03  0.32014215988E+03  0.00000000000E+00 0. -1.
        -24    2    1    2    0    0 -0.15023453100E+02 -0.93029185657E+02 -0.56873838274E+02  0.13628564919E+03  0.80367973529E+02 0.  0.
         23    2    1    2    0    0  0.16762020785E+02  0.51793345317E+02 -0.19097211940E+03  0.21899849701E+03  0.92338915650E+02 0.  0.
         11    1    3    3    0    0  0.18496254396E+02 -0.87356144577E+02 -0.46878238560E+02  0.10085026858E+03  0.00000000000E+00 0. -1.
        -12    1    3    3    0    0 -0.33519707496E+02 -0.56730410803E+01 -0.99955997141E+01  0.35435380615E+02  0.00000000000E+00 0.  1.
        -11    1    4    4    0    0  0.49895052065E+02  0.55005296253E+01 -0.93323090714E+02  0.10596684060E+03  0.00000000000E+00 0. -1.
         11    1    4    4    0    0 -0.33133031280E+02  0.46292815692E+02 -0.97649028686E+02  0.11303165641E+03  0.00000000000E+00 0.  1.
         21    1    1    2  502  501 -0.17385676853E+01  0.41235840340E+02  0.43464971605E+01  0.41500713051E+02  0.00000000000E+00 0.  1.
<scales pt_clust_5="13000.00000" pt_clust_6="13000.00000" pt_clust_7="13000.00000" pt_clust_8="13000.00000" pt_clust_9="41.27247"></scales>
<clustering>
<clus scale="   41.272">  1  9  2 -1</clus>
<clus scale="   80.368">  5  6 -1 -1</clus>
<clus scale="   92.339">  7  8 -1 -1</clus>
<clus scale="  103.138">  1  5  2 -1</clus>
<clus scale="  112.716">  2  5  1 -1</clus>
</clustering>
</event>
<event>
 9    1  0.2802611E-005  0.8525828E+02  0.7546771E-02  0.1317476E+00
         -2   -1    0    0    0  501 -0.00000000000E+00  0.00000000000E+00  0.25142253401E+03  0.25142253401E+03  0.00000000000E+00 0.  1.
          1   -1    0    0  502    0  0.00000000000E+00 -0.00000000000E+00 -0.10644600975E+03  0.10644600975E+03  0.00000000000E+00 0. -1.
        -24    2    1    2    0    0 -0.86730584833E+01  0.73767339521E+00  0.19896682010E+03  0.21472573905E+03  0.80271921630E+02 0.  0.
         23    2    1    2    0    0 -0.12346887537E+02 -0.66520270746E+01 -0.74314440414E+02  0.11331180469E+03  0.84381478602E+02 0.  0.
         11    1    3    3    0    0 -0.27358392109E+02 -0.23578774940E+02  0.44834625829E+02  0.57572423257E+02  0.00000000000E+00 0. -1.
        -12    1    3    3    0    0  0.18685333625E+02  0.24316448335E+02  0.15413219427E+03  0.15715331579E+03  0.00000000000E+00 0.  1.
        -13    1    4    4    0    0 -0.24376381005E+01  0.38670295388E+02 -0.28407131657E+02  0.48044759900E+02  0.00000000000E+00 0.  1.
         13    1    4    4    0    0 -0.99092494361E+01 -0.45322322462E+02 -0.45907308757E+02  0.65267044786E+02  0.00000000000E+00 0. -1.
         21    1    1    2  502  501  0.21019946020E+02  0.59143536794E+01  0.20324144575E+02  0.29831000031E+02  0.00000000000E+00 0.  1.
<scales pt_clust_5="13000.00000" pt_clust_6="13000.00000" pt_clust_7="13000.00000" pt_clust_8="13000.00000" pt_clust_9="21.83616"></scales>
<clustering>
<clus scale="   21.836">  1  9  2 -1</clus>
<clus scale="   80.272">  5  6 -1 -1</clus>
<clus scale="   81.193">  1  5  2 -1</clus>
<clus scale="   84.381">  7  8 -1 -1</clus>
<clus scale="   85.258">  2  5  1 -1</clus>
</clustering>
</event>
<event>
 9    1  0.2802611E-005  0.1003478E+03  0.7546771E-02  0.1285100E+00
         -2   -1    0    0    0  501 -0.00000000000E+00  0.00000000000E+00  0.32148684787E+03  0.32148684787E+03  0.00000000000E+00 0.  1.
          1   -1    0    0  502    0  0.00000000000E+00 -0.00000000000E+00 -0.44568539052E+02  0.44568539052E+02  0.00000000000E+00 0. -1.
         23    2    1    2    0    0  0.23505573152E+02  0.60260494674E+01  0.17117320044E+03  0.19571387781E+03  0.91732394372E+02 0.  0.
        -24    2    1    2    0    0 -0.45890978643E+02  0.20745965241E+02  0.58686661558E+02  0.11175529429E+03  0.80676790724E+02 0.  0.
         13    1    4    4    0    0  0.13535193079E+02  0.30123538428E+02  0.10433943198E+02  0.34633743513E+02  0.00000000000E+00 0. -1.
        -14    1    4    4    0    0 -0.59426171722E+02 -0.93775731870E+01  0.48252718360E+02  0.77121550772E+02  0.00000000000E+00 0.  1.
        -11    1    3    3    0    0  0.28857031351E+02  0.32491438899E+02  0.32054643887E+02  0.53999278281E+02  0.00000000000E+00 0. -1.
         11    1    3    3    0    0 -0.53514581985E+01 -0.26465389432E+02  0.13911855655E+03  0.14171459953E+03  0.00000000000E+00 0.  1.
         21    1    1    2  502  501  0.22385405491E+02 -0.26772014708E+02  0.47058446825E+02  0.58586214830E+02  0.00000000000E+00 0. -1.
<scales pt_clust_5="13000.00000" pt_clust_6="13000.00000" pt_clust_7="13000.00000" pt_clust_8="13000.00000" pt_clust_9="34.89767"></scales>
<clustering>
<clus scale="   34.898">  1  9  2 -1</clus>
<clus scale="   80.677">  5  6 -1 -1</clus>
<clus scale="   90.353">  2  5  1 -1</clus>
<clus scale="   91.732">  7  8 -1 -1</clus>
<clus scale="   90.353">  2  5  1 -1</clus>
</clustering>
</event>
<event>
 9    1  0.2802611E-005  0.1882330E+03  0.7546771E-02  0.1161145E+00
          1   -1    0    0  502    0  0.00000000000E+00  0.00000000000E+00  0.35861158644E+03  0.35861158644E+03  0.00000000000E+00 0. -1.
         -2   -1    0    0    0  501 -0.00000000000E+00 -0.00000000000E+00 -0.12914178832E+03  0.12914178832E+03  0.00000000000E+00 0.  1.
        -24    2    1    2    0    0  0.10991595917E+02  0.17240053745E+03  0.80716203625E+02  0.20680179510E+03  0.80056957440E+02 0.  0.
         23    2    1    2    0    0  0.16059081577E+02 -0.16030533665E+03  0.16457720462E+03  0.24735962121E+03  0.90252040768E+02 0.  0.
         11    1    3    3    0    0  0.35246173566E+02  0.14408095516E+03  0.82013257272E+02  0.16949273955E+03  0.00000000000E+00 0. -1.
        -12    1    3    3    0    0 -0.24254577649E+02  0.28319582292E+02 -0.12970536467E+01  0.37309055553E+02  0.00000000000E+00 0.  1.
        -11    1    4    4    0    0 -0.67362293575E+01 -0.11157467575E+03  0.15744729392E+03  0.19309048505E+03  0.00000000000E+00 0. -1.
         11    1    4    4    0    0  0.22795310934E+02 -0.48730660901E+02  0.71299107007E+01  0.54269136155E+02  0.00000000000E+00 0.  1.
         21    1    1    2  502  501 -0.27050677494E+02 -0.12095200803E+02 -0.15823610121E+02  0.33591958451E+02  0.00000000000E+00 0.  1.
<scales pt_clust_5="13000.00000" pt_clust_6="13000.00000" pt_clust_7="13000.00000" pt_clust_8="13000.00000" pt_clust_9="29.63162"></scales>
<clustering>
<clus scale="   29.632">  2  9  1 -1</clus>
<clus scale="   80.057">  5  6 -1 -1</clus>
<clus scale="   90.252">  7  8 -1 -1</clus>
<clus scale="  183.563">  2  5  1 -1</clus>
<clus scale="  188.233">  1  5  2 -1</clus>
</clustering>
</event>
<event>
 9    1  0.2802611E-005  0.1106685E+03  0.7546771E-02  0.1263539E+00
          1   -1    0    0  502    0  0.00000000000E+00  0.00000000000E+00  0.49097717073E+03  0.49097717073E+03  0.00000000000E+00 0. -1.
         -2   -1    0    0    0  501 -0.00000000000E+00 -0.00000000000E+00 -0.27989492244E+03  0.27989492244E+03  0.00000000000E+00 0.  1.
        -24    2    1    2    0    0  0.30253376809E+02 -0.54843743938E+02 -0.63734120622E+02  0.12039600206E+03  0.80684918807E+02 0.  0.
         23    2    1    2    0    0 -0.52219889588E+02  0.34731245498E+02  0.45475577382E+03  0.46808851007E+03  0.91492421265E+02 0.  0.
         11    1    3    3    0    0 -0.22806640601E+02  0.30016179625E+01 -0.89947904290E+01  0.24699368833E+02  0.00000000000E+00 0. -1.
        -12    1    3    3    0    0  0.53060017410E+02 -0.57845361900E+02 -0.54739330193E+02  0.95696633227E+02  0.00000000000E+00 0.  1.
        -11    1    4    4    0    0 -0.28663066143E+02 -0.29033219097E+02  0.21718998437E+03  0.22098866143E+03  0.00000000000E+00 0.  1.
         11    1    4    4    0    0 -0.23556823445E+02  0.63764464595E+02  0.23756578946E+03  0.24709984864E+03  0.00000000000E+00 0. -1.
         21    1    1    2  502  501  0.21966512779E+02  0.20112498440E+02 -0.17993940491E+03  0.18238758104E+03  0.00000000000E+00 0.  1.
<scales pt_clust_5="13000.00000" pt_clust_6="13000.00000" pt_clust_7="13000.00000" pt_clust_8="13000.00000" pt_clust_9="29.78322"></scales>
<clustering>
<clus scale="   29.783">  2  9  1 -1</clus>
<clus scale="   80.685">  5  6 -1 -1</clus>
<clus scale="   91.492">  7  8 -1 -1</clus>
<clus scale="  101.915">  2  5  1 -1</clus>
<clus scale="  110.668">  1  5  2 -1</clus>
</clustering>
</event>
<event>
 9    1  0.2802611E-005  0.2789305E+03  0.7546771E-02  0.1096853E+00
          1   -1    0    0  502    0  0.00000000000E+00  0.00000000000E+00  0.54888539866E+03  0.54888539866E+03  0.00000000000E+00 0. -1.
         -2   -1    0    0    0  501 -0.00000000000E+00 -0.00000000000E+00 -0.16536926259E+03  0.16536926259E+03  0.00000000000E+00 0.  1.
        -24    2    1    2    0    0  0.12703857278E+03 -0.20755449445E+03  0.10592907413E+03  0.27700896849E+03  0.79343132913E+02 0.  0.
         23    2    1    2    0    0 -0.14005972517E+03  0.23967110083E+03  0.27639340331E+03  0.40256930835E+03  0.92788854090E+02 0.  0.
         13    1    3    3    0    0  0.37466128625E+02 -0.96162845937E+01  0.16996541012E+02  0.42250042958E+02  0.00000000000E+00 0. -1.
        -14    1    3    3    0    0  0.89572444151E+02 -0.19793820985E+03  0.88932533119E+02  0.23475892553E+03  0.00000000000E+00 0.  1.
        -11    1    4    4    0    0 -0.12201656770E+03  0.11868614126E+03  0.16716459265E+03  0.23857586625E+03  0.00000000000E+00 0. -1.
         11    1    4    4    0    0 -0.18043157468E+02  0.12098495957E+03  0.10922881066E+03  0.16399344210E+03  0.00000000000E+00 0.  1.
         21    1    1    2  502  501  0.13021152393E+02 -0.32116606383E+02  0.11936586225E+01  0.34676384415E+02  0.00000000000E+00 0.  1.
<scales pt_clust_5="13000.00000" pt_clust_6="13000.00000" pt_clust_7="13000.00000" pt_clust_8="13000.00000" pt_clust_9="34.65583"></scales>
<clustering>
<clus scale="   34.656">  2  9  1 -1</clus>
<clus scale="   79.343">  5  6 -1 -1</clus>
<clus scale="   92.789">  7  8 -1 -1</clus>
<clus scale="  274.750">  2  5  1 -1</clus>
<clus scale="  278.931">  1  5  2 -1</clus>
</clustering>
</event>
<event>
 9    1  0.2802611E-005  0.1023338E+03  0.7546771E-02  0.1280412E+00
         -2   -1    0    0    0  501 -0.00000000000E+00  0.00000000000E+00  0.78546429044E+02  0.78546429044E+02  0.00000000000E+00 0.  1.
          1   -1    0    0  502    0  0.00000000000E+00 -0.00000000000E+00 -0.36461167460E+03  0.36461167460E+03  0.00000000000E+00 0. -1.
        -24    2    1    2    0    0 -0.28237381006E+00  0.23649770836E+02  0.30358761091E+02  0.90751674262E+02  0.82187715693E+02 0.  0.
         23    2    1    2    0    0  0.38485034238E+01 -0.46373275681E+02 -0.31232225996E+03  0.32904194183E+03  0.92510073718E+02 0.  0.
         13    1    3    3    0    0  0.33432613368E+02 -0.11771480362E+02  0.20232943957E+02  0.40812735852E+02  0.00000000000E+00 0. -1.
        -14    1    3    3    0    0 -0.33714987178E+02  0.35421251199E+02  0.10125817134E+02  0.49938938410E+02  0.00000000000E+00 0.  1.
        -13    1    4    4    0    0  0.31591964856E+02 -0.62920881981E+02 -0.19366519763E+03  0.20606624762E+03  0.00000000000E+00 0.  1.
         13    1    4    4    0    0 -0.27743461433E+02  0.16547606300E+02 -0.11865706232E+03  0.12297569421E+03  0.00000000000E+00 0. -1.
         21    1    1    2  502  501 -0.35661296137E+01  0.22723504845E+02 -0.41017466890E+01  0.23364487556E+02  0.00000000000E+00 0. -1.
<scales pt_clust_5="13000.00000" pt_clust_6="13000.00000" pt_clust_7="13000.00000" pt_clust_8="13000.00000" pt_clust_9="23.00163"></scales>
<clustering>
<clus scale="   23.002">  1  9  2 -1</clus>
<clus scale="   82.188">  5  6 -1 -1</clus>
<clus scale="   92.510">  7  8 -1 -1</clus>
<clus scale="   93.107">  1  5  2 -1</clus>
<clus scale="  102.334">  2  5  1 -1</clus>
</clustering>
</event>
<event>
 9    1  0.2802611E-005  0.9566107E+02  0.7546771E-02  0.1296727E+00
          1   -1    0    0  502    0  0.00000000000E+00  0.00000000000E+00  0.65125185913E+02  0.65125185913E+02  0.00000000000E+00 0. -1.
         -2   -1    0    0    0  501 -0.00000000000E+00 -0.00000000000E+00 -0.37506172783E+03  0.37506172783E+03  0.00000000000E+00 0.  1.
        -24    2    1    2    0    0  0.12014524839E+02  0.29161731010E+02 -0.20133911528E+03  0.21857194646E+03  0.79003171320E+02 0.  0.
         23    2    1    2    0    0  0.54313877518E+01  0.44921018127E+02 -0.18442217431E+02  0.10362947947E+03  0.91386846914E+02 0.  0.
         11    1    3    3    0    0  0.34166836423E+01  0.54818820702E+02 -0.10491149463E+03  0.11841958679E+03  0.00000000000E+00 0. -1.
        -12    1    3    3    0    0  0.85978411965E+01 -0.25657089692E+02 -0.96427620645E+02  0.10015235967E+03  0.00000000000E+00 0.  1.
        -13    1    4    4    0    0  0.97448025857E+01 -0.18320685387E+02  0.20552980416E+02  0.29206740566E+02  0.00000000000E+00 0.  1.
         13    1    4    4    0    0 -0.43134148339E+01  0.63241703514E+02 -0.38995197847E+02  0.74422738904E+02  0.00000000000E+00 0. -1.
         21    1    1    2  502  501 -0.17445912591E+02 -0.74082749137E+02 -0.90155209212E+02  0.11798548781E+03  0.00000000000E+00 0.  1.
<scales pt_clust_5="13000.00000" pt_clust_6="13000.00000" pt_clust_7="13000.00000" pt_clust_8="13000.00000" pt_clust_9="76.10922"></scales>
<clustering>
<clus scale="   76.109">  2  9  1 -1</clus>
<clus scale="   79.003">  5  6 -1 -1</clus>
<clus scale="   83.911">  2  5  1 -1</clus>
<clus scale="   91.387">  7  8 -1 -1</clus>
<clus scale="   95.661">  1  5  2 -1</clus>
</clustering>
</event>
<event>
 9    1  0.2802611E-005  0.2885262E+03  0.7546771E-02  0.1138649E+00
          1   -1    0    0  502    0  0.00000000000E+00  0.00000000000E+00  0.16609783722E+04  0.16609783722E+04  0.00000000000E+00 0. -1.
         -2   -1    0    0    0  501 -0.00000000000E+00 -0.00000000000E+00 -0.87536829393E+02  0.87536829393E+02  0.00000000000E+00 0.  1.
        -24    2    1    2    0    0 -0.89984444217E+01  0.33067430545E+02  0.57385523270E+02  0.10411359388E+03  0.79825529659E+02 0.  0.
         23    2    1    2    0    0 -0.52647542810E+01 -0.28332212304E+03  0.12238352377E+04  0.12594031203E+04  0.89578945165E+02 0.  0.
         11    1    3    3    0    0  0.24355719024E+02  0.44237356949E+02  0.25207338959E+02  0.56440718780E+02  0.00000000000E+00 0. -1.
        -12    1    3    3    0    0 -0.33354163446E+02 -0.11169926403E+02  0.32178184311E+02  0.47672875103E+02  0.00000000000E+00 0.  1.
        -11    1    4    4    0    0  0.17922479864E+02 -0.14306106612E+03  0.78449538569E+03  0.79763443637E+03  0.00000000000E+00 0. -1.
         11    1    4    4    0    0 -0.23187234145E+02 -0.14026105692E+03  0.43933985202E+03  0.46176868396E+03  0.00000000000E+00 0.  1.
         21    1    1    2  502  501  0.14263198703E+02  0.25025469249E+03  0.29222078186E+03  0.38499848740E+03  0.00000000000E+00 0.  1.
<scales pt_clust_5="13000.00000" pt_clust_6="13000.00000" pt_clust_7="13000.00000" pt_clust_8="13000.00000" pt_clust_9="274.26804"></scales>
<clustering>
<clus scale="   79.826">  5  6 -1 -1</clus>
<clus scale="   86.871">  2  5  1 -1</clus>
<clus scale="   89.579">  7  8 -1 -1</clus>
<clus scale="  274.268">  2  9  1 -1</clus>
<clus scale="  288.526">  1  5  2 -1</clus>
</clustering>
</event>
<event>
 9    1  0.2802611E-005  0.1012144E+03  0.7546771E-02  0.1282959E+00
         -2   -1    0    0    0  501 -0.00000000000E+00  0.00000000000E+00  0.68538091769E+02  0.68538091769E+02  0.00000000000E+00 0.  1.
          1   -1    0    0  502    0  0.00000000000E+00 -0.00000000000E+00 -0.30670901347E+03  0.30670901347E+03  0.00000000000E+00 0. -1.
         23    2    1    2    0    0 -0.26188108651E+02 -0.24740113435E+02 -0.88920914915E+02  0.13227168552E+03  0.91054815537E+02 0.  0.
        -24    2    1    2    0    0  0.51181241705E+02  0.64109334297E+01 -0.17717377822E+03  0.20125788683E+03  0.80334113260E+02 0.  0.
         13    1    4    4    0    0  0.69858684539E+02  0.10645789135E+02 -0.10484046813E+03  0.12643216517E+03  0.00000000000E+00 0. -1.
        -14    1    4    4    0    0 -0.18677442834E+02 -0.42348557049E+01 -0.72333310089E+02  0.74825721661E+02  0.00000000000E+00 0.  1.
        -13    1    3    3    0    0 -0.80673331918E+01  0.33937183229E+02 -0.44177111483E+02  0.56288821708E+02  0.00000000000E+00 0. -1.
         13    1    3    3    0    0 -0.18120775459E+02 -0.58677296663E+02 -0.44743803432E+02  0.75982863808E+02  0.00000000000E+00 0.  1.
         21    1    1    2  502  501 -0.24993133055E+02  0.18329180005E+02  0.27923771434E+02  0.41717532892E+02  0.00000000000E+00 0. -1.
<scales pt_clust_5="13000.00000" pt_clust_6="13000.00000" pt_clust_7="13000.00000" pt_clust_8="13000.00000" pt_clust_9="30.99380"></scales>
<clustering>
<clus scale="   30.994">  1  9  2 -1</clus>
<clus scale="   80.334">  5  6 -1 -1</clus>
<clus scale="   91.055">  7  8 -1 -1</clus>
<clus scale="   91.689">  2  5  1 -1</clus>
<clus scale="   91.689">  2  5  1 -1</clus>
</clustering>
</event>
<event>
 9    1  0.2802611E-005  0.1549984E+03  0.7546771E-02  0.1196466E+00
         -2   -1    0    0    0  501 -0.00000000000E+00  0.00000000000E+00  0.77798444703E+02  0.77798444703E+02  0.00000000000E+00 0.  1.
          1   -1    0    0  502    0  0.00000000000E+00 -0.00000000000E+00 -0.12680025143E+04  0.12680025143E+04  0.00000000000E+00 0. -1.
         23    2    1    2    0    0 -0.70654970712E+02  0.17529545742E+03 -0.49644292952E+03  0.53917245832E+03  0.92361979557E+02 0.  0.
        -24    2    1    2    0    0  0.36095774792E+02 -0.99465169477E+02 -0.70945647174E+03  0.72182924341E+03  0.80701588900E+02 0.  0.
         11    1    4    4    0    0  0.56235785881E+02 -0.80604590595E+02 -0.43375370251E+03  0.44474918559E+03  0.00000000000E+00 0. -1.
        -12    1    4    4    0    0 -0.20140011088E+02 -0.18860578882E+02 -0.27570276923E+03  0.27708005783E+03  0.00000000000E+00 0.  1.
        -13    1    3    3    0    0  0.35141100937E+00  0.67954413466E+02 -0.27284409500E+03  0.28117934841E+03  0.00000000000E+00 0. -1.
         13    1    3    3    0    0 -0.71006381722E+02  0.10734104395E+03 -0.22359883452E+03  0.25799310991E+03  0.00000000000E+00 0.  1.
         21    1    1    2  502  501  0.34559195920E+02 -0.75830287940E+02  0.15695331691E+02  0.84799257241E+02  0.00000000000E+00 0.  1.
<scales pt_clust_5="13000.00000" pt_clust_6="13000.00000" pt_clust_7="13000.00000" pt_clust_8="13000.00000" pt_clust_9="83.33409"></scales>
<clustering>
<clus scale="   80.702">  5  6 -1 -1</clus>
<clus scale="   83.334">  1  9  2 -1</clus>
<clus scale="   92.362">  7  8 -1 -1</clus>
<clus scale="  148.346">  2  5  1 -1</clus>
<clus scale="  148.346">  2  5  1 -1</clus>
</clustering>
</event>
<event>
 9    1  0.2802611E-005  0.9082823E+02  0.7546771E-02  0.1304675E+00
          1   -1    0    0  502    0  0.00000000000E+00  0.00000000000E+00  0.31819583506E+03  0.31819583506E+03  0.00000000000E+00 0. -1.
         -2   -1    0    0    0  501 -0.00000000000E+00 -0.00000000000E+00 -0.20522024915E+03  0.20522024915E+03  0.00000000000E+00 0.  1.
         23    2    1    2    0    0  0.20117884151E+02  0.29919957991E+02 -0.17215446627E+03  0.19788275679E+03  0.90666929085E+02 0.  0.
        -24    2    1    2    0    0  0.34356172605E+00 -0.45719894443E+01  0.28005534880E+03  0.29256451047E+03  0.84510196260E+02 0.  0.
         11    1    4    4    0    0 -0.30723681188E+02 -0.10861230827E+02  0.46002265020E+02  0.56374810933E+02  0.00000000000E+00 0. -1.
        -12    1    4    4    0    0  0.31067242914E+02  0.62892413829E+01  0.23405308378E+03  0.23618969953E+03  0.00000000000E+00 0.  1.
        -11    1    3    3    0    0 -0.15164622560E+02  0.28062344529E+02 -0.15565314038E+03  0.15888788836E+03  0.00000000000E+00 0.  1.
         11    1    3    3    0    0  0.35282506711E+02  0.18576134626E+01 -0.16501325886E+02  0.38994868426E+02  0.00000000000E+00 0. -1.
         21    1    1    2  502  501 -0.20461445877E+02 -0.25347968547E+02  0.50747033824E+01  0.32968816953E+02  0.00000000000E+00 0. -1.
<scales pt_clust_5="13000.00000" pt_clust_6="13000.00000" pt_clust_7="13000.00000" pt_clust_8="13000.00000" pt_clust_9="32.57592"></scales>
<clustering>
<clus scale="   32.576">  2  9  1 -1</clus>
<clus scale="   84.510">  5  6 -1 -1</clus>
<clus scale="   84.683">  1  5  2 -1</clus>
<clus scale="   90.667">  7  8 -1 -1</clus>
<clus scale="   84.683">  1  5  2 -1</clus>
</clustering>
</event>
<event>
 9    1  0.2802611E-005  0.9531728E+02  0.7546771E-02  0.1298706E+00
         -2   -1    0    0    0  501 -0.00000000000E+00  0.00000000000E+00  0.27580618150E+02  0.27580618150E+02  0.00000000000E+00 0.  1.
          1   -1    0    0  502    0  0.00000000000E+00 -0.00000000000E+00 -0.71395589908E+03  0.71395589908E+03  0.00000000000E+00 0. -1.
         23    2    1    2    0    0  0.27779609352E+01 -0.47462358717E+02 -0.10093927374E+03  0.14363021489E+03  0.90446166777E+02 0.  0.
        -24    2    1    2    0    0  0.34339701090E+01  0.27557313147E+02 -0.55583243813E+03  0.56169621773E+03  0.76037780554E+02 0.  0.
         13    1    4    4    0    0 -0.65671325659E+01  0.37700014095E+02 -0.12730823592E+03  0.13293534228E+03  0.00000000000E+00 0. -1.
        -14    1    4    4    0    0  0.10001102675E+02 -0.10142700948E+02 -0.42852420221E+03  0.42876087545E+03  0.00000000000E+00 0.  1.
        -13    1    3    3    0    0 -0.41196597886E+02 -0.32715162267E+02 -0.35669400495E+02  0.63559009205E+02  0.00000000000E+00 0. -1.
         13    1    3    3    0    0  0.43974558821E+02 -0.14747196450E+02 -0.65269873241E+02  0.80071205683E+02  0.00000000000E+00 0.  1.
         21    1    1    2  502  501 -0.62119310442E+01  0.19905045569E+02 -0.29603569058E+02  0.36210084609E+02  0.00000000000E+00 0. -1.
<scales pt_clust_5="13000.00000" pt_clust_6="13000.00000" pt_clust_7="13000.00000" pt_clust_8="13000.00000" pt_clust_9="20.85183"></scales>
<clustering>
<clus scale="   20.852">  1  9  2 -1</clus>
<clus scale="   76.038">  5  6 -1 -1</clus>
<clus scale="   81.772">  2  5  1 -1</clus>
<clus scale="   90.446">  7  8 -1 -1</clus>
<clus scale="   81.772">  2  5  1 -1</clus>
</clustering>
</event>
<event>
 9    1  0.2802611E-005  0.9558367E+02  0.7546771E-02  0.1295602E+00
          3   -1    0    0  502    0  0.00000000000E+00  0.00000000000E+00  0.34136581254E+03  0.34136581254E+03  0.00000000000E+00 0. -1.
         -4   -1    0    0    0  501 -0.00000000000E+00 -0.00000000000E+00 -0.46621436116E+02  0.46621436116E+02  0.00000000000E+00 0.  1.
        -24    2    1    2    0    0  0.45347232138E+02  0.20612776567E+01  0.46821976298E+02  0.10435152487E+03  0.81463629609E+02 0.  0.
         23    2    1    2    0    0 -0.15726023382E+02 -0.18306329376E+02  0.22093502718E+03  0.24039643596E+03  0.91628219888E+02 0.  0.
         11    1    3    3    0    0 -0.12737981963E+02  0.26941709717E+02  0.18734165594E+02  0.35200580499E+02  0.00000000000E+00 0. -1.
        -12    1    3    3    0    0  0.58085214101E+02 -0.24880432060E+02  0.28087810703E+02  0.69150944366E+02  0.00000000000E+00 0.  1.
        -13    1    4    4    0    0  0.17166797266E+02  0.18133506904E+02  0.15983298558E+02  0.29647745847E+02  0.00000000000E+00 0.  1.
         13    1    4    4    0    0 -0.32892820649E+02 -0.36439836280E+02  0.20495172863E+03  0.21074869012E+03  0.00000000000E+00 0. -1.
         21    1    1    2  502  501 -0.29621208756E+02  0.16245051719E+02  0.26987372939E+02  0.43239287826E+02  0.00000000000E+00 0.  1.
<scales pt_clust_5="13000.00000" pt_clust_6="13000.00000" pt_clust_7="13000.00000" pt_clust_8="13000.00000" pt_clust_9="33.78339"></scales>
<clustering>
<clus scale="   33.783">  2  9  1 -1</clus>
<clus scale="   81.464">  5  6 -1 -1</clus>
<clus scale="   85.888">  2  5  1 -1</clus>
<clus scale="   91.628">  7  8 -1 -1</clus>
<clus scale="   95.584">  1  5  2 -1</clus>
</clustering>
</event>
<event>
 9    1  0.2802611E-005  0.1177796E+03  0.7546771E-02  0.1249895E+00
         -2   -1    0    0    0  501 -0.00000000000E+00  0.00000000000E+00  0.76357282181E+02  0.76357282181E+02  0.00000000000E+00 0.  1.
          1   -1    0    0  502    0  0.00000000000E+00 -0.00000000000E+00 -0.27471838161E+03  0.27471838161E+03  0.00000000000E+00 0. -1.
        -24    2    1    2    0    0  0.57647839233E+02  0.12453103887E+02 -0.35325505285E+02  0.10774667245E+03  0.82964455854E+02 0.  0.
         23    2    1    2    0    0 -0.70801588364E+02 -0.42433982947E+02 -0.16959584807E+03  0.20993870598E+03  0.92184601551E+02 0.  0.
         11    1    3    3    0    0  0.36200196174E+02 -0.34202180939E+02 -0.23428027069E+02  0.55037403975E+02  0.00000000000E+00 0. -1.
        -12    1    3    3    0    0  0.21447643060E+02  0.46655284825E+02 -0.11897478216E+02  0.52709268472E+02  0.00000000000E+00 0.  1.
        -11    1    4    4    0    0 -0.78471896577E+02  0.56459052378E+00 -0.92249133370E+02  0.12111176624E+03  0.00000000000E+00 0.  1.
         11    1    4    4    0    0  0.76703082127E+01 -0.42998573471E+02 -0.77346714698E+02  0.88826939738E+02  0.00000000000E+00 0. -1.
         21    1    1    2  502  501  0.13153749131E+02  0.29980879060E+02  0.65602539187E+01  0.33390285367E+02  0.00000000000E+00 0.  1.
<scales pt_clust_5="13000.00000" pt_clust_6="13000.00000" pt_clust_7="13000.00000" pt_clust_8="13000.00000" pt_clust_9="32.73949"></scales>
<clustering>
<clus scale="   32.739">  1  9  2 -1</clus>
<clus scale="   82.964">  5  6 -1 -1</clus>
<clus scale="   92.185">  7  8 -1 -1</clus>
<clus scale="  110.712">  1  5  2 -1</clus>
<clus scale="  117.780">  2  5  1 -1</clus>
</clustering>
</event>
<event>
 9    1  0.2802611E-005  0.8382651E+02  0.7546771E-02  0.1318963E+00
          3   -1    0    0  502    0  0.00000000000E+00  0.00000000000E+00  0.16075771945E+03  0.16075771945E+03  0.00000000000E+00 0. -1.
         -4   -1    0    0    0  501 -0.00000000000E+00 -0.00000000000E+00 -0.69960174601E+02  0.69960174601E+02  0.00000000000E+00 0.  1.
        -24    2    1    2    0    0  0.39159399128E+02  0.98548509042E+01  0.12491698216E+02  0.90049752977E+02  0.79513136402E+02 0.  0.
         23    2    1    2    0    0 -0.63033360249E+01  0.67559880662E+01  0.60338799192E+02  0.99701622459E+02  0.78830624844E+02 0.  0.
         13    1    3    3    0    0  0.11007565314E+02  0.27557351781E+02  0.37945829007E+02  0.48171153924E+02  0.00000000000E+00 0. -1.
        -14    1    3    3    0    0  0.28151833814E+02 -0.17702500877E+02 -0.25454130791E+02  0.41878599054E+02  0.00000000000E+00 0.  1.
        -11    1    4    4    0    0  0.23192046460E+02  0.20811018684E+02  0.59327711026E+02  0.67013034651E+02  0.00000000000E+00 0. -1.
         11    1    4    4    0    0 -0.29495382485E+02 -0.14055030618E+02  0.10110881663E+01  0.32688587808E+02  0.00000000000E+00 0.  1.
         21    1    1    2  502  501 -0.32856063103E+02 -0.16610838970E+02  0.17967047445E+02  0.40966518620E+02  0.00000000000E+00 0. -1.
<scales pt_clust_5="13000.00000" pt_clust_6="13000.00000" pt_clust_7="13000.00000" pt_clust_8="13000.00000" pt_clust_9="36.81631"></scales>
<clustering>
<clus scale="   36.816">  1  9  2 -1</clus>
<clus scale="   78.831">  7  8 -1 -1</clus>
<clus scale="   79.513">  5  6 -1 -1</clus>
<clus scale="   83.179">  1  7  2 -1</clus>
<clus scale="   36.816">  1  5  2 -1</clus>
</clustering>
</event>
<event>
 9    1  0.2802611E-005  0.1049405E+03  0.7546771E-02  0.1275078E+00
          3   -1    0    0  502    0  0.00000000000E+00  0.00000000000E+00  0.16178080126E+03  0.16178080126E+03  0.00000000000E+00 0. -1.
         -4   -1    0    0    0  501 -0.00000000000E+00 -0.00000000000E+00 -0.19993900742E+03  0.19993900742E+03  0.00000000000E+00 0.  1.
        -24    2    1    2    0    0  0.22935149909E+02  0.45646337619E+02 -0.57480581570E+02  0.11179846252E+03  0.81149674831E+02 0.  0.
         23    2    1    2    0    0 -0.41172889146E+02 -0.30888723668E+02  0.11231177615E+03  0.15401810872E+03  0.91969139943E+02 0.  0.
         13    1    3    3    0    0  0.32369916902E+02  0.45488893169E+02 -0.23646425758E+01  0.55880608949E+02  0.00000000000E+00 0. -1.
        -14    1    3    3    0    0 -0.94347669926E+01  0.15744445028E+00 -0.55115938994E+02  0.55917853573E+02  0.00000000000E+00 0.  1.
        -13    1    4    4    0    0 -0.47492301777E+02  0.17774592172E+02  0.32192114970E+02  0.60064857623E+02  0.00000000000E+00 0.  1.
         13    1    4    4    0    0  0.63194126311E+01 -0.48663315840E+02  0.80119661182E+02  0.93953251101E+02  0.00000000000E+00 0. -1.
         21    1    1    2  502  501  0.18237739237E+02 -0.14757613951E+02 -0.92989400733E+02  0.95903237436E+02  0.00000000000E+00 0. -1.
<scales pt_clust_5="13000.00000" pt_clust_6="13000.00000" pt_clust_7="13000.00000" pt_clust_8="13000.00000" pt_clust_9="23.46065"></scales>
<clustering>
<clus scale="   23.461">  2  9  1 -1</clus>
<clus scale="   81.150">  5  6 -1 -1</clus>
<clus scale="   91.969">  7  8 -1 -1</clus>
<clus scale="   95.600">  2  5  1 -1</clus>
<clus scale="  104.940">  1  5  2 -1</clus>
</clustering>
</event>
<event>
 9    1  0.2802611E-005  0.1865093E+03  0.7546771E-02  0.1198641E+00
          1   -1    0    0  502    0  0.00000000000E+00  0.00000000000E+00  0.14430366187E+03  0.14430366187E+03  0.00000000000E+00 0. -1.
         -2   -1    0    0    0  501 -0.00000000000E+00 -0.00000000000E+00 -0.30488718535E+03  0.30488718535E+03  0.00000000000E+00 0.  1.
        -24    2    1    2    0    0 -0.12371475943E+02 -0.28749522422E+01 -0.64342991406E+02  0.10360212923E+03  0.80200136348E+02 0.  0.
         23    2    1    2    0    0 -0.11497988245E+03  0.74559479954E+02 -0.32004286783E+02  0.18595371178E+03  0.12155253652E+03 0.  0.
         13    1    3    3    0    0 -0.26045931800E+02 -0.20503232392E+02 -0.72602858173E+02  0.79811954723E+02  0.00000000000E+00 0. -1.
        -14    1    3    3    0    0  0.13674455858E+02  0.17628280150E+02  0.82598667662E+01  0.23790174506E+02  0.00000000000E+00 0.  1.
        -13    1    4    4    0    0  0.21532562371E+02  0.26255582383E+02 -0.22707815902E+02  0.40849134037E+02  0.00000000000E+00 0.  1.
         13    1    4    4    0    0 -0.13651244482E+03  0.48303897572E+02 -0.92964708808E+01  0.14510457775E+03  0.00000000000E+00 0. -1.
         21    1    1    2  502  501  0.12735135839E+03 -0.71684527712E+02 -0.64236245291E+02  0.15963500621E+03  0.00000000000E+00 0.  1.
<scales pt_clust_5="13000.00000" pt_clust_6="13000.00000" pt_clust_7="13000.00000" pt_clust_8="13000.00000" pt_clust_9="141.45916"></scales>
<clustering>
<clus scale="   80.200">  5  6 -1 -1</clus>
<clus scale="   81.200">  2  5  1 -1</clus>
<clus scale="  121.553">  7  8 -1 -1</clus>
<clus scale="  141.459">  2  9  1 -1</clus>
<clus scale="  186.509">  1  5  2 -1</clus>
</clustering>
</event>
<event>
 9    1  0.2802611E-005  0.1124775E+03  0.7546771E-02  0.1261380E+00
         -2   -1    0    0    0  501 -0.00000000000E+00  0.00000000000E+00  0.14522939921E+03  0.14522939921E+03  0.00000000000E+00 0.  1.
          1   -1    0    0  502    0  0.00000000000E+00 -0.00000000000E+00 -0.29614069297E+03  0.29614069297E+03  0.00000000000E+00 0. -1.
         23    2    1    2    0    0 -0.88094707056E+02 -0.17716900989E+01  0.73311255173E+02  0.14839281655E+03  0.94244742933E+02 0.  0.
        -24    2    1    2    0    0  0.55973314420E+02 -0.19806817792E+02 -0.23275619989E+03  0.25335103349E+03  0.80535555051E+02 0.  0.
         11    1    4    4    0    0  0.54133558317E+02  0.61787665563E+01 -0.21506936063E+03  0.22186358235E+03  0.00000000000E+00 0. -1.
        -12    1    4    4    0    0  0.18397561030E+01 -0.25985584348E+02 -0.17686839259E+02  0.31487451142E+02  0.00000000000E+00 0.  1.
        -13    1    3    3    0    0 -0.82179689831E+02  0.34627749572E+02  0.36716295098E+02  0.96439975046E+02  0.00000000000E+00 0.  1.
         13    1    3    3    0    0 -0.59150172253E+01 -0.36399439671E+02  0.36594960075E+02  0.51952841501E+02  0.00000000000E+00 0. -1.
         21    1    1    2  502  501  0.32121392636E+02  0.21578507891E+02  0.85336509600E+01  0.39626242143E+02  0.00000000000E+00 0.  1.
<scales pt_clust_5="13000.00000" pt_clust_6="13000.00000" pt_clust_7="13000.00000" pt_clust_8="13000.00000" pt_clust_9="38.69646"></scales>
<clustering>
<clus scale="   38.696">  1  9  2 -1</clus>
<clus scale="   80.536">  5  6 -1 -1</clus>
<clus scale="   94.245">  7  8 -1 -1</clus>
<clus scale="  101.267">  2  5  1 -1</clus>
<clus scale="  101.267">  2  5  1 -1</clus>
</clustering>
</event>
<event>
 9    1  0.2802611E-005  0.9390341E+02  0.7546771E-02  0.1297929E+00
          1   -1    0    0  502    0  0.00000000000E+00  0.00000000000E+00  0.29495541758E+03  0.29495541758E+03  0.00000000000E+00 0. -1.
         -2   -1    0    0    0  501 -0.00000000000E+00 -0.00000000000E+00 -0.97780480264E+02  0.97780480264E+02  0.00000000000E+00 0.  1.
        -24    2    1    2    0    0 -0.67075867940E+01  0.32354961802E+02 -0.22171752422E+02  0.94792058361E+02  0.86035530155E+02 0.  0.
         23    2    1    2    0    0 -0.13599739702E+02  0.20174863255E+01  0.23642866642E+03  0.25451980666E+03  0.93235157030E+02 0.  0.
         13    1    3    3    0    0  0.14871999010E+01  0.43530969368E+02  0.21786344605E+02  0.48701148538E+02  0.00000000000E+00 0. -1.
        -14    1    3    3    0    0 -0.81947866950E+01 -0.11176007566E+02 -0.43958097027E+02  0.46090909823E+02  0.00000000000E+00 0.  1.
        -11    1    4    4    0    0 -0.80101165498E+01 -0.44833816179E+02  0.13892178869E+03  0.14619677293E+03  0.00000000000E+00 0.  1.
         11    1    4    4    0    0 -0.55896231518E+01  0.46851302505E+02  0.97506877726E+02  0.10832303373E+03  0.00000000000E+00 0. -1.
         21    1    1    2  502  501  0.20307326496E+02 -0.34372448128E+02 -0.17081976677E+02  0.43424032826E+02  0.00000000000E+00 0.  1.
<scales pt_clust_5="13000.00000" pt_clust_6="13000.00000" pt_clust_7="13000.00000" pt_clust_8="13000.00000" pt_clust_9="39.92308"></scales>
<clustering>
<clus scale="   39.923">  2  9  1 -1</clus>
<clus scale="   86.036">  5  6 -1 -1</clus>
<clus scale="   86.759">  2  5  1 -1</clus>
<clus scale="   93.235">  7  8 -1 -1</clus>
<clus scale="   93.903">  1  5  2 -1</clus>
</clustering>
</event>
<event>
 9    1  0.2802611E-005  0.9529711E+02  0.7546771E-02  0.1297394E+00
          1   -1    0    0  502    0  0.00000000000E+00  0.00000000000E+00  0.33525506148E+03  0.33525506148E+03  0.00000000000E+00 0. -1.
         -2   -1    0    0    0  501 -0.00000000000E+00 -0.00000000000E+00 -0.58724828686E+02  0.58724828686E+02  0.00000000000E+00 0.  1.
        -24    2    1    2    0    0 -0.13070052359E+02  0.53998198065E+01 -0.39244160115E+01  0.81600822309E+02  0.80270223856E+02 0.  0.
         23    2    1    2    0    0  0.21788425208E+02  0.16623178714E+02  0.26976477237E+03  0.28639261086E+03  0.92177164191E+02 0.  0.
         11    1    3    3    0    0 -0.31017870413E+02  0.28909827215E+02  0.16668778528E+02  0.45560230159E+02  0.00000000000E+00 0. -1.
        -12    1    3    3    0    0  0.17947818053E+02 -0.23510007408E+02 -0.20593194539E+02  0.36040592150E+02  0.00000000000E+00 0.  1.
        -13    1    4    4    0    0 -0.83491681039E+01 -0.34174168098E+02  0.12963513138E+03  0.13432367498E+03  0.00000000000E+00 0.  1.
         13    1    4    4    0    0  0.30137593312E+02  0.50797346812E+02  0.14012964099E+03  0.15206893588E+03  0.00000000000E+00 0. -1.
         21    1    1    2  502  501 -0.87183728487E+01 -0.22022998521E+02  0.10689876429E+02  0.25986456993E+02  0.00000000000E+00 0.  1.
<scales pt_clust_5="13000.00000" pt_clust_6="13000.00000" pt_clust_7="13000.00000" pt_clust_8="13000.00000" pt_clust_9="23.68591"></scales>
<clustering>
<clus scale="   23.686">  2  9  1 -1</clus>
<clus scale="   80.270">  5  6 -1 -1</clus>
<clus scale="   83.834">  2  5  1 -1</clus>
<clus scale="   92.177">  7  8 -1 -1</clus>
<clus scale="   95.297">  1  5  2 -1</clus>
</clustering>
</event>
<event>
 9    1  0.2802611E-005  0.9228249E+02  0.7546771E-02  0.1303833E+00
          1   -1    0    0  502    0  0.00000000000E+00  0.00000000000E+00  0.27895621384E+03  0.27895621384E+03  0.00000000000E+00 0. -1.
         -2   -1    0    0    0  501 -0.00000000000E+00 -0.00000000000E+00 -0.87200741176E+02  0.87200741176E+02  0.00000000000E+00 0.  1.
         23    2    1    2    0    0  0.21586022072E+01  0.50879271318E+01  0.36207598995E+02  0.98002663665E+02  0.90900964211E+02 0.  0.
        -24    2    1    2    0    0 -0.18763176648E+02  0.69350135186E+01  0.20147493124E+03  0.21785958377E+03  0.80439412688E+02 0.  0.
         11    1    4    4    0    0  0.78147088994E+01 -0.23743072729E+02  0.20321144370E+02  0.32214159718E+02  0.00000000000E+00 0. -1.
        -12    1    4    4    0    0 -0.26577885547E+02  0.30678086247E+02  0.18115378687E+03  0.18564542405E+03  0.00000000000E+00 0.  1.
        -13    1    3    3    0    0  0.33431772561E+02  0.21009859718E+02 -0.92703936232E+01  0.40559065816E+02  0.00000000000E+00 0.  1.
         13    1    3    3    0    0 -0.31273170354E+02 -0.15921932586E+02  0.45477992618E+02  0.57443597849E+02  0.00000000000E+00 0. -1.
         21    1    1    2  502  501  0.16604574441E+02 -0.12022940650E+02 -0.45927057565E+02  0.50294707583E+02  0.00000000000E+00 0.  1.
<scales pt_clust_5="13000.00000" pt_clust_6="13000.00000" pt_clust_7="13000.00000" pt_clust_8="13000.00000" pt_clust_9="20.50032"></scales>
<clustering>
<clus scale="   20.500">  2  9  1 -1</clus>
<clus scale="   80.439">  5  6 -1 -1</clus>
<clus scale="   81.997">  1  5  2 -1</clus>
<clus scale="   90.901">  7  8 -1 -1</clus>
<clus scale="   81.997">  1  5  2 -1</clus>
</clustering>
</event>
<event>
 9    1  0.2802611E-005  0.1070110E+03  0.7546771E-02  0.1270251E+00
          1   -1    0    0  502    0  0.00000000000E+00  0.00000000000E+00  0.13137278365E+03  0.13137278365E+03  0.00000000000E+00 0. -1.
         -2   -1    0    0    0  501 -0.00000000000E+00 -0.00000000000E+00 -0.24030821164E+03  0.24030821164E+03  0.00000000000E+00 0.  1.
         23    2    1    2    0    0 -0.51333541235E+01 -0.67858085987E+02 -0.16118469510E+03  0.19747311346E+03  0.91564476975E+02 0.  0.
        -24    2    1    2    0    0  0.20366952398E+02  0.50200502417E+02  0.87742210390E+02  0.13173904859E+03  0.81985231884E+02 0.  0.
         11    1    4    4    0    0  0.33298584982E+02  0.62508001845E+02  0.89118470444E+02  0.11383386065E+03  0.00000000000E+00 0. -1.
        -12    1    4    4    0    0 -0.12931632584E+02 -0.12307499428E+02 -0.13762600545E+01  0.17905187941E+02  0.00000000000E+00 0.  1.
        -13    1    3    3    0    0 -0.22353372890E+02 -0.21537311079E+02 -0.23514928980E+01  0.31129705538E+02  0.00000000000E+00 0. -1.
         13    1    3    3    0    0  0.17220018766E+02 -0.46320774907E+02 -0.15883320221E+03  0.16634340792E+03  0.00000000000E+00 0.  1.
         21    1    1    2  502  501 -0.15233598274E+02  0.17657583570E+02 -0.35492943283E+02  0.42468833240E+02  0.00000000000E+00 0. -1.
<scales pt_clust_5="13000.00000" pt_clust_6="13000.00000" pt_clust_7="13000.00000" pt_clust_8="13000.00000" pt_clust_9="23.32065"></scales>
<clustering>
<clus scale="   23.321">  2  9  1 -1</clus>
<clus scale="   81.985">  5  6 -1 -1</clus>
<clus scale="   91.564">  7  8 -1 -1</clus>
<clus scale="   98.939">  1  5  2 -1</clus>
<clus scale="   98.939">  1  5  2 -1</clus>
</clustering>
</event>
<event>
 9    1  0.2802611E-005  0.1207590E+03  0.7546771E-02  0.1244845E+00
         -2   -1    0    0    0  501 -0.00000000000E+00  0.00000000000E+00  0.10048785671E+03  0.10048785671E+03  0.00000000000E+00 0.  1.
          1   -1    0    0  502    0  0.00000000000E+00 -0.00000000000E+00 -0.22029034042E+03  0.22029034042E+03  0.00000000000E+00 0. -1.
        -24    2    1    2    0    0 -0.12568514167E+02 -0.54684320753E+02  0.43899656290E+01  0.11499100184E+03  0.10027619968E+03 0.  0.
         23    2    1    2    0    0  0.38226662545E+02  0.61313524153E+02 -0.13386356035E+03  0.17757696126E+03  0.91616037941E+02 0.  0.
         11    1    3    3    0    0 -0.29243505549E+02 -0.17733639838E+02 -0.41488806026E+02  0.53767886551E+02  0.00000000000E+00 0. -1.
        -12    1    3    3    0    0  0.16674991383E+02 -0.36950680915E+02  0.45878771655E+02  0.61223115294E+02  0.00000000000E+00 0.  1.
        -13    1    4    4    0    0  0.62059014849E+02  0.29385431957E+02 -0.50673551688E+02  0.85338348801E+02  0.00000000000E+00 0.  1.
         13    1    4    4    0    0 -0.23832352304E+02  0.31928092195E+02 -0.83190008661E+02  0.92238612460E+02  0.00000000000E+00 0. -1.
         21    1    1    2  502  501 -0.25658148378E+02 -0.66292033998E+01  0.96711110115E+01  0.28210234032E+02  0.00000000000E+00 0. -1.
<scales pt_clust_5="13000.00000" pt_clust_6="13000.00000" pt_clust_7="13000.00000" pt_clust_8="13000.00000" pt_clust_9="26.50070"></scales>
<clustering>
<clus scale="   26.501">  1  9  2 -1</clus>
<clus scale="   91.616">  7  8 -1 -1</clus>
<clus scale="  100.276">  5  6 -1 -1</clus>
<clus scale="  113.670">  2  7  1 -1</clus>
<clus scale="  113.670">  2  5  1 -1</clus>
</clustering>
</event>
<event>
 9    1  0.2802611E-005  0.1469475E+03  0.7546771E-02  0.1206428E+00
          1   -1    0    0  502    0  0.00000000000E+00  0.00000000000E+00  0.47923761568E+02  0.47923761568E+02  0.00000000000E+00 0. -1.
         -2   -1    0    0    0  501 -0.00000000000E+00 -0.00000000000E+00 -0.11492861143E+04  0.11492861143E+04  0.00000000000E+00 0.  1.
        -24    2    1    2    0    0  0.12009410502E+03  0.90763373357E+02 -0.80241213121E+03  0.82039409989E+03  0.80750645956E+02 0.  0.
         23    2    1    2    0    0 -0.94161654024E+02 -0.54402323542E+02 -0.10261192749E+03  0.17546199860E+03  0.91824154745E+02 0.  0.
         11    1    3    3    0    0  0.76768035834E+02  0.17582012583E+02 -0.27070111263E+03  0.28192472554E+03  0.00000000000E+00 0. -1.
        -12    1    3    3    0    0  0.43326069190E+02  0.73181360774E+02 -0.53171101858E+03  0.53846937435E+03  0.00000000000E+00 0.  1.
        -13    1    4    4    0    0 -0.18104003374E+02  0.25300440960E+02 -0.31860842345E+02  0.44530669497E+02  0.00000000000E+00 0.  1.
         13    1    4    4    0    0 -0.76057650650E+02 -0.79702764502E+02 -0.70751085141E+02  0.13093132910E+03  0.00000000000E+00 0. -1.
         21    1    1    2  502  501 -0.25932451000E+02 -0.36361049815E+02 -0.19633829403E+03  0.20135377737E+03  0.00000000000E+00 0.  1.
<scales pt_clust_5="13000.00000" pt_clust_6="13000.00000" pt_clust_7="13000.00000" pt_clust_8="13000.00000" pt_clust_9="44.66115"></scales>
<clustering>
<clus scale="   44.661">  2  9  1 -1</clus>
<clus scale="   80.751">  5  6 -1 -1</clus>
<clus scale="   91.824">  7  8 -1 -1</clus>
<clus scale="  140.295">  2  5  1 -1</clus>
<clus scale="  146.947">  1  5  2 -1</clus>
</clustering>
</event>
<event>
 9    1  0.2802611E-005  0.1027814E+03  0.7546771E-02  0.1284546E+00
         -2   -1    0    0    0  501 -0.00000000000E+00  0.00000000000E+00  0.24657045409E+03  0.24657045409E+03  0.00000000000E+00 0.  1.
          1   -1    0    0  502    0  0.00000000000E+00 -0.00000000000E+00 -0.14540346673E+03  0.14540346673E+03  0.00000000000E+00 0. -1.
        -24    2    1    2    0    0  0.17580907455E+02  0.11333675316E+02  0.14107840198E+03  0.16194377047E+03  0.76714593038E+02 0.  0.
         23    2    1    2    0    0  0.96264068168E+01 -0.39389595282E+02 -0.10887939132E+03  0.15075875322E+03  0.96069099583E+02 0.  0.
         13    1    3    3    0    0  0.45764489734E+02  0.53488887927E+00  0.10725740109E+03  0.11661399880E+03  0.00000000000E+00 0. -1.
        -14    1    3    3    0    0 -0.28183582279E+02  0.10798786436E+02  0.33821000892E+02  0.45329771673E+02  0.00000000000E+00 0.  1.
        -13    1    4    4    0    0  0.25426695546E+01  0.20411719015E+02  0.56771929168E+01  0.21338555739E+02  0.00000000000E+00 0.  1.
         13    1    4    4    0    0  0.70837372621E+01 -0.59801314297E+02 -0.11455658423E+03  0.12942019748E+03  0.00000000000E+00 0. -1.
         21    1    1    2  502  501 -0.27207314271E+02  0.28055919967E+02  0.68967976682E+02  0.79271397128E+02  0.00000000000E+00 0.  1.
<scales pt_clust_5="13000.00000" pt_clust_6="13000.00000" pt_clust_7="13000.00000" pt_clust_8="13000.00000" pt_clust_9="39.08161"></scales>
<clustering>
<clus scale="   39.082">  1  9  2 -1</clus>
<clus scale="   76.715">  5  6 -1 -1</clus>
<clus scale="   84.970">  1  5  2 -1</clus>
<clus scale="   96.069">  7  8 -1 -1</clus>
<clus scale="  102.781">  2  5  1 -1</clus>
</clustering>
</event>
<event>
 9    1  0.2802611E-005  0.2095210E+03  0.7546771E-02  0.1142783E+00
          1   -1    0    0  502    0  0.00000000000E+00  0.00000000000E+00  0.26570717803E+03  0.26570717803E+03  0.00000000000E+00 0. -1.
         -2   -1    0    0    0  501 -0.00000000000E+00 -0.00000000000E+00 -0.37759981385E+03  0.37759981385E+03  0.00000000000E+00 0.  1.
         23    2    1    2    0    0  0.81025578070E+02 -0.16406053473E+03 -0.13521165388E+03  0.24414291225E+03  0.88558268405E+02 0.  0.
        -24    2    1    2    0    0 -0.10622407797E+03  0.16001967615E+03  0.15886930898E+03  0.26123230555E+03  0.78185731638E+02 0.  0.
         13    1    4    4    0    0 -0.43669321291E+02  0.68181567180E+02  0.11743094053E+03  0.14263856953E+03  0.00000000000E+00 0. -1.
        -14    1    4    4    0    0 -0.62554756678E+02  0.91838108973E+02  0.41438368448E+02  0.11859373602E+03  0.00000000000E+00 0.  1.
        -11    1    3    3    0    0 -0.14533804725E+02 -0.29665930077E+02 -0.37433877547E+01  0.33246230448E+02  0.00000000000E+00 0. -1.
         11    1    3    3    0    0  0.95559382795E+02 -0.13439460465E+03 -0.13146826612E+03  0.21089668180E+03  0.00000000000E+00 0.  1.
         21    1    1    2  502  501  0.25198499899E+02  0.40408585737E+01 -0.13555029092E+03  0.13793177409E+03  0.00000000000E+00 0.  1.
<scales pt_clust_5="13000.00000" pt_clust_6="13000.00000" pt_clust_7="13000.00000" pt_clust_8="13000.00000" pt_clust_9="25.52044"></scales>
<clustering>
<clus scale="   25.520">  2  9  1 -1</clus>
<clus scale="   78.186">  5  6 -1 -1</clus>
<clus scale="   88.558">  7  8 -1 -1</clus>
<clus scale="  205.352">  1  5  2 -1</clus>
<clus scale="  205.352">  1  5  2 -1</clus>
</clustering>
</event>
<event>
 9    1  0.2802611E-005  0.9318043E+02  0.7546771E-02  0.1300714E+00
          1   -1    0    0  502    0  0.00000000000E+00  0.00000000000E+00  0.46070457935E+02  0.46070457935E+02  0.00000000000E+00 0. -1.
         -2   -1    0    0    0  501 -0.00000000000E+00 -0.00000000000E+00 -0.33337968825E+03  0.33337968825E+03  0.00000000000E+00 0.  1.
        -24    2    1    2    0    0 -0.10389935301E+02 -0.13834945705E+02 -0.11586710294E+03  0.14335318989E+03  0.82617159408E+02 0.  0.
         23    2    1    2    0    0  0.20469019338E+02 -0.10817677222E+02 -0.41079656162E+02  0.10304165331E+03  0.91619000616E+02 0.  0.
         11    1    3    3    0    0 -0.16257392987E+02  0.27166054952E+02 -0.87765776444E+02  0.93301280180E+02  0.00000000000E+00 0. -1.
        -12    1    3    3    0    0  0.58674576864E+01 -0.41001000657E+02 -0.28101326501E+02  0.50051909711E+02  0.00000000000E+00 0.  1.
        -11    1    4    4    0    0 -0.22212872646E+02  0.11078226279E+02  0.15188705877E+02  0.29100439771E+02  0.00000000000E+00 0. -1.
         11    1    4    4    0    0  0.42681891984E+02 -0.21895903500E+02 -0.56268362039E+02  0.73941213542E+02  0.00000000000E+00 0.  1.
         21    1    1    2  502  501 -0.10079084037E+02  0.24652622926E+02 -0.13036247121E+03  0.13305530298E+03  0.00000000000E+00 0. -1.
<scales pt_clust_5="13000.00000" pt_clust_6="13000.00000" pt_clust_7="13000.00000" pt_clust_8="13000.00000" pt_clust_9="26.63343"></scales>
<clustering>
<clus scale="   26.633">  2  9  1 -1</clus>
<clus scale="   82.617">  5  6 -1 -1</clus>
<clus scale="   84.345">  2  5  1 -1</clus>
<clus scale="   91.619">  7  8 -1 -1</clus>
<clus scale="   93.180">  1  5  2 -1</clus>
</clustering>
</event>
<event>
 9    1  0.2802611E-005  0.1428057E+03  0.7546771E-02  0.1211574E+00
          1   -1    0    0  502    0  0.00000000000E+00  0.00000000000E+00  0.63376691289E+02  0.63376691289E+02  0.00000000000E+00 0. -1.
         -2   -1    0    0    0  501 -0.00000000000E+00 -0.00000000000E+00 -0.10562703912E+04  0.10562703912E+04  0.00000000000E+00 0.  1.
        -24    2    1    2    0    0  0.99400997801E+02  0.11238193083E+03 -0.65498503285E+03  0.67687081491E+03  0.81476684215E+02 0.  0.
         23    2    1    2    0    0 -0.75620017444E+02 -0.71999001771E+02 -0.44262679529E+02  0.14541406087E+03  0.91015498718E+02 0.  0.
         11    1    3    3    0    0  0.57737392648E+02  0.11199726366E+03 -0.54183726157E+03  0.55629543554E+03  0.00000000000E+00 0. -1.
        -12    1    3    3    0    0  0.41663605153E+02  0.38466716888E+00 -0.11314777129E+03  0.12057537937E+03  0.00000000000E+00 0.  1.
        -11    1    4    4    0    0 -0.12697697543E+01 -0.44337055579E+02 -0.48811845204E+02  0.65954401255E+02  0.00000000000E+00 0.  1.
         11    1    4    4    0    0 -0.74350247690E+02 -0.27661946191E+02  0.45491656751E+01  0.79459659620E+02  0.00000000000E+00 0. -1.
         21    1    1    2  502  501 -0.23780980357E+02 -0.40382929058E+02 -0.29364598754E+03  0.29736220672E+03  0.00000000000E+00 0.  1.
<scales pt_clust_5="13000.00000" pt_clust_6="13000.00000" pt_clust_7="13000.00000" pt_clust_8="13000.00000" pt_clust_9="46.86487"></scales>
<clustering>
<clus scale="   46.865">  2  9  1 -1</clus>
<clus scale="   81.477">  5  6 -1 -1</clus>
<clus scale="   91.015">  7  8 -1 -1</clus>
<clus scale="  136.924">  2  5  1 -1</clus>
<clus scale="  142.806">  1  5  2 -1</clus>
</clustering>
</event>
<event>
 9    1  0.2802611E-005  0.9110555E+02  0.7546771E-02  0.1303508E+00
          1   -1    0    0  502    0  0.00000000000E+00  0.00000000000E+00  0.63408457388E+02  0.63408457388E+02  0.00000000000E+00 0. -1.
         -2   -1    0    0    0  501 -0.00000000000E+00 -0.00000000000E+00 -0.27587196262E+03  0.27587196262E+03  0.00000000000E+00 0.  1.
        -24    2    1    2    0    0 -0.24902284850E+02 -0.48863327838E+01 -0.81127010514E+02  0.12042202764E+03  0.85298727233E+02 0.  0.
         23    2    1    2    0    0 -0.12784296450E+02 -0.15720353771E+02 -0.14103589604E+02  0.94004605950E+02  0.90704944417E+02 0.  0.
         13    1    3    3    0    0 -0.20995928037E+02 -0.44186433170E+02 -0.38014888444E+02  0.61954835275E+02  0.00000000000E+00 0. -1.
        -14    1    3    3    0    0 -0.39063568128E+01  0.39300100386E+02 -0.43112122069E+02  0.58467192367E+02  0.00000000000E+00 0.  1.
        -11    1    4    4    0    0 -0.49861343800E+02 -0.20011918878E+02 -0.17550386397E+02  0.56521204564E+02  0.00000000000E+00 0. -1.
         11    1    4    4    0    0  0.37077047350E+02  0.42915651070E+01  0.34467967936E+01  0.37483401386E+02  0.00000000000E+00 0.  1.
         21    1    1    2  502  501  0.37686581300E+02  0.20606686555E+02 -0.11723290512E+03  0.12485378642E+03  0.00000000000E+00 0.  1.
<scales pt_clust_5="13000.00000" pt_clust_6="13000.00000" pt_clust_7="13000.00000" pt_clust_8="13000.00000" pt_clust_9="42.95246"></scales>
<clustering>
<clus scale="   42.952">  2  9  1 -1</clus>
<clus scale="   85.299">  5  6 -1 -1</clus>
<clus scale="   85.725">  2  5  1 -1</clus>
<clus scale="   90.705">  7  8 -1 -1</clus>
<clus scale="   91.106">  1  5  2 -1</clus>
</clustering>
</event>
<event>
 9    1  0.2802611E-005  0.9276216E+02  0.7546771E-02  0.1303126E+00
          3   -1    0    0  502    0  0.00000000000E+00  0.00000000000E+00  0.10273556021E+03  0.10273556021E+03  0.00000000000E+00 0. -1.
         -4   -1    0    0    0  501 -0.00000000000E+00 -0.00000000000E+00 -0.15503336231E+03  0.15503336231E+03  0.00000000000E+00 0.  1.
        -24    2    1    2    0    0  0.18801797305E+02 -0.24919582026E+02 -0.51412412245E+02  0.10038887078E+03  0.80375345056E+02 0.  0.
         23    2    1    2    0    0  0.68387107421E+01  0.11386679056E+02  0.45198238958E+02  0.10293488704E+03  0.91522050569E+02 0.  0.
         13    1    3    3    0    0 -0.22920061566E+02 -0.33341693705E+02 -0.11555891588E+02  0.42077742237E+02  0.00000000000E+00 0. -1.
        -14    1    3    3    0    0  0.41721858872E+02  0.84221116794E+01 -0.39856520657E+02  0.58311128541E+02  0.00000000000E+00 0.  1.
        -13    1    4    4    0    0 -0.19052140896E-02  0.48343458803E+02  0.43941231086E+02  0.65329333396E+02  0.00000000000E+00 0. -1.
         13    1    4    4    0    0  0.68406159562E+01 -0.36956779747E+02  0.12570078720E+01  0.37605553642E+02  0.00000000000E+00 0.  1.
         21    1    1    2  502  501 -0.25640508047E+02  0.13532902970E+02 -0.46083628808E+02  0.54445164706E+02  0.00000000000E+00 0. -1.
<scales pt_clust_5="13000.00000" pt_clust_6="13000.00000" pt_clust_7="13000.00000" pt_clust_8="13000.00000" pt_clust_9="28.99267"></scales>
<clustering>
<clus scale="   28.993">  2  9  1 -1</clus>
<clus scale="   80.375">  5  6 -1 -1</clus>
<clus scale="   81.785">  2  5  1 -1</clus>
<clus scale="   91.522">  7  8 -1 -1</clus>
<clus scale="   92.762">  1  5  2 -1</clus>
</clustering>
</event>
<event>
 9    1  0.2802611E-005  0.1491564E+03  0.7546771E-02  0.1203110E+00
         -2   -1    0    0    0  501 -0.00000000000E+00  0.00000000000E+00  0.18562188952E+03  0.18562188952E+03  0.00000000000E+00 0.  1.
          1   -1    0    0  502    0  0.00000000000E+00 -0.00000000000E+00 -0.45800749029E+03  0.45800749029E+03  0.00000000000E+00 0. -1.
        -24    2    1    2    0    0  0.13134829006E+03  0.48335011806E+02  0.98329508769E+02  0.18940729223E+03  0.81349759597E+02 0.  0.
         23    2    1    2    0    0 -0.10682238641E+03 -0.47739877862E+02 -0.39378467092E+03  0.42054600116E+03  0.90013631520E+02 0.  0.
         11    1    3    3    0    0  0.25869752965E+02  0.12028581465E+02 -0.13403167198E+02  0.31521037125E+02  0.00000000000E+00 0. -1.
        -12    1    3    3    0    0  0.10547853710E+03  0.36306430341E+02  0.11173267597E+03  0.15788625511E+03  0.00000000000E+00 0.  1.
        -11    1    4    4    0    0 -0.66013167127E+02 -0.69609566497E+02 -0.31369634518E+03  0.32803753895E+03  0.00000000000E+00 0. -1.
         11    1    4    4    0    0 -0.40809219283E+02  0.21869688635E+02 -0.80088325743E+02  0.92508462206E+02  0.00000000000E+00 0.  1.
         21    1    1    2  502  501 -0.24525903655E+02 -0.59513394370E+00  0.23069561380E+02  0.33676086423E+02  0.00000000000E+00 0. -1.
<scales pt_clust_5="13000.00000" pt_clust_6="13000.00000" pt_clust_7="13000.00000" pt_clust_8="13000.00000" pt_clust_9="24.53312"></scales>
<clustering>
<clus scale="   24.533">  1  9  2 -1</clus>
<clus scale="   81.350">  5  6 -1 -1</clus>
<clus scale="   90.014">  7  8 -1 -1</clus>
<clus scale="  144.094">  1  5  2 -1</clus>
<clus scale="  149.156">  2  5  1 -1</clus>
</clustering>
</event>
<event>
 9    1  0.2802611E-005  0.1313819E+03  0.7546771E-02  0.1227940E+00
          1   -1    0    0  502    0  0.00000000000E+00  0.00000000000E+00  0.46841304966E+03  0.46841304966E+03  0.00000000000E+00 0. -1.
         -2   -1    0    0    0  501 -0.00000000000E+00 -0.00000000000E+00 -0.19462456085E+03  0.19462456085E+03  0.00000000000E+00 0.  1.
         23    2    1    2    0    0 -0.65130895716E+02 -0.60961706882E+02 -0.13764455423E+03  0.18787670257E+03  0.91614784709E+02 0.  0.
        -24    2    1    2    0    0  0.88678549694E+02  0.33533475023E+02  0.41979471805E+03  0.43805676371E+03  0.81717463292E+02 0.  0.
         13    1    4    4    0    0  0.10149714967E+03  0.41418894807E+02  0.38057484825E+03  0.39604849622E+03  0.00000000000E+00 0. -1.
        -14    1    4    4    0    0 -0.12818599973E+02 -0.78854197835E+01  0.39219869792E+02  0.42008267483E+02  0.00000000000E+00 0.  1.
        -13    1    3    3    0    0 -0.56154354145E+02  0.38001284533E+01 -0.35318791040E+02  0.66446741578E+02  0.00000000000E+00 0. -1.
         13    1    3    3    0    0 -0.89765415709E+01 -0.64761835335E+02 -0.10232576319E+03  0.12142996100E+03  0.00000000000E+00 0.  1.
         21    1    1    2  502  501 -0.23547653978E+02  0.27428231858E+02 -0.83616750032E+01  0.37104144237E+02  0.00000000000E+00 0.  1.
<scales pt_clust_5="13000.00000" pt_clust_6="13000.00000" pt_clust_7="13000.00000" pt_clust_8="13000.00000" pt_clust_9="36.14969"></scales>
<clustering>
<clus scale="   36.150">  2  9  1 -1</clus>
<clus scale="   81.717">  5  6 -1 -1</clus>
<clus scale="   91.615">  7  8 -1 -1</clus>
<clus scale="  124.682">  1  5  2 -1</clus>
<clus scale="  124.682">  1  5  2 -1</clus>
</clustering>
</event>
<event>
 9    1  0.2802611E-005  0.1077284E+03  0.7546771E-02  0.1270554E+00
         -4   -1    0    0    0  501 -0.00000000000E+00  0.00000000000E+00  0.62828346336E+03  0.62828346336E+03  0.00000000000E+00 0.  1.
          3   -1    0    0  502    0  0.00000000000E+00 -0.00000000000E+00 -0.40919670067E+02  0.40919670067E+02  0.00000000000E+00 0. -1.
        -24    2    1    2    0    0 -0.16342899552E+02 -0.37684924097E+02  0.41935227611E+03  0.42843481165E+03  0.77542327050E+02 0.  0.
         23    2    1    2    0    0 -0.23991943553E+02  0.58871042641E+02  0.66660664506E+02  0.12964790725E+03  0.91233341733E+02 0.  0.
         13    1    3    3    0    0 -0.43740124869E+02 -0.22814993992E+02  0.16610025201E+03  0.17327151004E+03  0.00000000000E+00 0. -1.
        -14    1    3    3    0    0  0.27397225318E+02 -0.14869930105E+02  0.25325202410E+03  0.25516330161E+03  0.00000000000E+00 0.  1.
        -11    1    4    4    0    0 -0.56642219142E+01  0.81713909406E+02  0.48838864196E+02  0.95364988630E+02  0.00000000000E+00 0. -1.
         11    1    4    4    0    0 -0.18327721639E+02 -0.22842866765E+02  0.17821800309E+02  0.34282918616E+02  0.00000000000E+00 0.  1.
         21    1    1    2  502  501  0.40334843105E+02 -0.21186118544E+02  0.10135085268E+03  0.11112041453E+03  0.00000000000E+00 0. -1.
<scales pt_clust_5="13000.00000" pt_clust_6="13000.00000" pt_clust_7="13000.00000" pt_clust_8="13000.00000" pt_clust_9="45.56041"></scales>
<clustering>
<clus scale="   45.560">  1  9  2 -1</clus>
<clus scale="   77.542">  5  6 -1 -1</clus>
<clus scale="   91.233">  7  8 -1 -1</clus>
<clus scale="   96.409">  1  5  2 -1</clus>
<clus scale="  107.728">  2  5  1 -1</clus>
</clustering>
</event>
<event>
 9    1  0.2802611E-005  0.1149336E+03  0.7546771E-02  0.1256460E+00
         -2   -1    0    0    0  501 -0.00000000000E+00  0.00000000000E+00  0.81299372678E+02  0.81299372678E+02  0.00000000000E+00 0.  1.
          1   -1    0    0  502    0  0.00000000000E+00 -0.00000000000E+00 -0.45748794320E+03  0.45748794320E+03  0.00000000000E+00 0. -1.
         23    2    1    2    0    0 -0.37222295667E+02 -0.23407306256E+02  0.24447523541E+02  0.10511412966E+03  0.92292456708E+02 0.  0.
        -24    2    1    2    0    0  0.54435826272E+02  0.45969282263E+02 -0.38850746060E+03  0.40281136277E+03  0.79009574999E+02 0.  0.
         13    1    4    4    0    0  0.67774937537E+02  0.52220462878E+02 -0.26600479286E+03  0.27942614180E+03  0.00000000000E+00 0. -1.
        -14    1    4    4    0    0 -0.13339111265E+02 -0.62511806149E+01 -0.12250266774E+03  0.12338522097E+03  0.00000000000E+00 0.  1.
        -11    1    3    3    0    0 -0.27724884458E+02 -0.43317556703E+02  0.49743517981E+02  0.71550663994E+02  0.00000000000E+00 0.  1.
         11    1    3    3    0    0 -0.94974112084E+01  0.19910250447E+02 -0.25295994440E+02  0.33563465662E+02  0.00000000000E+00 0. -1.
         21    1    1    2  502  501 -0.17213530605E+02 -0.22561976007E+02 -0.12128633465E+02  0.30861823455E+02  0.00000000000E+00 0. -1.
<scales pt_clust_5="13000.00000" pt_clust_6="13000.00000" pt_clust_7="13000.00000" pt_clust_8="13000.00000" pt_clust_9="28.37866"></scales>
<clustering>
<clus scale="   28.379">  1  9  2 -1</clus>
<clus scale="   79.010">  5  6 -1 -1</clus>
<clus scale="   92.292">  7  8 -1 -1</clus>
<clus scale="  104.567">  2  5  1 -1</clus>
<clus scale="  104.567">  2  5  1 -1</clus>
</clustering>
</event>
<event>
 9    1  0.2802611E-005  0.9934516E+02  0.7546771E-02  0.1287069E+00
          1   -1    0    0  502    0  0.00000000000E+00  0.00000000000E+00  0.13238925356E+03  0.13238925356E+03  0.00000000000E+00 0. -1.
         -2   -1    0    0    0  501 -0.00000000000E+00 -0.00000000000E+00 -0.16532908584E+03  0.16532908584E+03  0.00000000000E+00 0.  1.
        -24    2    1    2    0    0  0.43846116021E+02  0.24187127096E+02 -0.26834284689E+02  0.98399579439E+02  0.80342388511E+02 0.  0.
         23    2    1    2    0    0 -0.94201402599E+01 -0.39233783099E+02  0.65028882375E+02  0.11887215165E+03  0.90960453581E+02 0.  0.
         13    1    3    3    0    0  0.52154197958E+02  0.46764251412E+00 -0.43773891678E+02  0.68091355155E+02  0.00000000000E+00 0. -1.
        -14    1    3    3    0    0 -0.83080819371E+01  0.23719484582E+02  0.16939606989E+02  0.30308224284E+02  0.00000000000E+00 0.  1.
        -13    1    4    4    0    0  0.33419908536E+02 -0.24226272862E+02  0.21665272440E+01  0.41333962109E+02  0.00000000000E+00 0.  1.
         13    1    4    4    0    0 -0.42840048796E+02 -0.15007510237E+02  0.62862355131E+02  0.77538189539E+02  0.00000000000E+00 0. -1.
         21    1    1    2  502  501 -0.34425975761E+02  0.15046656003E+02 -0.71134429960E+02  0.80446608317E+02  0.00000000000E+00 0.  1.
<scales pt_clust_5="13000.00000" pt_clust_6="13000.00000" pt_clust_7="13000.00000" pt_clust_8="13000.00000" pt_clust_9="37.57060"></scales>
<clustering>
<clus scale="   37.571">  2  9  1 -1</clus>
<clus scale="   80.342">  5  6 -1 -1</clus>
<clus scale="   89.725">  2  5  1 -1</clus>
<clus scale="   90.960">  7  8 -1 -1</clus>
<clus scale="   99.345">  1  5  2 -1</clus>
</clustering>
</event>
<event>
 9    1  0.2802611E-005  0.1024932E+03  0.7546771E-02  0.1281448E+00
          1   -1    0    0  502    0  0.00000000000E+00  0.00000000000E+00  0.13034523609E+03  0.13034523609E+03  0.00000000000E+00 0. -1.
         -2   -1    0    0    0  501 -0.00000000000E+00 -0.00000000000E+00 -0.16510053531E+03  0.16510053531E+03  0.00000000000E+00 0.  1.
        -24    2    1    2    0    0 -0.48951926817E+02 -0.35252250020E+02 -0.10548173454E+03  0.14562866554E+03  0.80263937321E+02 0.  0.
         23    2    1    2    0    0  0.36012735119E+02  0.15529125834E+02  0.74914095820E+02  0.12585962666E+03  0.93222599355E+02 0.  0.
         11    1    3    3    0    0 -0.28995871358E+01  0.24064342559E+02 -0.35463003826E+02  0.42954916235E+02  0.00000000000E+00 0. -1.
        -12    1    3    3    0    0 -0.46052339681E+02 -0.59316592579E+02 -0.70018730711E+02  0.10267374930E+03  0.00000000000E+00 0.  1.
        -11    1    4    4    0    0  0.51776072474E+02 -0.58420157255E+01  0.65447594425E+01  0.52514042929E+02  0.00000000000E+00 0.  1.
         11    1    4    4    0    0 -0.15763337355E+02  0.21371141560E+02  0.68369336377E+02  0.73345583731E+02  0.00000000000E+00 0. -1.
         21    1    1    2  502  501  0.12939191698E+02  0.19723124186E+02 -0.41876604972E+01  0.23957479206E+02  0.00000000000E+00 0.  1.
<scales pt_clust_5="13000.00000" pt_clust_6="13000.00000" pt_clust_7="13000.00000" pt_clust_8="13000.00000" pt_clust_9="23.58865"></scales>
<clustering>
<clus scale="   23.589">  2  9  1 -1</clus>
<clus scale="   80.264">  5  6 -1 -1</clus>
<clus scale="   90.866">  2  5  1 -1</clus>
<clus scale="   93.223">  7  8 -1 -1</clus>
<clus scale="  102.493">  1  5  2 -1</clus>
</clustering>
</event>
<event>
 9    1  0.2802611E-005  0.1460492E+03  0.7546771E-02  0.1221625E+00
         -2   -1    0    0    0  501 -0.00000000000E+00  0.00000000000E+00  0.30330507569E+03  0.30330507569E+03  0.00000000000E+00 0.  1.
          1   -1    0    0  502    0  0.00000000000E+00 -0.00000000000E+00 -0.13348170813E+03  0.13348170813E+03  0.00000000000E+00 0. -1.
        -24    2    1    2    0    0  0.29156632748E+02  0.47826860979E+02  0.10281644165E+03  0.14590581850E+03  0.87061870735E+02 0.  0.
         23    2    1    2    0    0  0.69442247362E+02  0.65946102679E+02  0.10241895827E+02  0.12998256551E+03  0.87289499532E+02 0.  0.
         13    1    3    3    0    0  0.39042103802E+02  0.22210951715E+02  0.10888494047E+03  0.11778600301E+03  0.00000000000E+00 0. -1.
        -14    1    3    3    0    0 -0.98854710539E+01  0.25615909264E+02 -0.60684988181E+01  0.28119815492E+02  0.00000000000E+00 0.  1.
        -13    1    4    4    0    0  0.35387282403E+02  0.73540925178E+02  0.33317265765E+02  0.88150823195E+02  0.00000000000E+00 0.  1.
         13    1    4    4    0    0  0.34054964959E+02 -0.75948224983E+01 -0.23075369938E+02  0.41831742313E+02  0.00000000000E+00 0. -1.
         21    1    1    2  502  501 -0.98598880110E+02 -0.11377296366E+03  0.56765030091E+02  0.16089839981E+03  0.00000000000E+00 0.  1.
<scales pt_clust_5="13000.00000" pt_clust_6="13000.00000" pt_clust_7="13000.00000" pt_clust_8="13000.00000" pt_clust_9="117.09362"></scales>
<clustering>
<clus scale="   87.062">  5  6 -1 -1</clus>
<clus scale="   87.289">  7  8 -1 -1</clus>
<clus scale="  103.524">  1  5  2 -1</clus>
<clus scale="  117.094">  1  9  2 -1</clus>
<clus scale="  146.049">  2  5  1 -1</clus>
</clustering>
</event>
<event>
 9    1  0.2802611E-005  0.1655524E+03  0.7546771E-02  0.1202252E+00
          1   -1    0    0  502    0  0.00000000000E+00  0.00000000000E+00  0.10180787885E+03  0.10180787885E+03  0.00000000000E+00 0. -1.
         -2   -1    0    0    0  501 -0.00000000000E+00 -0.00000000000E+00 -0.90616337362E+03  0.90616337362E+03  0.00000000000E+00 0.  1.
         23    2    1    2    0    0 -0.15130609800E+01 -0.52359396278E+02 -0.32716768706E+03  0.34433056765E+03  0.93707249594E+02 0.  0.
        -24    2    1    2    0    0 -0.11210619350E+03 -0.82413971309E+02 -0.69711073065E+01  0.16146846245E+03  0.81630917793E+02 0.  0.
         11    1    4    4    0    0 -0.12302693538E+03 -0.84676052228E+02 -0.22766438837E+01  0.14936814840E+03  0.00000000000E+00 0. -1.
        -12    1    4    4    0    0  0.10920741876E+02  0.22620809190E+01 -0.46944634228E+01  0.12100314047E+02  0.00000000000E+00 0.  1.
        -11    1    3    3    0    0 -0.49497538760E+01 -0.79407657001E+02 -0.25775149047E+03  0.26975156514E+03  0.00000000000E+00 0. -1.
         11    1    3    3    0    0  0.34366928960E+01  0.27048260724E+02 -0.69416196594E+02  0.74579002513E+02  0.00000000000E+00 0.  1.
         21    1    1    2  502  501  0.11361925448E+03  0.13477336759E+03 -0.47021670040E+03  0.50217222238E+03  0.00000000000E+00 0.  1.
<scales pt_clust_5="13000.00000" pt_clust_6="13000.00000" pt_clust_7="13000.00000" pt_clust_8="13000.00000" pt_clust_9="144.02777"></scales>
<clustering>
<clus scale="   81.631">  5  6 -1 -1</clus>
<clus scale="   93.707">  7  8 -1 -1</clus>
<clus scale="  107.354">  2  7  1 -1</clus>
<clus scale="  144.028">  2  9  1 -1</clus>
<clus scale="  165.552">  1  5  2 -1</clus>
</clustering>
</event>
<event>
 9    1  0.2802611E-005  0.1016728E+03  0.7546771E-02  0.1282972E+00
          1   -1    0    0  502    0  0.00000000000E+00  0.00000000000E+00  0.30749185488E+03  0.30749185488E+03  0.00000000000E+00 0. -1.
         -2   -1    0    0    0  501 -0.00000000000E+00 -0.00000000000E+00 -0.11278107464E+03  0.11278107464E+03  0.00000000000E+00 0.  1.
         23    2    1    2    0    0 -0.19981993300E+02 -0.31239175635E+01  0.15032023992E+02  0.96064856027E+02  0.92700894823E+02 0.  0.
        -24    2    1    2    0    0 -0.57682802423E+02 -0.88073967967E+01  0.21596741633E+03  0.23765725831E+03  0.80213288054E+02 0.  0.
         11    1    4    4    0    0 -0.57760301156E+02  0.87484170229E+01  0.21166905498E+03  0.21958273162E+03  0.00000000000E+00 0. -1.
        -12    1    4    4    0    0  0.77498732534E-01 -0.17555813820E+02  0.42983613483E+01  0.18074526694E+02  0.00000000000E+00 0.  1.
        -13    1    3    3    0    0  0.33830098162E+02  0.16117681961E+02  0.24899921671E+01  0.37556028470E+02  0.00000000000E+00 0.  1.
         13    1    3    3    0    0 -0.53812091462E+02 -0.19241599524E+02  0.12542031824E+02  0.58508827557E+02  0.00000000000E+00 0. -1.
         21    1    1    2  502  501  0.77664795724E+02  0.11931314360E+02 -0.36288660078E+02  0.86550815175E+02  0.00000000000E+00 0.  1.
<scales pt_clust_5="13000.00000" pt_clust_6="13000.00000" pt_clust_7="13000.00000" pt_clust_8="13000.00000" pt_clust_9="78.57593"></scales>
<clustering>
<clus scale="   78.576">  2  9  1 -1</clus>
<clus scale="   80.213">  5  6 -1 -1</clus>
<clus scale="   90.433">  1  5  2 -1</clus>
<clus scale="   92.701">  7  8 -1 -1</clus>
<clus scale="   90.433">  1  5  2 -1</clus>
</clustering>
</event>
<event>
 9    1  0.2802611E-005  0.1313428E+03  0.7546771E-02  0.1239944E+00
          1   -1    0    0  502    0  0.00000000000E+00  0.00000000000E+00  0.59549419072E+03  0.59549419072E+03  0.00000000000E+00 0. -1.
         -2   -1    0    0    0  501 -0.00000000000E+00 -0.00000000000E+00 -0.66283263546E+02  0.66283263546E+02  0.00000000000E+00 0.  1.
        -24    2    1    2    0    0  0.26772732452E+02  0.50879641998E+02  0.12384734440E+03  0.15765440641E+03  0.78811356881E+02 0.  0.
         23    2    1    2    0    0 -0.45548062807E+01  0.45401146268E+02  0.20032771906E+02  0.10632478210E+03  0.93923569969E+02 0.  0.
         13    1    3    3    0    0  0.42445931576E+02  0.57652367969E+02  0.66116794196E+02  0.97451952851E+02  0.00000000000E+00 0. -1.
        -14    1    3    3    0    0 -0.15673199124E+02 -0.67727259715E+01  0.57730550203E+02  0.60202453560E+02  0.00000000000E+00 0.  1.
        -11    1    4    4    0    0  0.21579620830E+02  0.18904420999E+02  0.50598050683E+02  0.58165452817E+02  0.00000000000E+00 0. -1.
         11    1    4    4    0    0 -0.26134427110E+02  0.26496725269E+02 -0.30565278777E+02  0.48159329284E+02  0.00000000000E+00 0.  1.
         21    1    1    2  502  501 -0.22217926171E+02 -0.96280788266E+02  0.38533081087E+03  0.39779826576E+03  0.00000000000E+00 0. -1.
<scales pt_clust_5="13000.00000" pt_clust_6="13000.00000" pt_clust_7="13000.00000" pt_clust_8="13000.00000" pt_clust_9="91.81113"></scales>
<clustering>
<clus scale="   78.811">  5  6 -1 -1</clus>
<clus scale="   93.924">  7  8 -1 -1</clus>
<clus scale="   97.554">  2  5  1 -1</clus>
<clus scale="   91.811">  1  9  2 -1</clus>
<clus scale="   91.811">  1  5  2 -1</clus>
</clustering>
</event>
<event>
 9    1  0.2802611E-005  0.8981963E+02  0.7546771E-02  0.1307532E+00
         -2   -1    0    0    0  501 -0.00000000000E+00  0.00000000000E+00  0.98513583118E+02  0.98513583118E+02  0.00000000000E+00 0.  1.
          1   -1    0    0  502    0  0.00000000000E+00 -0.00000000000E+00 -0.24206912171E+03  0.24206912171E+03  0.00000000000E+00 0. -1.
         23    2    1    2    0    0  0.13305930237E+02  0.62844008635E+02 -0.48950011724E+01  0.10929993261E+03  0.88295509692E+02 0.  0.
        -24    2    1    2    0    0  0.16378999006E+02 -0.11552217563E+01 -0.14000205031E+03  0.16281014186E+03  0.81467552168E+02 0.  0.
         13    1    4    4    0    0  0.46272837765E+01 -0.39945565752E+02 -0.50471539099E+02  0.64532443294E+02  0.00000000000E+00 0. -1.
        -14    1    4    4    0    0  0.11751715230E+02  0.38790343996E+02 -0.89530511209E+02  0.98277698566E+02  0.00000000000E+00 0.  1.
        -13    1    3    3    0    0 -0.23441161961E+02  0.25983553757E+01 -0.26522328855E+02  0.35491878686E+02  0.00000000000E+00 0. -1.
         13    1    3    3    0    0  0.36747092199E+02  0.60245653259E+02  0.21627327683E+02  0.73808053926E+02  0.00000000000E+00 0.  1.
         21    1    1    2  502  501 -0.29684929244E+02 -0.61688786878E+02  0.13415128913E+01  0.68472630354E+02  0.00000000000E+00 0.  1.
<scales pt_clust_5="13000.00000" pt_clust_6="13000.00000" pt_clust_7="13000.00000" pt_clust_8="13000.00000" pt_clust_9="68.45949"></scales>
<clustering>
<clus scale="   68.459">  1  9  2 -1</clus>
<clus scale="   81.468">  5  6 -1 -1</clus>
<clus scale="   83.117">  2  5  1 -1</clus>
<clus scale="   88.296">  7  8 -1 -1</clus>
<clus scale="   83.117">  2  5  1 -1</clus>
</clustering>
</event>
<event>
 9    1  0.2802611E-005  0.1076225E+03  0.7546771E-02  0.1271110E+00
         -2   -1    0    0    0  501 -0.00000000000E+00  0.00000000000E+00  0.56670302373E+02  0.56670302373E+02  0.00000000000E+00 0.  1.
          1   -1    0    0  502    0  0.00000000000E+00 -0.00000000000E+00 -0.49418886562E+03  0.49418886562E+03  0.00000000000E+00 0. -1.
        -24    2    1    2    0    0  0.21258666983E+02 -0.52899142840E+02 -0.32822246267E+01  0.97255045537E+02  0.78724333270E+02 0.  0.
         23    2    1    2    0    0 -0.20282602740E+02  0.27592971044E+02 -0.39242808584E+03  0.40472380911E+03  0.92891350930E+02 0.  0.
         13    1    3    3    0    0  0.23747102506E+02 -0.16137622827E+01 -0.30859453959E+02  0.38972233767E+02  0.00000000000E+00 0. -1.
        -14    1    3    3    0    0 -0.24884355234E+01 -0.51285380557E+02  0.27577229332E+02  0.58282811771E+02  0.00000000000E+00 0.  1.
        -11    1    4    4    0    0 -0.34441647026E+01 -0.33474825104E+02 -0.17720248927E+03  0.18036947743E+03  0.00000000000E+00 0.  1.
         11    1    4    4    0    0 -0.16838438037E+02  0.61067796148E+02 -0.21522559657E+03  0.22435433168E+03  0.00000000000E+00 0. -1.
         21    1    1    2  502  501 -0.97606424291E+00  0.25306171796E+02 -0.41808252780E+02  0.48880313347E+02  0.00000000000E+00 0. -1.
<scales pt_clust_5="13000.00000" pt_clust_6="13000.00000" pt_clust_7="13000.00000" pt_clust_8="13000.00000" pt_clust_9="25.32499"></scales>
<clustering>
<clus scale="   25.325">  2  9  1 -1</clus>
<clus scale="   78.724">  5  6 -1 -1</clus>
<clus scale="   92.891">  7  8 -1 -1</clus>
<clus scale="   95.663">  1  5  2 -1</clus>
<clus scale="   25.325">  2  5  1 -1</clus>
</clustering>
</event>
<event>
 9    1  0.2802611E-005  0.9743382E+02  0.7546771E-02  0.1301084E+00
          1   -1    0    0  502    0  0.00000000000E+00  0.00000000000E+00  0.35069186919E+03  0.35069186919E+03  0.00000000000E+00 0. -1.
         -2   -1    0    0    0  501 -0.00000000000E+00 -0.00000000000E+00 -0.10361570400E+03  0.10361570400E+03  0.00000000000E+00 0.  1.
         23    2    1    2    0    0  0.94069917886E+01 -0.86959782354E+01 -0.48319934971E+02  0.10931749365E+03  0.97218242990E+02 0.  0.
        -24    2    1    2    0    0  0.64101790672E+01 -0.39082881711E+01  0.31094151865E+03  0.31948105248E+03  0.72987326034E+02 0.  0.
         11    1    4    4    0    0 -0.32094617585E+02  0.73628588990E+01  0.12538555782E+03  0.12963724110E+03  0.00000000000E+00 0. -1.
        -12    1    4    4    0    0  0.38504796652E+02 -0.11271147070E+02  0.18555596083E+03  0.18984381138E+03  0.00000000000E+00 0.  1.
        -11    1    3    3    0    0  0.47059469618E+02  0.13637253282E+02 -0.43053859623E+02  0.65224253053E+02  0.00000000000E+00 0.  1.
         11    1    3    3    0    0 -0.37652477830E+02 -0.22333231517E+02 -0.52660753477E+01  0.44093240596E+02  0.00000000000E+00 0. -1.
         21    1    1    2  502  501 -0.15817170856E+02  0.12604266407E+02 -0.15545418493E+02  0.25509027062E+02  0.00000000000E+00 0. -1.
<scales pt_clust_5="13000.00000" pt_clust_6="13000.00000" pt_clust_7="13000.00000" pt_clust_8="13000.00000" pt_clust_9="20.22500"></scales>
<clustering>
<clus scale="   20.225">  2  9  1 -1</clus>
<clus scale="   72.987">  5  6 -1 -1</clus>
<clus scale="   73.274">  1  5  2 -1</clus>
<clus scale="   97.218">  7  8 -1 -1</clus>
<clus scale="   73.274">  1  5  2 -1</clus>
</clustering>
</event>
<event>
 9    1  0.2802611E-005  0.1417938E+03  0.7546771E-02  0.1216762E+00
          1   -1    0    0  502    0  0.00000000000E+00  0.00000000000E+00  0.26998591758E+03  0.26998591758E+03  0.00000000000E+00 0. -1.
         -2   -1    0    0    0  501 -0.00000000000E+00 -0.00000000000E+00 -0.15809506096E+03  0.15809506096E+03  0.00000000000E+00 0.  1.
        -24    2    1    2    0    0 -0.12944258755E+03  0.54896667101E+02  0.76350624289E+01  0.16365280108E+03  0.83396148554E+02 0.  0.
         23    2    1    2    0    0  0.54021568966E+02 -0.58018184530E+02  0.12883121336E+03  0.18504288195E+03  0.10657836073E+03 0.  0.
         11    1    3    3    0    0 -0.60986091004E+02 -0.14981902150E+02  0.17879525511E+02  0.65295008389E+02  0.00000000000E+00 0. -1.
        -12    1    3    3    0    0 -0.68456496544E+02  0.69878569251E+02 -0.10244463082E+02  0.98357792693E+02  0.00000000000E+00 0.  1.
        -13    1    4    4    0    0  0.27980330909E+02 -0.22047212309E+02  0.13552934415E+03  0.14013272856E+03  0.00000000000E+00 0. -1.
         13    1    4    4    0    0  0.26041238056E+02 -0.35970972221E+02 -0.66981307830E+01  0.44910153396E+02  0.00000000000E+00 0.  1.
         21    1    1    2  502  501  0.75421018583E+02  0.31215174284E+01 -0.24575419163E+02  0.79385295503E+02  0.00000000000E+00 0. -1.
<scales pt_clust_5="13000.00000" pt_clust_6="13000.00000" pt_clust_7="13000.00000" pt_clust_8="13000.00000" pt_clust_9="75.48559"></scales>
<clustering>
<clus scale="   75.486">  2  9  1 -1</clus>
<clus scale="   83.396">  5  6 -1 -1</clus>
<clus scale="  106.578">  7  8 -1 -1</clus>
<clus scale="  125.305">  2  5  1 -1</clus>
<clus scale="  141.794">  1  5  2 -1</clus>
</clustering>
</event>
<event>
 9    1  0.2802611E-005  0.9431746E+02  0.7546771E-02  0.1300972E+00
          1   -1    0    0  502    0  0.00000000000E+00  0.00000000000E+00  0.22495853632E+02  0.22495853632E+02  0.00000000000E+00 0. -1.
         -2   -1    0    0    0  501 -0.00000000000E+00 -0.00000000000E+00 -0.67330376512E+03  0.67330376512E+03  0.00000000000E+00 0.  1.
        -24    2    1    2    0    0  0.18770325973E+02  0.29573793454E+02 -0.33403083544E+03  0.34462657878E+03  0.77226584690E+02 0.  0.
         23    2    1    2    0    0 -0.25530577211E+02  0.40608012138E+01 -0.12768492980E+03  0.15899388728E+03  0.91144470022E+02 0.  0.
         11    1    3    3    0    0  0.58516862913E+01  0.55105347723E+02 -0.19734105235E+03  0.20497398011E+03  0.00000000000E+00 0. -1.
        -12    1    3    3    0    0  0.12918639681E+02 -0.25531554269E+02 -0.13668978309E+03  0.13965259867E+03  0.00000000000E+00 0.  1.
        -11    1    4    4    0    0 -0.35546911713E+01 -0.28371063232E+02 -0.11394576497E+03  0.11747846787E+03  0.00000000000E+00 0.  1.
         11    1    4    4    0    0 -0.21975886039E+02  0.32431864446E+02 -0.13739164828E+02  0.41515419410E+02  0.00000000000E+00 0. -1.
         21    1    1    2  502  501  0.67602512379E+01 -0.33634594667E+02 -0.18909214625E+03  0.19217915269E+03  0.00000000000E+00 0.  1.
<scales pt_clust_5="13000.00000" pt_clust_6="13000.00000" pt_clust_7="13000.00000" pt_clust_8="13000.00000" pt_clust_9="34.30724"></scales>
<clustering>
<clus scale="   34.307">  2  9  1 -1</clus>
<clus scale="   77.227">  5  6 -1 -1</clus>
<clus scale="   80.947">  2  5  1 -1</clus>
<clus scale="   91.144">  7  8 -1 -1</clus>
<clus scale="   94.317">  1  5  2 -1</clus>
</clustering>
</event>
<event>
 9    1  0.2802611E-005  0.1213436E+03  0.7546771E-02  0.1244128E+00
          1   -1    0    0  502    0  0.00000000000E+00  0.00000000000E+00  0.50941943128E+03  0.50941943128E+03  0.00000000000E+00 0. -1.
         -2   -1    0    0    0  501 -0.00000000000E+00 -0.00000000000E+00 -0.94810730758E+02  0.94810730758E+02  0.00000000000E+00 0.  1.
         23    2    1    2    0    0  0.89216127037E+02 -0.28193751802E+02 -0.18226457658E+01  0.13067263481E+03  0.91200934683E+02 0.  0.
        -24    2    1    2    0    0 -0.39209587581E+02  0.71134551031E+02  0.38280369014E+03  0.39956167947E+03  0.80705355503E+02 0.  0.
         11    1    4    4    0    0 -0.24233128895E+02  0.88386847738E+02  0.30830516518E+03  0.32163885690E+03  0.00000000000E+00 0. -1.
        -12    1    4    4    0    0 -0.14976458686E+02 -0.17252296707E+02  0.74498524960E+02  0.77922822573E+02  0.00000000000E+00 0.  1.
        -13    1    3    3    0    0  0.64412889132E+02 -0.34328391939E+02 -0.41137943011E+02  0.83784181888E+02  0.00000000000E+00 0.  1.
         13    1    3    3    0    0  0.24803237905E+02  0.61346401368E+01  0.39315297245E+02  0.46888452925E+02  0.00000000000E+00 0. -1.
         21    1    1    2  502  501 -0.50006539456E+02 -0.42940799229E+02  0.33627656144E+02  0.73995847752E+02  0.00000000000E+00 0.  1.
<scales pt_clust_5="13000.00000" pt_clust_6="13000.00000" pt_clust_7="13000.00000" pt_clust_8="13000.00000" pt_clust_9="65.91332"></scales>
<clustering>
<clus scale="   65.913">  2  9  1 -1</clus>
<clus scale="   80.705">  5  6 -1 -1</clus>
<clus scale="   91.201">  7  8 -1 -1</clus>
<clus scale="  113.666">  1  5  2 -1</clus>
<clus scale="  113.666">  1  5  2 -1</clus>
</clustering>
</event>
<event>
 9    1  0.2802611E-005  0.1050455E+03  0.7546771E-02  0.1277443E+00
          1   -1    0    0  502    0  0.00000000000E+00  0.00000000000E+00  0.10075821557E+03  0.10075821557E+03  0.00000000000E+00 0. -1.
         -2   -1    0    0    0  501 -0.00000000000E+00 -0.00000000000E+00 -0.20636160001E+03  0.20636160001E+03  0.00000000000E+00 0.  1.
        -24    2    1    2    0    0  0.11269550732E+02  0.73636098375E+01 -0.76954478459E+02  0.11156092561E+03  0.79640585416E+02 0.  0.
         23    2    1    2    0    0 -0.24706854529E+01 -0.61004166915E+02  0.28486850031E+02  0.11669683312E+03  0.95283983798E+02 0.  0.
         13    1    3    3    0    0  0.43745599656E+02  0.13477998766E+02 -0.56421711423E+02  0.72654961702E+02  0.00000000000E+00 0. -1.
        -14    1    3    3    0    0 -0.32476048925E+02 -0.61143889286E+01 -0.20532767036E+02  0.38905963911E+02  0.00000000000E+00 0.  1.
        -11    1    4    4    0    0 -0.26229524127E+02 -0.38781028133E+02 -0.25764194441E+02  0.53439215883E+02  0.00000000000E+00 0.  1.
         11    1    4    4    0    0  0.23758838674E+02 -0.22223138782E+02  0.54251044472E+02  0.63257617239E+02  0.00000000000E+00 0. -1.
         21    1    1    2  502  501 -0.87988652787E+01  0.53640557077E+02 -0.57135756017E+02  0.78862056842E+02  0.00000000000E+00 0.  1.
<scales pt_clust_5="13000.00000" pt_clust_6="13000.00000" pt_clust_7="13000.00000" pt_clust_8="13000.00000" pt_clust_9="54.35742"></scales>
<clustering>
<clus scale="   54.357">  2  9  1 -1</clus>
<clus scale="   79.641">  5  6 -1 -1</clus>
<clus scale="   91.094">  2  5  1 -1</clus>
<clus scale="   95.284">  7  8 -1 -1</clus>
<clus scale="  105.046">  1  5  2 -1</clus>
</clustering>
</event>
<event>
 9    1  0.2802611E-005  0.1481391E+03  0.7546771E-02  0.1206020E+00
          1   -1    0    0  502    0  0.00000000000E+00  0.00000000000E+00  0.70238400862E+03  0.70238400862E+03  0.00000000000E+00 0. -1.
         -2   -1    0    0    0  501 -0.00000000000E+00 -0.00000000000E+00 -0.48170852591E+02  0.48170852591E+02  0.00000000000E+00 0.  1.
        -24    2    1    2    0    0  0.76150040011E+02  0.85161554975E+02  0.26889200253E+03  0.30134003106E+03  0.73834857996E+02 0.  0.
         23    2    1    2    0    0 -0.60201008950E+02 -0.10383704845E+03  0.39502678031E+03  0.42280754252E+03  0.91179859277E+02 0.  0.
         11    1    3    3    0    0  0.26289027057E+02 -0.34576339077E+01  0.22444093846E+02  0.34739106557E+02  0.00000000000E+00 0. -1.
        -12    1    3    3    0    0  0.49861012954E+02  0.88619188883E+02  0.24644790868E+03  0.26660092450E+03  0.00000000000E+00 0.  1.
        -11    1    4    4    0    0  0.11637231915E+02 -0.41025435469E+02  0.54717246689E+02  0.69372102515E+02  0.00000000000E+00 0.  1.
         11    1    4    4    0    0 -0.71838240866E+02 -0.62811612976E+02  0.34030953363E+03  0.35343544001E+03  0.00000000000E+00 0. -1.
         21    1    1    2  502  501 -0.15949031061E+02  0.18675493470E+02 -0.97056268150E+01  0.26407287631E+02  0.00000000000E+00 0.  1.
<scales pt_clust_5="13000.00000" pt_clust_6="13000.00000" pt_clust_7="13000.00000" pt_clust_8="13000.00000" pt_clust_9="24.55902"></scales>
<clustering>
<clus scale="   24.559">  2  9  1 -1</clus>
<clus scale="   73.835">  5  6 -1 -1</clus>
<clus scale="   91.180">  7  8 -1 -1</clus>
<clus scale="  138.141">  2  5  1 -1</clus>
<clus scale="  148.139">  1  5  2 -1</clus>
</clustering>
</event>
<event>
 9    1  0.2802611E-005  0.1416983E+03  0.7546771E-02  0.1213849E+00
         -2   -1    0    0    0  501 -0.00000000000E+00  0.00000000000E+00  0.86080589281E+02  0.86080589281E+02  0.00000000000E+00 0.  1.
          1   -1    0    0  502    0  0.00000000000E+00 -0.00000000000E+00 -0.62091011882E+03  0.62091011882E+03  0.00000000000E+00 0. -1.
        -24    2    1    2    0    0 -0.11968923185E+02  0.82389560256E+02  0.21329725704E+02  0.11845560771E+03  0.81519807646E+02 0.  0.
         23    2    1    2    0    0  0.14705605267E+02 -0.10782472718E+03 -0.53858039273E+03  0.55749555219E+03  0.94286927291E+02 0.  0.
         11    1    3    3    0    0 -0.43752722959E+01  0.32324016336E+02 -0.31451017139E+02  0.45311715029E+02  0.00000000000E+00 0. -1.
        -12    1    3    3    0    0 -0.75936508891E+01  0.50065543920E+02  0.52780742843E+02  0.73143892684E+02  0.00000000000E+00 0.  1.
        -13    1    4    4    0    0  0.53299130870E+02 -0.75851259964E+02 -0.38210118181E+03  0.39318637328E+03  0.00000000000E+00 0. -1.
         13    1    4    4    0    0 -0.38593525603E+02 -0.31973467215E+02 -0.15647921092E+03  0.16430917891E+03  0.00000000000E+00 0.  1.
         21    1    1    2  502  501 -0.27366820822E+01  0.25435166923E+02 -0.17578862511E+02  0.31039548199E+02  0.00000000000E+00 0.  1.
<scales pt_clust_5="13000.00000" pt_clust_6="13000.00000" pt_clust_7="13000.00000" pt_clust_8="13000.00000" pt_clust_9="25.58197"></scales>
<clustering>
<clus scale="   25.582">  1  9  2 -1</clus>
<clus scale="   81.520">  5  6 -1 -1</clus>
<clus scale="   94.287">  7  8 -1 -1</clus>
<clus scale="  133.543">  1  5  2 -1</clus>
<clus scale="  141.698">  2  5  1 -1</clus>
</clustering>
</event>
<event>
 9    1  0.2802611E-005  0.1043681E+03  0.7546771E-02  0.1273626E+00
          1   -1    0    0  502    0  0.00000000000E+00  0.00000000000E+00  0.11556209755E+03  0.11556209755E+03  0.00000000000E+00 0. -1.
         -2   -1    0    0    0  501 -0.00000000000E+00 -0.00000000000E+00 -0.36349730407E+03  0.36349730407E+03  0.00000000000E+00 0.  1.
        -24    2    1    2    0    0 -0.25636558817E+01  0.51166396696E+02 -0.26579550292E+03  0.28303999325E+03  0.82703179628E+02 0.  0.
         23    2    1    2    0    0 -0.32341216038E+02 -0.98757058902E+02  0.12975230127E+02  0.13679876092E+03  0.88014961534E+02 0.  0.
         11    1    3    3    0    0  0.20932371923E+02  0.52568612840E+02 -0.94574678666E+02  0.11020886124E+03  0.00000000000E+00 0. -1.
        -12    1    3    3    0    0 -0.23496027804E+02 -0.14022161437E+01 -0.17122082426E+03  0.17283113201E+03  0.00000000000E+00 0.  1.
        -11    1    4    4    0    0  0.26718700907E+02 -0.36035049593E+02  0.22384662075E+02  0.50134687329E+02  0.00000000000E+00 0.  1.
         11    1    4    4    0    0 -0.59059916945E+02 -0.62722009309E+02 -0.94094319481E+01  0.86664073588E+02  0.00000000000E+00 0. -1.
         21    1    1    2  502  501  0.34904871919E+02  0.47590662206E+02  0.48850662714E+01  0.59220647458E+02  0.00000000000E+00 0. -1.
<scales pt_clust_5="13000.00000" pt_clust_6="13000.00000" pt_clust_7="13000.00000" pt_clust_8="13000.00000" pt_clust_9="59.01882"></scales>
<clustering>
<clus scale="   59.019">  1  9  2 -1</clus>
<clus scale="   82.703">  5  6 -1 -1</clus>
<clus scale="   88.015">  7  8 -1 -1</clus>
<clus scale="   99.929">  2  5  1 -1</clus>
<clus scale="   59.019">  1  5  2 -1</clus>
</clustering>
</event>
<event>
 9    1  0.2802611E-005  0.1499820E+03  0.7546771E-02  0.1201831E+00
          1   -1    0    0  502    0  0.00000000000E+00  0.00000000000E+00  0.88862511652E+03  0.88862511652E+03  0.00000000000E+00 0. -1.
         -2   -1    0    0    0  501 -0.00000000000E+00 -0.00000000000E+00 -0.53551535358E+02  0.53551535358E+02  0.00000000000E+00 0.  1.
         23    2    1    2    0    0 -0.15480632361E+03 -0.23368115691E+02  0.19789355624E+03  0.26782019983E+03  0.89748165278E+02 0.  0.
        -24    2    1    2    0    0  0.10976095109E+03  0.21925756915E+02  0.60013037556E+03  0.61601399322E+03  0.82392760460E+02 0.  0.
         11    1    4    4    0    0  0.74015125102E+02  0.52854437297E+02  0.36318829419E+03  0.37440294780E+03  0.00000000000E+00 0. -1.
        -12    1    4    4    0    0  0.35745825988E+02 -0.30928680381E+02  0.23694208137E+03  0.24161104542E+03  0.00000000000E+00 0.  1.
        -13    1    3    3    0    0 -0.13054739913E+03 -0.25040649239E+02  0.98365024626E+02  0.16536425128E+03  0.00000000000E+00 0.  1.
         13    1    3    3    0    0 -0.24258924487E+02  0.16725335480E+01  0.99528531618E+02  0.10245594854E+03  0.00000000000E+00 0. -1.
         21    1    1    2  502  501  0.45045372524E+02  0.14423587760E+01  0.37049649361E+02  0.58342458831E+02  0.00000000000E+00 0.  1.
<scales pt_clust_5="13000.00000" pt_clust_6="13000.00000" pt_clust_7="13000.00000" pt_clust_8="13000.00000" pt_clust_9="45.06846"></scales>
<clustering>
<clus scale="   45.068">  2  9  1 -1</clus>
<clus scale="   82.393">  5  6 -1 -1</clus>
<clus scale="   89.748">  7  8 -1 -1</clus>
<clus scale="  145.700">  1  5  2 -1</clus>
<clus scale="  145.700">  1  5  2 -1</clus>
</clustering>
</event>
<event>
 9    1  0.2802611E-005  0.1057606E+03  0.7546771E-02  0.1274624E+00
          1   -1    0    0  502    0  0.00000000000E+00  0.00000000000E+00  0.75035160436E+02  0.75035160436E+02  0.00000000000E+00 0. -1.
         -2   -1    0    0    0  501 -0.00000000000E+00 -0.00000000000E+00 -0.27909214520E+03  0.27909214520E+03  0.00000000000E+00 0.  1.
        -24    2    1    2    0    0 -0.46819072244E+02  0.15560541832E+02 -0.15588214378E+03  0.18240779435E+03  0.80865349216E+02 0.  0.
         23    2    1    2    0    0  0.27840529912E+02 -0.42123011473E+02  0.76630838808E+01  0.10703857347E+03  0.94069602716E+02 0.  0.
         11    1    3    3    0    0  0.22640922948E+02 -0.12446269095E+01 -0.46749720980E+02  0.51958607562E+02  0.00000000000E+00 0. -1.
        -12    1    3    3    0    0 -0.69459995192E+02  0.16805168742E+02 -0.10913242280E+03  0.13044918679E+03  0.00000000000E+00 0.  1.
        -11    1    4    4    0    0 -0.13695924924E+02 -0.17318755132E+02 -0.35761879937E+02  0.42028914993E+02  0.00000000000E+00 0.  1.
         11    1    4    4    0    0  0.41536454836E+02 -0.24804256341E+02  0.43424963818E+02  0.65009658479E+02  0.00000000000E+00 0. -1.
         21    1    1    2  502  501  0.18978542333E+02  0.26562469641E+02 -0.55837924862E+02  0.64680937805E+02  0.00000000000E+00 0. -1.
<scales pt_clust_5="13000.00000" pt_clust_6="13000.00000" pt_clust_7="13000.00000" pt_clust_8="13000.00000" pt_clust_9="32.64582"></scales>
<clustering>
<clus scale="   32.646">  2  9  1 -1</clus>
<clus scale="   80.865">  5  6 -1 -1</clus>
<clus scale="   94.070">  7  8 -1 -1</clus>
<clus scale="   94.209">  2  5  1 -1</clus>
<clus scale="  105.761">  1  5  2 -1</clus>
</clustering>
</event>
<event>
 9    1  0.2802611E-005  0.9484217E+02  0.7546771E-02  0.1296872E+00
          1   -1    0    0  502    0  0.00000000000E+00  0.00000000000E+00  0.15621318309E+03  0.15621318309E+03  0.00000000000E+00 0. -1.
         -2   -1    0    0    0  501 -0.00000000000E+00 -0.00000000000E+00 -0.24702417822E+03  0.24702417822E+03  0.00000000000E+00 0.  1.
         23    2    1    2    0    0 -0.17633229849E+02  0.47502949526E+02  0.18871857288E+02  0.10474638138E+03  0.89711740621E+02 0.  0.
        -24    2    1    2    0    0  0.22598837118E+02 -0.11282607229E+02  0.73522925024E+02  0.11167308107E+03  0.80170143231E+02 0.  0.
         11    1    4    4    0    0 -0.52360754903E+01  0.28364933310E+02  0.50226431944E+02  0.57919602848E+02  0.00000000000E+00 0. -1.
        -12    1    4    4    0    0  0.27834912608E+02 -0.39647540540E+02  0.23296493081E+02  0.53753478219E+02  0.00000000000E+00 0.  1.
        -13    1    3    3    0    0 -0.30777738262E+02 -0.11885371781E+02  0.27958395326E+02  0.43245844934E+02  0.00000000000E+00 0. -1.
         13    1    3    3    0    0  0.13144508413E+02  0.59388321307E+02 -0.90865380371E+01  0.61500536441E+02  0.00000000000E+00 0.  1.
         21    1    1    2  502  501 -0.49656072689E+01 -0.36220342297E+02 -0.18320577744E+03  0.18681789887E+03  0.00000000000E+00 0.  1.
<scales pt_clust_5="13000.00000" pt_clust_6="13000.00000" pt_clust_7="13000.00000" pt_clust_8="13000.00000" pt_clust_9="36.55914"></scales>
<clustering>
<clus scale="   36.559">  2  9  1 -1</clus>
<clus scale="   80.170">  5  6 -1 -1</clus>
<clus scale="   85.873">  1  5  2 -1</clus>
<clus scale="   89.712">  7  8 -1 -1</clus>
<clus scale="   85.873">  1  5  2 -1</clus>
</clustering>
</event>
<event>
 9    1  0.2802611E-005  0.1067607E+03  0.7546771E-02  0.1269764E+00
          1   -1    0    0  502    0  0.00000000000E+00  0.00000000000E+00  0.27750454988E+03  0.27750454988E+03  0.00000000000E+00 0. -1.
         -2   -1    0    0    0  501 -0.00000000000E+00 -0.00000000000E+00 -0.23848451084E+03  0.23848451084E+03  0.00000000000E+00 0.  1.
         23    2    1    2    0    0 -0.22149974129E+02  0.64626234503E+02 -0.20428229670E+03  0.23369384623E+03  0.90633247102E+02 0.  0.
        -24    2    1    2    0    0  0.39823604706E+01 -0.55836601469E+02  0.24211222199E+03  0.26207798903E+03  0.83264392362E+02 0.  0.
         13    1    4    4    0    0  0.33359762299E+02 -0.32136428564E+02  0.20099146147E+03  0.20626000913E+03  0.00000000000E+00 0. -1.
        -14    1    4    4    0    0 -0.29377401829E+02 -0.23700172905E+02  0.41120760520E+02  0.55817979896E+02  0.00000000000E+00 0.  1.
        -13    1    3    3    0    0  0.26217247145E+02  0.52450640369E+02 -0.75540537858E+02  0.95628377497E+02  0.00000000000E+00 0.  1.
         13    1    3    3    0    0 -0.48367221274E+02  0.12175594135E+02 -0.12874175884E+03  0.13806546873E+03  0.00000000000E+00 0. -1.
         21    1    1    2  502  501  0.18167613659E+02 -0.87896330345E+01  0.11901137452E+01  0.20217225469E+02  0.00000000000E+00 0. -1.
<scales pt_clust_5="13000.00000" pt_clust_6="13000.00000" pt_clust_7="13000.00000" pt_clust_8="13000.00000" pt_clust_9="20.18217"></scales>
<clustering>
<clus scale="   20.182">  2  9  1 -1</clus>
<clus scale="   83.264">  5  6 -1 -1</clus>
<clus scale="   90.633">  7  8 -1 -1</clus>
<clus scale="  100.580">  1  5  2 -1</clus>
<clus scale="  100.580">  1  5  2 -1</clus>
</clustering>
</event>
<event>
 9    1  0.2802611E-005  0.1003553E+03  0.7546771E-02  0.1285045E+00
          1   -1    0    0  502    0  0.00000000000E+00  0.00000000000E+00  0.12967500564E+03  0.12967500564E+03  0.00000000000E+00 0. -1.
         -2   -1    0    0    0  501 -0.00000000000E+00 -0.00000000000E+00 -0.25183412922E+03  0.25183412922E+03  0.00000000000E+00 0.  1.
        -24    2    1    2    0    0  0.54651591579E+02  0.21511719657E+02 -0.59251093588E+02  0.11559235778E+03  0.80008440441E+02 0.  0.
         23    2    1    2    0    0 -0.38498230213E+02  0.91623934313E+01  0.74536929848E+02  0.12416717644E+03  0.91080572081E+02 0.  0.
         11    1    3    3    0    0  0.22583169218E+02  0.88786598147E+01  0.18520035953E+02  0.30525757382E+02  0.00000000000E+00 0. -1.
        -12    1    3    3    0    0  0.32068422361E+02  0.12633059843E+02 -0.77771129541E+02  0.85066600401E+02  0.00000000000E+00 0.  1.
        -13    1    4    4    0    0 -0.11532977726E+02  0.17223856100E+02 -0.17994946488E+02  0.27449752153E+02  0.00000000000E+00 0.  1.
         13    1    4    4    0    0 -0.26965252487E+02 -0.80614626686E+01  0.92531876336E+02  0.96717424285E+02  0.00000000000E+00 0. -1.
         21    1    1    2  502  501 -0.16153361366E+02 -0.30674113089E+02 -0.13744495983E+03  0.14174960064E+03  0.00000000000E+00 0.  1.
<scales pt_clust_5="13000.00000" pt_clust_6="13000.00000" pt_clust_7="13000.00000" pt_clust_8="13000.00000" pt_clust_9="34.66745"></scales>
<clustering>
<clus scale="   34.667">  2  9  1 -1</clus>
<clus scale="   80.008">  5  6 -1 -1</clus>
<clus scale="   90.426">  2  5  1 -1</clus>
<clus scale="   91.081">  7  8 -1 -1</clus>
<clus scale="  100.355">  1  5  2 -1</clus>
</clustering>
</event>
<event>
 9    1  0.2802611E-005  0.1080663E+03  0.7546771E-02  0.1268146E+00
         -2   -1    0    0    0  501 -0.00000000000E+00  0.00000000000E+00  0.18232944038E+03  0.18232944038E+03  0.00000000000E+00 0.  1.
          1   -1    0    0  502    0  0.00000000000E+00 -0.00000000000E+00 -0.11075547169E+03  0.11075547169E+03  0.00000000000E+00 0. -1.
        -24    2    1    2    0    0  0.52738094226E+01 -0.59767301252E+02  0.52890791248E+02  0.11472652320E+03  0.82248379685E+02 0.  0.
         23    2    1    2    0    0  0.33401396282E+02  0.49853546289E+02 -0.31604196917E+02  0.11414877827E+03  0.91815515941E+02 0.  0.
         13    1    3    3    0    0  0.40420889753E+02 -0.18085511068E+02  0.10105428211E+02  0.45420851141E+02  0.00000000000E+00 0. -1.
        -14    1    3    3    0    0 -0.35147080331E+02 -0.41681790184E+02  0.42785363037E+02  0.69305672055E+02  0.00000000000E+00 0.  1.
        -11    1    4    4    0    0  0.60244294024E+02  0.11231136883E+02 -0.89133077572E+01  0.61927057521E+02  0.00000000000E+00 0. -1.
         11    1    4    4    0    0 -0.26842897742E+02  0.38622409406E+02 -0.22690889160E+02  0.52221720753E+02  0.00000000000E+00 0.  1.
         21    1    1    2  502  501 -0.38675205705E+02  0.99137549629E+01  0.50287374362E+02  0.64209610605E+02  0.00000000000E+00 0.  1.
<scales pt_clust_5="13000.00000" pt_clust_6="13000.00000" pt_clust_7="13000.00000" pt_clust_8="13000.00000" pt_clust_9="39.92561"></scales>
<clustering>
<clus scale="   39.926">  1  9  2 -1</clus>
<clus scale="   82.248">  5  6 -1 -1</clus>
<clus scale="   91.816">  7  8 -1 -1</clus>
<clus scale="  100.065">  1  5  2 -1</clus>
<clus scale="  108.066">  2  5  1 -1</clus>
</clustering>
</event>
<event>
 9    1  0.2802611E-005  0.9312207E+02  0.7546771E-02  0.1301982E+00
         -2   -1    0    0    0  501 -0.00000000000E+00  0.00000000000E+00  0.41806239586E+03  0.41806239586E+03  0.00000000000E+00 0.  1.
          1   -1    0    0  502    0  0.00000000000E+00 -0.00000000000E+00 -0.50609970092E+02  0.50609970092E+02  0.00000000000E+00 0. -1.
        -24    2    1    2    0    0 -0.36501226174E+02 -0.20613750412E+02  0.23481959827E+03  0.25215178664E+03  0.81749700625E+02 0.  0.
         23    2    1    2    0    0 -0.13013524721E+02  0.86944982437E+01  0.24314662234E+02  0.96826786436E+02  0.92408212008E+02 0.  0.
         11    1    3    3    0    0 -0.61091500933E+02 -0.25877892008E+01  0.14799136552E+03  0.16012592672E+03  0.00000000000E+00 0. -1.
        -12    1    3    3    0    0  0.24590274760E+02 -0.18025961212E+02  0.86828232755E+02  0.92025859918E+02  0.00000000000E+00 0.  1.
        -11    1    4    4    0    0  0.98209360112E+01  0.23656177793E+02  0.51987310819E+02  0.57954689354E+02  0.00000000000E+00 0.  1.
         11    1    4    4    0    0 -0.22834460733E+02 -0.14961679549E+02 -0.27672648585E+02  0.38872097082E+02  0.00000000000E+00 0. -1.
         21    1    1    2  502  501  0.49514750895E+02  0.11919252169E+02  0.10831816526E+03  0.11969379288E+03  0.00000000000E+00 0.  1.
<scales pt_clust_5="13000.00000" pt_clust_6="13000.00000" pt_clust_7="13000.00000" pt_clust_8="13000.00000" pt_clust_9="50.92916"></scales>
<clustering>
<clus scale="   50.929">  1  9  2 -1</clus>
<clus scale="   81.750">  5  6 -1 -1</clus>
<clus scale="   82.556">  1  5  2 -1</clus>
<clus scale="   92.408">  7  8 -1 -1</clus>
<clus scale="   93.122">  2  5  1 -1</clus>
</clustering>
</event>
<event>
 9    1  0.2802611E-005  0.1006268E+03  0.7546771E-02  0.1282395E+00
         -2   -1    0    0    0  501 -0.00000000000E+00  0.00000000000E+00  0.51582570495E+03  0.51582570495E+03  0.00000000000E+00 0.  1.
          1   -1    0    0  502    0  0.00000000000E+00 -0.00000000000E+00 -0.81807163753E+02  0.81807163753E+02  0.00000000000E+00 0. -1.
         23    2    1    2    0    0  0.36677166562E+02  0.15586694713E+01  0.42389604605E+03  0.43535892564E+03  0.92205706302E+02 0.  0.
        -24    2    1    2    0    0 -0.26553968674E+02  0.32005863209E+02 -0.38458104243E+02  0.10236458131E+03  0.85264255068E+02 0.  0.
         13    1    4    4    0    0  0.19869678958E+02 -0.14763005975E+02  0.23332291968E+01  0.24863516360E+02  0.00000000000E+00 0. -1.
        -14    1    4    4    0    0 -0.46423647632E+02  0.46768869184E+02 -0.40791333440E+02  0.77501064948E+02  0.00000000000E+00 0.  1.
        -13    1    3    3    0    0  0.51782784152E+02  0.34164788474E+02  0.23346431305E+03  0.24156629519E+03  0.00000000000E+00 0.  1.
         13    1    3    3    0    0 -0.15105617590E+02 -0.32606119003E+02  0.19043173301E+03  0.19379263044E+03  0.00000000000E+00 0. -1.
         21    1    1    2  502  501 -0.10123197888E+02 -0.33564532680E+02  0.48580599386E+02  0.59909361758E+02  0.00000000000E+00 0. -1.
<scales pt_clust_5="13000.00000" pt_clust_6="13000.00000" pt_clust_7="13000.00000" pt_clust_8="13000.00000" pt_clust_9="35.05791"></scales>
<clustering>
<clus scale="   35.058">  1  9  2 -1</clus>
<clus scale="   85.264">  5  6 -1 -1</clus>
<clus scale="   92.206">  7  8 -1 -1</clus>
<clus scale="   94.307">  2  5  1 -1</clus>
<clus scale="   94.307">  2  5  1 -1</clus>
</clustering>
</event>
<event>
 9    1  0.2802611E-005  0.1484913E+03  0.7546771E-02  0.1204432E+00
         -2   -1    0    0    0  501 -0.00000000000E+00  0.00000000000E+00  0.24119707883E+03  0.24119707883E+03  0.00000000000E+00 0.  1.
          1   -1    0    0  502    0  0.00000000000E+00 -0.00000000000E+00 -0.33148163015E+03  0.33148163015E+03  0.00000000000E+00 0. -1.
         23    2    1    2    0    0 -0.10667486441E+02  0.91498802917E+02  0.16188610045E+03  0.20736458414E+03  0.91143485979E+02 0.  0.
        -24    2    1    2    0    0  0.37815014513E+02 -0.11361214478E+03 -0.28372414338E+03  0.31818015618E+03  0.80009546233E+02 0.  0.
         11    1    4    4    0    0  0.33117560453E+02 -0.12617128593E+03 -0.25269806973E+03  0.28438052087E+03  0.00000000000E+00 0. -1.
        -12    1    4    4    0    0  0.46974540598E+01  0.12559141156E+02 -0.31026073649E+02  0.33799635313E+02  0.00000000000E+00 0.  1.
        -13    1    3    3    0    0 -0.22977780375E+02  0.45350976237E+02  0.15147049328E+02  0.53048303836E+02  0.00000000000E+00 0. -1.
         13    1    3    3    0    0  0.12310293933E+02  0.46147826680E+02  0.14673905112E+03  0.15431628031E+03  0.00000000000E+00 0.  1.
         21    1    1    2  502  501 -0.27147528072E+02  0.22113341860E+02  0.31553491602E+02  0.47133968652E+02  0.00000000000E+00 0.  1.
<scales pt_clust_5="13000.00000" pt_clust_6="13000.00000" pt_clust_7="13000.00000" pt_clust_8="13000.00000" pt_clust_9="35.01411"></scales>
<clustering>
<clus scale="   35.014">  1  9  2 -1</clus>
<clus scale="   80.010">  5  6 -1 -1</clus>
<clus scale="   91.143">  7  8 -1 -1</clus>
<clus scale="  141.930">  2  5  1 -1</clus>
<clus scale="  141.930">  2  5  1 -1</clus>
</clustering>
</event>
<event>
 9    1  0.2802611E-005  0.1268106E+03  0.7546771E-02  0.1237925E+00
         -2   -1    0    0    0  501 -0.00000000000E+00  0.00000000000E+00  0.62505157434E+02  0.62505157434E+02  0.00000000000E+00 0.  1.
          1   -1    0    0  502    0  0.00000000000E+00 -0.00000000000E+00 -0.86892495283E+03  0.86892495283E+03  0.00000000000E+00 0. -1.
         23    2    1    2    0    0 -0.88569841944E+02 -0.17516477765E+02 -0.12306627366E+03  0.18240776276E+03  0.99879128490E+02 0.  0.
        -24    2    1    2    0    0  0.76535268991E+02  0.57912506184E+00 -0.70800443742E+03  0.71678304684E+03  0.81545508992E+02 0.  0.
         11    1    4    4    0    0  0.77918594052E+02 -0.26414311439E+02 -0.45894149716E+03  0.46625778381E+03  0.00000000000E+00 0. -1.
        -12    1    4    4    0    0 -0.13833250604E+01  0.26993436501E+02 -0.24906294026E+03  0.25052526302E+03  0.00000000000E+00 0.  1.
        -11    1    3    3    0    0 -0.52527108022E+02 -0.39039629300E+02 -0.12422660637E+03  0.14041167851E+03  0.00000000000E+00 0. -1.
         11    1    3    3    0    0 -0.36042733922E+02  0.21523151535E+02  0.11603327036E+01  0.41996084253E+02  0.00000000000E+00 0.  1.
         21    1    1    2  502  501  0.12034572952E+02  0.16937352703E+02  0.24650915691E+02  0.32239300662E+02  0.00000000000E+00 0. -1.
<scales pt_clust_5="13000.00000" pt_clust_6="13000.00000" pt_clust_7="13000.00000" pt_clust_8="13000.00000" pt_clust_9="20.77751"></scales>
<clustering>
<clus scale="   20.778">  1  9  2 -1</clus>
<clus scale="   81.546">  5  6 -1 -1</clus>
<clus scale="   99.879">  7  8 -1 -1</clus>
<clus scale="  112.937">  2  5  1 -1</clus>
<clus scale="  112.937">  2  5  1 -1</clus>
</clustering>
</event>
<event>
 9    1  0.2802611E-005  0.1610022E+03  0.7546771E-02  0.1189496E+00
          1   -1    0    0  502    0  0.00000000000E+00  0.00000000000E+00  0.33414818534E+03  0.33414818534E+03  0.00000000000E+00 0. -1.
         -2   -1    0    0    0  501 -0.00000000000E+00 -0.00000000000E+00 -0.13645054787E+03  0.13645054787E+03  0.00000000000E+00 0.  1.
        -24    2    1    2    0    0 -0.94254894741E+02 -0.72777815642E+02 -0.56038964334E+02  0.15263140886E+03  0.77300619749E+02 0.  0.
         23    2    1    2    0    0  0.10069099876E+03  0.92960319341E+02  0.24556982918E+03  0.29526373288E+03  0.89976845632E+02 0.  0.
         11    1    3    3    0    0 -0.55277294875E+02  0.27137137964E+01 -0.10836536071E+02  0.56394805482E+02  0.00000000000E+00 0. -1.
        -12    1    3    3    0    0 -0.38977599866E+02 -0.75491529438E+02 -0.45202428262E+02  0.96236603374E+02  0.00000000000E+00 0.  1.
        -11    1    4    4    0    0  0.80146655086E+02  0.43413847322E+02  0.21500785508E+03  0.23353078214E+03  0.00000000000E+00 0. -1.
         11    1    4    4    0    0  0.20544343672E+02  0.49546472019E+02  0.30561974097E+02  0.61732950740E+02  0.00000000000E+00 0.  1.
         21    1    1    2  502  501 -0.64361040161E+01 -0.20182503699E+02  0.81667726241E+01  0.22703591469E+02  0.00000000000E+00 0.  1.
<scales pt_clust_5="13000.00000" pt_clust_6="13000.00000" pt_clust_7="13000.00000" pt_clust_8="13000.00000" pt_clust_9="21.18388"></scales>
<clustering>
<clus scale="   21.184">  2  9  1 -1</clus>
<clus scale="   77.301">  5  6 -1 -1</clus>
<clus scale="   89.977">  7  8 -1 -1</clus>
<clus scale="  154.277">  2  5  1 -1</clus>
<clus scale="  161.002">  1  5  2 -1</clus>
</clustering>
</event>
<event>
 9    1  0.2802611E-005  0.8880070E+02  0.7546771E-02  0.1311533E+00
         -4   -1    0    0    0  501 -0.00000000000E+00  0.00000000000E+00  0.91303188171E+02  0.91303188171E+02  0.00000000000E+00 0.  1.
          3   -1    0    0  502    0  0.00000000000E+00 -0.00000000000E+00 -0.28991399730E+03  0.28991399730E+03  0.00000000000E+00 0. -1.
         23    2    1    2    0    0 -0.36660954873E+02  0.46510705895E+02 -0.28134480784E+02  0.10997906817E+03  0.88298216578E+02 0.  0.
        -24    2    1    2    0    0  0.31373382410E+01  0.13474179833E+02 -0.18428426387E+03  0.20114761530E+03  0.79424661266E+02 0.  0.
         13    1    4    4    0    0  0.81337240527E+01  0.46282066983E+02 -0.97459751971E+02  0.10819699832E+03  0.00000000000E+00 0. -1.
        -14    1    4    4    0    0 -0.49963858117E+01 -0.32807887150E+02 -0.86824511899E+02  0.92950616980E+02  0.00000000000E+00 0.  1.
        -13    1    3    3    0    0  0.23091584535E+02  0.16997220055E+02 -0.32318045569E+02  0.43203967820E+02  0.00000000000E+00 0.  1.
         13    1    3    3    0    0 -0.59752539408E+02  0.29513485839E+02  0.41835647853E+01  0.66775100347E+02  0.00000000000E+00 0. -1.
         21    1    1    2  502  501  0.33523616632E+02 -0.59984885728E+02  0.13807935524E+02  0.70090502005E+02  0.00000000000E+00 0.  1.
<scales pt_clust_5="13000.00000" pt_clust_6="13000.00000" pt_clust_7="13000.00000" pt_clust_8="13000.00000" pt_clust_9="68.71695"></scales>
<clustering>
<clus scale="   68.717">  1  9  2 -1</clus>
<clus scale="   79.425">  5  6 -1 -1</clus>
<clus scale="   79.983">  2  5  1 -1</clus>
<clus scale="   88.298">  7  8 -1 -1</clus>
<clus scale="   79.983">  2  5  1 -1</clus>
</clustering>
</event>
<event>
 9    1  0.2802611E-005  0.9534869E+02  0.7546771E-02  0.1291707E+00
         -2   -1    0    0    0  501 -0.00000000000E+00  0.00000000000E+00  0.47910876173E+03  0.47910876173E+03  0.00000000000E+00 0.  1.
          1   -1    0    0  502    0  0.00000000000E+00 -0.00000000000E+00 -0.29014372213E+02  0.29014372213E+02  0.00000000000E+00 0. -1.
        -24    2    1    2    0    0 -0.29513776629E+02  0.20348104757E+02  0.19052965957E+03  0.21105258022E+03  0.83405827523E+02 0.  0.
         23    2    1    2    0    0  0.32420959448E+02 -0.42989971375E+02  0.11396396370E+03  0.14969114889E+03  0.80748986271E+02 0.  0.
         11    1    3    3    0    0  0.10686805739E+02  0.37608885961E+02  0.47717651194E+02  0.61689629239E+02  0.00000000000E+00 0. -1.
        -12    1    3    3    0    0 -0.40200582368E+02 -0.17260781204E+02  0.14281200837E+03  0.14936295098E+03  0.00000000000E+00 0.  1.
        -13    1    4    4    0    0  0.17263036456E+01  0.22015756860E+02  0.44733760350E+02  0.49887703790E+02  0.00000000000E+00 0.  1.
         13    1    4    4    0    0  0.30694655802E+02 -0.65005728235E+02  0.69230203348E+02  0.99803445100E+02  0.00000000000E+00 0. -1.
         21    1    1    2  502  501 -0.29071828190E+01  0.22641866619E+02  0.14560076625E+03  0.14737940484E+03  0.00000000000E+00 0.  1.
<scales pt_clust_5="13000.00000" pt_clust_6="13000.00000" pt_clust_7="13000.00000" pt_clust_8="13000.00000" pt_clust_9="22.82774"></scales>
<clustering>
<clus scale="   22.828">  1  9  2 -1</clus>
<clus scale="   80.749">  7  8 -1 -1</clus>
<clus scale="   83.406">  5  6 -1 -1</clus>
<clus scale="   93.034">  2  7  1 -1</clus>
<clus scale="   93.034">  2  5  1 -1</clus>
</clustering>
</event>
<event>
 9    1  0.2802611E-005  0.1130046E+03  0.7546771E-02  0.1258407E+00
         -2   -1    0    0    0  501 -0.00000000000E+00  0.00000000000E+00  0.11417896580E+03  0.11417896580E+03  0.00000000000E+00 0.  1.
          1   -1    0    0  502    0  0.00000000000E+00 -0.00000000000E+00 -0.24495517066E+03  0.24495517066E+03  0.00000000000E+00 0. -1.
         23    2    1    2    0    0 -0.42402960529E+02  0.74725375074E+02  0.36264318895E+02  0.12973758350E+03  0.90193386707E+02 0.  0.
        -24    2    1    2    0    0  0.15167650615E+02 -0.63638943031E+02 -0.17048077542E+03  0.19979070197E+03  0.81071925547E+02 0.  0.
         11    1    4    4    0    0  0.16190187254E+02 -0.77824015314E+02 -0.16729022324E+03  0.18521532959E+03  0.00000000000E+00 0. -1.
        -12    1    4    4    0    0 -0.10225366386E+01  0.14185072284E+02 -0.31905521764E+01  0.14575372382E+02  0.00000000000E+00 0.  1.
        -13    1    3    3    0    0  0.23974400679E+02  0.42303794305E+02  0.29885855044E+01  0.48716676239E+02  0.00000000000E+00 0. -1.
         13    1    3    3    0    0 -0.66377361207E+02  0.32421580769E+02  0.33275733390E+02  0.81020907259E+02  0.00000000000E+00 0.  1.
         21    1    1    2  502  501  0.27235309913E+02 -0.11086432043E+02  0.34402516635E+01  0.29605850993E+02  0.00000000000E+00 0.  1.
<scales pt_clust_5="13000.00000" pt_clust_6="13000.00000" pt_clust_7="13000.00000" pt_clust_8="13000.00000" pt_clust_9="29.40529"></scales>
<clustering>
<clus scale="   29.405">  1  9  2 -1</clus>
<clus scale="   81.072">  5  6 -1 -1</clus>
<clus scale="   90.193">  7  8 -1 -1</clus>
<clus scale="  105.867">  2  5  1 -1</clus>
<clus scale="  105.867">  2  5  1 -1</clus>
</clustering>
</event>
<event>
 9    1  0.2802611E-005  0.1022207E+03  0.7546771E-02  0.1280925E+00
          1   -1    0    0  502    0  0.00000000000E+00  0.00000000000E+00  0.34417910081E+03  0.34417910081E+03  0.00000000000E+00 0. -1.
         -2   -1    0    0    0  501 -0.00000000000E+00 -0.00000000000E+00 -0.15197534334E+03  0.15197534334E+03  0.00000000000E+00 0.  1.
         23    2    1    2    0    0 -0.18518043102E+01  0.34167201046E+02 -0.10121692055E+03  0.14048485446E+03  0.91215692289E+02 0.  0.
        -24    2    1    2    0    0  0.27432266878E+02 -0.38288225882E+02  0.31083713031E+03  0.32444979275E+03  0.80183719841E+02 0.  0.
         13    1    4    4    0    0 -0.23992059928E+02  0.48991186982E+01  0.60645479789E+02  0.65402557461E+02  0.00000000000E+00 0. -1.
        -14    1    4    4    0    0  0.51424326806E+02 -0.43187344581E+02  0.25019165052E+03  0.25904723529E+03  0.00000000000E+00 0.  1.
        -11    1    3    3    0    0  0.32393880072E+02  0.49675463066E+02 -0.68921796068E+02  0.90924304068E+02  0.00000000000E+00 0.  1.
         11    1    3    3    0    0 -0.34245684382E+02 -0.15508262019E+02 -0.32295124487E+02  0.49560550393E+02  0.00000000000E+00 0. -1.
         21    1    1    2  502  501 -0.25580462568E+02  0.41210248361E+01 -0.17416452284E+02  0.31219796941E+02  0.00000000000E+00 0.  1.
<scales pt_clust_5="13000.00000" pt_clust_6="13000.00000" pt_clust_7="13000.00000" pt_clust_8="13000.00000" pt_clust_9="25.91029"></scales>
<clustering>
<clus scale="   25.910">  2  9  1 -1</clus>
<clus scale="   80.184">  5  6 -1 -1</clus>
<clus scale="   91.216">  7  8 -1 -1</clus>
<clus scale="   92.511">  1  5  2 -1</clus>
<clus scale="   92.511">  1  5  2 -1</clus>
</clustering>
</event>
<event>
 9    1  0.2802611E-005  0.1466413E+03  0.7546771E-02  0.1207974E+00
          1   -1    0    0  502    0  0.00000000000E+00  0.00000000000E+00  0.47092321268E+03  0.47092321268E+03  0.00000000000E+00 0. -1.
         -2   -1    0    0    0  501 -0.00000000000E+00 -0.00000000000E+00 -0.57678829118E+02  0.57678829118E+02  0.00000000000E+00 0.  1.
        -24    2    1    2    0    0  0.87201634896E+02 -0.32127108003E+02  0.11643057491E+03  0.16892212923E+03  0.79638751715E+02 0.  0.
         23    2    1    2    0    0 -0.10975258741E+03  0.62736935389E+02  0.26994285593E+03  0.31312290351E+03  0.95891885620E+02 0.  0.
         11    1    3    3    0    0  0.71929094573E+02  0.67013206768E+01  0.10155019720E+03  0.12462401412E+03  0.00000000000E+00 0. -1.
        -12    1    3    3    0    0  0.15272540323E+02 -0.38828428680E+02  0.14880377708E+02  0.44298115111E+02  0.00000000000E+00 0.  1.
        -11    1    4    4    0    0 -0.33189817607E+02  0.13635747072E+02  0.18574529658E+03  0.18917931386E+03  0.00000000000E+00 0. -1.
         11    1    4    4    0    0 -0.76562769804E+02  0.49101188317E+02  0.84197559352E+02  0.12394358965E+03  0.00000000000E+00 0.  1.
         21    1    1    2  502  501  0.22550952515E+02 -0.30609827386E+02  0.26870952723E+02  0.46557009055E+02  0.00000000000E+00 0.  1.
<scales pt_clust_5="13000.00000" pt_clust_6="13000.00000" pt_clust_7="13000.00000" pt_clust_8="13000.00000" pt_clust_9="38.01982"></scales>
<clustering>
<clus scale="   38.020">  2  9  1 -1</clus>
<clus scale="   79.639">  5  6 -1 -1</clus>
<clus scale="   95.892">  7  8 -1 -1</clus>
<clus scale="  136.568">  2  5  1 -1</clus>
<clus scale="  146.641">  1  5  2 -1</clus>
</clustering>
</event>
<event>
 9    1  0.2802611E-005  0.9322517E+02  0.7546771E-02  0.1295920E+00
         -2   -1    0    0    0  501 -0.00000000000E+00  0.00000000000E+00  0.83339616406E+02  0.83339616406E+02  0.00000000000E+00 0.  1.
          1   -1    0    0  502    0  0.00000000000E+00 -0.00000000000E+00 -0.29129497731E+03  0.29129497731E+03  0.00000000000E+00 0. -1.
         23    2    1    2    0    0  0.47386163019E+02  0.21240369234E+02 -0.93144384312E+02  0.13726469358E+03  0.86424059405E+02 0.  0.
        -24    2    1    2    0    0 -0.28155804855E+02  0.97152640567E+01 -0.15734372691E+03  0.18136014423E+03  0.85131180043E+02 0.  0.
         13    1    4    4    0    0 -0.63007206109E-02  0.42379791741E+02 -0.10692258679E+03  0.11501515706E+03  0.00000000000E+00 0. -1.
        -14    1    4    4    0    0 -0.28149504134E+02 -0.32664527684E+02 -0.50421140111E+02  0.66344987165E+02  0.00000000000E+00 0.  1.
        -11    1    3    3    0    0  0.24680275805E+02 -0.23295553160E+02 -0.28523329536E+01  0.34057812821E+02  0.00000000000E+00 0.  1.
         11    1    3    3    0    0  0.22705887214E+02  0.44535922394E+02 -0.90292051359E+02  0.10320688076E+03  0.00000000000E+00 0. -1.
         21    1    1    2  502  501 -0.19230358164E+02 -0.30955633291E+02  0.42532750313E+02  0.56009755907E+02  0.00000000000E+00 0.  1.
<scales pt_clust_5="13000.00000" pt_clust_6="13000.00000" pt_clust_7="13000.00000" pt_clust_8="13000.00000" pt_clust_9="36.44253"></scales>
<clustering>
<clus scale="   36.443">  1  9  2 -1</clus>
<clus scale="   85.131">  5  6 -1 -1</clus>
<clus scale="   86.424">  7  8 -1 -1</clus>
<clus scale="   92.028">  2  5  1 -1</clus>
<clus scale="   92.028">  2  5  1 -1</clus>
</clustering>
</event>
<event>
 9    1  0.2802611E-005  0.1560928E+03  0.7546771E-02  0.1194438E+00
         -2   -1    0    0    0  501 -0.00000000000E+00  0.00000000000E+00  0.40571092139E+03  0.40571092139E+03  0.00000000000E+00 0.  1.
          1   -1    0    0  502    0  0.00000000000E+00 -0.00000000000E+00 -0.15592048732E+03  0.15592048732E+03  0.00000000000E+00 0. -1.
        -24    2    1    2    0    0  0.16626095204E+03  0.24197344474E+02  0.20544827856E+03  0.27790766239E+03  0.82434567988E+02 0.  0.
         23    2    1    2    0    0 -0.11948611272E+03  0.83851789363E+01 -0.62716354859E+02  0.16243470696E+03  0.90024721598E+02 0.  0.
         11    1    3    3    0    0  0.63545163024E+01  0.23803885577E+02  0.13551170109E+02  0.28118304667E+02  0.00000000000E+00 0. -1.
        -12    1    3    3    0    0  0.15990643574E+03  0.39345889649E+00  0.19189710845E+03  0.24978935773E+03  0.00000000000E+00 0.  1.
        -13    1    4    4    0    0 -0.10649719454E+03  0.41253252778E+02 -0.52120703327E+02  0.12553904183E+03  0.00000000000E+00 0. -1.
         13    1    4    4    0    0 -0.12988918184E+02 -0.32868073841E+02 -0.10595651532E+02  0.36895665125E+02  0.00000000000E+00 0.  1.
         21    1    1    2  502  501 -0.46774839319E+02 -0.32582523410E+02  0.10705851037E+03  0.12128903936E+03  0.00000000000E+00 0.  1.
<scales pt_clust_5="13000.00000" pt_clust_6="13000.00000" pt_clust_7="13000.00000" pt_clust_8="13000.00000" pt_clust_9="57.00444"></scales>
<clustering>
<clus scale="   57.004">  1  9  2 -1</clus>
<clus scale="   82.435">  5  6 -1 -1</clus>
<clus scale="   90.025">  7  8 -1 -1</clus>
<clus scale="  151.842">  1  5  2 -1</clus>
<clus scale="  156.093">  2  5  1 -1</clus>
</clustering>
</event>
<event>
 9    1  0.2802611E-005  0.1265062E+03  0.7546771E-02  0.1244952E+00
         -2   -1    0    0    0  501 -0.00000000000E+00  0.00000000000E+00  0.87467145552E+03  0.87467145552E+03  0.00000000000E+00 0.  1.
          1   -1    0    0  502    0  0.00000000000E+00 -0.00000000000E+00 -0.46738768271E+02  0.46738768271E+02  0.00000000000E+00 0. -1.
        -24    2    1    2    0    0  0.61798952716E+02 -0.68829633764E+02  0.49665608782E+03  0.51150852807E+03  0.80106651891E+02 0.  0.
         23    2    1    2    0    0  0.34708494006E+02  0.17802636816E+02  0.55260572449E+02  0.11308139850E+03  0.90620408224E+02 0.  0.
         11    1    3    3    0    0  0.63220258643E+02 -0.18166581688E+02  0.19959101500E+03  0.21015089594E+03  0.00000000000E+00 0. -1.
        -12    1    3    3    0    0 -0.14213059271E+01 -0.50663052076E+02  0.29706507282E+03  0.30135763213E+03  0.00000000000E+00 0.  1.
        -13    1    4    4    0    0  0.56375611728E+02 -0.96973910292E+01  0.13853431037E+02  0.58857170693E+02  0.00000000000E+00 0.  1.
         13    1    4    4    0    0 -0.21667117722E+02  0.27500027845E+02  0.41407141412E+02  0.54224227812E+02  0.00000000000E+00 0. -1.
         21    1    1    2  502  501 -0.96507446722E+02  0.51026996948E+02  0.27601602698E+03  0.29682029722E+03  0.00000000000E+00 0. -1.
<scales pt_clust_5="13000.00000" pt_clust_6="13000.00000" pt_clust_7="13000.00000" pt_clust_8="13000.00000" pt_clust_9="97.91188"></scales>
<clustering>
<clus scale="   80.107">  5  6 -1 -1</clus>
<clus scale="   90.620">  7  8 -1 -1</clus>
<clus scale="   98.659">  2  7  1 -1</clus>
<clus scale="   97.912">  2  9  1 -1</clus>
<clus scale="   98.659">  2  5  1 -1</clus>
</clustering>
</event>
<event>
 9    1  0.2802611E-005  0.1526796E+03  0.7546771E-02  0.1206263E+00
         -2   -1    0    0    0  501 -0.00000000000E+00  0.00000000000E+00  0.45324988101E+03  0.45324988101E+03  0.00000000000E+00 0.  1.
          1   -1    0    0  502    0  0.00000000000E+00 -0.00000000000E+00 -0.33584746033E+03  0.33584746033E+03  0.00000000000E+00 0. -1.
         23    2    1    2    0    0  0.45112204879E+02  0.10837208799E+03 -0.71481219040E+02  0.16495472610E+03  0.91218838537E+02 0.  0.
        -24    2    1    2    0    0  0.72472290085E+02 -0.63564222892E+02 -0.18842431243E+03  0.22640507741E+03  0.80392128353E+02 0.  0.
         11    1    4    4    0    0  0.37004172046E+02  0.14340100713E+02 -0.53343304150E+02  0.66486504909E+02  0.00000000000E+00 0. -1.
        -12    1    4    4    0    0  0.35468118038E+02 -0.77904323605E+02 -0.13508100828E+03  0.15991857250E+03  0.00000000000E+00 0.  1.
        -13    1    3    3    0    0  0.85888010574E+01  0.65852718486E+02  0.88534816355E+01  0.66998001259E+02  0.00000000000E+00 0.  1.
         13    1    3    3    0    0  0.36523403822E+02  0.42519369506E+02 -0.80334700675E+02  0.97956724846E+02  0.00000000000E+00 0. -1.
         21    1    1    2  502  501 -0.11758449496E+03 -0.44807865100E+02  0.37730795216E+03  0.39773753782E+03  0.00000000000E+00 0.  1.
<scales pt_clust_5="13000.00000" pt_clust_6="13000.00000" pt_clust_7="13000.00000" pt_clust_8="13000.00000" pt_clust_9="122.43437"></scales>
<clustering>
<clus scale="   80.392">  5  6 -1 -1</clus>
<clus scale="   91.219">  7  8 -1 -1</clus>
<clus scale="  125.521">  2  5  1 -1</clus>
<clus scale="  122.434">  1  9  2 -1</clus>
<clus scale="  125.521">  2  5  1 -1</clus>
</clustering>
</event>
<event>
 9    1  0.2802611E-005  0.1125400E+03  0.7546771E-02  0.1257855E+00
          1   -1    0    0  502    0  0.00000000000E+00  0.00000000000E+00  0.85194994595E+02  0.85194994595E+02  0.00000000000E+00 0. -1.
         -2   -1    0    0    0  501 -0.00000000000E+00 -0.00000000000E+00 -0.48523793487E+03  0.48523793487E+03  0.00000000000E+00 0.  1.
         23    2    1    2    0    0 -0.10835784211E+03 -0.29499426127E+02 -0.25976242547E+03  0.29634055707E+03  0.87917973086E+02 0.  0.
        -24    2    1    2    0    0  0.64137445921E+02  0.16645635458E+00  0.18997630290E+02  0.10620731034E+03  0.82495109776E+02 0.  0.
         11    1    4    4    0    0  0.81488765306E+02 -0.11206730948E+02  0.77814961102E+01  0.82623007518E+02  0.00000000000E+00 0. -1.
        -12    1    4    4    0    0 -0.17351319385E+02  0.11373187303E+02  0.11216134180E+02  0.23584302826E+02  0.00000000000E+00 0.  1.
        -13    1    3    3    0    0 -0.40303525856E+02 -0.52462639041E+02 -0.16235278473E+03  0.17531437306E+03  0.00000000000E+00 0.  1.
         13    1    3    3    0    0 -0.68054316250E+02  0.22963212913E+02 -0.97409640744E+02  0.12102618402E+03  0.00000000000E+00 0. -1.
         21    1    1    2  502  501  0.44220396185E+02  0.29332969773E+02 -0.15927814510E+03  0.16788506205E+03  0.00000000000E+00 0. -1.
<scales pt_clust_5="13000.00000" pt_clust_6="13000.00000" pt_clust_7="13000.00000" pt_clust_8="13000.00000" pt_clust_9="53.06474"></scales>
<clustering>
<clus scale="   53.065">  2  9  1 -1</clus>
<clus scale="   82.495">  5  6 -1 -1</clus>
<clus scale="   87.918">  7  8 -1 -1</clus>
<clus scale="  108.356">  1  5  2 -1</clus>
<clus scale="  108.356">  1  5  2 -1</clus>
</clustering>
</event>
<event>
 9    1  0.2802611E-005  0.1015864E+03  0.7546771E-02  0.1282402E+00
          1   -1    0    0  502    0  0.00000000000E+00  0.00000000000E+00  0.28055221408E+03  0.28055221408E+03  0.00000000000E+00 0. -1.
         -2   -1    0    0    0  501 -0.00000000000E+00 -0.00000000000E+00 -0.71689100068E+02  0.71689100068E+02  0.00000000000E+00 0.  1.
         23    2    1    2    0    0  0.42992176477E+02  0.42247180210E+02  0.64524940812E+02  0.12715815864E+03  0.91501791501E+02 0.  0.
        -24    2    1    2    0    0 -0.44487639368E+02  0.32895100952E+02  0.79947485684E+02  0.12611467837E+03  0.80324802589E+02 0.  0.
         13    1    4    4    0    0 -0.36496229890E+02  0.59440454125E+02  0.55134762215E+02  0.88909979121E+02  0.00000000000E+00 0. -1.
        -14    1    4    4    0    0 -0.79914094788E+01 -0.26545353173E+02  0.24812723469E+02  0.37204699253E+02  0.00000000000E+00 0.  1.
        -13    1    3    3    0    0  0.50231707868E+02  0.11978428459E+02 -0.41030709384E+01  0.51802918980E+02  0.00000000000E+00 0.  1.
         13    1    3    3    0    0 -0.72395313912E+01  0.30268751750E+02  0.68628011750E+02  0.75355239659E+02  0.00000000000E+00 0. -1.
         21    1    1    2  502  501  0.14954628914E+01 -0.75142281162E+02  0.64390687515E+02  0.98968477133E+02  0.00000000000E+00 0.  1.
<scales pt_clust_5="13000.00000" pt_clust_6="13000.00000" pt_clust_7="13000.00000" pt_clust_8="13000.00000" pt_clust_9="75.15716"></scales>
<clustering>
<clus scale="   75.157">  1  9  2 -1</clus>
<clus scale="   80.325">  5  6 -1 -1</clus>
<clus scale="   91.502">  7  8 -1 -1</clus>
<clus scale="   91.648">  1  5  2 -1</clus>
<clus scale="   75.157">  1  5  2 -1</clus>
</clustering>
</event>
<event>
 9    1  0.2802611E-005  0.9313160E+02  0.7546771E-02  0.1300912E+00
          1   -1    0    0  502    0  0.00000000000E+00  0.00000000000E+00  0.21749279103E+03  0.21749279103E+03  0.00000000000E+00 0. -1.
         -2   -1    0    0    0  501 -0.00000000000E+00 -0.00000000000E+00 -0.28127788163E+03  0.28127788163E+03  0.00000000000E+00 0.  1.
        -24    2    1    2    0    0 -0.32419907507E+02 -0.13605122586E+02 -0.13071847939E+03  0.15764635614E+03  0.80801627373E+02 0.  0.
         23    2    1    2    0    0  0.46250426537E+01 -0.25404930240E+02  0.18847067792E+03  0.21048874946E+03  0.90097256954E+02 0.  0.
         11    1    3    3    0    0 -0.46239690097E+02 -0.37957117313E+02 -0.82864901494E+02  0.10220295296E+03  0.00000000000E+00 0. -1.
        -12    1    3    3    0    0  0.13819782590E+02  0.24351994727E+02 -0.47853577901E+02  0.55443403178E+02  0.00000000000E+00 0.  1.
        -13    1    4    4    0    0  0.31298741270E+02 -0.36830841530E+02  0.16841798393E+03  0.17521626467E+03  0.00000000000E+00 0. -1.
         13    1    4    4    0    0 -0.26673698616E+02  0.11425911290E+02  0.20052693989E+02  0.35272484785E+02  0.00000000000E+00 0.  1.
         21    1    1    2  502  501  0.27794864853E+02  0.39010052826E+02 -0.12153728913E+03  0.13063556706E+03  0.00000000000E+00 0.  1.
<scales pt_clust_5="13000.00000" pt_clust_6="13000.00000" pt_clust_7="13000.00000" pt_clust_8="13000.00000" pt_clust_9="47.89926"></scales>
<clustering>
<clus scale="   47.899">  2  9  1 -1</clus>
<clus scale="   80.802">  5  6 -1 -1</clus>
<clus scale="   84.172">  2  5  1 -1</clus>
<clus scale="   90.097">  7  8 -1 -1</clus>
<clus scale="   93.132">  1  5  2 -1</clus>
</clustering>
</event>
<event>
 9    1  0.2802611E-005  0.9715781E+02  0.7546771E-02  0.1295250E+00
         -2   -1    0    0    0  501 -0.00000000000E+00  0.00000000000E+00  0.40953734974E+02  0.40953734974E+02  0.00000000000E+00 0.  1.
          1   -1    0    0  502    0  0.00000000000E+00 -0.00000000000E+00 -0.29838523455E+03  0.29838523455E+03  0.00000000000E+00 0. -1.
        -24    2    1    2    0    0 -0.19110133455E+02 -0.65249712220E+01 -0.63779781691E+02  0.10383012964E+03  0.79404425689E+02 0.  0.
         23    2    1    2    0    0  0.21456037979E+02 -0.14939750695E+02 -0.18959647794E+03  0.21353880288E+03  0.94701838254E+02 0.  0.
         13    1    3    3    0    0 -0.18069696525E+02  0.29833316507E+02 -0.57595742692E+01  0.35351285721E+02  0.00000000000E+00 0. -1.
        -14    1    3    3    0    0 -0.10404369299E+01 -0.36358287730E+02 -0.58020207421E+02  0.68478843922E+02  0.00000000000E+00 0.  1.
        -13    1    4    4    0    0  0.44995663700E+02  0.64679728026E+01 -0.39859220369E+02  0.60458265543E+02  0.00000000000E+00 0.  1.
         13    1    4    4    0    0 -0.23539625721E+02 -0.21407723497E+02 -0.14973725758E+03  0.15308053733E+03  0.00000000000E+00 0. -1.
         21    1    1    2  502  501 -0.23459045244E+01  0.21464721917E+02 -0.40552399416E+01  0.21970037005E+02  0.00000000000E+00 0. -1.
<scales pt_clust_5="13000.00000" pt_clust_6="13000.00000" pt_clust_7="13000.00000" pt_clust_8="13000.00000" pt_clust_9="21.59253"></scales>
<clustering>
<clus scale="   21.593">  1  9  2 -1</clus>
<clus scale="   79.404">  5  6 -1 -1</clus>
<clus scale="   82.318">  1  5  2 -1</clus>
<clus scale="   94.702">  7  8 -1 -1</clus>
<clus scale="   97.158">  2  5  1 -1</clus>
</clustering>
</event>
<event>
 9    1  0.2802611E-005  0.1536322E+03  0.7546771E-02  0.1198610E+00
          1   -1    0    0  502    0  0.00000000000E+00  0.00000000000E+00  0.17757082387E+03  0.17757082387E+03  0.00000000000E+00 0. -1.
         -2   -1    0    0    0  501 -0.00000000000E+00 -0.00000000000E+00 -0.22880699043E+03  0.22880699043E+03  0.00000000000E+00 0.  1.
        -24    2    1    2    0    0 -0.11443890784E+03  0.62432926327E+02 -0.86598705638E+02  0.17459762960E+03  0.77400662323E+02 0.  0.
         23    2    1    2    0    0  0.79663426286E+02 -0.93271308032E+02  0.75019241627E+02  0.17068195264E+03  0.91970886451E+02 0.  0.
         13    1    3    3    0    0  0.23814562550E+01  0.25387655252E+02 -0.17913733217E+01  0.25561952027E+02  0.00000000000E+00 0. -1.
        -14    1    3    3    0    0 -0.11682036409E+03  0.37045271076E+02 -0.84807332316E+02  0.14903567758E+03  0.00000000000E+00 0.  1.
        -11    1    4    4    0    0  0.23430351701E+02 -0.38659564400E+02 -0.18334650924E+02  0.48782196803E+02  0.00000000000E+00 0.  1.
         11    1    4    4    0    0  0.56233074586E+02 -0.54611743632E+02  0.93353892551E+02  0.12189975584E+03  0.00000000000E+00 0. -1.
         21    1    1    2  502  501  0.34775481553E+02  0.30838381704E+02 -0.39656702542E+02  0.61098232052E+02  0.00000000000E+00 0. -1.
<scales pt_clust_5="13000.00000" pt_clust_6="13000.00000" pt_clust_7="13000.00000" pt_clust_8="13000.00000" pt_clust_9="46.47946"></scales>
<clustering>
<clus scale="   46.479">  2  9  1 -1</clus>
<clus scale="   77.401">  5  6 -1 -1</clus>
<clus scale="   91.971">  7  8 -1 -1</clus>
<clus scale="  145.379">  2  5  1 -1</clus>
<clus scale="  153.632">  1  5  2 -1</clus>
</clustering>
</event>
<event>
 9    1  0.2802611E-005  0.9626834E+02  0.7546771E-02  0.1301864E+00
         -4   -1    0    0    0  501 -0.00000000000E+00  0.00000000000E+00  0.60186194039E+02  0.60186194039E+02  0.00000000000E+00 0.  1.
          3   -1    0    0  502    0  0.00000000000E+00 -0.00000000000E+00 -0.22922941239E+03  0.22922941239E+03  0.00000000000E+00 0. -1.
        -24    2    1    2    0    0 -0.14213895615E+02  0.72537528451E+01 -0.36969031239E+02  0.80240901299E+02  0.69406348496E+02 0.  0.
         23    2    1    2    0    0  0.31955888708E+02 -0.17445632242E+02 -0.15148577797E+03  0.18097075889E+03  0.92070330392E+02 0.  0.
         13    1    3    3    0    0  0.20363346058E+02  0.16469785892E+02 -0.35903391514E+02  0.44440670924E+02  0.00000000000E+00 0. -1.
        -14    1    3    3    0    0 -0.34577241673E+02 -0.92160330474E+01 -0.10656397254E+01  0.35800230375E+02  0.00000000000E+00 0.  1.
        -11    1    4    4    0    0  0.11200679822E+02  0.26221606482E+02 -0.11984164802E+03  0.12318704670E+03  0.00000000000E+00 0. -1.
         11    1    4    4    0    0  0.20755208886E+02 -0.43667238724E+02 -0.31644129945E+02  0.57783712183E+02  0.00000000000E+00 0.  1.
         21    1    1    2  502  501 -0.17741993092E+02  0.10191879397E+02  0.19411590851E+02  0.28203946247E+02  0.00000000000E+00 0.  1.
<scales pt_clust_5="13000.00000" pt_clust_6="13000.00000" pt_clust_7="13000.00000" pt_clust_8="13000.00000" pt_clust_9="20.46100"></scales>
<clustering>
<clus scale="   20.461">  1  9  2 -1</clus>
<clus scale="   69.406">  5  6 -1 -1</clus>
<clus scale="   74.886">  1  5  2 -1</clus>
<clus scale="   92.070">  7  8 -1 -1</clus>
<clus scale="   96.268">  2  5  1 -1</clus>
</clustering>
</event>
<event>
 9    1  0.2802611E-005  0.1021795E+03  0.7546771E-02  0.1285942E+00
          1   -1    0    0  502    0  0.00000000000E+00  0.00000000000E+00  0.13171720001E+03  0.13171720001E+03  0.00000000000E+00 0. -1.
         -2   -1    0    0    0  501 -0.00000000000E+00 -0.00000000000E+00 -0.10531841057E+03  0.10531841057E+03  0.00000000000E+00 0.  1.
        -24    2    1    2    0    0 -0.14400077698E+02  0.93640845593E+01 -0.25642427827E+02  0.87899746209E+02  0.82302994851E+02 0.  0.
         23    2    1    2    0    0  0.18322684952E+02  0.13036776850E+02  0.66050990313E+02  0.12242520770E+03  0.10059582409E+03 0.  0.
         13    1    3    3    0    0  0.34127146781E+02 -0.19667732329E+01 -0.12068344672E+02  0.36251555656E+02  0.00000000000E+00 0. -1.
        -14    1    3    3    0    0 -0.48527224479E+02  0.11330857792E+02 -0.13574083156E+02  0.51648190553E+02  0.00000000000E+00 0.  1.
        -11    1    4    4    0    0 -0.35117783565E+02  0.19747566111E+02  0.43502626101E+01  0.40523448454E+02  0.00000000000E+00 0.  1.
         11    1    4    4    0    0  0.53440468517E+02 -0.67107892612E+01  0.61700727703E+02  0.81901759241E+02  0.00000000000E+00 0. -1.
         21    1    1    2  502  501 -0.39226072543E+01 -0.22400861409E+02 -0.14009773040E+02  0.26710656678E+02  0.00000000000E+00 0.  1.
<scales pt_clust_5="13000.00000" pt_clust_6="13000.00000" pt_clust_7="13000.00000" pt_clust_8="13000.00000" pt_clust_9="22.74171"></scales>
<clustering>
<clus scale="   22.742">  2  9  1 -1</clus>
<clus scale="   82.303">  5  6 -1 -1</clus>
<clus scale="   84.231">  2  5  1 -1</clus>
<clus scale="  100.596">  7  8 -1 -1</clus>
<clus scale="  102.180">  1  5  2 -1</clus>
</clustering>
</event>
<event>
 9    1  0.2802611E-005  0.1388931E+03  0.7546771E-02  0.1228198E+00
         -2   -1    0    0    0  501 -0.00000000000E+00  0.00000000000E+00  0.34560800972E+03  0.34560800972E+03  0.00000000000E+00 0.  1.
          1   -1    0    0  502    0  0.00000000000E+00 -0.00000000000E+00 -0.36626248791E+03  0.36626248791E+03  0.00000000000E+00 0. -1.
        -24    2    1    2    0    0  0.88764455500E+02 -0.21871711645E+02  0.14944378001E+03  0.19218106657E+03  0.79010243871E+02 0.  0.
         23    2    1    2    0    0  0.62774619968E+02  0.66793197788E+01 -0.30105551947E+03  0.31882951857E+03  0.83860419069E+02 0.  0.
         13    1    3    3    0    0  0.31004323070E+02 -0.21755496341E+02  0.70606487664E+01  0.38528203061E+02  0.00000000000E+00 0. -1.
        -14    1    3    3    0    0  0.57760132429E+02 -0.11621530392E+00  0.14238313124E+03  0.15365286351E+03  0.00000000000E+00 0.  1.
        -11    1    4    4    0    0  0.55282316154E+02 -0.18969755498E+02 -0.27626520245E+03  0.28237997129E+03  0.00000000000E+00 0. -1.
         11    1    4    4    0    0  0.74923038142E+01  0.25649075277E+02 -0.24790317017E+02  0.36449547279E+02  0.00000000000E+00 0.  1.
         21    1    1    2  502  501 -0.15153907547E+03  0.15192391866E+02  0.13095726127E+03  0.20085991249E+03  0.00000000000E+00 0. -1.
<scales pt_clust_5="13000.00000" pt_clust_6="13000.00000" pt_clust_7="13000.00000" pt_clust_8="13000.00000" pt_clust_9="114.23075"></scales>
<clustering>
<clus scale="   79.010">  5  6 -1 -1</clus>
<clus scale="   83.860">  7  8 -1 -1</clus>
<clus scale="  104.966">  2  7  1 -1</clus>
<clus scale="  114.231">  2  9  1 -1</clus>
<clus scale="  104.966">  2  5  1 -1</clus>
</clustering>
</event>
<event>
 9    1  0.2802611E-005  0.1133966E+03  0.7546771E-02  0.1258972E+00
          1   -1    0    0  502    0  0.00000000000E+00  0.00000000000E+00  0.24681955768E+03  0.24681955768E+03  0.00000000000E+00 0. -1.
         -2   -1    0    0    0  501 -0.00000000000E+00 -0.00000000000E+00 -0.24887112723E+03  0.24887112723E+03  0.00000000000E+00 0.  1.
         23    2    1    2    0    0 -0.74990866356E+00 -0.77554899700E+02 -0.18945288695E+03  0.22492432967E+03  0.93183865936E+02 0.  0.
        -24    2    1    2    0    0 -0.13039615084E+02  0.62633583152E+02  0.21382631026E+03  0.23743353507E+03  0.80993798007E+02 0.  0.
         13    1    4    4    0    0  0.18402063924E+02  0.50505488062E+02  0.18636358117E+03  0.19396088437E+03  0.00000000000E+00 0. -1.
        -14    1    4    4    0    0 -0.31441679008E+02  0.12128095090E+02  0.27462729095E+02  0.43472650698E+02  0.00000000000E+00 0.  1.
        -13    1    3    3    0    0 -0.29913528854E+02 -0.85759870046E+02 -0.14621226477E+03  0.17212670010E+03  0.00000000000E+00 0.  1.
         13    1    3    3    0    0  0.29163620190E+02  0.82049703454E+01 -0.43240622183E+02  0.52797629566E+02  0.00000000000E+00 0. -1.
         21    1    1    2  502  501  0.13789523748E+02  0.14921316548E+02 -0.26424992868E+02  0.33332820175E+02  0.00000000000E+00 0. -1.
<scales pt_clust_5="13000.00000" pt_clust_6="13000.00000" pt_clust_7="13000.00000" pt_clust_8="13000.00000" pt_clust_9="20.31740"></scales>
<clustering>
<clus scale="   20.317">  2  9  1 -1</clus>
<clus scale="   80.994">  5  6 -1 -1</clus>
<clus scale="   93.184">  7  8 -1 -1</clus>
<clus scale="  103.613">  1  5  2 -1</clus>
<clus scale="  103.613">  1  5  2 -1</clus>
</clustering>
</event>
<event>
 9    1  0.2802611E-005  0.1480609E+03  0.7546771E-02  0.1204710E+00
         -2   -1    0    0    0  501 -0.00000000000E+00  0.00000000000E+00  0.24305212058E+03  0.24305212058E+03  0.00000000000E+00 0.  1.
          1   -1    0    0  502    0  0.00000000000E+00 -0.00000000000E+00 -0.43127652193E+03  0.43127652193E+03  0.00000000000E+00 0. -1.
        -24    2    1    2    0    0 -0.13125663100E+03 -0.53813222722E+02  0.29757673383E+01  0.16361347467E+03  0.81463782022E+02 0.  0.
         23    2    1    2    0    0  0.10350403924E+03  0.43257684157E+02 -0.33449102003E+03  0.36438029906E+03  0.91128735754E+02 0.  0.
         11    1    3    3    0    0 -0.26682249859E+02 -0.15321759998E+02 -0.34330827185E+02  0.46101024741E+02  0.00000000000E+00 0. -1.
        -12    1    3    3    0    0 -0.10457438114E+03 -0.38491462724E+02  0.37306594523E+02  0.11751244993E+03  0.00000000000E+00 0.  1.
        -11    1    4    4    0    0  0.24707400604E+02  0.12299098850E+02 -0.10529948731E+02  0.29539859468E+02  0.00000000000E+00 0.  1.
         11    1    4    4    0    0  0.78796638635E+02  0.30958585307E+02 -0.32396107130E+03  0.33484043959E+03  0.00000000000E+00 0. -1.
         21    1    1    2  502  501  0.27752591761E+02  0.10555538566E+02  0.14329085135E+03  0.14633486879E+03  0.00000000000E+00 0.  1.
<scales pt_clust_5="13000.00000" pt_clust_6="13000.00000" pt_clust_7="13000.00000" pt_clust_8="13000.00000" pt_clust_9="29.69218"></scales>
<clustering>
<clus scale="   29.692">  1  9  2 -1</clus>
<clus scale="   81.464">  5  6 -1 -1</clus>
<clus scale="   91.129">  7  8 -1 -1</clus>
<clus scale="  142.316">  1  5  2 -1</clus>
<clus scale="  148.061">  2  5  1 -1</clus>
</clustering>
</event>
<event>
 9    1  0.2802611E-005  0.9185816E+02  0.7546771E-02  0.1306663E+00
          1   -1    0    0  502    0  0.00000000000E+00  0.00000000000E+00  0.28946561181E+03  0.28946561181E+03  0.00000000000E+00 0. -1.
         -2   -1    0    0    0  501 -0.00000000000E+00 -0.00000000000E+00 -0.44109649932E+02  0.44109649932E+02  0.00000000000E+00 0.  1.
        -24    2    1    2    0    0 -0.12358244043E+02 -0.51755083509E+01  0.22040531072E+02  0.81676238651E+02  0.77496521649E+02 0.  0.
         23    2    1    2    0    0  0.96001584923E+01  0.25856604048E+02  0.19432828919E+03  0.21618391236E+03  0.90616074568E+02 0.  0.
         11    1    3    3    0    0 -0.32907259608E+02 -0.20928753114E+02 -0.10214531301E+02  0.40314229393E+02  0.00000000000E+00 0. -1.
        -12    1    3    3    0    0  0.20549015565E+02  0.15753244763E+02  0.32255062373E+02  0.41362009259E+02  0.00000000000E+00 0.  1.
        -11    1    4    4    0    0 -0.25325717916E+02  0.46454825029E+02  0.12712075719E+03  0.13769215542E+03  0.00000000000E+00 0. -1.
         11    1    4    4    0    0  0.34925876408E+02 -0.20598220981E+02  0.67207532004E+02  0.78491756946E+02  0.00000000000E+00 0.  1.
         21    1    1    2  502  501  0.27580855508E+01 -0.20681095698E+02  0.28987141620E+02  0.35715110730E+02  0.00000000000E+00 0.  1.
<scales pt_clust_5="13000.00000" pt_clust_6="13000.00000" pt_clust_7="13000.00000" pt_clust_8="13000.00000" pt_clust_9="20.86420"></scales>
<clustering>
<clus scale="   20.864">  1  9  2 -1</clus>
<clus scale="   77.497">  5  6 -1 -1</clus>
<clus scale="   78.945">  2  5  1 -1</clus>
<clus scale="   90.616">  7  8 -1 -1</clus>
<clus scale="   20.864">  1  5  2 -1</clus>
</clustering>
</event>
<event>
 9    1  0.2802611E-005  0.9087305E+02  0.7546771E-02  0.1304664E+00
         -2   -1    0    0    0  501 -0.00000000000E+00  0.00000000000E+00  0.62079372548E+02  0.62079372548E+02  0.00000000000E+00 0.  1.
          1   -1    0    0  502    0  0.00000000000E+00 -0.00000000000E+00 -0.28937661039E+03  0.28937661039E+03  0.00000000000E+00 0. -1.
        -24    2    1    2    0    0 -0.15575598229E+02 -0.18769229191E+02 -0.51307446138E+01  0.86829231084E+02  0.83175162192E+02 0.  0.
         23    2    1    2    0    0 -0.27542580496E+02  0.25062069382E+01 -0.11787486281E+03  0.15060742277E+03  0.89572527583E+02 0.  0.
         11    1    3    3    0    0  0.28347596029E+02  0.11320717441E+02  0.88522747562E+01  0.31782190175E+02  0.00000000000E+00 0. -1.
        -12    1    3    3    0    0 -0.43923194257E+02 -0.30089946632E+02 -0.13983019370E+02  0.55047040908E+02  0.00000000000E+00 0.  1.
        -13    1    4    4    0    0 -0.29945404753E+02 -0.34011150309E+02 -0.10019127478E+03  0.10996261707E+03  0.00000000000E+00 0.  1.
         13    1    4    4    0    0  0.24028242562E+01  0.36517357248E+02 -0.17683588030E+02  0.40644805700E+02  0.00000000000E+00 0. -1.
         21    1    1    2  502  501  0.43118178725E+02  0.16263022253E+02 -0.10429163042E+03  0.11401932908E+03  0.00000000000E+00 0. -1.
<scales pt_clust_5="13000.00000" pt_clust_6="13000.00000" pt_clust_7="13000.00000" pt_clust_8="13000.00000" pt_clust_9="46.08322"></scales>
<clustering>
<clus scale="   46.083">  2  9  1 -1</clus>
<clus scale="   83.175">  5  6 -1 -1</clus>
<clus scale="   84.574">  1  5  2 -1</clus>
<clus scale="   89.573">  7  8 -1 -1</clus>
<clus scale="   46.083">  2  5  1 -1</clus>
</clustering>
</event>
<event>
 9    1  0.2802611E-005  0.9662310E+02  0.7546771E-02  0.1293658E+00
          1   -1    0    0  502    0  0.00000000000E+00  0.00000000000E+00  0.30402011811E+03  0.30402011811E+03  0.00000000000E+00 0. -1.
         -2   -1    0    0    0  501 -0.00000000000E+00 -0.00000000000E+00 -0.92611505365E+02  0.92611505365E+02  0.00000000000E+00 0.  1.
         23    2    1    2    0    0  0.18915094106E+02 -0.93329951117E+01 -0.17188709404E+02  0.95847525217E+02  0.91904356678E+02 0.  0.
        -24    2    1    2    0    0  0.34622614343E+02  0.10956139770E+02  0.23073103929E+03  0.24717930768E+03  0.80882848790E+02 0.  0.
         13    1    4    4    0    0  0.55852129519E+02 -0.57345213005E+01  0.19143481485E+03  0.19949845474E+03  0.00000000000E+00 0. -1.
        -14    1    4    4    0    0 -0.21229515176E+02  0.16690661070E+02  0.39296224443E+02  0.47680852940E+02  0.00000000000E+00 0.  1.
        -11    1    3    3    0    0 -0.24405192782E+02 -0.12195661107E+02 -0.38736107676E+02  0.47379675204E+02  0.00000000000E+00 0.  1.
         11    1    3    3    0    0  0.43320286888E+02  0.28626659950E+01  0.21547398272E+02  0.48467850013E+02  0.00000000000E+00 0. -1.
         21    1    1    2  502  501 -0.53537708449E+02 -0.16231446583E+01 -0.21337171404E+01  0.53604790583E+02  0.00000000000E+00 0.  1.
<scales pt_clust_5="13000.00000" pt_clust_6="13000.00000" pt_clust_7="13000.00000" pt_clust_8="13000.00000" pt_clust_9="53.56231"></scales>
<clustering>
<clus scale="   53.562">  2  9  1 -1</clus>
<clus scale="   80.883">  5  6 -1 -1</clus>
<clus scale="   86.207">  1  5  2 -1</clus>
<clus scale="   91.904">  7  8 -1 -1</clus>
<clus scale="   86.207">  1  5  2 -1</clus>
</clustering>
</event>
<event>
 9    1  0.2802611E-005  0.1593878E+03  0.7546771E-02  0.1214894E+00
          1   -1    0    0  502    0  0.00000000000E+00  0.00000000000E+00  0.29333153813E+03  0.29333153813E+03  0.00000000000E+00 0. -1.
         -2   -1    0    0    0  501 -0.00000000000E+00 -0.00000000000E+00 -0.44507401555E+03  0.44507401555E+03  0.00000000000E+00 0.  1.
         23    2    1    2    0    0  0.10316657651E+02 -0.60407917344E+01 -0.66749097285E+02  0.11348372152E+03  0.90995540944E+02 0.  0.
        -24    2    1    2    0    0 -0.10735759381E+03  0.88298875144E+02  0.23284044574E+03  0.28257452833E+03  0.79443983950E+02 0.  0.
         11    1    4    4    0    0 -0.39178829439E+02  0.36286720376E+02  0.16440745152E+03  0.17286271103E+03  0.00000000000E+00 0. -1.
        -12    1    4    4    0    0 -0.68178764375E+02  0.52012154768E+02  0.68432994221E+02  0.10971181729E+03  0.00000000000E+00 0.  1.
        -11    1    3    3    0    0  0.35787113554E+01 -0.28629699718E+02 -0.80967845859E+02  0.85954982078E+02  0.00000000000E+00 0.  1.
         11    1    3    3    0    0  0.67379462956E+01  0.22588907984E+02  0.14218748575E+02  0.27528739441E+02  0.00000000000E+00 0. -1.
         21    1    1    2  502  501  0.97040936163E+02 -0.82258083409E+02 -0.31783382587E+03  0.34234730384E+03  0.00000000000E+00 0.  1.
<scales pt_clust_5="13000.00000" pt_clust_6="13000.00000" pt_clust_7="13000.00000" pt_clust_8="13000.00000" pt_clust_9="138.17788"></scales>
<clustering>
<clus scale="   79.444">  5  6 -1 -1</clus>
<clus scale="   90.996">  7  8 -1 -1</clus>
<clus scale="   91.778">  2  7  1 -1</clus>
<clus scale="  138.178">  2  9  1 -1</clus>
<clus scale="  159.388">  1  5  2 -1</clus>
</clustering>
</event>
<event>
 9    1  0.2802611E-005  0.9624613E+02  0.7546771E-02  0.1295871E+00
         -2   -1    0    0    0  501 -0.00000000000E+00  0.00000000000E+00  0.22612438513E+02  0.22612438513E+02  0.00000000000E+00 0.  1.
          1   -1    0    0  502    0  0.00000000000E+00 -0.00000000000E+00 -0.74197404336E+03  0.74197404336E+03  0.00000000000E+00 0. -1.
         23    2    1    2    0    0  0.41829557780E+02  0.14694889232E+02 -0.36337430651E+03  0.37725225931E+03  0.91174167676E+02 0.  0.
        -24    2    1    2    0    0 -0.17871978748E+02 -0.13790703574E+02 -0.35413592171E+03  0.36328820958E+03  0.77823396503E+02 0.  0.
         11    1    4    4    0    0  0.18641798352E+02 -0.33865308924E+02 -0.14663855681E+03  0.15164841620E+03  0.00000000000E+00 0. -1.
        -12    1    4    4    0    0 -0.36513777100E+02  0.20074605351E+02 -0.20749736490E+03  0.21163979338E+03  0.00000000000E+00 0.  1.
        -13    1    3    3    0    0  0.28870226118E+02 -0.33318957495E+02 -0.10094620889E+03  0.11015343832E+03  0.00000000000E+00 0.  1.
         13    1    3    3    0    0  0.12959331661E+02  0.48013846727E+02 -0.26242809762E+03  0.26709882099E+03  0.00000000000E+00 0. -1.
         21    1    1    2  502  501 -0.23957579031E+02 -0.90418565806E+00 -0.18513766231E+01  0.24046012978E+02  0.00000000000E+00 0. -1.
<scales pt_clust_5="13000.00000" pt_clust_6="13000.00000" pt_clust_7="13000.00000" pt_clust_8="13000.00000" pt_clust_9="23.97464"></scales>
<clustering>
<clus scale="   23.975">  1  9  2 -1</clus>
<clus scale="   77.823">  5  6 -1 -1</clus>
<clus scale="   83.708">  2  5  1 -1</clus>
<clus scale="   91.174">  7  8 -1 -1</clus>
<clus scale="   83.708">  2  5  1 -1</clus>
</clustering>
</event>
<event>
 9    1  0.2802611E-005  0.1015221E+03  0.7546771E-02  0.1284899E+00
         -2   -1    0    0    0  501 -0.00000000000E+00  0.00000000000E+00  0.38042926235E+03  0.38042926235E+03  0.00000000000E+00 0.  1.
          1   -1    0    0  502    0  0.00000000000E+00 -0.00000000000E+00 -0.14673128700E+03  0.14673128700E+03  0.00000000000E+00 0. -1.
         23    2    1    2    0    0 -0.14524173447E+01  0.38686679578E+02  0.23778834742E+03  0.25905901144E+03  0.95233946398E+02 0.  0.
        -24    2    1    2    0    0 -0.20399879232E+02 -0.28933224613E+02 -0.12063205914E+03  0.14912835784E+03  0.80211513278E+02 0.  0.
         13    1    4    4    0    0  0.25384004400E+02 -0.71290910368E+01 -0.79734965953E+02  0.83981167019E+02  0.00000000000E+00 0. -1.
        -14    1    4    4    0    0 -0.45783883632E+02 -0.21804133576E+02 -0.40897093182E+02  0.65147190823E+02  0.00000000000E+00 0.  1.
        -13    1    3    3    0    0  0.10307380482E+02 -0.29648477265E+02  0.99943404684E+02  0.10475666297E+03  0.00000000000E+00 0. -1.
         13    1    3    3    0    0 -0.11759797827E+02  0.68335156843E+02  0.13784494273E+03  0.15430234847E+03  0.00000000000E+00 0.  1.
         21    1    1    2  502  501  0.21852296577E+02 -0.97534549658E+01  0.11654168707E+03  0.11897318006E+03  0.00000000000E+00 0. -1.
<scales pt_clust_5="13000.00000" pt_clust_6="13000.00000" pt_clust_7="13000.00000" pt_clust_8="13000.00000" pt_clust_9="23.93016"></scales>
<clustering>
<clus scale="   23.930">  1  9  2 -1</clus>
<clus scale="   80.212">  5  6 -1 -1</clus>
<clus scale="   87.585">  2  5  1 -1</clus>
<clus scale="   95.234">  7  8 -1 -1</clus>
<clus scale="   87.585">  2  5  1 -1</clus>
</clustering>
</event>
<event>
 9    1  0.2802611E-005  0.1143691E+03  0.7546771E-02  0.1256077E+00
         -4   -1    0    0    0  501 -0.00000000000E+00  0.00000000000E+00  0.43994766539E+03  0.43994766539E+03  0.00000000000E+00 0.  1.
          3   -1    0    0  502    0  0.00000000000E+00 -0.00000000000E+00 -0.15526699611E+03  0.15526699611E+03  0.00000000000E+00 0. -1.
        -24    2    1    2    0    0  0.48540610664E+02 -0.73612476273E+02  0.24776301293E+03  0.27511102495E+03  0.80774859486E+02 0.  0.
         23    2    1    2    0    0  0.13861504652E+01  0.69688818316E+02 -0.11386148867E+03  0.16122498115E+03  0.90391388602E+02 0.  0.
         11    1    3    3    0    0 -0.19375888744E+02 -0.16118593041E+02  0.26238931067E+02  0.36382902712E+02  0.00000000000E+00 0. -1.
        -12    1    3    3    0    0  0.67916499408E+02 -0.57493883232E+02  0.22152408186E+03  0.23872812223E+03  0.00000000000E+00 0.  1.
        -11    1    4    4    0    0 -0.14971592214E+02  0.51364915817E+02 -0.12369245402E+03  0.13476767539E+03  0.00000000000E+00 0. -1.
         11    1    4    4    0    0  0.16357742679E+02  0.18323902499E+02  0.98309653453E+01  0.26457305758E+02  0.00000000000E+00 0.  1.
         21    1    1    2  502  501 -0.49926761129E+02  0.39236579566E+01  0.15077914502E+03  0.15887865540E+03  0.00000000000E+00 0.  1.
<scales pt_clust_5="13000.00000" pt_clust_6="13000.00000" pt_clust_7="13000.00000" pt_clust_8="13000.00000" pt_clust_9="50.08070"></scales>
<clustering>
<clus scale="   50.081">  1  9  2 -1</clus>
<clus scale="   80.775">  5  6 -1 -1</clus>
<clus scale="   90.391">  7  8 -1 -1</clus>
<clus scale="  106.931">  1  5  2 -1</clus>
<clus scale="  114.369">  2  5  1 -1</clus>
</clustering>
</event>
<event>
 9    1  0.2802611E-005  0.1297931E+03  0.7546771E-02  0.1243483E+00
         -2   -1    0    0    0  501 -0.00000000000E+00  0.00000000000E+00  0.59638778602E+03  0.59638778602E+03  0.00000000000E+00 0.  1.
          1   -1    0    0  502    0  0.00000000000E+00 -0.00000000000E+00 -0.95648502898E+02  0.95648502898E+02  0.00000000000E+00 0. -1.
         23    2    1    2    0    0 -0.66419582344E+02  0.17114711992E+02  0.87646236933E+02  0.14441939695E+03  0.92035998836E+02 0.  0.
        -24    2    1    2    0    0 -0.14641872382E+02  0.34851288877E+02 -0.26373509938E+02  0.97725484355E+02  0.86172568156E+02 0.  0.
         13    1    4    4    0    0 -0.24667685542E+02  0.54824045118E+02 -0.39380595416E+02  0.71867947852E+02  0.00000000000E+00 0. -1.
        -14    1    4    4    0    0  0.10025813159E+02 -0.19972756241E+02  0.13007085477E+02  0.25857536503E+02  0.00000000000E+00 0.  1.
        -13    1    3    3    0    0 -0.35031981778E+01  0.29540298409E+02 -0.65541043501E+01  0.30460760190E+02  0.00000000000E+00 0. -1.
         13    1    3    3    0    0 -0.62916384167E+02 -0.12425586417E+02  0.94200341283E+02  0.11395863676E+03  0.00000000000E+00 0.  1.
         21    1    1    2  502  501  0.81061454727E+02 -0.51966000869E+02  0.43946655613E+03  0.44989140762E+03  0.00000000000E+00 0.  1.
<scales pt_clust_5="13000.00000" pt_clust_6="13000.00000" pt_clust_7="13000.00000" pt_clust_8="13000.00000" pt_clust_9="91.51846"></scales>
<clustering>
<clus scale="   86.173">  5  6 -1 -1</clus>
<clus scale="   92.036">  7  8 -1 -1</clus>
<clus scale="   94.099">  2  5  1 -1</clus>
<clus scale="   91.518">  1  9  2 -1</clus>
<clus scale="   94.099">  2  5  1 -1</clus>
</clustering>
</event>
<event>
 9    1  0.2802611E-005  0.1051854E+03  0.7546771E-02  0.1276169E+00
         -2   -1    0    0    0  501 -0.00000000000E+00  0.00000000000E+00  0.91604080422E+02  0.91604080422E+02  0.00000000000E+00 0.  1.
          1   -1    0    0  502    0  0.00000000000E+00 -0.00000000000E+00 -0.25392844367E+03  0.25392844367E+03  0.00000000000E+00 0. -1.
        -24    2    1    2    0    0  0.20183307440E+02 -0.33128017528E+02 -0.35198230969E+02  0.92702374190E+02  0.76485183353E+02 0.  0.
         23    2    1    2    0    0 -0.21611639990E+02  0.57006975015E+02 -0.17088999332E+03  0.20295510326E+03  0.90942432007E+02 0.  0.
         13    1    3    3    0    0  0.15290482786E+02 -0.50347486474E+02 -0.47576854434E+02  0.70938179678E+02  0.00000000000E+00 0. -1.
        -14    1    3    3    0    0  0.48928246535E+01  0.17219468946E+02  0.12378623465E+02  0.21764194512E+02  0.00000000000E+00 0.  1.
        -13    1    4    4    0    0 -0.16113924020E+02  0.21778296130E+02  0.12898753653E+01  0.27122251162E+02  0.00000000000E+00 0.  1.
         13    1    4    4    0    0 -0.54977159696E+01  0.35228678885E+02 -0.17217986868E+03  0.17583285210E+03  0.00000000000E+00 0. -1.
         21    1    1    2  502  501  0.14283325498E+01 -0.23878957487E+02  0.43763861039E+02  0.49875046643E+02  0.00000000000E+00 0.  1.
<scales pt_clust_5="13000.00000" pt_clust_6="13000.00000" pt_clust_7="13000.00000" pt_clust_8="13000.00000" pt_clust_9="23.92164"></scales>
<clustering>
<clus scale="   23.922">  1  9  2 -1</clus>
<clus scale="   76.485">  5  6 -1 -1</clus>
<clus scale="   90.942">  7  8 -1 -1</clus>
<clus scale="   92.970">  1  5  2 -1</clus>
<clus scale="  105.185">  2  5  1 -1</clus>
</clustering>
</event>
<event>
 9    1  0.2802611E-005  0.1226382E+03  0.7546771E-02  0.1242093E+00
          1   -1    0    0  502    0  0.00000000000E+00  0.00000000000E+00  0.12992875414E+03  0.12992875414E+03  0.00000000000E+00 0. -1.
         -2   -1    0    0    0  501 -0.00000000000E+00 -0.00000000000E+00 -0.22930716774E+03  0.22930716774E+03  0.00000000000E+00 0.  1.
         23    2    1    2    0    0 -0.71756641135E+02  0.70417203727E+02 -0.11730100669E+03  0.17932715223E+03  0.91055495327E+02 0.  0.
        -24    2    1    2    0    0 -0.40093832399E+01 -0.62060593393E+02  0.21308035658E+02  0.10360814969E+03  0.80081357955E+02 0.  0.
         11    1    4    4    0    0 -0.14215321563E+02 -0.45693319810E+02  0.49887758187E+02  0.69128454773E+02  0.00000000000E+00 0. -1.
        -12    1    4    4    0    0  0.10205938323E+02 -0.16367273583E+02 -0.28579722529E+02  0.34479694915E+02  0.00000000000E+00 0.  1.
        -11    1    3    3    0    0  0.21139335380E+02  0.18118802926E+02 -0.15227701155E+02  0.31733978670E+02  0.00000000000E+00 0. -1.
         11    1    3    3    0    0 -0.92895976515E+02  0.52298400802E+02 -0.10207330553E+03  0.14759317356E+03  0.00000000000E+00 0.  1.
         21    1    1    2  502  501  0.75766024375E+02 -0.83566103345E+01 -0.33854425713E+01  0.76300619966E+02  0.00000000000E+00 0. -1.
<scales pt_clust_5="13000.00000" pt_clust_6="13000.00000" pt_clust_7="13000.00000" pt_clust_8="13000.00000" pt_clust_9="76.22548"></scales>
<clustering>
<clus scale="   76.225">  1  9  2 -1</clus>
<clus scale="   80.081">  5  6 -1 -1</clus>
<clus scale="   91.055">  7  8 -1 -1</clus>
<clus scale="  114.726">  1  5  2 -1</clus>
<clus scale="   76.225">  1  5  2 -1</clus>
</clustering>
</event>
<event>
 9    1  0.2802611E-005  0.1098615E+03  0.7546771E-02  0.1265266E+00
         -2   -1    0    0    0  501 -0.00000000000E+00  0.00000000000E+00  0.99671905938E+02  0.99671905938E+02  0.00000000000E+00 0.  1.
          1   -1    0    0  502    0  0.00000000000E+00 -0.00000000000E+00 -0.35668736165E+03  0.35668736165E+03  0.00000000000E+00 0. -1.
        -24    2    1    2    0    0  0.35794343318E+02 -0.14367345775E+02  0.53540730747E+02  0.10335507793E+03  0.79548768989E+02 0.  0.
         23    2    1    2    0    0 -0.53243505184E+02  0.37004383768E+02 -0.30377593713E+03  0.32362936166E+03  0.90840236067E+02 0.  0.
         11    1    3    3    0    0  0.31074699038E+02 -0.38803626018E+02  0.64994534022E+01  0.50135827579E+02  0.00000000000E+00 0. -1.
        -12    1    3    3    0    0  0.47196442802E+01  0.24436280243E+02  0.47041277344E+02  0.53219250356E+02  0.00000000000E+00 0.  1.
        -11    1    4    4    0    0 -0.18353492378E+02  0.64422670178E+02 -0.19312439768E+03  0.20441175136E+03  0.00000000000E+00 0.  1.
         11    1    4    4    0    0 -0.34890012806E+02 -0.27418286410E+02 -0.11065153945E+03  0.11921761030E+03  0.00000000000E+00 0. -1.
         21    1    1    2  502  501  0.17449161865E+02 -0.22637037993E+02 -0.67802493378E+01  0.29374827999E+02  0.00000000000E+00 0. -1.
<scales pt_clust_5="13000.00000" pt_clust_6="13000.00000" pt_clust_7="13000.00000" pt_clust_8="13000.00000" pt_clust_9="28.58162"></scales>
<clustering>
<clus scale="   28.582">  1  9  2 -1</clus>
<clus scale="   79.549">  5  6 -1 -1</clus>
<clus scale="   90.840">  7  8 -1 -1</clus>
<clus scale="  100.725">  1  5  2 -1</clus>
<clus scale="  109.862">  2  5  1 -1</clus>
</clustering>
</event>
<event>
 9    1  0.2802611E-005  0.1023309E+03  0.7546771E-02  0.1281297E+00
          1   -1    0    0  502    0  0.00000000000E+00  0.00000000000E+00  0.64481402943E+03  0.64481402943E+03  0.00000000000E+00 0. -1.
         -2   -1    0    0    0  501 -0.00000000000E+00 -0.00000000000E+00 -0.29001770570E+02  0.29001770570E+02  0.00000000000E+00 0.  1.
        -24    2    1    2    0    0  0.41431266622E+02  0.10839056054E+02  0.73799636726E+02  0.11877109254E+03  0.82620524398E+02 0.  0.
         23    2    1    2    0    0 -0.21875238365E+02 -0.51986576706E+01  0.48201036742E+03  0.49168444463E+03  0.94414229316E+02 0.  0.
         13    1    3    3    0    0 -0.12691945217E+02 -0.24297889176E+02  0.13941505350E+02  0.30754486880E+02  0.00000000000E+00 0. -1.
        -14    1    3    3    0    0  0.54123211839E+02  0.35136945229E+02  0.59858131375E+02  0.88016605658E+02  0.00000000000E+00 0.  1.
        -13    1    4    4    0    0 -0.13060430161E+02  0.43973239732E+02  0.19205721483E+03  0.19745934877E+03  0.00000000000E+00 0.  1.
         13    1    4    4    0    0 -0.88148082048E+01 -0.49171897403E+02  0.28995315258E+03  0.29422509586E+03  0.00000000000E+00 0. -1.
         21    1    1    2  502  501 -0.19556028257E+02 -0.56403983830E+01  0.60002254718E+02  0.63360262834E+02  0.00000000000E+00 0. -1.
<scales pt_clust_5="13000.00000" pt_clust_6="13000.00000" pt_clust_7="13000.00000" pt_clust_8="13000.00000" pt_clust_9="20.35319"></scales>
<clustering>
<clus scale="   20.353">  1  9  2 -1</clus>
<clus scale="   82.621">  5  6 -1 -1</clus>
<clus scale="   91.563">  2  5  1 -1</clus>
<clus scale="   94.414">  7  8 -1 -1</clus>
<clus scale="   20.353">  1  5  2 -1</clus>
</clustering>
</event>
<event>
 9    1  0.2802611E-005  0.1015509E+03  0.7546771E-02  0.1284685E+00
         -2   -1    0    0    0  501 -0.00000000000E+00  0.00000000000E+00  0.23951915039E+03  0.23951915039E+03  0.00000000000E+00 0.  1.
          1   -1    0    0  502    0  0.00000000000E+00 -0.00000000000E+00 -0.18918045504E+03  0.18918045504E+03  0.00000000000E+00 0. -1.
         23    2    1    2    0    0 -0.49682920640E+01 -0.28361983711E+02  0.16065484268E+02  0.96410340112E+02  0.90596732003E+02 0.  0.
        -24    2    1    2    0    0  0.36607907783E+02 -0.57179313544E+02 -0.11762329293E+03  0.15511441735E+03  0.74937511422E+02 0.  0.
         11    1    4    4    0    0 -0.12972300411E+01 -0.50801298465E+02 -0.10134377312E+03  0.11337113866E+03  0.00000000000E+00 0. -1.
        -12    1    4    4    0    0  0.37905137824E+02 -0.63780150794E+01 -0.16279519814E+02  0.41743278682E+02  0.00000000000E+00 0.  1.
        -13    1    3    3    0    0  0.19082591085E+01  0.30469418390E+02 -0.93894457333E+01  0.31940391372E+02  0.00000000000E+00 0. -1.
         13    1    3    3    0    0 -0.68765511725E+01 -0.58831402101E+02  0.25454930001E+02  0.64469948740E+02  0.00000000000E+00 0.  1.
         21    1    1    2  502  501 -0.31639615719E+02  0.85541297255E+02  0.15189650402E+03  0.17717484797E+03  0.00000000000E+00 0.  1.
<scales pt_clust_5="13000.00000" pt_clust_6="13000.00000" pt_clust_7="13000.00000" pt_clust_8="13000.00000" pt_clust_9="91.20515"></scales>
<clustering>
<clus scale="   74.938">  5  6 -1 -1</clus>
<clus scale="   90.597">  7  8 -1 -1</clus>
<clus scale="   91.205">  1  9  2 -1</clus>
<clus scale="   87.866">  2  5  1 -1</clus>
<clus scale="   87.866">  2  5  1 -1</clus>
</clustering>
</event>
<event>
 9    1  0.2802611E-005  0.9506239E+02  0.7546771E-02  0.1294905E+00
          1   -1    0    0  502    0  0.00000000000E+00  0.00000000000E+00  0.10409908023E+03  0.10409908023E+03  0.00000000000E+00 0. -1.
         -2   -1    0    0    0  501 -0.00000000000E+00 -0.00000000000E+00 -0.22895553607E+03  0.22895553607E+03  0.00000000000E+00 0.  1.
        -24    2    1    2    0    0 -0.27278235977E+02 -0.90869508432E+00 -0.14235472013E+03  0.16793080576E+03  0.84799535940E+02 0.  0.
         23    2    1    2    0    0 -0.16599695434E+02 -0.28385612332E+02  0.43069911055E+02  0.10649499143E+03  0.91678094907E+02 0.  0.
         13    1    3    3    0    0 -0.35571246177E+02 -0.66199256582E+01 -0.13400129132E+02  0.38583680890E+02  0.00000000000E+00 0. -1.
        -14    1    3    3    0    0  0.82930101999E+01  0.57112305738E+01 -0.12895459100E+03  0.12934712487E+03  0.00000000000E+00 0.  1.
        -11    1    4    4    0    0 -0.35227242958E+02 -0.41900315930E+02  0.57452937583E+02  0.79356380704E+02  0.00000000000E+00 0. -1.
         11    1    4    4    0    0  0.18627547524E+02  0.13514703599E+02 -0.14383026528E+02  0.27138610728E+02  0.00000000000E+00 0.  1.
         21    1    1    2  502  501  0.43877931411E+02  0.29294307416E+02 -0.25571646759E+02  0.58628819107E+02  0.00000000000E+00 0.  1.
<scales pt_clust_5="13000.00000" pt_clust_6="13000.00000" pt_clust_7="13000.00000" pt_clust_8="13000.00000" pt_clust_9="52.75822"></scales>
<clustering>
<clus scale="   52.758">  2  9  1 -1</clus>
<clus scale="   84.800">  5  6 -1 -1</clus>
<clus scale="   88.447">  2  5  1 -1</clus>
<clus scale="   91.678">  7  8 -1 -1</clus>
<clus scale="   95.062">  1  5  2 -1</clus>
</clustering>
</event>
<event>
 9    1  0.2802611E-005  0.2121257E+03  0.7546771E-02  0.1139894E+00
          1   -1    0    0  502    0  0.00000000000E+00  0.00000000000E+00  0.45673546092E+03  0.45673546092E+03  0.00000000000E+00 0. -1.
         -2   -1    0    0    0  501 -0.00000000000E+00 -0.00000000000E+00 -0.92974405918E+02  0.92974405918E+02  0.00000000000E+00 0.  1.
        -24    2    1    2    0    0  0.34153658349E+02 -0.73738170613E+02  0.26701687207E+03  0.28969375307E+03  0.77592979168E+02 0.  0.
         23    2    1    2    0    0  0.89250031322E+01 -0.15610176889E+02  0.12572902353E+03  0.15667677344E+03  0.91741433790E+02 0.  0.
         11    1    3    3    0    0 -0.17115221961E+02 -0.46499820114E+02  0.82262697926E+02  0.96032887926E+02  0.00000000000E+00 0. -1.
        -12    1    3    3    0    0  0.51268880311E+02 -0.27238350500E+02  0.18475417414E+03  0.19366086515E+03  0.00000000000E+00 0.  1.
        -11    1    4    4    0    0 -0.35122029522E+02  0.18857274723E+01  0.92031857265E+02  0.98523985290E+02  0.00000000000E+00 0.  1.
         11    1    4    4    0    0  0.44047032654E+02 -0.17495904361E+02  0.33697166263E+02  0.58152788147E+02  0.00000000000E+00 0. -1.
         21    1    1    2  502  501 -0.43078661482E+02  0.89348347502E+02 -0.28984840590E+02  0.10333934033E+03  0.00000000000E+00 0.  1.
<scales pt_clust_5="13000.00000" pt_clust_6="13000.00000" pt_clust_7="13000.00000" pt_clust_8="13000.00000" pt_clust_9="99.19122"></scales>
<clustering>
<clus scale="   77.593">  5  6 -1 -1</clus>
<clus scale="   91.741">  7  8 -1 -1</clus>
<clus scale="   91.847">  5  7 -1 -1</clus>
<clus scale="   99.191">  2  9  1 -1</clus>
<clus scale="  212.126">  1  5  2 -1</clus>
</clustering>
</event>
<event>
 9    1  0.2802611E-005  0.1256560E+03  0.7546771E-02  0.1249815E+00
         -2   -1    0    0    0  501 -0.00000000000E+00  0.00000000000E+00  0.83449358093E+02  0.83449358093E+02  0.00000000000E+00 0.  1.
          1   -1    0    0  502    0  0.00000000000E+00 -0.00000000000E+00 -0.45135210032E+03  0.45135210032E+03  0.00000000000E+00 0. -1.
         23    2    1    2    0    0 -0.15061788115E+01  0.20315991268E+02  0.91526058596E+01  0.12145087628E+03  0.11937980181E+03 0.  0.
        -24    2    1    2    0    0  0.70647778241E+01 -0.40186660993E+02 -0.38133497594E+03  0.39227792798E+03  0.82466539295E+02 0.  0.
         11    1    4    4    0    0  0.13728003133E+02 -0.57610257977E+02 -0.35557316636E+03  0.36047146424E+03  0.00000000000E+00 0. -1.
        -12    1    4    4    0    0 -0.66632253090E+01  0.17423596984E+02 -0.25761809573E+02  0.31806463743E+02  0.00000000000E+00 0.  1.
        -11    1    3    3    0    0  0.50777938720E+02  0.34815625059E+02 -0.12863689091E+02  0.62896751156E+02  0.00000000000E+00 0.  1.
         11    1    3    3    0    0 -0.52284117531E+02 -0.14499633791E+02  0.22016294951E+02  0.58554125128E+02  0.00000000000E+00 0. -1.
         21    1    1    2  502  501 -0.55585990126E+01  0.19870669725E+02  0.42796278474E+01  0.21072654148E+02  0.00000000000E+00 0. -1.
<scales pt_clust_5="13000.00000" pt_clust_6="13000.00000" pt_clust_7="13000.00000" pt_clust_8="13000.00000" pt_clust_9="20.63351"></scales>
<clustering>
<clus scale="   20.634">  1  9  2 -1</clus>
<clus scale="   82.467">  5  6 -1 -1</clus>
<clus scale="   91.316">  2  5  1 -1</clus>
<clus scale="  119.380">  7  8 -1 -1</clus>
<clus scale="   91.316">  2  5  1 -1</clus>
</clustering>
</event>
<event>
 9    1  0.2802611E-005  0.9161211E+02  0.7546771E-02  0.1302082E+00
          1   -1    0    0  502    0  0.00000000000E+00  0.00000000000E+00  0.72283769931E+02  0.72283769931E+02  0.00000000000E+00 0. -1.
         -2   -1    0    0    0  501 -0.00000000000E+00 -0.00000000000E+00 -0.57190539216E+03  0.57190539216E+03  0.00000000000E+00 0.  1.
         23    2    1    2    0    0 -0.80450391072E+01  0.59076679407E+02 -0.98004523981E+02  0.14679707288E+03  0.91595399353E+02 0.  0.
        -24    2    1    2    0    0 -0.30005040933E+01  0.24980279160E+02 -0.33224547118E+01  0.90174457739E+02  0.86529629327E+02 0.  0.
         13    1    4    4    0    0 -0.19984506842E+02  0.44141422813E+02  0.22839594530E+02  0.53567646952E+02  0.00000000000E+00 0. -1.
        -14    1    4    4    0    0  0.16984002749E+02 -0.19161143653E+02 -0.26162049242E+02  0.36606810787E+02  0.00000000000E+00 0.  1.
        -13    1    3    3    0    0 -0.69740196466E+01 -0.24185091310E+02 -0.30902182246E+02  0.39855996529E+02  0.00000000000E+00 0.  1.
         13    1    3    3    0    0 -0.10710194606E+01  0.83261770718E+02 -0.67102341734E+02  0.10694107636E+03  0.00000000000E+00 0. -1.
         21    1    1    2  502  501  0.11045543200E+02 -0.84056958568E+02 -0.39829464353E+03  0.40721763147E+03  0.00000000000E+00 0.  1.
<scales pt_clust_5="13000.00000" pt_clust_6="13000.00000" pt_clust_7="13000.00000" pt_clust_8="13000.00000" pt_clust_9="84.77957"></scales>
<clustering>
<clus scale="   84.780">  2  9  1 -1</clus>
<clus scale="   86.530">  5  6 -1 -1</clus>
<clus scale="   86.547">  1  5  2 -1</clus>
<clus scale="   91.595">  7  8 -1 -1</clus>
<clus scale="   86.547">  1  5  2 -1</clus>
</clustering>
</event>
<event>
 9    1  0.2802611E-005  0.1655889E+03  0.7546771E-02  0.1183944E+00
          1   -1    0    0  502    0  0.00000000000E+00  0.00000000000E+00  0.14869155088E+03  0.14869155088E+03  0.00000000000E+00 0. -1.
         -2   -1    0    0    0  501 -0.00000000000E+00 -0.00000000000E+00 -0.32413977404E+03  0.32413977404E+03  0.00000000000E+00 0.  1.
         23    2    1    2    0    0  0.33179111710E+01 -0.95944336962E+02 -0.10720492767E+03  0.17054316910E+03  0.91519132855E+02 0.  0.
        -24    2    1    2    0    0 -0.18776850527E+02  0.16012955888E+03  0.30656467186E+02  0.18337690918E+03  0.81812139058E+02 0.  0.
         13    1    4    4    0    0  0.27032100967E+02  0.33235967635E+02  0.22077918247E+02  0.48195419922E+02  0.00000000000E+00 0. -1.
        -14    1    4    4    0    0 -0.45808951494E+02  0.12689359125E+03  0.85785489395E+01  0.13518148926E+03  0.00000000000E+00 0.  1.
        -11    1    3    3    0    0 -0.28523867105E+02  0.13596730227E+01 -0.35446129961E+02  0.45517994624E+02  0.00000000000E+00 0.  1.
         11    1    3    3    0    0  0.31841778276E+02 -0.97304009985E+02 -0.71758797713E+02  0.12502517447E+03  0.00000000000E+00 0. -1.
         21    1    1    2  502  501  0.15458939356E+02 -0.64185221920E+02 -0.98899762677E+02  0.11891124664E+03  0.00000000000E+00 0.  1.
<scales pt_clust_5="13000.00000" pt_clust_6="13000.00000" pt_clust_7="13000.00000" pt_clust_8="13000.00000" pt_clust_9="66.02061"></scales>
<clustering>
<clus scale="   66.021">  2  9  1 -1</clus>
<clus scale="   81.812">  5  6 -1 -1</clus>
<clus scale="   91.519">  7  8 -1 -1</clus>
<clus scale="  160.428">  1  5  2 -1</clus>
<clus scale="  160.428">  1  5  2 -1</clus>
</clustering>
</event>
<event>
 9    1  0.2802611E-005  0.1060148E+03  0.7546771E-02  0.1276777E+00
         -2   -1    0    0    0  501 -0.00000000000E+00  0.00000000000E+00  0.17714748744E+03  0.17714748744E+03  0.00000000000E+00 0.  1.
          1   -1    0    0  502    0  0.00000000000E+00 -0.00000000000E+00 -0.14598145172E+03  0.14598145172E+03  0.00000000000E+00 0. -1.
        -24    2    1    2    0    0 -0.45159955419E+02  0.17455840941E+02  0.22375640496E+02  0.96112277484E+02  0.79954816235E+02 0.  0.
         23    2    1    2    0    0  0.33168230093E+02  0.33780520065E+02 -0.72152186377E+02  0.13047305660E+03  0.97857168749E+02 0.  0.
         11    1    3    3    0    0 -0.17559479326E+02 -0.28693866999E+02 -0.76848536729E+01  0.34506960074E+02  0.00000000000E+00 0. -1.
        -12    1    3    3    0    0 -0.27600476094E+02  0.46149707940E+02  0.30060494169E+02  0.61605317411E+02  0.00000000000E+00 0.  1.
        -13    1    4    4    0    0  0.55546048161E+02  0.12435835085E+02 -0.80360137967E+02  0.98477232062E+02  0.00000000000E+00 0. -1.
         13    1    4    4    0    0 -0.22377818068E+02  0.21344684980E+02  0.82079515899E+01  0.31995824535E+02  0.00000000000E+00 0.  1.
         21    1    1    2  502  501  0.11991725326E+02 -0.51236361006E+02  0.80942581598E+02  0.96543605076E+02  0.00000000000E+00 0.  1.
<scales pt_clust_5="13000.00000" pt_clust_6="13000.00000" pt_clust_7="13000.00000" pt_clust_8="13000.00000" pt_clust_9="52.62097"></scales>
<clustering>
<clus scale="   52.621">  1  9  2 -1</clus>
<clus scale="   79.955">  5  6 -1 -1</clus>
<clus scale="   89.755">  1  5  2 -1</clus>
<clus scale="   97.857">  7  8 -1 -1</clus>
<clus scale="  106.015">  2  5  1 -1</clus>
</clustering>
</event>
<event>
 9    1  0.2802611E-005  0.1163818E+03  0.7546771E-02  0.1250426E+00
         -2   -1    0    0    0  501 -0.00000000000E+00  0.00000000000E+00  0.11680570577E+03  0.11680570577E+03  0.00000000000E+00 0.  1.
          1   -1    0    0  502    0  0.00000000000E+00 -0.00000000000E+00 -0.20015248220E+03  0.20015248220E+03  0.00000000000E+00 0. -1.
         23    2    1    2    0    0 -0.70633636953E+02 -0.48558658326E+02  0.13661673927E+02  0.12596350036E+03  0.91285859371E+02 0.  0.
        -24    2    1    2    0    0  0.61568670888E+02 -0.67708132714E+01 -0.52820864721E+02  0.11960794682E+03  0.87632596930E+02 0.  0.
         11    1    4    4    0    0  0.50669419845E+02  0.29449146657E+02 -0.56750825151E+02  0.81580012881E+02  0.00000000000E+00 0. -1.
        -12    1    4    4    0    0  0.10899251043E+02 -0.36219959928E+02  0.39299604298E+01  0.38027933937E+02  0.00000000000E+00 0.  1.
        -13    1    3    3    0    0 -0.32339365563E+02  0.14564795231E+02 -0.24252117194E+02  0.42966650015E+02  0.00000000000E+00 0. -1.
         13    1    3    3    0    0 -0.38294271390E+02 -0.63123453557E+02  0.37913791121E+02  0.82996850347E+02  0.00000000000E+00 0.  1.
         21    1    1    2  502  501  0.90649660646E+01  0.55329471598E+02 -0.44187585629E+02  0.71386740791E+02  0.00000000000E+00 0. -1.
<scales pt_clust_5="13000.00000" pt_clust_6="13000.00000" pt_clust_7="13000.00000" pt_clust_8="13000.00000" pt_clust_9="56.06714"></scales>
<clustering>
<clus scale="   56.067">  2  9  1 -1</clus>
<clus scale="   87.633">  5  6 -1 -1</clus>
<clus scale="   91.286">  7  8 -1 -1</clus>
<clus scale="  113.539">  2  5  1 -1</clus>
<clus scale="   56.067">  2  5  1 -1</clus>
</clustering>
</event>
<event>
 9    1  0.2802611E-005  0.1639377E+03  0.7546771E-02  0.1186165E+00
          1   -1    0    0  502    0  0.00000000000E+00  0.00000000000E+00  0.38926125125E+03  0.38926125125E+03  0.00000000000E+00 0. -1.
         -2   -1    0    0    0  501 -0.00000000000E+00 -0.00000000000E+00 -0.11595589964E+03  0.11595589964E+03  0.00000000000E+00 0.  1.
        -24    2    1    2    0    0 -0.23535927911E+02  0.10756459339E+03 -0.21395710609E+02  0.13771597677E+03  0.79898887170E+02 0.  0.
         23    2    1    2    0    0  0.54376798661E+02 -0.13312069290E+03  0.27274570006E+03  0.32182501558E+03  0.92212627352E+02 0.  0.
         13    1    3    3    0    0  0.25652808948E+02  0.11695100248E+02 -0.23172371647E+01  0.28288010973E+02  0.00000000000E+00 0. -1.
        -14    1    3    3    0    0 -0.49188736859E+02  0.95869493143E+02 -0.19078473444E+02  0.10942796580E+03  0.00000000000E+00 0.  1.
        -11    1    4    4    0    0  0.73794653196E+02 -0.63214995730E+02  0.17396771712E+03  0.19926503237E+03  0.00000000000E+00 0. -1.
         11    1    4    4    0    0 -0.19417854535E+02 -0.69905697169E+02  0.98777982937E+02  0.12255998321E+03  0.00000000000E+00 0.  1.
         21    1    1    2  502  501 -0.30840870751E+02  0.25556099508E+02  0.21955362161E+02  0.45676158533E+02  0.00000000000E+00 0.  1.
<scales pt_clust_5="13000.00000" pt_clust_6="13000.00000" pt_clust_7="13000.00000" pt_clust_8="13000.00000" pt_clust_9="40.05338"></scales>
<clustering>
<clus scale="   40.053">  2  9  1 -1</clus>
<clus scale="   79.899">  5  6 -1 -1</clus>
<clus scale="   92.213">  7  8 -1 -1</clus>
<clus scale="  157.341">  2  5  1 -1</clus>
<clus scale="  163.938">  1  5  2 -1</clus>
</clustering>
</event>
<event>
 9    1  0.2802611E-005  0.1133628E+03  0.7546771E-02  0.1258453E+00
         -2   -1    0    0    0  501 -0.00000000000E+00  0.00000000000E+00  0.66238527050E+02  0.66238527050E+02  0.00000000000E+00 0.  1.
          1   -1    0    0  502    0  0.00000000000E+00 -0.00000000000E+00 -0.47572893016E+03  0.47572893016E+03  0.00000000000E+00 0. -1.
        -24    2    1    2    0    0  0.53843715724E+02 -0.50776677191E+02 -0.18595448383E+02  0.11232276195E+03  0.82420843731E+02 0.  0.
         23    2    1    2    0    0 -0.62105274941E+02  0.16776699415E+02 -0.37408593314E+03  0.39082723713E+03  0.93097374225E+02 0.  0.
         11    1    3    3    0    0 -0.69050525230E+01 -0.44888607250E+02  0.73426985180E+01  0.46006326007E+02  0.00000000000E+00 0. -1.
        -12    1    3    3    0    0  0.60748768247E+02 -0.58880699413E+01 -0.25938146901E+02  0.66316435940E+02  0.00000000000E+00 0.  1.
        -13    1    4    4    0    0 -0.54399712072E+02 -0.32289126787E+02 -0.19699222667E+03  0.20690058905E+03  0.00000000000E+00 0. -1.
         13    1    4    4    0    0 -0.77055628693E+01  0.49065826202E+02 -0.17709370647E+03  0.18392664807E+03  0.00000000000E+00 0.  1.
         21    1    1    2  502  501  0.82615592171E+01  0.33999977776E+02 -0.16809021586E+02  0.38817458136E+02  0.00000000000E+00 0.  1.
<scales pt_clust_5="13000.00000" pt_clust_6="13000.00000" pt_clust_7="13000.00000" pt_clust_8="13000.00000" pt_clust_9="34.98931"></scales>
<clustering>
<clus scale="   34.989">  1  9  2 -1</clus>
<clus scale="   82.421">  5  6 -1 -1</clus>
<clus scale="   93.097">  7  8 -1 -1</clus>
<clus scale="  104.772">  1  5  2 -1</clus>
<clus scale="  113.363">  2  5  1 -1</clus>
</clustering>
</event>
<event>
 9    1  0.2802611E-005  0.9108973E+02  0.7546771E-02  0.1304780E+00
         -2   -1    0    0    0  501 -0.00000000000E+00  0.00000000000E+00  0.57783043632E+02  0.57783043632E+02  0.00000000000E+00 0.  1.
          1   -1    0    0  502    0  0.00000000000E+00 -0.00000000000E+00 -0.29474044296E+03  0.29474044296E+03  0.00000000000E+00 0. -1.
        -24    2    1    2    0    0  0.39162172831E+02 -0.37305896508E+02 -0.38879607035E+02  0.10386031516E+03  0.79686482705E+02 0.  0.
         23    2    1    2    0    0 -0.49861047680E+01  0.17753414074E+02 -0.18786187581E+03  0.20798555908E+03  0.87326189939E+02 0.  0.
         13    1    3    3    0    0  0.19748326290E+02 -0.56016435119E+02 -0.46955421697E+02  0.75714259036E+02  0.00000000000E+00 0. -1.
        -14    1    3    3    0    0  0.19413846541E+02  0.18710538611E+02  0.80758146617E+01  0.28146056120E+02  0.00000000000E+00 0.  1.
        -11    1    4    4    0    0  0.24679984482E+02 -0.18427620616E+02 -0.12987004066E+03  0.13347249266E+03  0.00000000000E+00 0. -1.
         11    1    4    4    0    0 -0.29666089250E+02  0.36181034690E+02 -0.57991835146E+02  0.74513066413E+02  0.00000000000E+00 0.  1.
         21    1    1    2  502  501 -0.34176068063E+02  0.19552482434E+02 -0.10215916479E+02  0.40677612357E+02  0.00000000000E+00 0.  1.
<scales pt_clust_5="13000.00000" pt_clust_6="13000.00000" pt_clust_7="13000.00000" pt_clust_8="13000.00000" pt_clust_9="39.37389"></scales>
<clustering>
<clus scale="   39.374">  1  9  2 -1</clus>
<clus scale="   79.686">  5  6 -1 -1</clus>
<clus scale="   83.794">  1  5  2 -1</clus>
<clus scale="   87.326">  7  8 -1 -1</clus>
<clus scale="   91.090">  2  5  1 -1</clus>
</clustering>
</event>
<event>
 9    1  0.2802611E-005  0.1041381E+03  0.7546771E-02  0.1276494E+00
         -2   -1    0    0    0  501 -0.00000000000E+00  0.00000000000E+00  0.85034925921E+02  0.85034925921E+02  0.00000000000E+00 0.  1.
          1   -1    0    0  502    0  0.00000000000E+00 -0.00000000000E+00 -0.17405567337E+03  0.17405567337E+03  0.00000000000E+00 0. -1.
        -24    2    1    2    0    0  0.35503960659E+01  0.36266681453E+02  0.33678097184E+00  0.87550678418E+02  0.79606095082E+02 0.  0.
         23    2    1    2    0    0  0.15477196853E+02 -0.60737888677E+02 -0.87714628790E+02  0.14049820065E+03  0.90095802006E+02 0.  0.
         13    1    3    3    0    0  0.22373032253E+02 -0.10661466782E+02  0.21431222408E+02  0.32764565311E+02  0.00000000000E+00 0. -1.
        -14    1    3    3    0    0 -0.18822636187E+02  0.46928148235E+02 -0.21094441436E+02  0.54786113106E+02  0.00000000000E+00 0.  1.
        -13    1    4    4    0    0  0.15995216791E+02  0.21896452053E+02 -0.21371246473E+02  0.34525812786E+02  0.00000000000E+00 0.  1.
         13    1    4    4    0    0 -0.51801993837E+00 -0.82634340730E+02 -0.66343382316E+02  0.10597238786E+03  0.00000000000E+00 0. -1.
         21    1    1    2  502  501 -0.19027592919E+02  0.24471207224E+02 -0.16428996335E+01  0.31041720224E+02  0.00000000000E+00 0.  1.
<scales pt_clust_5="13000.00000" pt_clust_6="13000.00000" pt_clust_7="13000.00000" pt_clust_8="13000.00000" pt_clust_9="30.99821"></scales>
<clustering>
<clus scale="   30.998">  1  9  2 -1</clus>
<clus scale="   79.606">  5  6 -1 -1</clus>
<clus scale="   90.096">  7  8 -1 -1</clus>
<clus scale="   95.208">  1  5  2 -1</clus>
<clus scale="  104.138">  2  5  1 -1</clus>
</clustering>
</event>
<event>
 9    1  0.2802611E-005  0.1783484E+03  0.7546771E-02  0.1170646E+00
          1   -1    0    0  502    0  0.00000000000E+00  0.00000000000E+00  0.53235269638E+03  0.53235269638E+03  0.00000000000E+00 0. -1.
         -2   -1    0    0    0  501 -0.00000000000E+00 -0.00000000000E+00 -0.12089204781E+03  0.12089204781E+03  0.00000000000E+00 0.  1.
        -24    2    1    2    0    0  0.89484544801E+00  0.14463765748E+03 -0.21623813725E+02  0.16722087212E+03  0.81082538460E+02 0.  0.
         23    2    1    2    0    0  0.16980098096E+02 -0.15412705678E+03  0.42925076376E+03  0.46542631031E+03  0.91224770652E+02 0.  0.
         13    1    3    3    0    0 -0.22409103246E+02  0.62513172251E+01  0.63704550408E+01  0.24121143687E+02  0.00000000000E+00 0. -1.
        -14    1    3    3    0    0  0.23303948695E+02  0.13838634026E+03 -0.27994268766E+02  0.14309972843E+03  0.00000000000E+00 0.  1.
        -13    1    4    4    0    0 -0.23626945759E+02 -0.66553407411E+02  0.27106169773E+03  0.28011075057E+03  0.00000000000E+00 0.  1.
         13    1    4    4    0    0  0.40607043855E+02 -0.87573649367E+02  0.15818906602E+03  0.18531555974E+03  0.00000000000E+00 0. -1.
         21    1    1    2  502  501 -0.17874943544E+02  0.94893992982E+01  0.38336985406E+01  0.20597561755E+02  0.00000000000E+00 0.  1.
<scales pt_clust_5="13000.00000" pt_clust_6="13000.00000" pt_clust_7="13000.00000" pt_clust_8="13000.00000" pt_clust_9="20.23765"></scales>
<clustering>
<clus scale="   20.238">  2  9  1 -1</clus>
<clus scale="   81.083">  5  6 -1 -1</clus>
<clus scale="   91.225">  7  8 -1 -1</clus>
<clus scale="  173.380">  2  5  1 -1</clus>
<clus scale="  178.348">  1  5  2 -1</clus>
</clustering>
</event>
<event>
 9    1  0.2802611E-005  0.1426321E+03  0.7546771E-02  0.1221895E+00
         -4   -1    0    0    0  501 -0.00000000000E+00  0.00000000000E+00  0.49817947995E+02  0.49817947995E+02  0.00000000000E+00 0.  1.
          3   -1    0    0  502    0  0.00000000000E+00 -0.00000000000E+00 -0.56294532410E+03  0.56294532410E+03  0.00000000000E+00 0. -1.
         23    2    1    2    0    0 -0.70389461593E+02 -0.11402045498E+00 -0.14352214435E+03  0.20047469646E+03  0.12098267933E+03 0.  0.
        -24    2    1    2    0    0  0.72388587319E+02 -0.29991889139E+02 -0.36479447579E+03  0.38173525063E+03  0.80667037984E+02 0.  0.
         13    1    4    4    0    0  0.66308849291E+02 -0.45008049494E+02 -0.35223462933E+03  0.36123651824E+03  0.00000000000E+00 0. -1.
        -14    1    4    4    0    0  0.60797380280E+01  0.15016160355E+02 -0.12559846461E+02  0.20498732385E+02  0.00000000000E+00 0.  1.
        -11    1    3    3    0    0 -0.67108348603E+02 -0.22551639160E+02 -0.18173732412E+02  0.73091664578E+02  0.00000000000E+00 0.  1.
         11    1    3    3    0    0 -0.32811129905E+01  0.22437618705E+02 -0.12534841194E+03  0.12738303188E+03  0.00000000000E+00 0. -1.
         21    1    1    2  502  501 -0.19991257256E+01  0.30105909594E+02 -0.48107559677E+01  0.30553325010E+02  0.00000000000E+00 0.  1.
<scales pt_clust_5="13000.00000" pt_clust_6="13000.00000" pt_clust_7="13000.00000" pt_clust_8="13000.00000" pt_clust_9="30.17221"></scales>
<clustering>
<clus scale="   30.172">  1  9  2 -1</clus>
<clus scale="   80.667">  5  6 -1 -1</clus>
<clus scale="  110.518">  2  5  1 -1</clus>
<clus scale="  120.983">  7  8 -1 -1</clus>
<clus scale="  110.518">  2  5  1 -1</clus>
</clustering>
</event>
<event>
 9    1  0.2802611E-005  0.9510517E+02  0.7546771E-02  0.1292936E+00
         -2   -1    0    0    0  501 -0.00000000000E+00  0.00000000000E+00  0.56030674876E+02  0.56030674876E+02  0.00000000000E+00 0.  1.
          1   -1    0    0  502    0  0.00000000000E+00 -0.00000000000E+00 -0.54869925529E+03  0.54869925529E+03  0.00000000000E+00 0. -1.
         23    2    1    2    0    0 -0.28379387007E+02  0.98760784034E+01 -0.10954055544E+02  0.81765367458E+02  0.75250630903E+02 0.  0.
        -24    2    1    2    0    0  0.25303329305E+02  0.54463997664E+02 -0.42696450802E+03  0.43842657205E+03  0.79451761820E+02 0.  0.
         13    1    4    4    0    0  0.49323499764E+02  0.11994878644E+02 -0.22411421640E+03  0.22979091961E+03  0.00000000000E+00 0. -1.
        -14    1    4    4    0    0 -0.24020170459E+02  0.42469119020E+02 -0.20285029162E+03  0.20863565244E+03  0.00000000000E+00 0.  1.
        -13    1    3    3    0    0  0.11402976113E+02  0.24934607131E+02 -0.24862514676E+02  0.37012256524E+02  0.00000000000E+00 0. -1.
         13    1    3    3    0    0 -0.39782363120E+02 -0.15058528728E+02  0.13908459131E+02  0.44753110934E+02  0.00000000000E+00 0.  1.
         21    1    1    2  502  501  0.30760577016E+01 -0.64340076067E+02 -0.54750016852E+02  0.84537990659E+02  0.00000000000E+00 0.  1.
<scales pt_clust_5="13000.00000" pt_clust_6="13000.00000" pt_clust_7="13000.00000" pt_clust_8="13000.00000" pt_clust_9="64.41357"></scales>
<clustering>
<clus scale="   64.414">  1  9  2 -1</clus>
<clus scale="   75.251">  7  8 -1 -1</clus>
<clus scale="   79.452">  5  6 -1 -1</clus>
<clus scale="   91.625">  1  7  2 -1</clus>
<clus scale="   95.105">  2  5  1 -1</clus>
</clustering>
</event>
<event>
 9    1  0.2802611E-005  0.1229539E+03  0.7546771E-02  0.1241787E+00
         -2   -1    0    0    0  501 -0.00000000000E+00  0.00000000000E+00  0.91752384141E+02  0.91752384141E+02  0.00000000000E+00 0.  1.
          1   -1    0    0  502    0  0.00000000000E+00 -0.00000000000E+00 -0.10260752497E+04  0.10260752497E+04  0.00000000000E+00 0. -1.
         23    2    1    2    0    0  0.12567027096E+03  0.19401531094E+02 -0.20950846031E+01  0.15690340648E+03  0.91895882243E+02 0.  0.
        -24    2    1    2    0    0 -0.78132598774E+02 -0.15163965463E+02 -0.89013648059E+03  0.89728882207E+03  0.80309571606E+02 0.  0.
         13    1    4    4    0    0 -0.82431460612E+02 -0.31691113164E+01 -0.48598399069E+03  0.49293552131E+03  0.00000000000E+00 0. -1.
        -14    1    4    4    0    0  0.42988618384E+01 -0.11994854146E+02 -0.40415248990E+03  0.40435330076E+03  0.00000000000E+00 0.  1.
        -11    1    3    3    0    0  0.10132271175E+03  0.53309047723E+02 -0.78763917827E+01  0.11476142224E+03  0.00000000000E+00 0.  1.
         11    1    3    3    0    0  0.24347559207E+02 -0.33907516629E+02  0.57813071796E+01  0.42141984243E+02  0.00000000000E+00 0. -1.
         21    1    1    2  502  501 -0.47537672186E+02 -0.42375656314E+01 -0.42091300337E+02  0.63635405266E+02  0.00000000000E+00 0. -1.
<scales pt_clust_5="13000.00000" pt_clust_6="13000.00000" pt_clust_7="13000.00000" pt_clust_8="13000.00000" pt_clust_9="47.72617"></scales>
<clustering>
<clus scale="   47.726">  1  9  2 -1</clus>
<clus scale="   80.310">  5  6 -1 -1</clus>
<clus scale="   91.896">  7  8 -1 -1</clus>
<clus scale="  114.553">  2  5  1 -1</clus>
<clus scale="  114.553">  2  5  1 -1</clus>
</clustering>
</event>
<event>
 9    1  0.2802611E-005  0.1179480E+03  0.7546771E-02  0.1246533E+00
         -2   -1    0    0    0  501 -0.00000000000E+00  0.00000000000E+00  0.40086540913E+03  0.40086540913E+03  0.00000000000E+00 0.  1.
          1   -1    0    0  502    0  0.00000000000E+00 -0.00000000000E+00 -0.88439911707E+02  0.88439911707E+02  0.00000000000E+00 0. -1.
         23    2    1    2    0    0 -0.39550730270E+02  0.47376520270E+02  0.26913935848E+03  0.28771485857E+03  0.80839659945E+02 0.  0.
        -24    2    1    2    0    0  0.79520179654E+02 -0.43998403793E+02 -0.23285485946E+02  0.12386820165E+03  0.80881388564E+02 0.  0.
         11    1    4    4    0    0  0.83975526069E+02 -0.55555077686E+02 -0.37766236113E+01  0.10075970683E+03  0.00000000000E+00 0. -1.
        -12    1    4    4    0    0 -0.44553464153E+01  0.11556673893E+02 -0.19508862335E+02  0.23108494818E+02  0.00000000000E+00 0.  1.
        -11    1    3    3    0    0 -0.57135425555E+02  0.36399044481E+02  0.25159940882E+03  0.26056018462E+03  0.00000000000E+00 0.  1.
         11    1    3    3    0    0  0.17584695285E+02  0.10977475788E+02  0.17539949661E+02  0.27154673945E+02  0.00000000000E+00 0. -1.
         21    1    1    2  502  501 -0.39969449384E+02 -0.33781164768E+01  0.66571624888E+02  0.77722260616E+02  0.00000000000E+00 0.  1.
<scales pt_clust_5="13000.00000" pt_clust_6="13000.00000" pt_clust_7="13000.00000" pt_clust_8="13000.00000" pt_clust_9="40.11195"></scales>
<clustering>
<clus scale="   40.112">  1  9  2 -1</clus>
<clus scale="   80.840">  7  8 -1 -1</clus>
<clus scale="   80.881">  5  6 -1 -1</clus>
<clus scale="  117.919">  1  7  2 -1</clus>
<clus scale="  117.948">  2  5  1 -1</clus>
</clustering>
</event>
<event>
 9    1  0.2802611E-005  0.1078913E+03  0.7546771E-02  0.1268945E+00
         -2   -1    0    0    0  501 -0.00000000000E+00  0.00000000000E+00  0.44629563209E+02  0.44629563209E+02  0.00000000000E+00 0.  1.
          1   -1    0    0  502    0  0.00000000000E+00 -0.00000000000E+00 -0.61416227840E+03  0.61416227840E+03  0.00000000000E+00 0. -1.
        -24    2    1    2    0    0  0.49881703063E+02  0.12091378841E+02 -0.39363582165E+02  0.10270279890E+03  0.79774604718E+02 0.  0.
         23    2    1    2    0    0 -0.57234335382E+02  0.22780725576E+02 -0.49127174971E+03  0.50333365154E+03  0.90565457578E+02 0.  0.
         11    1    3    3    0    0 -0.19041943727E+02  0.12857765857E+02 -0.21571019748E+02  0.31515498674E+02  0.00000000000E+00 0. -1.
        -12    1    3    3    0    0  0.68923646789E+02 -0.76638701612E+00 -0.17792562417E+02  0.71187300224E+02  0.00000000000E+00 0.  1.
        -13    1    4    4    0    0 -0.44069986291E+02  0.56686246046E+02 -0.28674217634E+03  0.29559528053E+03  0.00000000000E+00 0. -1.
         13    1    4    4    0    0 -0.13164349092E+02 -0.33905520470E+02 -0.20452957337E+03  0.20773837101E+03  0.00000000000E+00 0.  1.
         21    1    1    2  502  501  0.73526323199E+01 -0.34872104417E+02 -0.38897383315E+02  0.52755391168E+02  0.00000000000E+00 0.  1.
<scales pt_clust_5="13000.00000" pt_clust_6="13000.00000" pt_clust_7="13000.00000" pt_clust_8="13000.00000" pt_clust_9="35.63881"></scales>
<clustering>
<clus scale="   35.639">  1  9  2 -1</clus>
<clus scale="   79.775">  5  6 -1 -1</clus>
<clus scale="   90.565">  7  8 -1 -1</clus>
<clus scale="   99.007">  1  5  2 -1</clus>
<clus scale="  107.891">  2  5  1 -1</clus>
</clustering>
</event>
<event>
 9    1  0.2802611E-005  0.1164243E+03  0.7546771E-02  0.1253098E+00
          1   -1    0    0  502    0  0.00000000000E+00  0.00000000000E+00  0.50217028729E+03  0.50217028729E+03  0.00000000000E+00 0. -1.
         -2   -1    0    0    0  501 -0.00000000000E+00 -0.00000000000E+00 -0.76998505194E+02  0.76998505194E+02  0.00000000000E+00 0.  1.
         23    2    1    2    0    0 -0.14320950132E+02  0.92601119011E+01  0.56137035811E+02  0.10910372731E+03  0.91985962176E+02 0.  0.
        -24    2    1    2    0    0  0.85298349150E+02  0.45649320799E+02  0.35822598260E+03  0.37967885858E+03  0.80439493933E+02 0.  0.
         13    1    4    4    0    0  0.42769553962E+02  0.65409140814E+02  0.20299766288E+03  0.21752158877E+03  0.00000000000E+00 0. -1.
        -14    1    4    4    0    0  0.42528795188E+02 -0.19759820014E+02  0.15522831972E+03  0.16215726980E+03  0.00000000000E+00 0.  1.
        -11    1    3    3    0    0 -0.53016815209E+02 -0.19458027305E+01  0.28226461254E+02  0.60094109180E+02  0.00000000000E+00 0.  1.
         11    1    3    3    0    0  0.38695865077E+02  0.11205914632E+02  0.27910574557E+02  0.49009618126E+02  0.00000000000E+00 0. -1.
         21    1    1    2  502  501 -0.70977399018E+02 -0.54909432700E+02  0.10808763684E+02  0.90386206598E+02  0.00000000000E+00 0.  1.
<scales pt_clust_5="13000.00000" pt_clust_6="13000.00000" pt_clust_7="13000.00000" pt_clust_8="13000.00000" pt_clust_9="89.73760"></scales>
<clustering>
<clus scale="   80.439">  5  6 -1 -1</clus>
<clus scale="   89.738">  2  9  1 -1</clus>
<clus scale="   91.986">  7  8 -1 -1</clus>
<clus scale="  107.535">  1  5  2 -1</clus>
<clus scale="  107.535">  1  5  2 -1</clus>
</clustering>
</event>
<event>
 9    1  0.2802611E-005  0.3158221E+03  0.7546771E-02  0.1077979E+00
         -2   -1    0    0    0  501 -0.00000000000E+00  0.00000000000E+00  0.26239012394E+03  0.26239012394E+03  0.00000000000E+00 0.  1.
          1   -1    0    0  502    0  0.00000000000E+00 -0.00000000000E+00 -0.13104898483E+04  0.13104898483E+04  0.00000000000E+00 0. -1.
         23    2    1    2    0    0 -0.20967753496E+03 -0.36076639450E+03 -0.63516055193E+03  0.76539531508E+03  0.91016490507E+02 0.  0.
        -24    2    1    2    0    0  0.96912834018E+02  0.23027095927E+03 -0.53534427781E+03  0.59599483188E+03  0.78737105375E+02 0.  0.
         11    1    4    4    0    0  0.48396216636E+02  0.42042124665E+02 -0.17818473877E+03  0.18936614049E+03  0.00000000000E+00 0. -1.
        -12    1    4    4    0    0  0.48516617382E+02  0.18822883461E+03 -0.35715953903E+03  0.40662869139E+03  0.00000000000E+00 0.  1.
        -11    1    3    3    0    0 -0.11400961546E+03 -0.25540809130E+03 -0.47421407172E+03  0.55055469423E+03  0.00000000000E+00 0. -1.
         11    1    3    3    0    0 -0.95667919500E+02 -0.10535830320E+03 -0.16094648021E+03  0.21484062085E+03  0.00000000000E+00 0.  1.
         21    1    1    2  502  501  0.11276470095E+03  0.13049543523E+03  0.12240510535E+03  0.21148982531E+03  0.00000000000E+00 0.  1.
<scales pt_clust_5="13000.00000" pt_clust_6="13000.00000" pt_clust_7="13000.00000" pt_clust_8="13000.00000" pt_clust_9="172.46720"></scales>
<clustering>
<clus scale="   78.737">  5  6 -1 -1</clus>
<clus scale="   91.016">  7  8 -1 -1</clus>
<clus scale="  172.467">  1  9  2 -1</clus>
<clus scale="  312.505">  2  5  1 -1</clus>
<clus scale="  312.505">  2  5  1 -1</clus>
</clustering>
</event>
<event>
 9    1  0.2802611E-005  0.1259496E+03  0.7546771E-02  0.1238599E+00
          1   -1    0    0  502    0  0.00000000000E+00  0.00000000000E+00  0.42984572714E+03  0.42984572714E+03  0.00000000000E+00 0. -1.
         -2   -1    0    0    0  501 -0.00000000000E+00 -0.00000000000E+00 -0.11234064740E+03  0.11234064740E+03  0.00000000000E+00 0.  1.
        -24    2    1    2    0    0  0.95498949829E+02  0.54373430320E+02 -0.30537178502E+02  0.13340490129E+03  0.69194140454E+02 0.  0.
         23    2    1    2    0    0 -0.49626234466E+02 -0.73717187518E+02  0.33464915238E+03  0.35722701427E+03  0.87886845710E+02 0.  0.
         13    1    3    3    0    0  0.61597495256E+02 -0.12973688725E+01 -0.44457138867E+00  0.61612760297E+02  0.00000000000E+00 0. -1.
        -14    1    3    3    0    0  0.33901454573E+02  0.55670799192E+02 -0.30092607114E+02  0.71792140989E+02  0.00000000000E+00 0.  1.
        -11    1    4    4    0    0  0.24181657727E+02 -0.24460845282E+02  0.68055519414E+02  0.76253781841E+02  0.00000000000E+00 0.  1.
         11    1    4    4    0    0 -0.73807892193E+02 -0.49256342237E+02  0.26659363297E+03  0.28097323243E+03  0.00000000000E+00 0. -1.
         21    1    1    2  502  501 -0.45872715363E+02  0.19343757199E+02  0.13393105854E+02  0.51554458990E+02  0.00000000000E+00 0.  1.
<scales pt_clust_5="13000.00000" pt_clust_6="13000.00000" pt_clust_7="13000.00000" pt_clust_8="13000.00000" pt_clust_9="49.78440"></scales>
<clustering>
<clus scale="   49.784">  2  9  1 -1</clus>
<clus scale="   69.194">  5  6 -1 -1</clus>
<clus scale="   87.887">  7  8 -1 -1</clus>
<clus scale="  113.697">  2  5  1 -1</clus>
<clus scale="  125.950">  1  5  2 -1</clus>
</clustering>
</event>
<event>
 9    1  0.2802611E-005  0.2146000E+03  0.7546771E-02  0.1139646E+00
          1   -1    0    0  502    0  0.00000000000E+00  0.00000000000E+00  0.91618007158E+03  0.91618007158E+03  0.00000000000E+00 0. -1.
         -2   -1    0    0    0  501 -0.00000000000E+00 -0.00000000000E+00 -0.82406851184E+02  0.82406851184E+02  0.00000000000E+00 0.  1.
         23    2    1    2    0    0  0.18769259920E+03  0.17475439220E+02  0.12032980320E+03  0.24218087452E+03  0.92943056085E+02 0.  0.
        -24    2    1    2    0    0 -0.21091402789E+03 -0.23871888716E+02  0.67383275170E+03  0.71004707784E+03  0.71145493509E+02 0.  0.
         11    1    4    4    0    0 -0.18452002233E+03 -0.79701590725E+01  0.62966295938E+03  0.65619098172E+03  0.00000000000E+00 0. -1.
        -12    1    4    4    0    0 -0.26394005559E+02 -0.15901729644E+02  0.44169792326E+02  0.53856096119E+02  0.00000000000E+00 0.  1.
        -11    1    3    3    0    0  0.13698217470E+03  0.50863380436E+02  0.64588414978E+02  0.15975876503E+03  0.00000000000E+00 0.  1.
         11    1    3    3    0    0  0.50710424500E+02 -0.33387941215E+02  0.55741388223E+02  0.82422109489E+02  0.00000000000E+00 0. -1.
         21    1    1    2  502  501  0.23221428695E+02  0.63964494957E+01  0.39610665493E+02  0.46358970411E+02  0.00000000000E+00 0.  1.
<scales pt_clust_5="13000.00000" pt_clust_6="13000.00000" pt_clust_7="13000.00000" pt_clust_8="13000.00000" pt_clust_9="24.08629"></scales>
<clustering>
<clus scale="   24.086">  1  9  2 -1</clus>
<clus scale="   71.145">  5  6 -1 -1</clus>
<clus scale="   92.943">  7  8 -1 -1</clus>
<clus scale="  206.098">  1  5  2 -1</clus>
<clus scale="   24.086">  1  5  2 -1</clus>
</clustering>
</event>
<event>
 9    1  0.2802611E-005  0.6513673E+03  0.7546771E-02  0.1033671E+00
         -2   -1    0    0    0  501 -0.00000000000E+00  0.00000000000E+00  0.38830766293E+03  0.38830766293E+03  0.00000000000E+00 0.  1.
          1   -1    0    0  502    0  0.00000000000E+00 -0.00000000000E+00 -0.14634792080E+04  0.14634792080E+04  0.00000000000E+00 0. -1.
         23    2    1    2    0    0 -0.82926968311E+02 -0.14439561088E+02  0.35563893873E+02  0.12938275104E+03  0.91595429585E+02 0.  0.
        -24    2    1    2    0    0 -0.52446374178E+03  0.32971938033E+03 -0.62178786355E+03  0.88133660141E+03  0.79730618538E+02 0.  0.
         13    1    4    4    0    0 -0.10586394887E+03  0.10141153248E+03 -0.12372203890E+03  0.19182965751E+03  0.00000000000E+00 0. -1.
        -14    1    4    4    0    0 -0.41859979290E+03  0.22830784785E+03 -0.49806582465E+03  0.68950694390E+03  0.00000000000E+00 0.  1.
        -11    1    3    3    0    0 -0.56343382274E+02 -0.51112414383E+02  0.83203006807E+01  0.76526355156E+02  0.00000000000E+00 0.  1.
         11    1    3    3    0    0 -0.26583586038E+02  0.36672853296E+02  0.27243593193E+02  0.52856395881E+02  0.00000000000E+00 0. -1.
         21    1    1    2  502  501  0.60739071009E+03 -0.31527981924E+03 -0.48894757537E+03  0.84106751845E+03  0.00000000000E+00 0. -1.
<scales pt_clust_5="13000.00000" pt_clust_6="13000.00000" pt_clust_7="13000.00000" pt_clust_8="13000.00000" pt_clust_9="646.46916"></scales>
<clustering>
<clus scale="   79.731">  5  6 -1 -1</clus>
<clus scale="   91.595">  7  8 -1 -1</clus>
<clus scale="  124.399">  1  7  2 -1</clus>
<clus scale="  646.469">  1  9  2 -1</clus>
<clus scale="  651.367">  2  5  1 -1</clus>
</clustering>
</event>
<event>
 9    1  0.2802611E-005  0.1596660E+03  0.7546771E-02  0.1191096E+00
         -2   -1    0    0    0  501 -0.00000000000E+00  0.00000000000E+00  0.11372644317E+03  0.11372644317E+03  0.00000000000E+00 0.  1.
          1   -1    0    0  502    0  0.00000000000E+00 -0.00000000000E+00 -0.69823896514E+03  0.69823896514E+03  0.00000000000E+00 0. -1.
        -24    2    1    2    0    0  0.70800232748E+02  0.92339817524E+01  0.41154925296E+02  0.11512246034E+03  0.80383540748E+02 0.  0.
         23    2    1    2    0    0 -0.12691993763E+03 -0.56280848474E+02 -0.59401141757E+03  0.61706241676E+03  0.92952985403E+02 0.  0.
         13    1    3    3    0    0  0.66208573814E+02 -0.75364698987E+01 -0.39792705972E+01  0.66754836675E+02  0.00000000000E+00 0. -1.
        -14    1    3    3    0    0  0.45916589334E+01  0.16770451651E+02  0.45134195893E+02  0.48367623667E+02  0.00000000000E+00 0.  1.
        -11    1    4    4    0    0 -0.77258575441E+01 -0.44045509128E+02 -0.11762636659E+03  0.12583981034E+03  0.00000000000E+00 0.  1.
         11    1    4    4    0    0 -0.11919408008E+03 -0.12235339345E+02 -0.47638505098E+03  0.49122260642E+03  0.00000000000E+00 0. -1.
         21    1    1    2  502  501  0.56119704879E+02  0.47046866721E+02 -0.31656029690E+02  0.79780531207E+02  0.00000000000E+00 0. -1.
<scales pt_clust_5="13000.00000" pt_clust_6="13000.00000" pt_clust_7="13000.00000" pt_clust_8="13000.00000" pt_clust_9="73.23134"></scales>
<clustering>
<clus scale="   73.231">  1  9  2 -1</clus>
<clus scale="   80.384">  5  6 -1 -1</clus>
<clus scale="   92.953">  7  8 -1 -1</clus>
<clus scale="  152.691">  1  5  2 -1</clus>
<clus scale="  159.666">  2  5  1 -1</clus>
</clustering>
</event>
<event>
 9    1  0.2802611E-005  0.1181564E+03  0.7546771E-02  0.1246694E+00
          1   -1    0    0  502    0  0.00000000000E+00  0.00000000000E+00  0.30018112202E+03  0.30018112202E+03  0.00000000000E+00 0. -1.
         -2   -1    0    0    0  501 -0.00000000000E+00 -0.00000000000E+00 -0.79855242621E+02  0.79855242621E+02  0.00000000000E+00 0.  1.
        -24    2    1    2    0    0  0.86869620520E+02  0.99883802231E+01  0.12408748665E+03  0.17692673307E+03  0.90880503001E+02 0.  0.
         23    2    1    2    0    0 -0.66132851276E+02  0.10401219284E+02  0.12123118646E+03  0.16476397857E+03  0.89266055603E+02 0.  0.
         13    1    3    3    0    0  0.61246701584E+02  0.32096051296E+02  0.27209612416E+02  0.74307993995E+02  0.00000000000E+00 0. -1.
        -14    1    3    3    0    0  0.25622918935E+02 -0.22107671073E+02  0.96877874229E+02  0.10261873908E+03  0.00000000000E+00 0.  1.
        -11    1    4    4    0    0 -0.35525670333E+02  0.20845628053E+02  0.20150865589E+01  0.41239229326E+02  0.00000000000E+00 0.  1.
         11    1    4    4    0    0 -0.30607180943E+02 -0.10444408769E+02  0.11921609990E+03  0.12352474925E+03  0.00000000000E+00 0. -1.
         21    1    1    2  502  501 -0.20736769243E+02 -0.20389599507E+02 -0.24992793705E+02  0.38345652999E+02  0.00000000000E+00 0.  1.
<scales pt_clust_5="13000.00000" pt_clust_6="13000.00000" pt_clust_7="13000.00000" pt_clust_8="13000.00000" pt_clust_9="29.08177"></scales>
<clustering>
<clus scale="   29.082">  2  9  1 -1</clus>
<clus scale="   89.266">  7  8 -1 -1</clus>
<clus scale="   90.881">  5  6 -1 -1</clus>
<clus scale="  116.919">  1  7  2 -1</clus>
<clus scale="  116.919">  1  5  2 -1</clus>
</clustering>
</event>
<event>
 9    1  0.2802611E-005  0.1229736E+03  0.7546771E-02  0.1241696E+00
          1   -1    0    0  502    0  0.00000000000E+00  0.00000000000E+00  0.38842354661E+02  0.38842354661E+02  0.00000000000E+00 0. -1.
         -2   -1    0    0    0  501 -0.00000000000E+00 -0.00000000000E+00 -0.99839797277E+03  0.99839797277E+03  0.00000000000E+00 0.  1.
         23    2    1    2    0    0  0.30485289095E+02  0.90960939155E+02 -0.50039382944E+03  0.51762519794E+03  0.91316021041E+02 0.  0.
        -24    2    1    2    0    0  0.51999779097E+02 -0.70519938719E+02 -0.11513867605E+03  0.16525158313E+03  0.79838162687E+02 0.  0.
         11    1    4    4    0    0  0.27162391204E+02 -0.10197340111E+02  0.41317660552E+01  0.29306189312E+02  0.00000000000E+00 0. -1.
        -12    1    4    4    0    0  0.24837387893E+02 -0.60322598607E+02 -0.11927044211E+03  0.13594539382E+03  0.00000000000E+00 0.  1.
        -11    1    3    3    0    0  0.60143479284E+02  0.81549778074E+02 -0.38200623187E+03  0.39521685894E+03  0.00000000000E+00 0.  1.
         11    1    3    3    0    0 -0.29658190189E+02  0.94111610815E+01 -0.11838759758E+03  0.12240833901E+03  0.00000000000E+00 0. -1.
         21    1    1    2  502  501 -0.82485068192E+02 -0.20441000437E+02 -0.34402311262E+03  0.35436354636E+03  0.00000000000E+00 0.  1.
<scales pt_clust_5="13000.00000" pt_clust_6="13000.00000" pt_clust_7="13000.00000" pt_clust_8="13000.00000" pt_clust_9="84.98012"></scales>
<clustering>
<clus scale="   79.838">  5  6 -1 -1</clus>
<clus scale="   84.980">  2  9  1 -1</clus>
<clus scale="   91.316">  7  8 -1 -1</clus>
<clus scale="  114.708">  1  5  2 -1</clus>
<clus scale="  114.708">  1  5  2 -1</clus>
</clustering>
</event>
<event>
 9    1  0.2802611E-005  0.1373459E+03  0.7546771E-02  0.1218849E+00
         -2   -1    0    0    0  501 -0.00000000000E+00  0.00000000000E+00  0.14546203386E+03  0.14546203386E+03  0.00000000000E+00 0.  1.
          1   -1    0    0  502    0  0.00000000000E+00 -0.00000000000E+00 -0.19707042247E+03  0.19707042247E+03  0.00000000000E+00 0. -1.
         23    2    1    2    0    0 -0.59264892462E+02  0.10509126710E+03 -0.73544635522E+01  0.15087020091E+03  0.90284148599E+02 0.  0.
        -24    2    1    2    0    0  0.82243408369E+02 -0.52646495405E+02 -0.42732609337E+02  0.13438415601E+03  0.81837606193E+02 0.  0.
         11    1    4    4    0    0  0.45286711000E+02 -0.18749681648E+02 -0.63406150569E+02  0.80142227852E+02  0.00000000000E+00 0. -1.
        -12    1    4    4    0    0  0.36956697368E+02 -0.33896813757E+02  0.20673541232E+02  0.54241928158E+02  0.00000000000E+00 0.  1.
        -11    1    3    3    0    0 -0.27116689433E+02  0.52654995306E+02  0.41502027359E+02  0.72320686193E+02  0.00000000000E+00 0.  1.
         11    1    3    3    0    0 -0.32148203029E+02  0.52436271794E+02 -0.48856490911E+02  0.78549514714E+02  0.00000000000E+00 0. -1.
         21    1    1    2  502  501 -0.22978515906E+02 -0.52444771695E+02 -0.15213157218E+01  0.57278099418E+02  0.00000000000E+00 0. -1.
<scales pt_clust_5="13000.00000" pt_clust_6="13000.00000" pt_clust_7="13000.00000" pt_clust_8="13000.00000" pt_clust_9="57.25789"></scales>
<clustering>
<clus scale="   57.258">  1  9  2 -1</clus>
<clus scale="   81.838">  5  6 -1 -1</clus>
<clus scale="   90.284">  7  8 -1 -1</clus>
<clus scale="  131.947">  2  5  1 -1</clus>
<clus scale="  131.947">  2  5  1 -1</clus>
</clustering>
</event>
<event>
 9    1  0.2802611E-005  0.2422525E+03  0.7546771E-02  0.1118384E+00
          1   -1    0    0  502    0  0.00000000000E+00  0.00000000000E+00  0.13288545919E+04  0.13288545919E+04  0.00000000000E+00 0. -1.
         -2   -1    0    0    0  501 -0.00000000000E+00 -0.00000000000E+00 -0.13893269200E+03  0.13893269200E+03  0.00000000000E+00 0.  1.
         23    2    1    2    0    0 -0.96550389121E+02  0.23026835756E+03  0.43918957353E+03  0.51296624087E+03  0.88889755529E+02 0.  0.
        -24    2    1    2    0    0  0.36564963684E+02 -0.21343309182E+03  0.82526481315E+03  0.85767800911E+03  0.87514994359E+02 0.  0.
         13    1    4    4    0    0 -0.40630919817E+01 -0.89301360382E+02  0.48573851466E+03  0.49389588610E+03  0.00000000000E+00 0. -1.
        -14    1    4    4    0    0  0.40628055666E+02 -0.12413173144E+03  0.33952629849E+03  0.36378212301E+03  0.00000000000E+00 0.  1.
        -13    1    3    3    0    0 -0.16360744833E+02  0.12559878648E+03  0.27194572183E+03  0.29999534123E+03  0.00000000000E+00 0.  1.
         13    1    3    3    0    0 -0.80189644289E+02  0.10466957108E+03  0.16724385170E+03  0.21297089964E+03  0.00000000000E+00 0. -1.
         21    1    1    2  502  501  0.59985425437E+02 -0.16835265738E+02 -0.74532486830E+02  0.97143033875E+02  0.00000000000E+00 0.  1.
<scales pt_clust_5="13000.00000" pt_clust_6="13000.00000" pt_clust_7="13000.00000" pt_clust_8="13000.00000" pt_clust_9="62.30311"></scales>
<clustering>
<clus scale="   62.303">  2  9  1 -1</clus>
<clus scale="   87.515">  5  6 -1 -1</clus>
<clus scale="   88.890">  7  8 -1 -1</clus>
<clus scale="  241.751">  1  5  2 -1</clus>
<clus scale="  241.751">  1  5  2 -1</clus>
</clustering>
</event>
<event>
 9    1  0.2802611E-005  0.1026277E+03  0.7546771E-02  0.1279319E+00
         -2   -1    0    0    0  501 -0.00000000000E+00  0.00000000000E+00  0.16032718539E+03  0.16032718539E+03  0.00000000000E+00 0.  1.
          1   -1    0    0  502    0  0.00000000000E+00 -0.00000000000E+00 -0.13771443049E+03  0.13771443049E+03  0.00000000000E+00 0. -1.
        -24    2    1    2    0    0  0.41923264419E+02 -0.40902753621E+02  0.89630892845E+02  0.13483037637E+03  0.81944725802E+02 0.  0.
         23    2    1    2    0    0 -0.65649093214E+01  0.45515072919E+02 -0.74713031405E+02  0.12673250393E+03  0.91456932998E+02 0.  0.
         13    1    3    3    0    0 -0.18795743026E+02  0.99109420984E+01  0.14862508548E+02  0.25930693965E+02  0.00000000000E+00 0. -1.
        -14    1    3    3    0    0  0.60719007445E+02 -0.50813695719E+02  0.74768384297E+02  0.10889968241E+03  0.00000000000E+00 0.  1.
        -13    1    4    4    0    0  0.97377507677E+01  0.69188859447E+02 -0.67381839240E+02  0.97068194178E+02  0.00000000000E+00 0.  1.
         13    1    4    4    0    0 -0.16302660089E+02 -0.23673786527E+02 -0.73311921653E+01  0.29664309752E+02  0.00000000000E+00 0. -1.
         21    1    1    2  502  501 -0.35358355098E+02 -0.46123192983E+01  0.76948934577E+01  0.36478735585E+02  0.00000000000E+00 0. -1.
<scales pt_clust_5="13000.00000" pt_clust_6="13000.00000" pt_clust_7="13000.00000" pt_clust_8="13000.00000" pt_clust_9="35.65791"></scales>
<clustering>
<clus scale="   35.658">  1  9  2 -1</clus>
<clus scale="   81.945">  5  6 -1 -1</clus>
<clus scale="   91.457">  7  8 -1 -1</clus>
<clus scale="   94.250">  1  5  2 -1</clus>
<clus scale="  102.628">  2  5  1 -1</clus>
</clustering>
</event>
<event>
 9    1  0.2802611E-005  0.1956068E+03  0.7546771E-02  0.1154217E+00
         -2   -1    0    0    0  501 -0.00000000000E+00  0.00000000000E+00  0.44144058949E+03  0.44144058949E+03  0.00000000000E+00 0.  1.
          1   -1    0    0  502    0  0.00000000000E+00 -0.00000000000E+00 -0.98110724877E+02  0.98110724877E+02  0.00000000000E+00 0. -1.
         23    2    1    2    0    0  0.82396177503E+02 -0.15323093865E+03  0.20046312031E+03  0.28056533061E+03  0.90898798185E+02 0.  0.
        -24    2    1    2    0    0 -0.10068094832E+03  0.14096967076E+03  0.11753369679E+03  0.22542358172E+03  0.83621288475E+02 0.  0.
         11    1    4    4    0    0 -0.39791070781E+02  0.49854980164E+02 -0.12632214333E+01  0.63800032049E+02  0.00000000000E+00 0. -1.
        -12    1    4    4    0    0 -0.60889877536E+02  0.91114690594E+02  0.11879691823E+03  0.16162354967E+03  0.00000000000E+00 0.  1.
        -11    1    3    3    0    0  0.52982502834E+02 -0.15706148060E+03  0.17894903885E+03  0.24392255492E+03  0.00000000000E+00 0.  1.
         11    1    3    3    0    0  0.29413674669E+02  0.38305419527E+01  0.21514081463E+02  0.36642775692E+02  0.00000000000E+00 0. -1.
         21    1    1    2  502  501  0.18284770813E+02  0.12261267893E+02  0.25333047516E+02  0.33562402037E+02  0.00000000000E+00 0. -1.
<scales pt_clust_5="13000.00000" pt_clust_6="13000.00000" pt_clust_7="13000.00000" pt_clust_8="13000.00000" pt_clust_9="22.01526"></scales>
<clustering>
<clus scale="   22.015">  1  9  2 -1</clus>
<clus scale="   83.621">  5  6 -1 -1</clus>
<clus scale="   90.899">  7  8 -1 -1</clus>
<clus scale="  192.333">  2  5  1 -1</clus>
<clus scale="  192.333">  2  5  1 -1</clus>
</clustering>
</event>
<event>
 9    1  0.2802611E-005  0.1010211E+03  0.7546771E-02  0.1284420E+00
          1   -1    0    0  502    0  0.00000000000E+00  0.00000000000E+00  0.63149417353E+03  0.63149417353E+03  0.00000000000E+00 0. -1.
         -2   -1    0    0    0  501 -0.00000000000E+00 -0.00000000000E+00 -0.12814293948E+03  0.12814293948E+03  0.00000000000E+00 0.  1.
        -24    2    1    2    0    0 -0.89848983640E+01  0.55105714275E+01  0.10396137563E+03  0.13170413180E+03  0.80168047957E+02 0.  0.
         23    2    1    2    0    0  0.48403258985E+02 -0.19490670200E+02  0.50409200564E+03  0.51518640720E+03  0.92658093596E+02 0.  0.
         11    1    3    3    0    0  0.82634078477E+00  0.29233407611E+02  0.10182753508E+03  0.10594395622E+03  0.00000000000E+00 0. -1.
        -12    1    3    3    0    0 -0.98112391488E+01 -0.23722836183E+02  0.21338405532E+01  0.25760175576E+02  0.00000000000E+00 0.  1.
        -11    1    4    4    0    0 -0.20484702956E+02  0.10243426087E+02  0.50768457458E+02  0.55695485507E+02  0.00000000000E+00 0.  1.
         11    1    4    4    0    0  0.68887961941E+02 -0.29734096288E+02  0.45332354819E+03  0.45949092170E+03  0.00000000000E+00 0. -1.
         21    1    1    2  502  501 -0.39418360621E+02  0.13980098773E+02 -0.10470214723E+03  0.11274657400E+03  0.00000000000E+00 0.  1.
<scales pt_clust_5="13000.00000" pt_clust_6="13000.00000" pt_clust_7="13000.00000" pt_clust_8="13000.00000" pt_clust_9="41.82404"></scales>
<clustering>
<clus scale="   41.824">  2  9  1 -1</clus>
<clus scale="   80.168">  5  6 -1 -1</clus>
<clus scale="   89.703">  2  5  1 -1</clus>
<clus scale="   92.658">  7  8 -1 -1</clus>
<clus scale="  101.021">  1  5  2 -1</clus>
</clustering>
</event>
<event>
 9    1  0.2802611E-005  0.1550827E+03  0.7546771E-02  0.1212567E+00
         -2   -1    0    0    0  501 -0.00000000000E+00  0.00000000000E+00  0.21234137953E+03  0.21234137953E+03  0.00000000000E+00 0.  1.
          1   -1    0    0  502    0  0.00000000000E+00 -0.00000000000E+00 -0.53532273888E+03  0.53532273888E+03  0.00000000000E+00 0. -1.
         23    2    1    2    0    0  0.82260915310E+02  0.44876943269E+02 -0.12695753723E+03  0.18969496352E+03  0.10528610878E+03 0.  0.
        -24    2    1    2    0    0 -0.31521637061E+02  0.62267079350E+02 -0.34904196672E+03  0.36440038543E+03  0.78016303399E+02 0.  0.
         13    1    4    4    0    0 -0.19180590502E+02  0.74904041510E+02 -0.20185309405E+03  0.21615545809E+03  0.00000000000E+00 0. -1.
        -14    1    4    4    0    0 -0.12341046559E+02 -0.12636962160E+02 -0.14718887267E+03  0.14824492733E+03  0.00000000000E+00 0.  1.
        -13    1    3    3    0    0  0.25173094071E+02 -0.34492687356E+02 -0.31584236644E+02  0.53113031834E+02  0.00000000000E+00 0.  1.
         13    1    3    3    0    0  0.57087821238E+02  0.79369630625E+02 -0.95373300582E+02  0.13658193169E+03  0.00000000000E+00 0. -1.
         21    1    1    2  502  501 -0.50739278248E+02 -0.10714402262E+03  0.15301814459E+03  0.19356876947E+03  0.00000000000E+00 0.  1.
<scales pt_clust_5="13000.00000" pt_clust_6="13000.00000" pt_clust_7="13000.00000" pt_clust_8="13000.00000" pt_clust_9="113.86605"></scales>
<clustering>
<clus scale="   78.016">  5  6 -1 -1</clus>
<clus scale="  104.677">  2  5  1 -1</clus>
<clus scale="  105.286">  7  8 -1 -1</clus>
<clus scale="  113.866">  1  9  2 -1</clus>
<clus scale="  104.677">  2  5  1 -1</clus>
</clustering>
</event>
<event>
 9    1  0.2802611E-005  0.9085075E+02  0.7546771E-02  0.1305075E+00
         -2   -1    0    0    0  501 -0.00000000000E+00  0.00000000000E+00  0.35488757839E+03  0.35488757839E+03  0.00000000000E+00 0.  1.
          1   -1    0    0  502    0  0.00000000000E+00 -0.00000000000E+00 -0.52717460213E+02  0.52717460213E+02  0.00000000000E+00 0. -1.
        -24    2    1    2    0    0 -0.29604159091E+02 -0.28910277339E+02  0.22892753561E+03  0.24636839870E+03  0.81100930616E+02 0.  0.
         23    2    1    2    0    0  0.15492064099E+02  0.93156046321E+01  0.64801964461E+01  0.90241438485E+02  0.88174484598E+02 0.  0.
         13    1    3    3    0    0  0.16928072709E+02  0.17894136279E+02  0.52225339906E+02  0.57742929326E+02  0.00000000000E+00 0. -1.
        -14    1    3    3    0    0 -0.46532231800E+02 -0.46804413618E+02  0.17670219570E+03  0.18862546937E+03  0.00000000000E+00 0.  1.
        -11    1    4    4    0    0  0.12464309983E+02  0.48643166946E+02 -0.31933056409E+00  0.50215721501E+02  0.00000000000E+00 0. -1.
         11    1    4    4    0    0  0.30277541159E+01 -0.39327562314E+02  0.67995270102E+01  0.40025716984E+02  0.00000000000E+00 0.  1.
         21    1    1    2  502  501  0.14112094992E+02  0.19594672707E+02  0.66762386123E+02  0.70995201418E+02  0.00000000000E+00 0. -1.
<scales pt_clust_5="13000.00000" pt_clust_6="13000.00000" pt_clust_7="13000.00000" pt_clust_8="13000.00000" pt_clust_9="24.14751"></scales>
<clustering>
<clus scale="   24.148">  1  9  2 -1</clus>
<clus scale="   81.101">  5  6 -1 -1</clus>
<clus scale="   84.003">  1  5  2 -1</clus>
<clus scale="   88.174">  7  8 -1 -1</clus>
<clus scale="   90.851">  2  5  1 -1</clus>
</clustering>
</event>
<event>
 9    1  0.2802611E-005  0.1016960E+03  0.7546771E-02  0.1285442E+00
          1   -1    0    0  502    0  0.00000000000E+00  0.00000000000E+00  0.56111796984E+02  0.56111796984E+02  0.00000000000E+00 0. -1.
         -2   -1    0    0    0  501 -0.00000000000E+00 -0.00000000000E+00 -0.42130205030E+03  0.42130205030E+03  0.00000000000E+00 0.  1.
        -24    2    1    2    0    0 -0.20288331505E+02  0.43186825090E+02 -0.26533153572E+03  0.28179998248E+03  0.82059052040E+02 0.  0.
         23    2    1    2    0    0 -0.24370601582E+01 -0.23100763079E+02 -0.10707841450E+02  0.10144501629E+03  0.98167453587E+02 0.  0.
         11    1    3    3    0    0 -0.51996611138E+02  0.32382917783E+02 -0.16335969584E+03  0.17446687697E+03  0.00000000000E+00 0. -1.
        -12    1    3    3    0    0  0.31708279633E+02  0.10803907307E+02 -0.10197183988E+03  0.10733310551E+03  0.00000000000E+00 0.  1.
        -11    1    4    4    0    0 -0.18519399143E+02  0.31697411190E+02  0.13906985145E+02  0.39256824331E+02  0.00000000000E+00 0. -1.
         11    1    4    4    0    0  0.16082338984E+02 -0.54798174269E+02 -0.24614826595E+02  0.62188191955E+02  0.00000000000E+00 0.  1.
         21    1    1    2  502  501  0.22725391663E+02 -0.20086062012E+02 -0.89150876141E+02  0.94168848512E+02  0.00000000000E+00 0.  1.
<scales pt_clust_5="13000.00000" pt_clust_6="13000.00000" pt_clust_7="13000.00000" pt_clust_8="13000.00000" pt_clust_9="30.32974"></scales>
<clustering>
<clus scale="   30.330">  2  9  1 -1</clus>
<clus scale="   82.059">  5  6 -1 -1</clus>
<clus scale="   86.249">  2  5  1 -1</clus>
<clus scale="   98.167">  7  8 -1 -1</clus>
<clus scale="  101.696">  1  5  2 -1</clus>
</clustering>
</event>
<event>
 9    1  0.2802611E-005  0.9802119E+02  0.7546771E-02  0.1289746E+00
         -2   -1    0    0    0  501 -0.00000000000E+00  0.00000000000E+00  0.11993784289E+03  0.11993784289E+03  0.00000000000E+00 0.  1.
          1   -1    0    0  502    0  0.00000000000E+00 -0.00000000000E+00 -0.20434763570E+03  0.20434763570E+03  0.00000000000E+00 0. -1.
         23    2    1    2    0    0  0.40756746104E+02 -0.35188783692E+02  0.61584721338E+02  0.12101348422E+03  0.89175235402E+02 0.  0.
        -24    2    1    2    0    0 -0.19259208144E+02  0.34340281773E+02 -0.15624837203E+03  0.17943912432E+03  0.78959948867E+02 0.  0.
         13    1    4    4    0    0 -0.39014923839E+02  0.49595898563E+02 -0.11683597282E+03  0.13278765749E+03  0.00000000000E+00 0. -1.
        -14    1    4    4    0    0  0.19755715695E+02 -0.15255616791E+02 -0.39412399205E+02  0.46651466830E+02  0.00000000000E+00 0.  1.
        -13    1    3    3    0    0  0.27234375040E+02  0.96218708821E+01  0.67894911159E+02  0.73783538438E+02  0.00000000000E+00 0.  1.
         13    1    3    3    0    0  0.13522371064E+02 -0.44810654575E+02 -0.63101898209E+01  0.47229945778E+02  0.00000000000E+00 0. -1.
         21    1    1    2  502  501 -0.21497537960E+02  0.84850191998E+00  0.10253857878E+02  0.23832870059E+02  0.00000000000E+00 0.  1.
<scales pt_clust_5="13000.00000" pt_clust_6="13000.00000" pt_clust_7="13000.00000" pt_clust_8="13000.00000" pt_clust_9="21.51428"></scales>
<clustering>
<clus scale="   21.514">  1  9  2 -1</clus>
<clus scale="   78.960">  5  6 -1 -1</clus>
<clus scale="   88.829">  2  5  1 -1</clus>
<clus scale="   89.175">  7  8 -1 -1</clus>
<clus scale="   88.829">  2  5  1 -1</clus>
</clustering>
</event>
<event>
 9    1  0.2802611E-005  0.1109382E+03  0.7546771E-02  0.1264661E+00
         -2   -1    0    0    0  501 -0.00000000000E+00  0.00000000000E+00  0.62904408099E+03  0.62904408099E+03  0.00000000000E+00 0.  1.
          1   -1    0    0  502    0  0.00000000000E+00 -0.00000000000E+00 -0.50805556261E+02  0.50805556261E+02  0.00000000000E+00 0. -1.
        -24    2    1    2    0    0  0.50735595079E+02 -0.15967746270E+02  0.33695184933E+03  0.35048119487E+03  0.80445320924E+02 0.  0.
         23    2    1    2    0    0 -0.58637728246E+02 -0.11767490736E+02  0.29845583944E+02  0.11596970238E+03  0.94770016234E+02 0.  0.
         11    1    3    3    0    0  0.25355048417E+01  0.27118877505E+02  0.57167234540E+02  0.63324205537E+02  0.00000000000E+00 0. -1.
        -12    1    3    3    0    0  0.48200090237E+02 -0.43086623775E+02  0.27978461479E+03  0.28715698933E+03  0.00000000000E+00 0.  1.
        -13    1    4    4    0    0 -0.24262380538E+02  0.20900941597E+02  0.53976119792E+02  0.62760927150E+02  0.00000000000E+00 0.  1.
         13    1    4    4    0    0 -0.34375347708E+02 -0.32668432333E+02 -0.24130535848E+02  0.53208775230E+02  0.00000000000E+00 0. -1.
         21    1    1    2  502  501  0.79021331672E+01  0.27735237006E+02  0.21144109146E+03  0.21339874001E+03  0.00000000000E+00 0.  1.
<scales pt_clust_5="13000.00000" pt_clust_6="13000.00000" pt_clust_7="13000.00000" pt_clust_8="13000.00000" pt_clust_9="28.83899"></scales>
<clustering>
<clus scale="   28.839">  1  9  2 -1</clus>
<clus scale="   80.445">  5  6 -1 -1</clus>
<clus scale="   94.770">  7  8 -1 -1</clus>
<clus scale="   98.982">  1  5  2 -1</clus>
<clus scale="  110.938">  2  5  1 -1</clus>
</clustering>
</event>
<event>
 9    1  0.2802611E-005  0.1140832E+03  0.7546771E-02  0.1256729E+00
         -4   -1    0    0    0  501 -0.00000000000E+00  0.00000000000E+00  0.61507063740E+02  0.61507063740E+02  0.00000000000E+00 0.  1.
          3   -1    0    0  502    0  0.00000000000E+00 -0.00000000000E+00 -0.39828683289E+03  0.39828683289E+03  0.00000000000E+00 0. -1.
        -24    2    1    2    0    0  0.15398089607E+01 -0.48818117449E+02 -0.72538018897E+02  0.12311792135E+03  0.86664172346E+02 0.  0.
         23    2    1    2    0    0  0.45354709246E+02  0.71465860736E+02 -0.94395441432E+02  0.15902523722E+03  0.95990144331E+02 0.  0.
         11    1    3    3    0    0 -0.27472952313E+02 -0.42580280851E+02 -0.69751796534E+01  0.51151701412E+02  0.00000000000E+00 0. -1.
        -12    1    3    3    0    0  0.29012761274E+02 -0.62378365989E+01 -0.65562839244E+02  0.71966219936E+02  0.00000000000E+00 0.  1.
        -13    1    4    4    0    0  0.59745316489E+02  0.53996863895E+01 -0.38325830662E+02  0.71186577046E+02  0.00000000000E+00 0.  1.
         13    1    4    4    0    0 -0.14390607243E+02  0.66066174346E+02 -0.56069610770E+02  0.87838660176E+02  0.00000000000E+00 0. -1.
         21    1    1    2  502  501 -0.46894518207E+02 -0.22647743286E+02 -0.16984630882E+03  0.17765073806E+03  0.00000000000E+00 0.  1.
<scales pt_clust_5="13000.00000" pt_clust_6="13000.00000" pt_clust_7="13000.00000" pt_clust_8="13000.00000" pt_clust_9="52.07702"></scales>
<clustering>
<clus scale="   52.077">  2  9  1 -1</clus>
<clus scale="   86.664">  5  6 -1 -1</clus>
<clus scale="   95.990">  7  8 -1 -1</clus>
<clus scale="  106.356">  1  5  2 -1</clus>
<clus scale="   52.077">  2  5  1 -1</clus>
</clustering>
</event>
<event>
 9    1  0.2802611E-005  0.1730010E+03  0.7546771E-02  0.1177480E+00
         -2   -1    0    0    0  501 -0.00000000000E+00  0.00000000000E+00  0.22062578133E+03  0.22062578133E+03  0.00000000000E+00 0.  1.
          1   -1    0    0  502    0  0.00000000000E+00 -0.00000000000E+00 -0.19502626240E+03  0.19502626240E+03  0.00000000000E+00 0. -1.
         23    2    1    2    0    0  0.84776508918E+02  0.13649878957E+03  0.81758401954E+02  0.20584488644E+03  0.99341355755E+02 0.  0.
        -24    2    1    2    0    0 -0.81662750940E+02 -0.76879699551E+02 -0.59428962612E+02  0.15001731866E+03  0.79963124040E+02 0.  0.
         13    1    4    4    0    0 -0.81846900587E+02 -0.25324340401E+02 -0.43313906096E+02  0.96001728181E+02  0.00000000000E+00 0. -1.
        -14    1    4    4    0    0  0.18414964678E+00 -0.51555359150E+02 -0.16115056517E+02  0.54015590478E+02  0.00000000000E+00 0.  1.
        -11    1    3    3    0    0  0.21396389482E+02  0.90668688444E+02  0.86985663746E+02  0.12745635427E+03  0.00000000000E+00 0.  1.
         11    1    3    3    0    0  0.63380119436E+02  0.45830101127E+02 -0.52272617924E+01  0.78388532164E+02  0.00000000000E+00 0. -1.
         21    1    1    2  502  501 -0.31137579778E+01 -0.59619090020E+02  0.32700795965E+01  0.59789838636E+02  0.00000000000E+00 0. -1.
<scales pt_clust_5="13000.00000" pt_clust_6="13000.00000" pt_clust_7="13000.00000" pt_clust_8="13000.00000" pt_clust_9="59.70035"></scales>
<clustering>
<clus scale="   59.700">  2  9  1 -1</clus>
<clus scale="   79.963">  5  6 -1 -1</clus>
<clus scale="   99.341">  7  8 -1 -1</clus>
<clus scale="  162.649">  2  5  1 -1</clus>
<clus scale="   59.700">  2  5  1 -1</clus>
</clustering>
</event>
<event>
 9    1  0.2802611E-005  0.9793353E+02  0.7546771E-02  0.1290925E+00
         -2   -1    0    0    0  501 -0.00000000000E+00  0.00000000000E+00  0.34515962188E+03  0.34515962188E+03  0.00000000000E+00 0.  1.
          1   -1    0    0  502    0  0.00000000000E+00 -0.00000000000E+00 -0.54073329930E+02  0.54073329930E+02  0.00000000000E+00 0. -1.
        -24    2    1    2    0    0 -0.10800173251E+02 -0.17488110473E+02  0.23889977210E+03  0.25254696897E+03  0.79274161463E+02 0.  0.
         23    2    1    2    0    0  0.34101131546E+02  0.21194487674E+02  0.12159247646E+02  0.10022250891E+03  0.91019835799E+02 0.  0.
         11    1    3    3    0    0  0.13898553054E+02 -0.41598657496E+02  0.96105353585E+02  0.10564022468E+03  0.00000000000E+00 0. -1.
        -12    1    3    3    0    0 -0.24698726305E+02  0.24110547023E+02  0.14279441851E+03  0.14690674429E+03  0.00000000000E+00 0.  1.
        -13    1    4    4    0    0  0.83839359759E+01  0.50634746628E+02 -0.13984044595E+02  0.53195126203E+02  0.00000000000E+00 0. -1.
         13    1    4    4    0    0  0.25717195570E+02 -0.29440258954E+02  0.26143292240E+02  0.47027382709E+02  0.00000000000E+00 0.  1.
         21    1    1    2  502  501 -0.23300958295E+02 -0.37063772008E+01  0.40027272205E+02  0.46463473929E+02  0.00000000000E+00 0.  1.
<scales pt_clust_5="13000.00000" pt_clust_6="13000.00000" pt_clust_7="13000.00000" pt_clust_8="13000.00000" pt_clust_9="23.59390"></scales>
<clustering>
<clus scale="   23.594">  1  9  2 -1</clus>
<clus scale="   79.274">  5  6 -1 -1</clus>
<clus scale="   87.125">  1  5  2 -1</clus>
<clus scale="   91.020">  7  8 -1 -1</clus>
<clus scale="   97.934">  2  5  1 -1</clus>
</clustering>
</event>
<event>
 9    1  0.2802611E-005  0.1512548E+03  0.7546771E-02  0.1200490E+00
          1   -1    0    0  502    0  0.00000000000E+00  0.00000000000E+00  0.88453914900E+02  0.88453914900E+02  0.00000000000E+00 0. -1.
         -2   -1    0    0    0  501 -0.00000000000E+00 -0.00000000000E+00 -0.61957485830E+03  0.61957485830E+03  0.00000000000E+00 0.  1.
        -24    2    1    2    0    0 -0.54485907799E+02 -0.80260868653E+02 -0.22567445583E+03  0.25855954245E+03  0.80706603155E+02 0.  0.
         23    2    1    2    0    0  0.20032219005E+02  0.13326411274E+03 -0.27069152096E+02  0.16400409897E+03  0.89465031953E+02 0.  0.
         13    1    3    3    0    0  0.27524065021E+01 -0.67290771912E+02 -0.11419563090E+03  0.13257550997E+03  0.00000000000E+00 0. -1.
        -14    1    3    3    0    0 -0.57238314302E+02 -0.12970096741E+02 -0.11147882493E+03  0.12598403248E+03  0.00000000000E+00 0.  1.
        -13    1    4    4    0    0 -0.32928967171E+02  0.35787918244E+02  0.40125588470E+01  0.48797465095E+02  0.00000000000E+00 0.  1.
         13    1    4    4    0    0  0.52961186176E+02  0.97476194493E+02 -0.31081710943E+02  0.11520663388E+03  0.00000000000E+00 0. -1.
         21    1    1    2  502  501  0.34453688794E+02 -0.53003244084E+02 -0.27837733548E+03  0.28546513178E+03  0.00000000000E+00 0.  1.
<scales pt_clust_5="13000.00000" pt_clust_6="13000.00000" pt_clust_7="13000.00000" pt_clust_8="13000.00000" pt_clust_9="63.21709"></scales>
<clustering>
<clus scale="   63.217">  2  9  1 -1</clus>
<clus scale="   80.707">  5  6 -1 -1</clus>
<clus scale="   89.465">  7  8 -1 -1</clus>
<clus scale="  146.245">  2  5  1 -1</clus>
<clus scale="  151.255">  1  5  2 -1</clus>
</clustering>
</event>
<event>
 9    1  0.2802611E-005  0.9750855E+02  0.7546771E-02  0.1291782E+00
          1   -1    0    0  502    0  0.00000000000E+00  0.00000000000E+00  0.20014909835E+03  0.20014909835E+03  0.00000000000E+00 0. -1.
         -2   -1    0    0    0  501 -0.00000000000E+00 -0.00000000000E+00 -0.37904272404E+03  0.37904272404E+03  0.00000000000E+00 0.  1.
        -24    2    1    2    0    0  0.11355008028E+01  0.24437884437E+02 -0.32746970674E+03  0.33879589526E+03  0.83353165850E+02 0.  0.
         23    2    1    2    0    0  0.66137873288E+02 -0.22508421861E+02  0.69112941143E+02  0.13626226162E+03  0.94392573712E+02 0.  0.
         13    1    3    3    0    0  0.40832093902E+01 -0.30160270062E+02 -0.15150804654E+03  0.15453479432E+03  0.00000000000E+00 0. -1.
        -14    1    3    3    0    0 -0.29477085874E+01  0.54598154499E+02 -0.17596166020E+03  0.18426110095E+03  0.00000000000E+00 0.  1.
        -11    1    4    4    0    0 -0.44140579876E+01 -0.29745584143E+02  0.56814108775E+02  0.64281619767E+02  0.00000000000E+00 0. -1.
         11    1    4    4    0    0  0.70551931275E+02  0.72371622827E+01  0.12298832368E+02  0.71980641857E+02  0.00000000000E+00 0.  1.
         21    1    1    2  502  501 -0.67273374091E+02 -0.19294625764E+01  0.79463139903E+02  0.10413366550E+03  0.00000000000E+00 0. -1.
<scales pt_clust_5="13000.00000" pt_clust_6="13000.00000" pt_clust_7="13000.00000" pt_clust_8="13000.00000" pt_clust_9="67.30104"></scales>
<clustering>
<clus scale="   67.301">  1  9  2 -1</clus>
<clus scale="   83.353">  5  6 -1 -1</clus>
<clus scale="   86.866">  2  5  1 -1</clus>
<clus scale="   94.393">  7  8 -1 -1</clus>
<clus scale="   67.301">  1  5  2 -1</clus>
</clustering>
</event>
<event>
 9    1  0.3696793E-005  0.9980184E+02  0.7546771E-02  0.1285269E+00
          1   -1    0    0  502    0  0.00000000000E+00  0.00000000000E+00  0.42937846307E+03  0.42937846307E+03  0.00000000000E+00 0. -1.
         -2   -1    0    0    0  501 -0.00000000000E+00 -0.00000000000E+00 -0.37885215695E+03  0.37885215695E+03  0.00000000000E+00 0.  1.
        -24    2    1    2    0    0 -0.35331113531E+02 -0.47012612097E+01 -0.27936169707E+03  0.29318276510E+03  0.81503291478E+02 0.  0.
         23    2    1    2    0    0  0.32783746830E+02 -0.26335122944E+02  0.41371831310E+03  0.42562041461E+03  0.90672939637E+02 0.  0.
         13    1    3    3    0    0  0.25568580823E+02  0.74678899469E+01 -0.74771862313E+02  0.79374763618E+02  0.00000000000E+00 0. -1.
        -14    1    3    3    0    0 -0.60899694354E+02 -0.12169151157E+02 -0.20458983476E+03  0.21380800149E+03  0.00000000000E+00 0.  1.
        -13    1    4    4    0    0 -0.30445102090E+02 -0.14840852958E+02  0.18354961463E+03  0.18664837580E+03  0.00000000000E+00 0. -1.
         13    1    4    4    0    0  0.63228848920E+02 -0.11494269986E+02  0.23016869847E+03  0.23897203881E+03  0.00000000000E+00 0.  1.
         21    1    1    2  502  501  0.25473667016E+01  0.31036384154E+02 -0.83830309915E+02  0.89427440301E+02  0.00000000000E+00 0.  1.
<scales pt_clust_5="13000.00000" pt_clust_6="13000.00000" pt_clust_7="13000.00000" pt_clust_8="13000.00000" pt_clust_9="31.14075"></scales>
<clustering>
<clus scale="   31.141">  2  9  1 -1</clus>
<clus scale="   81.503">  5  6 -1 -1</clus>
<clus scale="   90.673">  7  8 -1 -1</clus>
<clus scale="   91.551">  2  5  1 -1</clus>
<clus scale="   99.802">  1  5  2 -1</clus>
</clustering>
</event>
<event>
 9    1  0.2802611E-005  0.1109148E+03  0.7546771E-02  0.1261921E+00
         -2   -1    0    0    0  501 -0.00000000000E+00  0.00000000000E+00  0.30073988417E+03  0.30073988417E+03  0.00000000000E+00 0.  1.
          1   -1    0    0  502    0  0.00000000000E+00 -0.00000000000E+00 -0.30241648363E+03  0.30241648363E+03  0.00000000000E+00 0. -1.
         23    2    1    2    0    0 -0.56973457308E+02  0.21277852624E+02  0.24384982345E+03  0.26679480086E+03  0.89543327612E+02 0.  0.
        -24    2    1    2    0    0  0.46156641331E+02 -0.46944484143E+02 -0.27592415456E+03  0.29513291705E+03  0.81455997487E+02 0.  0.
         13    1    4    4    0    0  0.50651033433E+01 -0.60856142758E+02 -0.17192079834E+03  0.18244420047E+03  0.00000000000E+00 0. -1.
        -14    1    4    4    0    0  0.41091537988E+02  0.13911658615E+02 -0.10400335623E+03  0.11268871659E+03  0.00000000000E+00 0.  1.
        -13    1    3    3    0    0 -0.63251846653E+02  0.48823631469E+02  0.17532306497E+03  0.19267257253E+03  0.00000000000E+00 0.  1.
         13    1    3    3    0    0  0.62783893444E+01 -0.27545778845E+02  0.68526758483E+02  0.74122228334E+02  0.00000000000E+00 0. -1.
         21    1    1    2  502  501  0.10816815977E+02  0.25666631519E+02  0.30397731654E+02  0.41228649882E+02  0.00000000000E+00 0.  1.
<scales pt_clust_5="13000.00000" pt_clust_6="13000.00000" pt_clust_7="13000.00000" pt_clust_8="13000.00000" pt_clust_9="27.85282"></scales>
<clustering>
<clus scale="   27.853">  1  9  2 -1</clus>
<clus scale="   81.456">  5  6 -1 -1</clus>
<clus scale="   89.543">  7  8 -1 -1</clus>
<clus scale="  104.495">  2  5  1 -1</clus>
<clus scale="  104.495">  2  5  1 -1</clus>
</clustering>
</event>
<event>
 9    1  0.2802611E-005  0.1262656E+03  0.7546771E-02  0.1236706E+00
          1   -1    0    0  502    0  0.00000000000E+00  0.00000000000E+00  0.55116472539E+03  0.55116472539E+03  0.00000000000E+00 0. -1.
         -2   -1    0    0    0  501 -0.00000000000E+00 -0.00000000000E+00 -0.45229400704E+02  0.45229400704E+02  0.00000000000E+00 0.  1.
         23    2    1    2    0    0 -0.10310282906E+03 -0.27349993856E+02  0.16144020842E+03  0.21472181665E+03  0.93082233140E+02 0.  0.
        -24    2    1    2    0    0  0.77331609654E+02  0.10548312833E+02  0.32828070632E+03  0.34689646546E+03  0.80482860605E+02 0.  0.
         11    1    4    4    0    0  0.75822961684E+02 -0.11294621925E+02  0.30676821532E+03  0.31620156220E+03  0.00000000000E+00 0. -1.
        -12    1    4    4    0    0  0.15086479695E+01  0.21842934757E+02  0.21512491001E+02  0.30694903267E+02  0.00000000000E+00 0.  1.
        -11    1    3    3    0    0 -0.10456851692E+03  0.81855019928E+01  0.10819558305E+03  0.15069127833E+03  0.00000000000E+00 0.  1.
         11    1    3    3    0    0  0.14656878623E+01 -0.35535495849E+02  0.53244625373E+02  0.64030538318E+02  0.00000000000E+00 0. -1.
         21    1    1    2  502  501  0.25771219407E+02  0.16801681023E+02  0.16214409945E+02  0.34775843984E+02  0.00000000000E+00 0. -1.
<scales pt_clust_5="13000.00000" pt_clust_6="13000.00000" pt_clust_7="13000.00000" pt_clust_8="13000.00000" pt_clust_9="30.76446"></scales>
<clustering>
<clus scale="   30.764">  2  9  1 -1</clus>
<clus scale="   80.483">  5  6 -1 -1</clus>
<clus scale="   93.082">  7  8 -1 -1</clus>
<clus scale="  117.287">  1  5  2 -1</clus>
<clus scale="  117.287">  1  5  2 -1</clus>
</clustering>
</event>
<event>
 9    1  0.2802611E-005  0.9615994E+02  0.7546771E-02  0.1293053E+00
         -2   -1    0    0    0  501 -0.00000000000E+00  0.00000000000E+00  0.19781723252E+02  0.19781723252E+02  0.00000000000E+00 0.  1.
          1   -1    0    0  502    0  0.00000000000E+00 -0.00000000000E+00 -0.83692026087E+03  0.83692026087E+03  0.00000000000E+00 0. -1.
         23    2    1    2    0    0 -0.28069200698E+02  0.34310171894E+02 -0.18869034137E+03  0.21317816858E+03  0.88745809539E+02 0.  0.
        -24    2    1    2    0    0 -0.20041104774E+02 -0.35748390657E+02 -0.42454325797E+03  0.43401511925E+03  0.80327781844E+02 0.  0.
         13    1    4    4    0    0  0.10570798976E+02 -0.36681776999E+02 -0.86031150604E+02  0.94120419831E+02  0.00000000000E+00 0. -1.
        -14    1    4    4    0    0 -0.30611903750E+02  0.93338634169E+00 -0.33851210736E+03  0.33989469942E+03  0.00000000000E+00 0.  1.
        -13    1    3    3    0    0 -0.55037453506E+02  0.28946650836E+02 -0.16685520157E+03  0.17806652738E+03  0.00000000000E+00 0.  1.
         13    1    3    3    0    0  0.26968252807E+02  0.53635210580E+01 -0.21835139795E+02  0.35111641196E+02  0.00000000000E+00 0. -1.
         21    1    1    2  502  501  0.48110305472E+02  0.14382187635E+01 -0.20390493829E+03  0.20950869630E+03  0.00000000000E+00 0. -1.
<scales pt_clust_5="13000.00000" pt_clust_6="13000.00000" pt_clust_7="13000.00000" pt_clust_8="13000.00000" pt_clust_9="48.13180"></scales>
<clustering>
<clus scale="   48.132">  2  9  1 -1</clus>
<clus scale="   80.328">  5  6 -1 -1</clus>
<clus scale="   88.450">  2  5  1 -1</clus>
<clus scale="   88.746">  7  8 -1 -1</clus>
<clus scale="   48.132">  2  5  1 -1</clus>
</clustering>
</event>
<event>
 9    1  0.2802611E-005  0.9733206E+02  0.7546771E-02  0.1291760E+00
         -2   -1    0    0    0  501 -0.00000000000E+00  0.00000000000E+00  0.10551124042E+03  0.10551124042E+03  0.00000000000E+00 0.  1.
          1   -1    0    0  502    0  0.00000000000E+00 -0.00000000000E+00 -0.37656027120E+03  0.37656027120E+03  0.00000000000E+00 0. -1.
        -24    2    1    2    0    0 -0.15220672896E+02 -0.80750087016E+02 -0.36950365039E+02  0.12039652118E+03  0.79860800144E+02 0.  0.
         23    2    1    2    0    0  0.84040388741E+01  0.25376097317E+02 -0.27610909458E+03  0.29183502075E+03  0.90646969294E+02 0.  0.
         11    1    3    3    0    0  0.32961303710E+02 -0.34883804305E+02 -0.17578502573E+02  0.51110968468E+02  0.00000000000E+00 0. -1.
        -12    1    3    3    0    0 -0.48181976606E+02 -0.45866282711E+02 -0.19371862466E+02  0.69285552713E+02  0.00000000000E+00 0.  1.
        -11    1    4    4    0    0  0.46994443671E+02  0.27504579621E+02 -0.18551571374E+03  0.19334182082E+03  0.00000000000E+00 0. -1.
         11    1    4    4    0    0 -0.38590404796E+02 -0.21284823044E+01 -0.90593380841E+02  0.98493199925E+02  0.00000000000E+00 0.  1.
         21    1    1    2  502  501  0.68166340221E+01  0.55373989699E+02  0.42010428840E+02  0.69839969687E+02  0.00000000000E+00 0.  1.
<scales pt_clust_5="13000.00000" pt_clust_6="13000.00000" pt_clust_7="13000.00000" pt_clust_8="13000.00000" pt_clust_9="55.79198"></scales>
<clustering>
<clus scale="   55.792">  1  9  2 -1</clus>
<clus scale="   79.861">  5  6 -1 -1</clus>
<clus scale="   87.375">  1  5  2 -1</clus>
<clus scale="   90.647">  7  8 -1 -1</clus>
<clus scale="   97.332">  2  5  1 -1</clus>
</clustering>
</event>
<event>
 9    1  0.2802611E-005  0.1203445E+03  0.7546771E-02  0.1246339E+00
         -2   -1    0    0    0  501 -0.00000000000E+00  0.00000000000E+00  0.12466081802E+03  0.12466081802E+03  0.00000000000E+00 0.  1.
          1   -1    0    0  502    0  0.00000000000E+00 -0.00000000000E+00 -0.93066501918E+03  0.93066501918E+03  0.00000000000E+00 0. -1.
         23    2    1    2    0    0  0.40735007968E+02  0.92314785973E+02 -0.46336533022E+03  0.48286194088E+03  0.90922297118E+02 0.  0.
        -24    2    1    2    0    0 -0.75598018093E+02 -0.19560033559E+02 -0.43552886313E+03  0.44943042883E+03  0.78769692698E+02 0.  0.
         13    1    4    4    0    0 -0.27768670821E+02  0.28724951729E+02 -0.21447775852E+03  0.21816720842E+03  0.00000000000E+00 0. -1.
        -14    1    4    4    0    0 -0.47829347272E+02 -0.48284985287E+02 -0.22105110461E+03  0.23126322041E+03  0.00000000000E+00 0.  1.
        -13    1    3    3    0    0  0.93550300243E+01  0.18681308976E+02 -0.11275405970E+02  0.23741159862E+02  0.00000000000E+00 0.  1.
         13    1    3    3    0    0  0.31379977943E+02  0.73633476998E+02 -0.45208992425E+03  0.45912078102E+03  0.00000000000E+00 0. -1.
         21    1    1    2  502  501  0.34863010126E+02 -0.72754752415E+02  0.92889992195E+02  0.12303346750E+03  0.00000000000E+00 0.  1.
<scales pt_clust_5="13000.00000" pt_clust_6="13000.00000" pt_clust_7="13000.00000" pt_clust_8="13000.00000" pt_clust_9="80.67641"></scales>
<clustering>
<clus scale="   78.770">  5  6 -1 -1</clus>
<clus scale="   80.676">  1  9  2 -1</clus>
<clus scale="   90.922">  7  8 -1 -1</clus>
<clus scale="  111.448">  2  5  1 -1</clus>
<clus scale="  111.448">  2  5  1 -1</clus>
</clustering>
</event>
<event>
 9    1  0.2802611E-005  0.1257367E+03  0.7546771E-02  0.1249805E+00
          3   -1    0    0  502    0  0.00000000000E+00  0.00000000000E+00  0.80283117966E+03  0.80283117966E+03  0.00000000000E+00 0. -1.
         -4   -1    0    0    0  501 -0.00000000000E+00 -0.00000000000E+00 -0.35947248093E+02  0.35947248093E+02  0.00000000000E+00 0.  1.
        -24    2    1    2    0    0  0.80836066478E+02 -0.20662969209E+02  0.17331266970E+03  0.20850824056E+03  0.80479668019E+02 0.  0.
         23    2    1    2    0    0  0.29736884810E+02 -0.27392373847E+02  0.26936835307E+03  0.28437537713E+03  0.81703249746E+02 0.  0.
         11    1    3    3    0    0  0.36015116497E+02 -0.40588981117E+02  0.13736741213E+03  0.14769685142E+03  0.00000000000E+00 0. -1.
        -12    1    3    3    0    0  0.44820949981E+02  0.19926011907E+02  0.35945257569E+02  0.60811389143E+02  0.00000000000E+00 0.  1.
        -11    1    4    4    0    0  0.47972027311E+01 -0.51275899755E+02  0.11214729353E+03  0.12340683327E+03  0.00000000000E+00 0. -1.
         11    1    4    4    0    0  0.24939682079E+02  0.23883525909E+02  0.15722105954E+03  0.16096854387E+03  0.00000000000E+00 0.  1.
         21    1    1    2  502  501 -0.11057295129E+03  0.48055343056E+02  0.32420290880E+03  0.34589481006E+03  0.00000000000E+00 0.  1.
<scales pt_clust_5="13000.00000" pt_clust_6="13000.00000" pt_clust_7="13000.00000" pt_clust_8="13000.00000" pt_clust_9="96.60609"></scales>
<clustering>
<clus scale="   80.480">  5  6 -1 -1</clus>
<clus scale="   81.703">  7  8 -1 -1</clus>
<clus scale="   91.159">  1  7  2 -1</clus>
<clus scale="   96.606">  1  9  2 -1</clus>
<clus scale="   91.159">  1  5  2 -1</clus>
</clustering>
</event>
<event>
 9    1  0.2802611E-005  0.1520848E+03  0.7546771E-02  0.1225209E+00
         -2   -1    0    0    0  501 -0.00000000000E+00  0.00000000000E+00  0.89281214533E+02  0.89281214533E+02  0.00000000000E+00 0.  1.
          1   -1    0    0  502    0  0.00000000000E+00 -0.00000000000E+00 -0.69560137384E+03  0.69560137384E+03  0.00000000000E+00 0. -1.
         23    2    1    2    0    0  0.54626807631E+02  0.12197041598E+03 -0.21849297956E+03  0.27224218565E+03  0.92280848751E+02 0.  0.
        -24    2    1    2    0    0 -0.28797240063E+02 -0.65645278286E+01 -0.38506154688E+03  0.39434697811E+03  0.79779509874E+02 0.  0.
         11    1    4    4    0    0  0.23878898568E+02 -0.18953299006E+02 -0.15927040486E+03  0.16216192896E+03  0.00000000000E+00 0. -1.
        -12    1    4    4    0    0 -0.52676138631E+02  0.12388771178E+02 -0.22579114202E+03  0.23218504915E+03  0.00000000000E+00 0.  1.
        -11    1    3    3    0    0 -0.90334550074E+00  0.10395380020E+03 -0.14376364027E+03  0.17741249356E+03  0.00000000000E+00 0. -1.
         11    1    3    3    0    0  0.55530153132E+02  0.18016615779E+02 -0.74729339294E+02  0.94829692092E+02  0.00000000000E+00 0.  1.
         21    1    1    2  502  501 -0.25829567567E+02 -0.11540588815E+03 -0.27656328634E+01  0.11829342461E+03  0.00000000000E+00 0.  1.
<scales pt_clust_5="13000.00000" pt_clust_6="13000.00000" pt_clust_7="13000.00000" pt_clust_8="13000.00000" pt_clust_9="120.88848"></scales>
<clustering>
<clus scale="   79.780">  5  6 -1 -1</clus>
<clus scale="   85.071">  2  5  1 -1</clus>
<clus scale="   92.281">  7  8 -1 -1</clus>
<clus scale="  120.888">  1  9  2 -1</clus>
<clus scale="   85.071">  2  5  1 -1</clus>
</clustering>
</event>
<event>
 9    1  0.2802611E-005  0.1077867E+03  0.7546771E-02  0.1269538E+00
          1   -1    0    0  502    0  0.00000000000E+00  0.00000000000E+00  0.39798784660E+03  0.39798784660E+03  0.00000000000E+00 0. -1.
         -2   -1    0    0    0  501 -0.00000000000E+00 -0.00000000000E+00 -0.71203445496E+02  0.71203445496E+02  0.00000000000E+00 0.  1.
        -24    2    1    2    0    0  0.15243430639E+02  0.84946292964E+02  0.10299724213E+03  0.15683790587E+03  0.80879304930E+02 0.  0.
         23    2    1    2    0    0 -0.74315141995E+01 -0.43313833388E+02  0.24463410627E+03  0.26514233942E+03  0.92321712721E+02 0.  0.
         11    1    3    3    0    0 -0.26555728110E+02  0.54928084189E+02  0.79640932118E+02  0.10032436990E+03  0.00000000000E+00 0. -1.
        -12    1    3    3    0    0  0.41799158749E+02  0.30018208775E+02  0.23356310012E+02  0.56513535967E+02  0.00000000000E+00 0.  1.
        -11    1    4    4    0    0 -0.45943890339E+02 -0.21622794221E+02  0.17861741831E+03  0.18569482603E+03  0.00000000000E+00 0. -1.
         11    1    4    4    0    0  0.38512376140E+02 -0.21691039166E+02  0.66016687957E+02  0.79447513396E+02  0.00000000000E+00 0.  1.
         21    1    1    2  502  501 -0.78119164393E+01 -0.41632459577E+02 -0.20846947292E+02  0.47211046803E+02  0.00000000000E+00 0.  1.
<scales pt_clust_5="13000.00000" pt_clust_6="13000.00000" pt_clust_7="13000.00000" pt_clust_8="13000.00000" pt_clust_9="42.35903"></scales>
<clustering>
<clus scale="   42.359">  2  9  1 -1</clus>
<clus scale="   80.879">  5  6 -1 -1</clus>
<clus scale="   92.322">  7  8 -1 -1</clus>
<clus scale="   98.164">  2  5  1 -1</clus>
<clus scale="  107.787">  1  5  2 -1</clus>
</clustering>
</event>
<event>
 9    1  0.2802611E-005  0.1243703E+03  0.7546771E-02  0.1238443E+00
          1   -1    0    0  502    0  0.00000000000E+00  0.00000000000E+00  0.27265679867E+03  0.27265679867E+03  0.00000000000E+00 0. -1.
         -2   -1    0    0    0  501 -0.00000000000E+00 -0.00000000000E+00 -0.76811086524E+02  0.76811086524E+02  0.00000000000E+00 0.  1.
         23    2    1    2    0    0 -0.38860555319E+02 -0.82592999545E+02  0.40267290227E+02  0.13754721548E+03  0.94689151910E+02 0.  0.
        -24    2    1    2    0    0  0.43385481930E+02  0.48276946579E+02  0.12764067376E+03  0.16743939024E+03  0.86780436691E+02 0.  0.
         11    1    4    4    0    0  0.62461893503E+02  0.12924491056E+02  0.10023996588E+03  0.11881322051E+03  0.00000000000E+00 0. -1.
        -12    1    4    4    0    0 -0.19076411574E+02  0.35352455523E+02  0.27400707889E+02  0.48626169732E+02  0.00000000000E+00 0.  1.
        -11    1    3    3    0    0 -0.47949846806E+02 -0.39964533731E+02 -0.17830017770E+02  0.64917342049E+02  0.00000000000E+00 0.  1.
         11    1    3    3    0    0  0.90892914872E+01 -0.42628465814E+02  0.58097307997E+02  0.72629873426E+02  0.00000000000E+00 0. -1.
         21    1    1    2  502  501 -0.45249266106E+01  0.34316052965E+02  0.27937748158E+02  0.44481279479E+02  0.00000000000E+00 0. -1.
<scales pt_clust_5="13000.00000" pt_clust_6="13000.00000" pt_clust_7="13000.00000" pt_clust_8="13000.00000" pt_clust_9="34.61310"></scales>
<clustering>
<clus scale="   34.613">  1  9  2 -1</clus>
<clus scale="   86.780">  5  6 -1 -1</clus>
<clus scale="   94.689">  7  8 -1 -1</clus>
<clus scale="  118.460">  1  5  2 -1</clus>
<clus scale="   34.613">  1  5  2 -1</clus>
</clustering>
</event>
<event>
 9    1  0.2802611E-005  0.9789999E+02  0.7546771E-02  0.1289703E+00
          1   -1    0    0  502    0  0.00000000000E+00  0.00000000000E+00  0.41114005366E+03  0.41114005366E+03  0.00000000000E+00 0. -1.
         -2   -1    0    0    0  501 -0.00000000000E+00 -0.00000000000E+00 -0.32573276181E+02  0.32573276181E+02  0.00000000000E+00 0.  1.
         23    2    1    2    0    0 -0.33330887187E+02  0.15275912871E+02  0.13362443042E+03  0.16609680096E+03  0.91587975901E+02 0.  0.
        -24    2    1    2    0    0  0.34075434102E+02  0.21578007591E+02  0.19591981194E+03  0.21628158979E+03  0.82258177414E+02 0.  0.
         11    1    4    4    0    0  0.28437310347E+02  0.27894903197E+02  0.20197908050E+03  0.20586975301E+03  0.00000000000E+00 0. -1.
        -12    1    4    4    0    0  0.56381237549E+01 -0.63168956061E+01 -0.60592685646E+01  0.10411836779E+02  0.00000000000E+00 0.  1.
        -11    1    3    3    0    0 -0.19478274671E+02 -0.18747920703E+02  0.12562380012E+03  0.12849991000E+03  0.00000000000E+00 0. -1.
         11    1    3    3    0    0 -0.13852612516E+02  0.34023833574E+02  0.80006303044E+01  0.37596890960E+02  0.00000000000E+00 0.  1.
         21    1    1    2  502  501 -0.74454691544E+00 -0.36853920461E+02  0.49022535122E+02  0.61334939090E+02  0.00000000000E+00 0.  1.
<scales pt_clust_5="13000.00000" pt_clust_6="13000.00000" pt_clust_7="13000.00000" pt_clust_8="13000.00000" pt_clust_9="36.86144"></scales>
<clustering>
<clus scale="   36.861">  2  9  1 -1</clus>
<clus scale="   82.258">  5  6 -1 -1</clus>
<clus scale="   89.233">  1  5  2 -1</clus>
<clus scale="   91.588">  7  8 -1 -1</clus>
<clus scale="   89.233">  1  5  2 -1</clus>
</clustering>
</event>
<event>
 9    1  0.2802611E-005  0.1258368E+03  0.7546771E-02  0.1235691E+00
          1   -1    0    0  502    0  0.00000000000E+00  0.00000000000E+00  0.26605956256E+03  0.26605956256E+03  0.00000000000E+00 0. -1.
         -2   -1    0    0    0  501 -0.00000000000E+00 -0.00000000000E+00 -0.14415024603E+03  0.14415024603E+03  0.00000000000E+00 0.  1.
        -24    2    1    2    0    0  0.30804091339E+02  0.10602960923E+03  0.11760822004E+03  0.18824807546E+03  0.97028214533E+02 0.  0.
         23    2    1    2    0    0 -0.32069052880E+02 -0.47930834824E+02  0.74574975703E+02  0.13077244750E+03  0.90632317327E+02 0.  0.
         13    1    3    3    0    0  0.11366594191E+02  0.29003229102E+02  0.10282908898E+03  0.10744397751E+03  0.00000000000E+00 0. -1.
        -14    1    3    3    0    0  0.19437497148E+02  0.77026380123E+02  0.14779131061E+02  0.80804097948E+02  0.00000000000E+00 0.  1.
        -11    1    4    4    0    0 -0.22497789549E+02 -0.10954553278E+02 -0.17869332188E+02  0.30748427682E+02  0.00000000000E+00 0.  1.
         11    1    4    4    0    0 -0.95712633311E+01 -0.36976281546E+02  0.92444307891E+02  0.10002401982E+03  0.00000000000E+00 0. -1.
         21    1    1    2  502  501  0.12649615410E+01 -0.58098774401E+02 -0.70273879222E+02  0.91189285640E+02  0.00000000000E+00 0. -1.
<scales pt_clust_5="13000.00000" pt_clust_6="13000.00000" pt_clust_7="13000.00000" pt_clust_8="13000.00000" pt_clust_9="58.11254"></scales>
<clustering>
<clus scale="   58.113">  2  9  1 -1</clus>
<clus scale="   90.632">  7  8 -1 -1</clus>
<clus scale="   97.028">  5  6 -1 -1</clus>
<clus scale="  120.974">  1  7  2 -1</clus>
<clus scale="  120.974">  1  5  2 -1</clus>
</clustering>
</event>
<event>
 9    1  0.2802611E-005  0.1883069E+03  0.7546771E-02  0.1183767E+00
          1   -1    0    0  502    0  0.00000000000E+00  0.00000000000E+00  0.44758927145E+03  0.44758927145E+03  0.00000000000E+00 0. -1.
         -2   -1    0    0    0  501 -0.00000000000E+00 -0.00000000000E+00 -0.40832524572E+03  0.40832524572E+03  0.00000000000E+00 0.  1.
         23    2    1    2    0    0 -0.39594072292E+02 -0.43353793713E+02 -0.15661565022E+03  0.19111050232E+03  0.92452799924E+02 0.  0.
        -24    2    1    2    0    0  0.16067206795E+03 -0.62064230203E+02  0.37734314493E+03  0.42251940664E+03  0.80419636112E+02 0.  0.
         11    1    4    4    0    0  0.15300678147E+03 -0.73627411134E+02  0.36934260588E+03  0.40650465109E+03  0.00000000000E+00 0. -1.
        -12    1    4    4    0    0  0.76652864811E+01  0.11563180930E+02  0.80005390539E+01  0.16014755547E+02  0.00000000000E+00 0.  1.
        -13    1    3    3    0    0 -0.10283305946E+02 -0.65686945710E+02 -0.67828545124E+02  0.94980170307E+02  0.00000000000E+00 0. -1.
         13    1    3    3    0    0 -0.29310766347E+02  0.22333151997E+02 -0.88787105091E+02  0.96130332011E+02  0.00000000000E+00 0.  1.
         21    1    1    2  502  501 -0.12107799566E+03  0.10541802392E+03 -0.18146346899E+03  0.24228460821E+03  0.00000000000E+00 0.  1.
<scales pt_clust_5="13000.00000" pt_clust_6="13000.00000" pt_clust_7="13000.00000" pt_clust_8="13000.00000" pt_clust_9="170.27084"></scales>
<clustering>
<clus scale="   80.420">  5  6 -1 -1</clus>
<clus scale="   92.453">  7  8 -1 -1</clus>
<clus scale="  109.521">  2  7  1 -1</clus>
<clus scale="  170.271">  2  9  1 -1</clus>
<clus scale="  188.307">  1  5  2 -1</clus>
</clustering>
</event>
<event>
 9    1  0.2802611E-005  0.1809535E+03  0.7546771E-02  0.1167994E+00
          1   -1    0    0  502    0  0.00000000000E+00  0.00000000000E+00  0.16047041115E+03  0.16047041115E+03  0.00000000000E+00 0. -1.
         -2   -1    0    0    0  501 -0.00000000000E+00 -0.00000000000E+00 -0.25254739530E+03  0.25254739530E+03  0.00000000000E+00 0.  1.
        -24    2    1    2    0    0  0.11583382334E+03 -0.89788641617E+02 -0.10691248901E+03  0.19872398791E+03  0.81126248987E+02 0.  0.
         23    2    1    2    0    0 -0.13669760683E+03  0.87035919635E+02  0.30375217872E+02  0.18813358879E+03  0.90609637187E+02 0.  0.
         11    1    3    3    0    0 -0.18168022739E+01 -0.26920981216E+02  0.12162045936E+01  0.27009612248E+02  0.00000000000E+00 0. -1.
        -12    1    3    3    0    0  0.11765062561E+03 -0.62867660401E+02 -0.10812869360E+03  0.17171437567E+03  0.00000000000E+00 0.  1.
        -11    1    4    4    0    0 -0.47627660060E+02  0.10799988379E+02 -0.28913713063E+02  0.56754176541E+02  0.00000000000E+00 0.  1.
         11    1    4    4    0    0 -0.89069946770E+02  0.76235931255E+02  0.59288930934E+02  0.13137941225E+03  0.00000000000E+00 0. -1.
         21    1    1    2  502  501  0.20863783491E+02  0.27527219826E+01 -0.15539713014E+02  0.26160229748E+02  0.00000000000E+00 0.  1.
<scales pt_clust_5="13000.00000" pt_clust_6="13000.00000" pt_clust_7="13000.00000" pt_clust_8="13000.00000" pt_clust_9="21.04459"></scales>
<clustering>
<clus scale="   21.045">  2  9  1 -1</clus>
<clus scale="   81.126">  5  6 -1 -1</clus>
<clus scale="   90.610">  7  8 -1 -1</clus>
<clus scale="  176.396">  2  5  1 -1</clus>
<clus scale="  180.953">  1  5  2 -1</clus>
</clustering>
</event>
<event>
 9    1  0.2802611E-005  0.2016848E+03  0.7546771E-02  0.1166500E+00
          1   -1    0    0  502    0  0.00000000000E+00  0.00000000000E+00  0.31827984458E+03  0.31827984458E+03  0.00000000000E+00 0. -1.
         -2   -1    0    0    0  501 -0.00000000000E+00 -0.00000000000E+00 -0.29811159236E+03  0.29811159236E+03  0.00000000000E+00 0.  1.
         23    2    1    2    0    0  0.61483336858E+02 -0.71712729987E+02  0.25343304132E-01  0.13184847724E+03  0.91984259281E+02 0.  0.
        -24    2    1    2    0    0 -0.14062147083E+03 -0.10300097639E+03 -0.13748898922E+03  0.23627790224E+03  0.80872898638E+02 0.  0.
         13    1    4    4    0    0 -0.25992540772E+02  0.97148552450E+01 -0.38588171947E+02  0.47529334126E+02  0.00000000000E+00 0. -1.
        -14    1    4    4    0    0 -0.11462893006E+03 -0.11271583164E+03 -0.98900817273E+02  0.18874856812E+03  0.00000000000E+00 0.  1.
        -13    1    3    3    0    0  0.49240349909E+01 -0.71499454125E+02 -0.15226534174E+02  0.73268447532E+02  0.00000000000E+00 0.  1.
         13    1    3    3    0    0  0.56559301867E+02 -0.21327586174E+00  0.15251877478E+02  0.58580029711E+02  0.00000000000E+00 0. -1.
         21    1    1    2  502  501  0.79138133974E+02  0.17471370638E+03  0.15763189813E+03  0.24826505746E+03  0.00000000000E+00 0. -1.
<scales pt_clust_5="13000.00000" pt_clust_6="13000.00000" pt_clust_7="13000.00000" pt_clust_8="13000.00000" pt_clust_9="184.76019"></scales>
<clustering>
<clus scale="   80.873">  5  6 -1 -1</clus>
<clus scale="   91.984">  7  8 -1 -1</clus>
<clus scale="  131.848">  2  7  1 -1</clus>
<clus scale="  184.760">  1  9  2 -1</clus>
<clus scale="  184.760">  1  5  2 -1</clus>
</clustering>
</event>
<event>
 9    1  0.2802611E-005  0.9713195E+02  0.7546771E-02  0.1291483E+00
         -2   -1    0    0    0  501 -0.00000000000E+00  0.00000000000E+00  0.84845953542E+02  0.84845953542E+02  0.00000000000E+00 0.  1.
          1   -1    0    0  502    0  0.00000000000E+00 -0.00000000000E+00 -0.25759384028E+03  0.25759384028E+03  0.00000000000E+00 0. -1.
         23    2    1    2    0    0  0.94258122569E+00 -0.54307079739E+02 -0.23126326302E+02  0.10706558529E+03  0.89320015764E+02 0.  0.
        -24    2    1    2    0    0  0.10248539582E+02  0.33226265871E+02 -0.17811253221E+03  0.19820732313E+03  0.79706031805E+02 0.  0.
         11    1    4    4    0    0  0.42224865330E+02  0.33969864660E+02 -0.98773299829E+02  0.11266346221E+03  0.00000000000E+00 0. -1.
        -12    1    4    4    0    0 -0.31976325749E+02 -0.74359878897E+00 -0.79339232379E+02  0.85543860926E+02  0.00000000000E+00 0.  1.
        -13    1    3    3    0    0  0.35633742964E+02  0.10899331154E+00 -0.23220428520E+02  0.42531915285E+02  0.00000000000E+00 0. -1.
         13    1    3    3    0    0 -0.34691161738E+02 -0.54416073050E+02  0.94102218667E-01  0.64533670004E+02  0.00000000000E+00 0.  1.
         21    1    1    2  502  501 -0.11191120807E+02  0.21080813868E+02  0.28490971769E+02  0.37166885404E+02  0.00000000000E+00 0.  1.
<scales pt_clust_5="13000.00000" pt_clust_6="13000.00000" pt_clust_7="13000.00000" pt_clust_8="13000.00000" pt_clust_9="23.86717"></scales>
<clustering>
<clus scale="   23.867">  1  9  2 -1</clus>
<clus scale="   79.706">  5  6 -1 -1</clus>
<clus scale="   88.372">  2  5  1 -1</clus>
<clus scale="   89.320">  7  8 -1 -1</clus>
<clus scale="   88.372">  2  5  1 -1</clus>
</clustering>
</event>
<event>
 9    1  0.2802611E-005  0.9383268E+02  0.7546771E-02  0.1299336E+00
          1   -1    0    0  502    0  0.00000000000E+00  0.00000000000E+00  0.35756312808E+03  0.35756312808E+03  0.00000000000E+00 0. -1.
         -2   -1    0    0    0  501 -0.00000000000E+00 -0.00000000000E+00 -0.54722044422E+02  0.54722044422E+02  0.00000000000E+00 0.  1.
        -24    2    1    2    0    0 -0.21439615416E+02  0.23635121342E+02  0.23261400686E+01  0.86577011076E+02  0.80448069270E+02 0.  0.
         23    2    1    2    0    0 -0.39971660029E+01 -0.21092727127E+00  0.23405387421E+03  0.25078956253E+03  0.89989815076E+02 0.  0.
         11    1    3    3    0    0  0.68041168354E+01  0.40424237430E+02  0.23727608608E+02  0.47364695586E+02  0.00000000000E+00 0. -1.
        -12    1    3    3    0    0 -0.28243732251E+02 -0.16789116088E+02 -0.21401468539E+02  0.39212315490E+02  0.00000000000E+00 0.  1.
        -13    1    4    4    0    0  0.38741840403E+02 -0.15837399581E+02  0.14297484929E+03  0.14897503466E+03  0.00000000000E+00 0. -1.
         13    1    4    4    0    0 -0.42739006406E+02  0.15626472309E+02  0.91079024920E+02  0.10181452787E+03  0.00000000000E+00 0.  1.
         21    1    1    2  502  501  0.25436781419E+02 -0.23424194071E+02  0.66461069381E+02  0.74918598893E+02  0.00000000000E+00 0.  1.
<scales pt_clust_5="13000.00000" pt_clust_6="13000.00000" pt_clust_7="13000.00000" pt_clust_8="13000.00000" pt_clust_9="34.57922"></scales>
<clustering>
<clus scale="   34.579">  1  9  2 -1</clus>
<clus scale="   80.448">  5  6 -1 -1</clus>
<clus scale="   84.725">  2  5  1 -1</clus>
<clus scale="   89.990">  7  8 -1 -1</clus>
<clus scale="   34.579">  1  5  2 -1</clus>
</clustering>
</event>
<event>
 9    1  0.2802611E-005  0.1375141E+03  0.7546771E-02  0.1218916E+00
         -2   -1    0    0    0  501 -0.00000000000E+00  0.00000000000E+00  0.28607873092E+03  0.28607873092E+03  0.00000000000E+00 0.  1.
          1   -1    0    0  502    0  0.00000000000E+00 -0.00000000000E+00 -0.16617293027E+03  0.16617293027E+03  0.00000000000E+00 0. -1.
         23    2    1    2    0    0 -0.42844136044E+02 -0.13908501271E+03  0.15399546403E+03  0.23035113840E+03  0.90370256558E+02 0.  0.
        -24    2    1    2    0    0 -0.85487182629E+01  0.96883733327E+02 -0.71978858768E+02  0.14536448825E+03  0.80562646233E+02 0.  0.
         13    1    4    4    0    0 -0.39697128255E+02  0.81499249081E+02 -0.59572176255E+02  0.10847503757E+03  0.00000000000E+00 0. -1.
        -14    1    4    4    0    0  0.31148409992E+02  0.15384484246E+02 -0.12406682513E+02  0.36889450680E+02  0.00000000000E+00 0.  1.
        -11    1    3    3    0    0 -0.64009554264E+02 -0.55533402668E+02  0.83986353075E+02  0.11931005553E+03  0.00000000000E+00 0. -1.
         11    1    3    3    0    0  0.21165418220E+02 -0.83551610037E+02  0.70009110954E+02  0.11104108287E+03  0.00000000000E+00 0.  1.
         21    1    1    2  502  501  0.51392854307E+02  0.42201279378E+02  0.37889195385E+02  0.76536034532E+02  0.00000000000E+00 0.  1.
<scales pt_clust_5="13000.00000" pt_clust_6="13000.00000" pt_clust_7="13000.00000" pt_clust_8="13000.00000" pt_clust_9="66.49942"></scales>
<clustering>
<clus scale="   66.499">  1  9  2 -1</clus>
<clus scale="   80.563">  5  6 -1 -1</clus>
<clus scale="   90.370">  7  8 -1 -1</clus>
<clus scale="  131.277">  2  5  1 -1</clus>
<clus scale="  131.277">  2  5  1 -1</clus>
</clustering>
</event>
<event>
 9    1  0.2802611E-005  0.1343432E+03  0.7546771E-02  0.1223764E+00
          1   -1    0    0  502    0  0.00000000000E+00  0.00000000000E+00  0.20882774014E+03  0.20882774014E+03  0.00000000000E+00 0. -1.
         -2   -1    0    0    0  501 -0.00000000000E+00 -0.00000000000E+00 -0.33279685120E+03  0.33279685120E+03  0.00000000000E+00 0.  1.
         23    2    1    2    0    0  0.12310850839E+03 -0.29172343037E+02 -0.16825264219E+02  0.15648811737E+03  0.90546733373E+02 0.  0.
        -24    2    1    2    0    0 -0.91756141748E+02 -0.69213072774E+01  0.10926482722E+03  0.16350967800E+03  0.79558269775E+02 0.  0.
         13    1    4    4    0    0 -0.56000560968E+02 -0.35436721935E+02  0.94558945007E+02  0.11546955517E+03  0.00000000000E+00 0. -1.
        -14    1    4    4    0    0 -0.35755580780E+02  0.28515414657E+02  0.14705882212E+02  0.48040122831E+02  0.00000000000E+00 0.  1.
        -11    1    3    3    0    0  0.46595353184E+02 -0.23176202219E+02 -0.50647330079E+02  0.72618285106E+02  0.00000000000E+00 0.  1.
         11    1    3    3    0    0  0.76513155208E+02 -0.59961408176E+01  0.33822065860E+02  0.83869832262E+02  0.00000000000E+00 0. -1.
         21    1    1    2  502  501 -0.31352366645E+02  0.36093650314E+02 -0.21640867405E+03  0.22162679597E+03  0.00000000000E+00 0.  1.
<scales pt_clust_5="13000.00000" pt_clust_6="13000.00000" pt_clust_7="13000.00000" pt_clust_8="13000.00000" pt_clust_9="47.80923"></scales>
<clustering>
<clus scale="   47.809">  2  9  1 -1</clus>
<clus scale="   79.558">  5  6 -1 -1</clus>
<clus scale="   90.547">  7  8 -1 -1</clus>
<clus scale="  127.196">  1  5  2 -1</clus>
<clus scale="  127.196">  1  5  2 -1</clus>
</clustering>
</event>
<event>
 9    1  0.2802611E-005  0.1132622E+03  0.7546771E-02  0.1256891E+00
          1   -1    0    0  502    0  0.00000000000E+00  0.00000000000E+00  0.57149650447E+03  0.57149650447E+03  0.00000000000E+00 0. -1.
         -2   -1    0    0    0  501 -0.00000000000E+00 -0.00000000000E+00 -0.39454243120E+02  0.39454243120E+02  0.00000000000E+00 0.  1.
        -24    2    1    2    0    0  0.51333190103E+02 -0.86235223133E+01  0.10211054416E+03  0.14172124457E+03  0.83359980742E+02 0.  0.
         23    2    1    2    0    0 -0.74655868532E+02  0.14464559585E+02  0.42937463855E+03  0.44518006681E+03  0.89665988355E+02 0.  0.
         13    1    3    3    0    0 -0.31423809912E-01 -0.33143614212E+02  0.67258246019E+02  0.74981143016E+02  0.00000000000E+00 0. -1.
        -14    1    3    3    0    0  0.51364613913E+02  0.24520091899E+02  0.34852298142E+02  0.66740101550E+02  0.00000000000E+00 0.  1.
        -11    1    4    4    0    0 -0.32997300235E+01  0.39523599035E+02  0.10874648220E+03  0.11575318782E+03  0.00000000000E+00 0.  1.
         11    1    4    4    0    0 -0.71356138508E+02 -0.25059039449E+02  0.32062815635E+03  0.32942687899E+03  0.00000000000E+00 0. -1.
         21    1    1    2  502  501  0.23322678429E+02 -0.58410372721E+01  0.55707864191E+00  0.24049436212E+02  0.00000000000E+00 0.  1.
<scales pt_clust_5="13000.00000" pt_clust_6="13000.00000" pt_clust_7="13000.00000" pt_clust_8="13000.00000" pt_clust_9="24.04298"></scales>
<clustering>
<clus scale="   24.043">  2  9  1 -1</clus>
<clus scale="   83.360">  5  6 -1 -1</clus>
<clus scale="   89.666">  7  8 -1 -1</clus>
<clus scale="  108.338">  2  5  1 -1</clus>
<clus scale="  113.262">  1  5  2 -1</clus>
</clustering>
</event>
<event>
 9    1  0.2802611E-005  0.1681925E+03  0.7546771E-02  0.1180850E+00
         -2   -1    0    0    0  501 -0.00000000000E+00  0.00000000000E+00  0.98107316859E+02  0.98107316859E+02  0.00000000000E+00 0.  1.
          1   -1    0    0  502    0  0.00000000000E+00 -0.00000000000E+00 -0.61333070019E+03  0.61333070019E+03  0.00000000000E+00 0. -1.
        -24    2    1    2    0    0  0.15277186436E+03  0.31247529637E+02 -0.22474468555E+02  0.17833271472E+03  0.83557194502E+02 0.  0.
         23    2    1    2    0    0 -0.13189138432E+03 -0.42870565924E+02 -0.47539280902E+03  0.50357017364E+03  0.91385853586E+02 0.  0.
         13    1    3    3    0    0  0.27237625506E+02  0.21153759345E+02 -0.38143036922E+02  0.51422378817E+02  0.00000000000E+00 0. -1.
        -14    1    3    3    0    0  0.12553423886E+03  0.10093770292E+02  0.15668568367E+02  0.12691033590E+03  0.00000000000E+00 0.  1.
        -11    1    4    4    0    0 -0.18643980227E+02  0.13344514458E+02 -0.18363069626E+02  0.29374757716E+02  0.00000000000E+00 0.  1.
         11    1    4    4    0    0 -0.11324740409E+03 -0.56215080382E+02 -0.45702973939E+03  0.47419541593E+03  0.00000000000E+00 0. -1.
         21    1    1    2  502  501 -0.20880480045E+02  0.11623036287E+02 -0.17356105756E+02  0.29535128685E+02  0.00000000000E+00 0. -1.
<scales pt_clust_5="13000.00000" pt_clust_6="13000.00000" pt_clust_7="13000.00000" pt_clust_8="13000.00000" pt_clust_9="23.89748"></scales>
<clustering>
<clus scale="   23.897">  1  9  2 -1</clus>
<clus scale="   83.557">  5  6 -1 -1</clus>
<clus scale="   91.386">  7  8 -1 -1</clus>
<clus scale="  164.071">  1  5  2 -1</clus>
<clus scale="  168.192">  2  5  1 -1</clus>
</clustering>
</event>
<event>
 9    1  0.2802611E-005  0.2202798E+03  0.7546771E-02  0.1152120E+00
         -2   -1    0    0    0  501 -0.00000000000E+00  0.00000000000E+00  0.35816755800E+03  0.35816755800E+03  0.00000000000E+00 0.  1.
          1   -1    0    0  502    0  0.00000000000E+00 -0.00000000000E+00 -0.32252596557E+03  0.32252596557E+03  0.00000000000E+00 0. -1.
         23    2    1    2    0    0  0.83522452461E+02 -0.66770533234E+02  0.12978518812E+03  0.19200245545E+03  0.92663065297E+02 0.  0.
        -24    2    1    2    0    0  0.13582581403E+03 -0.10540954708E+03 -0.88622080501E+02  0.20978224934E+03  0.81208956480E+02 0.  0.
         11    1    4    4    0    0 -0.21937091517E+01 -0.25594702069E+02  0.30523178779E+01  0.25869243867E+02  0.00000000000E+00 0. -1.
        -12    1    4    4    0    0  0.13801952318E+03 -0.79814845012E+02 -0.91674398379E+02  0.18391300547E+03  0.00000000000E+00 0.  1.
        -13    1    3    3    0    0  0.55293158784E+02 -0.65730325417E+02  0.34407368206E+02  0.92529325484E+02  0.00000000000E+00 0.  1.
         13    1    3    3    0    0  0.28229293677E+02 -0.10402078170E+01  0.95377819912E+02  0.99473129965E+02  0.00000000000E+00 0. -1.
         21    1    1    2  502  501 -0.21934826649E+03  0.17218008032E+03 -0.55215151815E+01  0.27890881879E+03  0.00000000000E+00 0. -1.
<scales pt_clust_5="13000.00000" pt_clust_6="13000.00000" pt_clust_7="13000.00000" pt_clust_8="13000.00000" pt_clust_9="204.76399"></scales>
<clustering>
<clus scale="   81.209">  5  6 -1 -1</clus>
<clus scale="   92.663">  7  8 -1 -1</clus>
<clus scale="  141.495">  1  7  2 -1</clus>
<clus scale="  204.764">  1  9  2 -1</clus>
<clus scale="  220.280">  2  5  1 -1</clus>
</clustering>
</event>
<event>
 9    1  0.2802611E-005  0.1147822E+03  0.7546771E-02  0.1254976E+00
         -2   -1    0    0    0  501 -0.00000000000E+00  0.00000000000E+00  0.11247155850E+03  0.11247155850E+03  0.00000000000E+00 0.  1.
          1   -1    0    0  502    0  0.00000000000E+00 -0.00000000000E+00 -0.60716302634E+03  0.60716302634E+03  0.00000000000E+00 0. -1.
        -24    2    1    2    0    0  0.75055708576E+02  0.29145443677E+02 -0.72352929050E+02  0.13513568498E+03  0.80894318319E+02 0.  0.
         23    2    1    2    0    0 -0.53874725368E+02 -0.45695922823E+02 -0.49449881849E+03  0.50749462480E+03  0.89616456720E+02 0.  0.
         13    1    3    3    0    0  0.42754005510E+02  0.47926358226E+02 -0.73686291492E+02  0.97747175681E+02  0.00000000000E+00 0. -1.
        -14    1    3    3    0    0  0.32301703067E+02 -0.18780914549E+02  0.13333624413E+01  0.37388509300E+02  0.00000000000E+00 0.  1.
        -11    1    4    4    0    0 -0.30556356957E+02 -0.72184675578E+02 -0.36080527093E+03  0.36922183287E+03  0.00000000000E+00 0. -1.
         11    1    4    4    0    0 -0.23318368411E+02  0.26488752754E+02 -0.13369354757E+03  0.13827279193E+03  0.00000000000E+00 0.  1.
         21    1    1    2  502  501 -0.21180983208E+02  0.16550479147E+02  0.72160279709E+02  0.77004275059E+02  0.00000000000E+00 0. -1.
<scales pt_clust_5="13000.00000" pt_clust_6="13000.00000" pt_clust_7="13000.00000" pt_clust_8="13000.00000" pt_clust_9="26.88033"></scales>
<clustering>
<clus scale="   26.880">  1  9  2 -1</clus>
<clus scale="   80.894">  5  6 -1 -1</clus>
<clus scale="   89.616">  7  8 -1 -1</clus>
<clus scale="  108.110">  1  5  2 -1</clus>
<clus scale="  114.782">  2  5  1 -1</clus>
</clustering>
</event>
<event>
 9    1  0.2802611E-005  0.2302738E+03  0.7546771E-02  0.1159537E+00
         -2   -1    0    0    0  501 -0.00000000000E+00  0.00000000000E+00  0.16081215472E+03  0.16081215472E+03  0.00000000000E+00 0.  1.
          1   -1    0    0  502    0  0.00000000000E+00 -0.00000000000E+00 -0.73630109104E+03  0.73630109104E+03  0.00000000000E+00 0. -1.
         23    2    1    2    0    0 -0.48633923004E+02  0.13591479453E+02 -0.38741386535E+02  0.11106103424E+03  0.91014677467E+02 0.  0.
        -24    2    1    2    0    0 -0.20276748057E+03 -0.42177056433E+02 -0.47693822295E+03  0.52605806446E+03  0.79833974063E+02 0.  0.
         11    1    4    4    0    0 -0.17764272483E+03 -0.82958972457E+01 -0.35543623061E+03  0.39744266710E+03  0.00000000000E+00 0. -1.
        -12    1    4    4    0    0 -0.25124755733E+02 -0.33881159187E+02 -0.12150199233E+03  0.12861539736E+03  0.00000000000E+00 0.  1.
        -11    1    3    3    0    0 -0.75632349759E+02  0.14619663467E+02 -0.27421977574E+02  0.81767669308E+02  0.00000000000E+00 0.  1.
         11    1    3    3    0    0  0.26998426755E+02 -0.10281840134E+01 -0.11319408961E+02  0.29293364928E+02  0.00000000000E+00 0. -1.
         21    1    1    2  502  501  0.25140140357E+03  0.28585576979E+02 -0.59809326841E+02  0.25999414706E+03  0.00000000000E+00 0.  1.
<scales pt_clust_5="13000.00000" pt_clust_6="13000.00000" pt_clust_7="13000.00000" pt_clust_8="13000.00000" pt_clust_9="215.99208"></scales>
<clustering>
<clus scale="   79.834">  5  6 -1 -1</clus>
<clus scale="   91.015">  7  8 -1 -1</clus>
<clus scale="  104.085">  1  7  2 -1</clus>
<clus scale="  215.992">  1  9  2 -1</clus>
<clus scale="  230.274">  2  5  1 -1</clus>
</clustering>
</event>
<event>
 9    1  0.2802611E-005  0.9486768E+02  0.7546771E-02  0.1297774E+00
          3   -1    0    0  502    0  0.00000000000E+00  0.00000000000E+00  0.36063206523E+03  0.36063206523E+03  0.00000000000E+00 0. -1.
         -4   -1    0    0    0  501 -0.00000000000E+00 -0.00000000000E+00 -0.13981866850E+03  0.13981866850E+03  0.00000000000E+00 0.  1.
         23    2    1    2    0    0 -0.35836382967E+02  0.28377057772E+02 -0.14095301047E+02  0.10258165542E+03  0.90745880153E+02 0.  0.
        -24    2    1    2    0    0  0.26861600014E+02  0.21725290908E+01  0.30739085860E+03  0.31870161262E+03  0.79720213848E+02 0.  0.
         13    1    4    4    0    0 -0.21601940659E+02  0.18021172289E+02  0.16667626291E+03  0.16903367448E+03  0.00000000000E+00 0. -1.
        -14    1    4    4    0    0  0.48463540673E+02 -0.15848643198E+02  0.14071459570E+03  0.14966793814E+03  0.00000000000E+00 0.  1.
        -13    1    3    3    0    0 -0.30429402561E+01  0.41976207607E+02  0.25652303845E+02  0.49287951703E+02  0.00000000000E+00 0.  1.
         13    1    3    3    0    0 -0.32793442711E+02 -0.13599149835E+02 -0.39747604891E+02  0.53293703715E+02  0.00000000000E+00 0. -1.
         21    1    1    2  502  501  0.89747829529E+01 -0.30549586863E+02 -0.72482160826E+02  0.79167465694E+02  0.00000000000E+00 0.  1.
<scales pt_clust_5="13000.00000" pt_clust_6="13000.00000" pt_clust_7="13000.00000" pt_clust_8="13000.00000" pt_clust_9="31.84060"></scales>
<clustering>
<clus scale="   31.841">  2  9  1 -1</clus>
<clus scale="   79.720">  5  6 -1 -1</clus>
<clus scale="   84.382">  1  5  2 -1</clus>
<clus scale="   90.746">  7  8 -1 -1</clus>
<clus scale="   84.382">  1  5  2 -1</clus>
</clustering>
</event>
<event>
 9    1  0.2802611E-005  0.1315938E+03  0.7546771E-02  0.1248191E+00
          1   -1    0    0  502    0  0.00000000000E+00  0.00000000000E+00  0.19186380510E+03  0.19186380510E+03  0.00000000000E+00 0. -1.
         -2   -1    0    0    0  501 -0.00000000000E+00 -0.00000000000E+00 -0.15227379911E+03  0.15227379911E+03  0.00000000000E+00 0.  1.
        -24    2    1    2    0    0  0.40707950004E+02  0.19445228900E+02  0.73516446321E+01  0.82459484248E+02  0.68631375793E+02 0.  0.
         23    2    1    2    0    0  0.37203165973E+02 -0.86138971184E+02  0.74416975953E+02  0.15078523118E+03  0.91620421948E+02 0.  0.
         13    1    3    3    0    0  0.34594591042E+02 -0.15328245303E+02  0.22519427246E+02  0.44032549744E+02  0.00000000000E+00 0. -1.
        -14    1    3    3    0    0  0.61133589619E+01  0.34773474203E+02 -0.15167782614E+02  0.38426934504E+02  0.00000000000E+00 0.  1.
        -11    1    4    4    0    0 -0.20193319021E+02 -0.20580168427E+02 -0.89538799804E+01  0.30190817019E+02  0.00000000000E+00 0. -1.
         11    1    4    4    0    0  0.57396484993E+02 -0.65558802757E+02  0.83370855933E+02  0.12059441416E+03  0.00000000000E+00 0.  1.
         21    1    1    2  502  501 -0.77911115976E+02  0.66693742284E+02 -0.42178614602E+02  0.11089288878E+03  0.00000000000E+00 0.  1.
<scales pt_clust_5="13000.00000" pt_clust_6="13000.00000" pt_clust_7="13000.00000" pt_clust_8="13000.00000" pt_clust_9="94.45960"></scales>
<clustering>
<clus scale="   68.631">  5  6 -1 -1</clus>
<clus scale="   82.131">  2  5  1 -1</clus>
<clus scale="   91.620">  7  8 -1 -1</clus>
<clus scale="   94.460">  2  9  1 -1</clus>
<clus scale="  131.594">  1  5  2 -1</clus>
</clustering>
</event>
<event>
 9    1  0.2802611E-005  0.1010543E+03  0.7546771E-02  0.1283324E+00
          1   -1    0    0  502    0  0.00000000000E+00  0.00000000000E+00  0.20644639162E+03  0.20644639162E+03  0.00000000000E+00 0. -1.
         -2   -1    0    0    0  501 -0.00000000000E+00 -0.00000000000E+00 -0.12211596263E+03  0.12211596263E+03  0.00000000000E+00 0.  1.
         23    2    1    2    0    0  0.21617861274E+02 -0.58211892262E+02 -0.40025535571E+02  0.11778042704E+03  0.91729107533E+02 0.  0.
        -24    2    1    2    0    0 -0.41189323422E+01  0.39302226200E+02  0.14961749330E+03  0.17469962103E+03  0.81073625178E+02 0.  0.
         13    1    4    4    0    0 -0.68788885751E+01  0.60607238733E+02  0.13655059936E+03  0.14955474810E+03  0.00000000000E+00 0. -1.
        -14    1    4    4    0    0  0.27599562329E+01 -0.21305012533E+02  0.13066893945E+02  0.25144872933E+02  0.00000000000E+00 0.  1.
        -13    1    3    3    0    0 -0.85531812289E+01 -0.57051463469E+02  0.10772871075E+02  0.58686294348E+02  0.00000000000E+00 0. -1.
         13    1    3    3    0    0  0.30171042503E+02 -0.11604287931E+01 -0.50798406646E+02  0.59094132691E+02  0.00000000000E+00 0.  1.
         21    1    1    2  502  501 -0.17498928932E+02  0.18909666062E+02 -0.25261528741E+02  0.36082306171E+02  0.00000000000E+00 0. -1.
<scales pt_clust_5="13000.00000" pt_clust_6="13000.00000" pt_clust_7="13000.00000" pt_clust_8="13000.00000" pt_clust_9="25.76408"></scales>
<clustering>
<clus scale="   25.764">  2  9  1 -1</clus>
<clus scale="   81.074">  5  6 -1 -1</clus>
<clus scale="   91.491">  1  5  2 -1</clus>
<clus scale="   91.729">  7  8 -1 -1</clus>
<clus scale="   91.491">  1  5  2 -1</clus>
</clustering>
</event>
<event>
 9    1  0.2802611E-005  0.1898290E+03  0.7546771E-02  0.1159932E+00
          1   -1    0    0  502    0  0.00000000000E+00  0.00000000000E+00  0.53114933788E+03  0.53114933788E+03  0.00000000000E+00 0. -1.
         -2   -1    0    0    0  501 -0.00000000000E+00 -0.00000000000E+00 -0.21877340719E+03  0.21877340719E+03  0.00000000000E+00 0.  1.
        -24    2    1    2    0    0 -0.15823837897E+03 -0.39028834845E+02 -0.91112738818E+02  0.20273102531E+03  0.78966467066E+02 0.  0.
         23    2    1    2    0    0  0.15347204285E+03  0.65792334932E+02  0.45261616743E+03  0.49104446738E+03  0.91547663260E+02 0.  0.
         13    1    3    3    0    0 -0.14170550494E+02 -0.30917746796E+02 -0.41671215683E+01  0.34264799291E+02  0.00000000000E+00 0. -1.
        -14    1    3    3    0    0 -0.14406782848E+03 -0.81110880490E+01 -0.86945617250E+02  0.16846622602E+03  0.00000000000E+00 0.  1.
        -13    1    4    4    0    0  0.45629047306E+02  0.41900269900E+02  0.27493657343E+03  0.28182931356E+03  0.00000000000E+00 0. -1.
         13    1    4    4    0    0  0.10784299555E+03  0.23892065032E+02  0.17767959400E+03  0.20921515381E+03  0.00000000000E+00 0.  1.
         21    1    1    2  502  501  0.47663361209E+01 -0.26763500087E+02 -0.49127497927E+02  0.56147252377E+02  0.00000000000E+00 0. -1.
<scales pt_clust_5="13000.00000" pt_clust_6="13000.00000" pt_clust_7="13000.00000" pt_clust_8="13000.00000" pt_clust_9="27.18461"></scales>
<clustering>
<clus scale="   27.185">  2  9  1 -1</clus>
<clus scale="   78.966">  5  6 -1 -1</clus>
<clus scale="   91.548">  7  8 -1 -1</clus>
<clus scale="  184.092">  2  5  1 -1</clus>
<clus scale="  189.829">  1  5  2 -1</clus>
</clustering>
</event>
<event>
 9    1  0.2802611E-005  0.1015618E+03  0.7546771E-02  0.1285016E+00
         -2   -1    0    0    0  501 -0.00000000000E+00  0.00000000000E+00  0.28087251359E+03  0.28087251359E+03  0.00000000000E+00 0.  1.
          1   -1    0    0  502    0  0.00000000000E+00 -0.00000000000E+00 -0.12261767856E+03  0.12261767856E+03  0.00000000000E+00 0. -1.
        -24    2    1    2    0    0  0.26112078174E+02 -0.14224697398E+01  0.11615318940E+03  0.14339393772E+03  0.79914916744E+02 0.  0.
         23    2    1    2    0    0 -0.23877020510E+02 -0.30527248331E+02 -0.82232172095E+02  0.13170358254E+03  0.95297841140E+02 0.  0.
         13    1    3    3    0    0 -0.17310965869E+02 -0.16277418126E+02  0.84157997169E+02  0.87448226784E+02  0.00000000000E+00 0. -1.
        -14    1    3    3    0    0  0.43423044043E+02  0.14854948386E+02  0.31995192235E+02  0.55945710932E+02  0.00000000000E+00 0.  1.
        -13    1    4    4    0    0  0.33798411313E+02 -0.24634561565E+02 -0.19064201869E+02  0.45963442252E+02  0.00000000000E+00 0.  1.
         13    1    4    4    0    0 -0.57675431823E+02 -0.58926867658E+01 -0.63167970226E+02  0.85740140283E+02  0.00000000000E+00 0. -1.
         21    1    1    2  502  501 -0.22350576644E+01  0.31949718071E+02  0.12433381772E+03  0.12839267189E+03  0.00000000000E+00 0.  1.
<scales pt_clust_5="13000.00000" pt_clust_6="13000.00000" pt_clust_7="13000.00000" pt_clust_8="13000.00000" pt_clust_9="32.02780"></scales>
<clustering>
<clus scale="   32.028">  1  9  2 -1</clus>
<clus scale="   79.915">  5  6 -1 -1</clus>
<clus scale="   87.290">  1  5  2 -1</clus>
<clus scale="   95.298">  7  8 -1 -1</clus>
<clus scale="  101.562">  2  5  1 -1</clus>
</clustering>
</event>
<event>
 9    1  0.2802611E-005  0.1049374E+03  0.7546771E-02  0.1274312E+00
         -2   -1    0    0    0  501 -0.00000000000E+00  0.00000000000E+00  0.79223055730E+02  0.79223055730E+02  0.00000000000E+00 0.  1.
          1   -1    0    0  502    0  0.00000000000E+00 -0.00000000000E+00 -0.30977060877E+03  0.30977060877E+03  0.00000000000E+00 0. -1.
        -24    2    1    2    0    0  0.20456205612E+02  0.59676794572E+02  0.40869368527E+01  0.10191401552E+03  0.79937396425E+02 0.  0.
         23    2    1    2    0    0  0.52228577884E+00 -0.53935598437E+02 -0.24244940832E+03  0.26396836637E+03  0.89377073602E+02 0.  0.
         13    1    3    3    0    0 -0.14877937104E+02  0.24621454672E+02 -0.30018171817E+02  0.41577153364E+02  0.00000000000E+00 0. -1.
        -14    1    3    3    0    0  0.35334142716E+02  0.35055339900E+02  0.34105108670E+02  0.60336862152E+02  0.00000000000E+00 0.  1.
        -13    1    4    4    0    0  0.31727427213E+02 -0.28479354023E+02 -0.20358767386E+03  0.20800395234E+03  0.00000000000E+00 0. -1.
         13    1    4    4    0    0 -0.31205141434E+02 -0.25456244414E+02 -0.38861734463E+02  0.55964414024E+02  0.00000000000E+00 0.  1.
         21    1    1    2  502  501 -0.20978491391E+02 -0.57411961353E+01  0.78149184301E+01  0.23111282616E+02  0.00000000000E+00 0. -1.
<scales pt_clust_5="13000.00000" pt_clust_6="13000.00000" pt_clust_7="13000.00000" pt_clust_8="13000.00000" pt_clust_9="21.74991"></scales>
<clustering>
<clus scale="   21.750">  1  9  2 -1</clus>
<clus scale="   79.937">  5  6 -1 -1</clus>
<clus scale="   89.377">  7  8 -1 -1</clus>
<clus scale="   97.024">  1  5  2 -1</clus>
<clus scale="  104.937">  2  5  1 -1</clus>
</clustering>
</event>
<event>
 9    1  0.2802611E-005  0.1385836E+03  0.7546771E-02  0.1216874E+00
         -2   -1    0    0    0  501 -0.00000000000E+00  0.00000000000E+00  0.17766597235E+03  0.17766597235E+03  0.00000000000E+00 0.  1.
          1   -1    0    0  502    0  0.00000000000E+00 -0.00000000000E+00 -0.23602639636E+03  0.23602639636E+03  0.00000000000E+00 0. -1.
         23    2    1    2    0    0 -0.11144247095E+03 -0.27397275202E+02  0.96270928525E+02  0.17516739752E+03  0.90804683006E+02 0.  0.
        -24    2    1    2    0    0  0.93576563564E+02  0.43689610121E+02 -0.16535166856E+03  0.21207585023E+03  0.83484349875E+02 0.  0.
         13    1    4    4    0    0  0.44535288899E+02  0.67169013849E+01 -0.13740759359E+03  0.14460067600E+03  0.00000000000E+00 0. -1.
        -14    1    4    4    0    0  0.49041274666E+02  0.36972708736E+02 -0.27944074968E+02  0.67475174234E+02  0.00000000000E+00 0.  1.
        -11    1    3    3    0    0 -0.32911503651E+02  0.18477667554E+02  0.71588740911E+02  0.80929222757E+02  0.00000000000E+00 0. -1.
         11    1    3    3    0    0 -0.78530967297E+02 -0.45874942756E+02  0.24682187614E+02  0.94238174764E+02  0.00000000000E+00 0.  1.
         21    1    1    2  502  501  0.17865907383E+02 -0.16292334919E+02  0.10720316032E+02  0.26449120960E+02  0.00000000000E+00 0.  1.
<scales pt_clust_5="13000.00000" pt_clust_6="13000.00000" pt_clust_7="13000.00000" pt_clust_8="13000.00000" pt_clust_9="24.17914"></scales>
<clustering>
<clus scale="   24.179">  1  9  2 -1</clus>
<clus scale="   83.484">  5  6 -1 -1</clus>
<clus scale="   90.805">  7  8 -1 -1</clus>
<clus scale="  133.901">  2  5  1 -1</clus>
<clus scale="  133.901">  2  5  1 -1</clus>
</clustering>
</event>
<event>
 9    1  0.2802611E-005  0.1325163E+03  0.7546771E-02  0.1227758E+00
          1   -1    0    0  502    0  0.00000000000E+00  0.00000000000E+00  0.76471218023E+03  0.76471218023E+03  0.00000000000E+00 0. -1.
         -2   -1    0    0    0  501 -0.00000000000E+00 -0.00000000000E+00 -0.26806539856E+02  0.26806539856E+02  0.00000000000E+00 0.  1.
         23    2    1    2    0    0 -0.87054260090E+02  0.82550408598E+01  0.30426281983E+03  0.33027533625E+03  0.94124089938E+02 0.  0.
        -24    2    1    2    0    0  0.97732081237E+02  0.13196397128E+02  0.40345585462E+03  0.42270206876E+03  0.78579308362E+02 0.  0.
         13    1    4    4    0    0  0.54863021285E+02  0.17365460268E+02  0.34675339837E+03  0.35149598802E+03  0.00000000000E+00 0. -1.
        -14    1    4    4    0    0  0.42869059953E+02 -0.41690631396E+01  0.56702456256E+02  0.71206080739E+02  0.00000000000E+00 0.  1.
        -13    1    3    3    0    0 -0.14572213940E+02  0.34716256629E+02  0.39804391762E+02  0.54790122258E+02  0.00000000000E+00 0.  1.
         13    1    3    3    0    0 -0.72482046149E+02 -0.26461215769E+02  0.26445842806E+03  0.27548521399E+03  0.00000000000E+00 0. -1.
         21    1    1    2  502  501 -0.10677821148E+02 -0.21451437988E+02  0.30186965923E+02  0.38541315077E+02  0.00000000000E+00 0. -1.
<scales pt_clust_5="13000.00000" pt_clust_6="13000.00000" pt_clust_7="13000.00000" pt_clust_8="13000.00000" pt_clust_9="23.96205"></scales>
<clustering>
<clus scale="   23.962">  2  9  1 -1</clus>
<clus scale="   78.579">  5  6 -1 -1</clus>
<clus scale="   94.124">  7  8 -1 -1</clus>
<clus scale="  121.967">  1  5  2 -1</clus>
<clus scale="  121.967">  1  5  2 -1</clus>
</clustering>
</event>
<event>
 9    1  0.2802611E-005  0.1342330E+03  0.7546771E-02  0.1223776E+00
         -2   -1    0    0    0  501 -0.00000000000E+00  0.00000000000E+00  0.11299723141E+03  0.11299723141E+03  0.00000000000E+00 0.  1.
          1   -1    0    0  502    0  0.00000000000E+00 -0.00000000000E+00 -0.74608992243E+03  0.74608992243E+03  0.00000000000E+00 0. -1.
         23    2    1    2    0    0  0.55229086459E+02  0.22403724778E+02 -0.15741640584E+03  0.19128503265E+03  0.90872768266E+02 0.  0.
        -24    2    1    2    0    0 -0.85268871236E+02 -0.90048859626E+02 -0.54601992605E+03  0.56569198089E+03  0.80561033278E+02 0.  0.
         13    1    4    4    0    0 -0.97410691904E+02 -0.65709753505E+02 -0.48235064457E+03  0.49645620040E+03  0.00000000000E+00 0. -1.
        -14    1    4    4    0    0  0.12141820668E+02 -0.24339106121E+02 -0.63669281482E+02  0.69235780492E+02  0.00000000000E+00 0.  1.
        -11    1    3    3    0    0 -0.12264745959E+02  0.25511064779E+02 -0.95619427035E+02  0.99721177520E+02  0.00000000000E+00 0. -1.
         11    1    3    3    0    0  0.67493832418E+02 -0.31073400009E+01 -0.61796978809E+02  0.91563855130E+02  0.00000000000E+00 0.  1.
         21    1    1    2  502  501  0.30039784777E+02  0.67645134848E+02  0.70343640877E+02  0.10211014029E+03  0.00000000000E+00 0. -1.
<scales pt_clust_5="13000.00000" pt_clust_6="13000.00000" pt_clust_7="13000.00000" pt_clust_8="13000.00000" pt_clust_9="74.01522"></scales>
<clustering>
<clus scale="   74.015">  1  9  2 -1</clus>
<clus scale="   80.561">  5  6 -1 -1</clus>
<clus scale="   90.873">  7  8 -1 -1</clus>
<clus scale="  127.478">  2  5  1 -1</clus>
<clus scale="  127.478">  2  5  1 -1</clus>
</clustering>
</event>
<event>
 9    1  0.2802611E-005  0.9345298E+02  0.7546771E-02  0.1303683E+00
         -2   -1    0    0    0  501 -0.00000000000E+00  0.00000000000E+00  0.59704604009E+02  0.59704604009E+02  0.00000000000E+00 0.  1.
          1   -1    0    0  502    0  0.00000000000E+00 -0.00000000000E+00 -0.21504290614E+03  0.21504290614E+03  0.00000000000E+00 0. -1.
         23    2    1    2    0    0 -0.32618098951E+02  0.13680365229E+02 -0.19924222347E+02  0.99345038248E+02  0.90671766368E+02 0.  0.
        -24    2    1    2    0    0  0.19908369892E+02  0.39208960078E+01 -0.13175587019E+03  0.15338602107E+03  0.75867947855E+02 0.  0.
         13    1    4    4    0    0  0.31163925099E+02  0.19108467712E+02 -0.12924622887E+03  0.13431646006E+03  0.00000000000E+00 0. -1.
        -14    1    4    4    0    0 -0.11255555207E+02 -0.15187571704E+02 -0.25096413148E+01  0.19069561002E+02  0.00000000000E+00 0.  1.
        -13    1    3    3    0    0 -0.48944225923E+02 -0.19977416308E+02 -0.29759694761E+02  0.60665260618E+02  0.00000000000E+00 0.  1.
         13    1    3    3    0    0  0.16326126972E+02  0.33657781537E+02  0.98354724146E+01  0.38679777630E+02  0.00000000000E+00 0. -1.
         21    1    1    2  502  501  0.12709729059E+02 -0.17601261237E+02 -0.36582095930E+01  0.22016450834E+02  0.00000000000E+00 0.  1.
<scales pt_clust_5="13000.00000" pt_clust_6="13000.00000" pt_clust_7="13000.00000" pt_clust_8="13000.00000" pt_clust_9="21.71040"></scales>
<clustering>
<clus scale="   21.710">  1  9  2 -1</clus>
<clus scale="   75.868">  5  6 -1 -1</clus>
<clus scale="   79.171">  2  5  1 -1</clus>
<clus scale="   90.672">  7  8 -1 -1</clus>
<clus scale="   79.171">  2  5  1 -1</clus>
</clustering>
</event>
<event>
 9    1  0.2802611E-005  0.1119179E+03  0.7546771E-02  0.1259938E+00
         -2   -1    0    0    0  501 -0.00000000000E+00  0.00000000000E+00  0.57857011165E+02  0.57857011165E+02  0.00000000000E+00 0.  1.
          1   -1    0    0  502    0  0.00000000000E+00 -0.00000000000E+00 -0.44680118759E+03  0.44680118759E+03  0.00000000000E+00 0. -1.
        -24    2    1    2    0    0 -0.64132671218E+02  0.81282612205E+01 -0.19867680368E+02  0.10681725952E+03  0.82680917141E+02 0.  0.
         23    2    1    2    0    0  0.74661740665E+02  0.16117286160E+02 -0.33063654967E+03  0.35118970828E+03  0.90440813771E+02 0.  0.
         13    1    3    3    0    0 -0.41712908722E+02 -0.35804663223E+02 -0.16428887183E+02  0.57374637224E+02  0.00000000000E+00 0. -1.
        -14    1    3    3    0    0 -0.22419762496E+02  0.43932924443E+02 -0.34387931845E+01  0.49442622292E+02  0.00000000000E+00 0.  1.
        -11    1    4    4    0    0  0.85468972302E+02 -0.13784588226E+02 -0.23968564505E+03  0.25484145766E+03  0.00000000000E+00 0. -1.
         11    1    4    4    0    0 -0.10807231638E+02  0.29901874385E+02 -0.90950904617E+02  0.96348250623E+02  0.00000000000E+00 0.  1.
         21    1    1    2  502  501 -0.10529069447E+02 -0.24245547380E+02 -0.38439946387E+02  0.46651230953E+02  0.00000000000E+00 0.  1.
<scales pt_clust_5="13000.00000" pt_clust_6="13000.00000" pt_clust_7="13000.00000" pt_clust_8="13000.00000" pt_clust_9="26.43308"></scales>
<clustering>
<clus scale="   26.433">  2  9  1 -1</clus>
<clus scale="   82.681">  5  6 -1 -1</clus>
<clus scale="   90.441">  7  8 -1 -1</clus>
<clus scale="  105.746">  1  5  2 -1</clus>
<clus scale="   26.433">  2  5  1 -1</clus>
</clustering>
</event>
<event>
 9    1  0.2802611E-005  0.9937105E+02  0.7546771E-02  0.1286984E+00
         -2   -1    0    0    0  501 -0.00000000000E+00  0.00000000000E+00  0.32443427667E+03  0.32443427667E+03  0.00000000000E+00 0.  1.
          1   -1    0    0  502    0  0.00000000000E+00 -0.00000000000E+00 -0.47286290561E+02  0.47286290561E+02  0.00000000000E+00 0. -1.
        -24    2    1    2    0    0 -0.14351039274E+02  0.13084997271E+02  0.16622106623E+03  0.18553014141E+03  0.80092577881E+02 0.  0.
         23    2    1    2    0    0  0.51661478856E+02 -0.79560313080E+01  0.53615514957E+02  0.11761220531E+03  0.90696199275E+02 0.  0.
         13    1    3    3    0    0 -0.43458032192E+02  0.15104664631E+02  0.61404877840E+02  0.76728811266E+02  0.00000000000E+00 0. -1.
        -14    1    3    3    0    0  0.29106992918E+02 -0.20196673592E+01  0.10481618839E+03  0.10880133014E+03  0.00000000000E+00 0.  1.
        -13    1    4    4    0    0  0.99554291616E+01  0.27874660917E+02 -0.12057454001E+02  0.31960749178E+02  0.00000000000E+00 0. -1.
         13    1    4    4    0    0  0.41706049694E+02 -0.35830692225E+02  0.65672968958E+02  0.85651456136E+02  0.00000000000E+00 0.  1.
         21    1    1    2  502  501 -0.37310439582E+02 -0.51289659633E+01  0.57311404919E+02  0.68578220503E+02  0.00000000000E+00 0. -1.
<scales pt_clust_5="13000.00000" pt_clust_6="13000.00000" pt_clust_7="13000.00000" pt_clust_8="13000.00000" pt_clust_9="37.66132"></scales>
<clustering>
<clus scale="   37.661">  1  9  2 -1</clus>
<clus scale="   80.093">  5  6 -1 -1</clus>
<clus scale="   89.798">  1  5  2 -1</clus>
<clus scale="   90.696">  7  8 -1 -1</clus>
<clus scale="   99.371">  2  5  1 -1</clus>
</clustering>
</event>
<event>
 9    1  0.2802611E-005  0.1335970E+03  0.7546771E-02  0.1238349E+00
         -2   -1    0    0    0  501 -0.00000000000E+00  0.00000000000E+00  0.12144177537E+03  0.12144177537E+03  0.00000000000E+00 0.  1.
          1   -1    0    0  502    0  0.00000000000E+00 -0.00000000000E+00 -0.46750369212E+03  0.46750369212E+03  0.00000000000E+00 0. -1.
         23    2    1    2    0    0 -0.99057402928E+02  0.12798077372E+02  0.44044930492E+01  0.13531414937E+03  0.91183110289E+02 0.  0.
        -24    2    1    2    0    0  0.46867065503E+01 -0.51279050906E+02 -0.33758834271E+03  0.35090615922E+03  0.80732503737E+02 0.  0.
         11    1    4    4    0    0  0.39420883093E+02 -0.45819989680E+02 -0.20377291353E+03  0.21254853038E+03  0.00000000000E+00 0. -1.
        -12    1    4    4    0    0 -0.34734176543E+02 -0.54590612257E+01 -0.13381542918E+03  0.13835762884E+03  0.00000000000E+00 0.  1.
        -13    1    3    3    0    0 -0.10083449024E+03  0.37747475867E+02  0.13895745470E+02  0.10856131032E+03  0.00000000000E+00 0.  1.
         13    1    3    3    0    0  0.17770873154E+01 -0.24949398496E+02 -0.94912524207E+01  0.26752839048E+02  0.00000000000E+00 0. -1.
         21    1    1    2  502  501  0.94370696378E+02  0.38480973534E+02 -0.12878067094E+02  0.10272515890E+03  0.00000000000E+00 0. -1.
<scales pt_clust_5="13000.00000" pt_clust_6="13000.00000" pt_clust_7="13000.00000" pt_clust_8="13000.00000" pt_clust_9="97.64122"></scales>
<clustering>
<clus scale="   80.733">  5  6 -1 -1</clus>
<clus scale="   91.183">  7  8 -1 -1</clus>
<clus scale="   95.756">  2  5  1 -1</clus>
<clus scale="   97.641">  2  9  1 -1</clus>
<clus scale="   95.756">  2  5  1 -1</clus>
</clustering>
</event>
<event>
 9    1  0.2802611E-005  0.2419750E+03  0.7546771E-02  0.1118716E+00
         -2   -1    0    0    0  501 -0.00000000000E+00  0.00000000000E+00  0.30682793173E+03  0.30682793173E+03  0.00000000000E+00 0.  1.
          1   -1    0    0  502    0  0.00000000000E+00 -0.00000000000E+00 -0.25901886890E+03  0.25901886890E+03  0.00000000000E+00 0. -1.
        -24    2    1    2    0    0  0.12705048189E+03 -0.14427688869E+03  0.86564380427E+02  0.22780563494E+03  0.86280761441E+02 0.  0.
         23    2    1    2    0    0 -0.14760301327E+03  0.19551275108E+03 -0.75504673555E+02  0.27172348098E+03  0.90115531530E+02 0.  0.
         11    1    3    3    0    0  0.59170014977E+02 -0.12739636228E+03  0.51990823529E+02  0.14977973670E+03  0.00000000000E+00 0. -1.
        -12    1    3    3    0    0  0.67880466914E+02 -0.16880526410E+02  0.34573556899E+02  0.78025898245E+02  0.00000000000E+00 0.  1.
        -11    1    4    4    0    0  0.27219771587E+01  0.41983448260E+02  0.47859483895E+01  0.42342937893E+02  0.00000000000E+00 0.  1.
         11    1    4    4    0    0 -0.15032499043E+03  0.15352930282E+03 -0.80290621944E+02  0.22938054308E+03  0.00000000000E+00 0. -1.
         21    1    1    2  502  501  0.20552531383E+02 -0.51235862390E+02  0.36749355958E+02  0.66317684704E+02  0.00000000000E+00 0.  1.
<scales pt_clust_5="13000.00000" pt_clust_6="13000.00000" pt_clust_7="13000.00000" pt_clust_8="13000.00000" pt_clust_9="55.20435"></scales>
<clustering>
<clus scale="   55.204">  1  9  2 -1</clus>
<clus scale="   86.281">  5  6 -1 -1</clus>
<clus scale="   90.116">  7  8 -1 -1</clus>
<clus scale="  240.573">  1  5  2 -1</clus>
<clus scale="  241.975">  2  5  1 -1</clus>
</clustering>
</event>
<event>
 9    1  0.2802611E-005  0.9420542E+02  0.7546771E-02  0.1296004E+00
         -2   -1    0    0    0  501 -0.00000000000E+00  0.00000000000E+00  0.12670418944E+03  0.12670418944E+03  0.00000000000E+00 0.  1.
          1   -1    0    0  502    0  0.00000000000E+00 -0.00000000000E+00 -0.29648907457E+03  0.29648907457E+03  0.00000000000E+00 0. -1.
        -24    2    1    2    0    0  0.35956609322E+02 -0.18435312146E+01 -0.43017507525E+02  0.94268685816E+02  0.75761486328E+02 0.  0.
         23    2    1    2    0    0 -0.48363765211E+02  0.18187076066E+02 -0.21636897221E+03  0.23700344498E+03  0.81763544911E+02 0.  0.
         11    1    3    3    0    0  0.18958037238E+01 -0.35450921941E+02 -0.23595253216E+02  0.42627431456E+02  0.00000000000E+00 0. -1.
        -12    1    3    3    0    0  0.34060805598E+02  0.33607390726E+02 -0.19422254309E+02  0.51641254360E+02  0.00000000000E+00 0.  1.
        -11    1    4    4    0    0 -0.40614920587E+02 -0.16064883955E+02 -0.18443962373E+03  0.18954056841E+03  0.00000000000E+00 0. -1.
         11    1    4    4    0    0 -0.77488446243E+01  0.34251960021E+02 -0.31929348482E+02  0.47462876575E+02  0.00000000000E+00 0.  1.
         21    1    1    2  502  501  0.12407155889E+02 -0.16343544851E+02  0.89601594607E+02  0.91921133216E+02  0.00000000000E+00 0.  1.
<scales pt_clust_5="13000.00000" pt_clust_6="13000.00000" pt_clust_7="13000.00000" pt_clust_8="13000.00000" pt_clust_9="20.51948"></scales>
<clustering>
<clus scale="   20.519">  1  9  2 -1</clus>
<clus scale="   75.761">  5  6 -1 -1</clus>
<clus scale="   81.764">  7  8 -1 -1</clus>
<clus scale="   89.046">  1  5  2 -1</clus>
<clus scale="   94.205">  2  5  1 -1</clus>
</clustering>
</event>
<event>
 9    1  0.2802611E-005  0.9258116E+02  0.7546771E-02  0.1303087E+00
         -2   -1    0    0    0  501 -0.00000000000E+00  0.00000000000E+00  0.65839628720E+02  0.65839628720E+02  0.00000000000E+00 0.  1.
          1   -1    0    0  502    0  0.00000000000E+00 -0.00000000000E+00 -0.32221293160E+03  0.32221293160E+03  0.00000000000E+00 0. -1.
         23    2    1    2    0    0 -0.41131958533E+02  0.31365777758E+02 -0.34740667108E+02  0.10986066907E+03  0.90480951760E+02 0.  0.
        -24    2    1    2    0    0  0.83109655605E+01 -0.10965538093E+02 -0.22521438252E+03  0.23938188909E+03  0.79955334760E+02 0.  0.
         13    1    4    4    0    0 -0.22268900979E+02 -0.33943416022E+02 -0.87584920631E+02  0.96535888477E+02  0.00000000000E+00 0. -1.
        -14    1    4    4    0    0  0.30579866539E+02  0.22977877929E+02 -0.13762946188E+03  0.14284600061E+03  0.00000000000E+00 0.  1.
        -11    1    3    3    0    0  0.14585511843E+02  0.15759360466E+02  0.20627419790E+02  0.29775578000E+02  0.00000000000E+00 0.  1.
         11    1    3    3    0    0 -0.55717470376E+02  0.15606417291E+02 -0.55368086897E+02  0.80085091075E+02  0.00000000000E+00 0. -1.
         21    1    1    2  502  501  0.32820992972E+02 -0.20400239665E+02  0.35817467401E+01  0.38810002161E+02  0.00000000000E+00 0. -1.
<scales pt_clust_5="13000.00000" pt_clust_6="13000.00000" pt_clust_7="13000.00000" pt_clust_8="13000.00000" pt_clust_9="38.64437"></scales>
<clustering>
<clus scale="   38.644">  1  9  2 -1</clus>
<clus scale="   79.955">  5  6 -1 -1</clus>
<clus scale="   82.325">  2  5  1 -1</clus>
<clus scale="   90.481">  7  8 -1 -1</clus>
<clus scale="   82.325">  2  5  1 -1</clus>
</clustering>
</event>
<event>
 9    1  0.2802611E-005  0.9421495E+02  0.7546771E-02  0.1298279E+00
         -2   -1    0    0    0  501 -0.00000000000E+00  0.00000000000E+00  0.16022290910E+03  0.16022290910E+03  0.00000000000E+00 0.  1.
          1   -1    0    0  502    0  0.00000000000E+00 -0.00000000000E+00 -0.24471176129E+03  0.24471176129E+03  0.00000000000E+00 0. -1.
         23    2    1    2    0    0 -0.84208234848E+01 -0.17766131374E+02 -0.15395430469E+02  0.92914510659E+02  0.89496040804E+02 0.  0.
        -24    2    1    2    0    0 -0.34179201661E+02  0.14697863992E+02 -0.17598779770E+03  0.19690897858E+03  0.80107402123E+02 0.  0.
         13    1    4    4    0    0 -0.36245376531E+02  0.42417185400E+02 -0.84225446023E+02  0.10102905867E+03  0.00000000000E+00 0. -1.
        -14    1    4    4    0    0  0.20661748703E+01 -0.27719321407E+02 -0.91762351678E+02  0.95879919917E+02  0.00000000000E+00 0.  1.
        -11    1    3    3    0    0  0.24291837892E+02 -0.33899379790E+02 -0.32264222825E+02  0.52727994584E+02  0.00000000000E+00 0.  1.
         11    1    3    3    0    0 -0.32712661376E+02  0.16133248416E+02  0.16868792356E+02  0.40186516076E+02  0.00000000000E+00 0. -1.
         21    1    1    2  502  501  0.42600025146E+02  0.30682673822E+01  0.10689437598E+03  0.11511118114E+03  0.00000000000E+00 0.  1.
<scales pt_clust_5="13000.00000" pt_clust_6="13000.00000" pt_clust_7="13000.00000" pt_clust_8="13000.00000" pt_clust_9="42.71038"></scales>
<clustering>
<clus scale="   42.710">  1  9  2 -1</clus>
<clus scale="   80.107">  5  6 -1 -1</clus>
<clus scale="   85.347">  2  5  1 -1</clus>
<clus scale="   89.496">  7  8 -1 -1</clus>
<clus scale="   85.347">  2  5  1 -1</clus>
</clustering>
</event>
<event>
 9    1  0.2802611E-005  0.1533308E+03  0.7546771E-02  0.1198241E+00
         -2   -1    0    0    0  501 -0.00000000000E+00  0.00000000000E+00  0.14876839291E+03  0.14876839291E+03  0.00000000000E+00 0.  1.
          1   -1    0    0  502    0  0.00000000000E+00 -0.00000000000E+00 -0.26750451556E+03  0.26750451556E+03  0.00000000000E+00 0. -1.
        -24    2    1    2    0    0 -0.50838561002E+02 -0.13814136460E+03  0.31752312620E+02  0.17104371322E+03  0.81118102643E+02 0.  0.
         23    2    1    2    0    0  0.34463323578E+02  0.11082988031E+03 -0.15373242130E+03  0.21321999313E+03  0.91422782016E+02 0.  0.
         13    1    3    3    0    0 -0.52978266931E+02 -0.36522598954E+02 -0.68766583257E+00  0.64351145178E+02  0.00000000000E+00 0. -1.
        -14    1    3    3    0    0  0.21397059290E+01 -0.10161876565E+03  0.32439978452E+02  0.10669256804E+03  0.00000000000E+00 0.  1.
        -13    1    4    4    0    0  0.52851789175E+02  0.25882977217E+02 -0.45369598574E+02  0.74307742554E+02  0.00000000000E+00 0.  1.
         13    1    4    4    0    0 -0.18388465597E+02  0.84946903093E+02 -0.10836282272E+03  0.13891225058E+03  0.00000000000E+00 0. -1.
         21    1    1    2  502  501  0.16375237425E+02  0.27311484294E+02  0.32439860206E+01  0.32009202120E+02  0.00000000000E+00 0. -1.
<scales pt_clust_5="13000.00000" pt_clust_6="13000.00000" pt_clust_7="13000.00000" pt_clust_8="13000.00000" pt_clust_9="31.84440"></scales>
<clustering>
<clus scale="   31.844">  1  9  2 -1</clus>
<clus scale="   81.118">  5  6 -1 -1</clus>
<clus scale="   91.423">  7  8 -1 -1</clus>
<clus scale="  147.419">  1  5  2 -1</clus>
<clus scale="  153.331">  2  5  1 -1</clus>
</clustering>
</event>
<event>
 9    1  0.2802611E-005  0.9274664E+02  0.7546771E-02  0.1303178E+00
         -2   -1    0    0    0  501 -0.00000000000E+00  0.00000000000E+00  0.42330482002E+03  0.42330482002E+03  0.00000000000E+00 0.  1.
          1   -1    0    0  502    0  0.00000000000E+00 -0.00000000000E+00 -0.59736087103E+02  0.59736087103E+02  0.00000000000E+00 0. -1.
         23    2    1    2    0    0 -0.63919291537E+01  0.36451784868E+02  0.35230131755E+03  0.36441975136E+03  0.85533311957E+02 0.  0.
        -24    2    1    2    0    0 -0.15153581513E+02 -0.32657608051E+02  0.32598802082E+02  0.88065749261E+02  0.73462533985E+02 0.  0.
         13    1    4    4    0    0 -0.41294490033E+02 -0.14883693151E+02  0.35316061504E+02  0.56338117017E+02  0.00000000000E+00 0. -1.
        -14    1    4    4    0    0  0.26140908519E+02 -0.17773914900E+02 -0.27172594217E+01  0.31727632245E+02  0.00000000000E+00 0.  1.
        -11    1    3    3    0    0  0.38202552880E+02  0.12808415341E+02  0.11632462919E+03  0.12310527976E+03  0.00000000000E+00 0.  1.
         11    1    3    3    0    0 -0.44594482034E+02  0.23643369527E+02  0.23597668837E+03  0.24131447160E+03  0.00000000000E+00 0. -1.
         21    1    1    2  502  501  0.21545510667E+02 -0.37941768175E+01 -0.21331386713E+02  0.30555406506E+02  0.00000000000E+00 0.  1.
<scales pt_clust_5="13000.00000" pt_clust_6="13000.00000" pt_clust_7="13000.00000" pt_clust_8="13000.00000" pt_clust_9="21.87704"></scales>
<clustering>
<clus scale="   21.877">  2  9  1 -1</clus>
<clus scale="   73.463">  5  6 -1 -1</clus>
<clus scale="   81.748">  2  5  1 -1</clus>
<clus scale="   85.533">  7  8 -1 -1</clus>
<clus scale="   21.877">  2  5  1 -1</clus>
</clustering>
</event>
<event>
 9    1  0.2802611E-005  0.1156036E+03  0.7546771E-02  0.1255096E+00
         -2   -1    0    0    0  501 -0.00000000000E+00  0.00000000000E+00  0.95581908537E+02  0.95581908537E+02  0.00000000000E+00 0.  1.
          1   -1    0    0  502    0  0.00000000000E+00 -0.00000000000E+00 -0.54112169281E+03  0.54112169281E+03  0.00000000000E+00 0. -1.
        -24    2    1    2    0    0  0.36547387446E+02 -0.23722692365E+02 -0.62925191098E+02  0.11118918096E+03  0.80653435296E+02 0.  0.
         23    2    1    2    0    0 -0.76839165002E+02 -0.32719843737E+02 -0.42577778864E+03  0.44383058684E+03  0.93402457483E+02 0.  0.
         13    1    3    3    0    0  0.38305095034E+02 -0.34220727508E+02 -0.77600530182E+02  0.93060092313E+02  0.00000000000E+00 0. -1.
        -14    1    3    3    0    0 -0.17577075883E+01  0.10498035143E+02  0.14675339084E+02  0.18129088644E+02  0.00000000000E+00 0.  1.
        -13    1    4    4    0    0 -0.63568643949E+02  0.17136796944E+02 -0.31245573926E+03  0.31931681963E+03  0.00000000000E+00 0. -1.
         13    1    4    4    0    0 -0.13270521053E+02 -0.49856640681E+02 -0.11332204938E+03  0.12451376721E+03  0.00000000000E+00 0.  1.
         21    1    1    2  502  501  0.40291777556E+02  0.56442536103E+02  0.43163195466E+02  0.81683833548E+02  0.00000000000E+00 0.  1.
<scales pt_clust_5="13000.00000" pt_clust_6="13000.00000" pt_clust_7="13000.00000" pt_clust_8="13000.00000" pt_clust_9="69.34830"></scales>
<clustering>
<clus scale="   69.348">  1  9  2 -1</clus>
<clus scale="   80.653">  5  6 -1 -1</clus>
<clus scale="   93.402">  7  8 -1 -1</clus>
<clus scale="  105.571">  1  5  2 -1</clus>
<clus scale="  115.604">  2  5  1 -1</clus>
</clustering>
</event>
<event>
 9    1  0.2802611E-005  0.1197221E+03  0.7546771E-02  0.1247110E+00
         -2   -1    0    0    0  501 -0.00000000000E+00  0.00000000000E+00  0.38790329285E+02  0.38790329285E+02  0.00000000000E+00 0.  1.
          1   -1    0    0  502    0  0.00000000000E+00 -0.00000000000E+00 -0.82560450581E+03  0.82560450581E+03  0.00000000000E+00 0. -1.
         23    2    1    2    0    0  0.89631791184E+02  0.29664669447E+02 -0.13850660692E+03  0.19056640984E+03  0.90651121312E+02 0.  0.
        -24    2    1    2    0    0 -0.57676890883E+02 -0.49872410445E+02 -0.61054593858E+03  0.62039239596E+03  0.79413479803E+02 0.  0.
         11    1    4    4    0    0 -0.27083046538E+02 -0.68831877005E+02 -0.42470074443E+03  0.43109400485E+03  0.00000000000E+00 0. -1.
        -12    1    4    4    0    0 -0.30593844345E+02  0.18959466560E+02 -0.18584519416E+03  0.18929839111E+03  0.00000000000E+00 0.  1.
        -13    1    3    3    0    0  0.57971741971E+02  0.32695608250E+01 -0.13758622640E+03  0.14933647441E+03  0.00000000000E+00 0. -1.
         13    1    3    3    0    0  0.31660049213E+02  0.26395108623E+02 -0.92038052291E+00  0.41229935431E+02  0.00000000000E+00 0.  1.
         21    1    1    2  502  501 -0.31954900301E+02  0.20207740997E+02 -0.37761631019E+02  0.53436029294E+02  0.00000000000E+00 0.  1.
<scales pt_clust_5="13000.00000" pt_clust_6="13000.00000" pt_clust_7="13000.00000" pt_clust_8="13000.00000" pt_clust_9="37.80831"></scales>
<clustering>
<clus scale="   37.808">  1  9  2 -1</clus>
<clus scale="   79.413">  5  6 -1 -1</clus>
<clus scale="   90.651">  7  8 -1 -1</clus>
<clus scale="  111.455">  2  5  1 -1</clus>
<clus scale="  111.455">  2  5  1 -1</clus>
</clustering>
</event>
<event>
 9    1  0.2802611E-005  0.9534462E+02  0.7546771E-02  0.1290805E+00
         -2   -1    0    0    0  501 -0.00000000000E+00  0.00000000000E+00  0.13783217235E+03  0.13783217235E+03  0.00000000000E+00 0.  1.
          1   -1    0    0  502    0  0.00000000000E+00 -0.00000000000E+00 -0.34652348259E+03  0.34652348259E+03  0.00000000000E+00 0. -1.
        -24    2    1    2    0    0  0.64713628184E+02  0.36919397172E+02  0.66546167150E+02  0.12893084902E+03  0.81509974272E+02 0.  0.
         23    2    1    2    0    0 -0.11470481605E+01  0.34625605226E+02 -0.22999903050E+03  0.24956681359E+03  0.90464314281E+02 0.  0.
         13    1    3    3    0    0  0.52887061532E+02  0.56965664381E+02  0.25611254987E+02  0.81841704392E+02  0.00000000000E+00 0. -1.
        -14    1    3    3    0    0  0.11826566652E+02 -0.20046267209E+02  0.40934912163E+02  0.47089144626E+02  0.00000000000E+00 0.  1.
        -11    1    4    4    0    0 -0.30699762650E+02 -0.18583620189E+02 -0.91373291938E+02  0.98167738314E+02  0.00000000000E+00 0.  1.
         11    1    4    4    0    0  0.29552714489E+02  0.53209225414E+02 -0.13862573856E+03  0.15139907528E+03  0.00000000000E+00 0. -1.
         21    1    1    2  502  501 -0.63566580024E+02 -0.71545002398E+02 -0.45238446891E+02  0.10585799233E+03  0.00000000000E+00 0. -1.
<scales pt_clust_5="13000.00000" pt_clust_6="13000.00000" pt_clust_7="13000.00000" pt_clust_8="13000.00000" pt_clust_9="95.70474"></scales>
<clustering>
<clus scale="   81.510">  5  6 -1 -1</clus>
<clus scale="   90.464">  7  8 -1 -1</clus>
<clus scale="   95.705">  1  9  2 -1</clus>
<clus scale="   95.705">  1  5  2 -1</clus>
<clus scale="   94.986">  2  5  1 -1</clus>
</clustering>
</event>
<event>
 9    1  0.2802611E-005  0.4737933E+03  0.7546771E-02  0.1020855E+00
          1   -1    0    0  502    0  0.00000000000E+00  0.00000000000E+00  0.18045031004E+04  0.18045031004E+04  0.00000000000E+00 0. -1.
         -2   -1    0    0    0  501 -0.00000000000E+00 -0.00000000000E+00 -0.11332854860E+03  0.11332854860E+03  0.00000000000E+00 0.  1.
        -24    2    1    2    0    0 -0.20073164989E+02  0.20370016836E+03  0.68999028522E+03  0.72373899400E+03  0.76255145366E+02 0.  0.
         23    2    1    2    0    0 -0.34312156903E+02  0.21175648287E+03  0.35925038886E+03  0.42751513405E+03  0.87693875479E+02 0.  0.
         11    1    3    3    0    0 -0.26831203009E+02  0.24650701714E+02  0.78604236907E+02  0.86638309135E+02  0.00000000000E+00 0. -1.
        -12    1    3    3    0    0  0.67580380197E+01  0.17904946665E+03  0.61138604831E+03  0.63710068486E+03  0.00000000000E+00 0.  1.
        -13    1    4    4    0    0 -0.61013480722E+02  0.14323547800E+03  0.27201166775E+03  0.31341568943E+03  0.00000000000E+00 0.  1.
         13    1    4    4    0    0  0.26701323818E+02  0.68521004866E+02  0.87238721106E+02  0.11409944462E+03  0.00000000000E+00 0. -1.
         21    1    1    2  502  501  0.54385321892E+02 -0.41545665123E+03  0.64193387777E+03  0.76657752101E+03  0.00000000000E+00 0. -1.
<scales pt_clust_5="13000.00000" pt_clust_6="13000.00000" pt_clust_7="13000.00000" pt_clust_8="13000.00000" pt_clust_9="419.00118"></scales>
<clustering>
<clus scale="   76.255">  5  6 -1 -1</clus>
<clus scale="   87.694">  7  8 -1 -1</clus>
<clus scale="  168.770">  5  7 -1 -1</clus>
<clus scale="  419.001">  2  9  1 -1</clus>
<clus scale="  473.793">  1  5  2 -1</clus>
</clustering>
</event>
<event>
 9    1  0.2802611E-005  0.1013538E+03  0.7546771E-02  0.1282582E+00
         -4   -1    0    0    0  501 -0.00000000000E+00  0.00000000000E+00  0.29663359058E+03  0.29663359058E+03  0.00000000000E+00 0.  1.
          3   -1    0    0  502    0  0.00000000000E+00 -0.00000000000E+00 -0.76078295960E+02  0.76078295960E+02  0.00000000000E+00 0. -1.
        -24    2    1    2    0    0 -0.15551257403E+02  0.14276267440E+01  0.10490361223E+03  0.13375152956E+03  0.81491251530E+02 0.  0.
         23    2    1    2    0    0  0.52425549059E+02 -0.10918198509E+02 -0.10746189932E+02  0.10695199942E+03  0.91954360034E+02 0.  0.
         13    1    3    3    0    0 -0.42351653107E+02  0.20616850764E-01  0.96892387511E+02  0.10574401971E+03  0.00000000000E+00 0. -1.
        -14    1    3    3    0    0  0.26800395704E+02  0.14070098933E+01  0.80112247175E+01  0.28007509854E+02  0.00000000000E+00 0.  1.
        -11    1    4    4    0    0  0.75758371347E+02 -0.37620471713E+01  0.78670701292E+01  0.76258603584E+02  0.00000000000E+00 0.  1.
         11    1    4    4    0    0 -0.23332822289E+02 -0.71561513380E+01 -0.18613260061E+02  0.30693395837E+02  0.00000000000E+00 0. -1.
         21    1    1    2  502  501 -0.36874291655E+02  0.94905717653E+01  0.12639787233E+03  0.13200835756E+03  0.00000000000E+00 0. -1.
<scales pt_clust_5="13000.00000" pt_clust_6="13000.00000" pt_clust_7="13000.00000" pt_clust_8="13000.00000" pt_clust_9="38.07603"></scales>
<clustering>
<clus scale="   38.076">  1  9  2 -1</clus>
<clus scale="   81.491">  5  6 -1 -1</clus>
<clus scale="   91.954">  7  8 -1 -1</clus>
<clus scale="   91.966">  1  5  2 -1</clus>
<clus scale="  101.354">  2  5  1 -1</clus>
</clustering>
</event>
<event>
 9    1  0.2802611E-005  0.9495402E+02  0.7546771E-02  0.1297104E+00
         -2   -1    0    0    0  501 -0.00000000000E+00  0.00000000000E+00  0.22950784262E+02  0.22950784262E+02  0.00000000000E+00 0.  1.
          1   -1    0    0  502    0  0.00000000000E+00 -0.00000000000E+00 -0.91499428957E+03  0.91499428957E+03  0.00000000000E+00 0. -1.
         23    2    1    2    0    0 -0.55668214092E+01 -0.53063311295E+02 -0.16467097526E+03  0.19527801015E+03  0.90389527308E+02 0.  0.
        -24    2    1    2    0    0  0.77557825080E+01  0.23974602125E+02 -0.69081306665E+03  0.69589593033E+03  0.80084449682E+02 0.  0.
         13    1    4    4    0    0 -0.44352588240E+01  0.34206064147E+02 -0.11994289937E+03  0.12480394807E+03  0.00000000000E+00 0. -1.
        -14    1    4    4    0    0  0.12191041332E+02 -0.10231462022E+02 -0.57087016728E+03  0.57109198225E+03  0.00000000000E+00 0.  1.
        -13    1    3    3    0    0  0.16774899044E+02 -0.28489727072E+02 -0.15797570646E+03  0.16139822062E+03  0.00000000000E+00 0. -1.
         13    1    3    3    0    0 -0.22341720453E+02 -0.24573584224E+02 -0.66952688041E+01  0.33879789532E+02  0.00000000000E+00 0.  1.
         21    1    1    2  502  501 -0.21889610989E+01  0.29088709170E+02 -0.36559463398E+02  0.46771133360E+02  0.00000000000E+00 0.  1.
<scales pt_clust_5="13000.00000" pt_clust_6="13000.00000" pt_clust_7="13000.00000" pt_clust_8="13000.00000" pt_clust_9="29.17095"></scales>
<clustering>
<clus scale="   29.171">  1  9  2 -1</clus>
<clus scale="   80.084">  5  6 -1 -1</clus>
<clus scale="   85.203">  2  5  1 -1</clus>
<clus scale="   90.390">  7  8 -1 -1</clus>
<clus scale="   85.203">  2  5  1 -1</clus>
</clustering>
</event>
<event>
 9    1  0.2802611E-005  0.1030778E+03  0.7546771E-02  0.1281055E+00
          1   -1    0    0  502    0  0.00000000000E+00  0.00000000000E+00  0.82029316992E+02  0.82029316992E+02  0.00000000000E+00 0. -1.
         -2   -1    0    0    0  501 -0.00000000000E+00 -0.00000000000E+00 -0.27797696294E+03  0.27797696294E+03  0.00000000000E+00 0.  1.
        -24    2    1    2    0    0  0.16807138100E+02  0.12942487072E+02 -0.13898437466E+03  0.16001108089E+03  0.76399618753E+02 0.  0.
         23    2    1    2    0    0 -0.31492730675E+02 -0.45382868865E+02  0.25792621392E+02  0.10990311963E+03  0.91444187969E+02 0.  0.
         11    1    3    3    0    0 -0.99107216663E+01  0.40032221561E+02 -0.72001887724E+02  0.82976340019E+02  0.00000000000E+00 0. -1.
        -12    1    3    3    0    0  0.26717859766E+02 -0.27089734489E+02 -0.66982486938E+02  0.77034740875E+02  0.00000000000E+00 0.  1.
        -13    1    4    4    0    0  0.12932406830E+02  0.19728150879E+02 -0.68876701033E+01  0.24574114083E+02  0.00000000000E+00 0.  1.
         13    1    4    4    0    0 -0.44425137505E+02 -0.65111019745E+02  0.32680291496E+02  0.85329005542E+02  0.00000000000E+00 0. -1.
         21    1    1    2  502  501  0.14685592575E+02  0.32440381793E+02 -0.82755892682E+02  0.90092079418E+02  0.00000000000E+00 0.  1.
<scales pt_clust_5="13000.00000" pt_clust_6="13000.00000" pt_clust_7="13000.00000" pt_clust_8="13000.00000" pt_clust_9="35.60962"></scales>
<clustering>
<clus scale="   35.610">  2  9  1 -1</clus>
<clus scale="   76.400">  5  6 -1 -1</clus>
<clus scale="   89.999">  2  5  1 -1</clus>
<clus scale="   91.444">  7  8 -1 -1</clus>
<clus scale="  103.078">  1  5  2 -1</clus>
</clustering>
</event>
<event>
 9    1  0.2802611E-005  0.1322503E+03  0.7546771E-02  0.1227592E+00
         -4   -1    0    0    0  501 -0.00000000000E+00  0.00000000000E+00  0.18894761693E+03  0.18894761693E+03  0.00000000000E+00 0.  1.
          3   -1    0    0  502    0  0.00000000000E+00 -0.00000000000E+00 -0.28409403509E+03  0.28409403509E+03  0.00000000000E+00 0. -1.
         23    2    1    2    0    0  0.10094195601E+03  0.29405063827E+02  0.10364963080E+03  0.17521755810E+03  0.94361064206E+02 0.  0.
        -24    2    1    2    0    0 -0.91167629026E+02 -0.77267801961E+01 -0.22887596747E+03  0.25947977300E+03  0.81082084303E+02 0.  0.
         11    1    4    4    0    0 -0.47666993721E+02  0.18923133790E+02 -0.18568329053E+03  0.19263569676E+03  0.00000000000E+00 0. -1.
        -12    1    4    4    0    0 -0.43500635305E+02 -0.26649913986E+02 -0.43192676945E+02  0.66844076245E+02  0.00000000000E+00 0.  1.
        -11    1    3    3    0    0  0.75170143675E+02  0.49437862838E+02  0.30304750794E+02  0.94936982798E+02  0.00000000000E+00 0.  1.
         11    1    3    3    0    0  0.25771812338E+02 -0.20032799011E+02  0.73344880003E+02  0.80280575297E+02  0.00000000000E+00 0. -1.
         21    1    1    2  502  501 -0.97743269866E+01 -0.21678283631E+02  0.30079918519E+02  0.38344320927E+02  0.00000000000E+00 0.  1.
<scales pt_clust_5="13000.00000" pt_clust_6="13000.00000" pt_clust_7="13000.00000" pt_clust_8="13000.00000" pt_clust_9="23.77994"></scales>
<clustering>
<clus scale="   23.780">  1  9  2 -1</clus>
<clus scale="   81.082">  5  6 -1 -1</clus>
<clus scale="   94.361">  7  8 -1 -1</clus>
<clus scale="  123.128">  2  5  1 -1</clus>
<clus scale="  123.128">  2  5  1 -1</clus>
</clustering>
</event>
<event>
 9    1  0.2802611E-005  0.2859743E+03  0.7546771E-02  0.1094472E+00
         -2   -1    0    0    0  501 -0.00000000000E+00  0.00000000000E+00  0.29482471302E+03  0.29482471302E+03  0.00000000000E+00 0.  1.
          1   -1    0    0  502    0  0.00000000000E+00 -0.00000000000E+00 -0.33369994199E+03  0.33369994199E+03  0.00000000000E+00 0. -1.
        -24    2    1    2    0    0 -0.18588947161E+03 -0.17390171171E+03 -0.17531204467E+02  0.26935015582E+03  0.86287092443E+02 0.  0.
         23    2    1    2    0    0  0.21352455478E+03  0.14986244400E+03 -0.70659635751E+02  0.29774475292E+03  0.12493064537E+03 0.  0.
         11    1    3    3    0    0 -0.13580030734E+03 -0.95463283730E+02 -0.45592900828E+02  0.17214434240E+03  0.00000000000E+00 0. -1.
        -12    1    3    3    0    0 -0.50089164268E+02 -0.78438427977E+02  0.28061696361E+02  0.97205813423E+02  0.00000000000E+00 0.  1.
        -11    1    4    4    0    0  0.15802171109E+03  0.98650489386E+02 -0.10603454283E+03  0.21435042456E+03  0.00000000000E+00 0. -1.
         11    1    4    4    0    0  0.55502843681E+02  0.51211954615E+02  0.35374907080E+02  0.83394328363E+02  0.00000000000E+00 0.  1.
         21    1    1    2  502  501 -0.27635083166E+02  0.24039267706E+02  0.49315611248E+02  0.61429746265E+02  0.00000000000E+00 0.  1.
<scales pt_clust_5="13000.00000" pt_clust_6="13000.00000" pt_clust_7="13000.00000" pt_clust_8="13000.00000" pt_clust_9="36.62764"></scales>
<clustering>
<clus scale="   36.628">  1  9  2 -1</clus>
<clus scale="   86.287">  5  6 -1 -1</clus>
<clus scale="  124.931">  7  8 -1 -1</clus>
<clus scale="  271.328">  1  5  2 -1</clus>
<clus scale="  285.974">  2  5  1 -1</clus>
</clustering>
</event>
<event>
 9    1  0.2802611E-005  0.3485185E+03  0.7546771E-02  0.1063502E+00
          1   -1    0    0  502    0  0.00000000000E+00  0.00000000000E+00  0.15965296916E+03  0.15965296916E+03  0.00000000000E+00 0. -1.
         -2   -1    0    0    0  501 -0.00000000000E+00 -0.00000000000E+00 -0.19482335628E+04  0.19482335628E+04  0.00000000000E+00 0.  1.
        -24    2    1    2    0    0  0.14597551312E+03  0.27911061175E+03 -0.15069356739E+04  0.15415913931E+04  0.80232874072E+02 0.  0.
         23    2    1    2    0    0 -0.13301546982E+03 -0.31248417526E+03 -0.78835554113E+02  0.36035000962E+03  0.91091217119E+02 0.  0.
         11    1    3    3    0    0  0.14280179438E+03  0.20297917958E+03 -0.11929899670E+04  0.12185310670E+04  0.00000000000E+00 0. -1.
        -12    1    3    3    0    0  0.31737187391E+01  0.76131432172E+02 -0.31394570689E+03  0.32306032615E+03  0.00000000000E+00 0.  1.
        -11    1    4    4    0    0 -0.60327127411E+02 -0.47728616963E+02 -0.13013827557E+02  0.78017580625E+02  0.00000000000E+00 0.  1.
         11    1    4    4    0    0 -0.72688342412E+02 -0.26475555830E+03 -0.65821726556E+02  0.28233242899E+03  0.00000000000E+00 0. -1.
         21    1    1    2  502  501 -0.12960043298E+02  0.33373563513E+02 -0.20280936569E+03  0.20594512928E+03  0.00000000000E+00 0.  1.
<scales pt_clust_5="13000.00000" pt_clust_6="13000.00000" pt_clust_7="13000.00000" pt_clust_8="13000.00000" pt_clust_9="35.80164"></scales>
<clustering>
<clus scale="   35.802">  2  9  1 -1</clus>
<clus scale="   80.233">  5  6 -1 -1</clus>
<clus scale="   91.091">  7  8 -1 -1</clus>
<clus scale="  345.839">  2  5  1 -1</clus>
<clus scale="  348.518">  1  5  2 -1</clus>
</clustering>
</event>
<event>
 9    1  0.2802611E-005  0.9838219E+02  0.7546771E-02  0.1294435E+00
         -2   -1    0    0    0  501 -0.00000000000E+00  0.00000000000E+00  0.15141096819E+03  0.15141096819E+03  0.00000000000E+00 0.  1.
          1   -1    0    0  502    0  0.00000000000E+00 -0.00000000000E+00 -0.34918520451E+03  0.34918520451E+03  0.00000000000E+00 0. -1.
         23    2    1    2    0    0 -0.16333333225E+02 -0.28703384603E+01  0.98039232334E+02  0.13585116882E+03  0.92567987862E+02 0.  0.
        -24    2    1    2    0    0  0.28626412734E+02 -0.18767671057E+02 -0.31998822776E+03  0.33005001523E+03  0.73272434564E+02 0.  0.
         11    1    4    4    0    0 -0.13904197751E+02 -0.33171783968E+02 -0.14350206675E+03  0.14794099205E+03  0.00000000000E+00 0. -1.
        -12    1    4    4    0    0  0.42530610485E+02  0.14404112911E+02 -0.17648616101E+03  0.18210902318E+03  0.00000000000E+00 0.  1.
        -13    1    3    3    0    0  0.88498749463E+01  0.41812641458E+02  0.43489198181E+02  0.60974811444E+02  0.00000000000E+00 0.  1.
         13    1    3    3    0    0 -0.25183208171E+02 -0.44682979919E+02  0.54550034154E+02  0.74876357379E+02  0.00000000000E+00 0. -1.
         21    1    1    2  502  501 -0.12293079509E+02  0.21638009517E+02  0.24174759105E+02  0.34694988650E+02  0.00000000000E+00 0.  1.
<scales pt_clust_5="13000.00000" pt_clust_6="13000.00000" pt_clust_7="13000.00000" pt_clust_8="13000.00000" pt_clust_9="24.88621"></scales>
<clustering>
<clus scale="   24.886">  1  9  2 -1</clus>
<clus scale="   73.272">  5  6 -1 -1</clus>
<clus scale="   80.493">  2  5  1 -1</clus>
<clus scale="   92.568">  7  8 -1 -1</clus>
<clus scale="   80.493">  2  5  1 -1</clus>
</clustering>
</event>
<event>
 9    1  0.2802611E-005  0.2513491E+03  0.7546771E-02  0.1113070E+00
         -2   -1    0    0    0  501 -0.00000000000E+00  0.00000000000E+00  0.12888486308E+03  0.12888486308E+03  0.00000000000E+00 0.  1.
          1   -1    0    0  502    0  0.00000000000E+00 -0.00000000000E+00 -0.64786613051E+03  0.64786613051E+03  0.00000000000E+00 0. -1.
        -24    2    1    2    0    0 -0.45694818062E+02 -0.21589314271E+03 -0.97080447632E+02  0.25415690803E+03  0.80456541789E+02 0.  0.
         23    2    1    2    0    0  0.34499297946E+02  0.23775394849E+03 -0.42609149978E+03  0.49767830143E+03  0.91720139290E+02 0.  0.
         13    1    3    3    0    0 -0.29572937376E+02 -0.28980607791E+02  0.30198541777E+01  0.41515705127E+02  0.00000000000E+00 0. -1.
        -14    1    3    3    0    0 -0.16121880686E+02 -0.18691253492E+03 -0.10010030181E+03  0.21264120290E+03  0.00000000000E+00 0.  1.
        -13    1    4    4    0    0  0.55466621747E+02  0.15221561961E+03 -0.21707373165E+03  0.27086370365E+03  0.00000000000E+00 0. -1.
         13    1    4    4    0    0 -0.20967323801E+02  0.85538328885E+02 -0.20901776813E+03  0.22681459778E+03  0.00000000000E+00 0.  1.
         21    1    1    2  502  501  0.11195520116E+02 -0.21860805781E+02  0.41906799732E+01  0.24915784128E+02  0.00000000000E+00 0. -1.
<scales pt_clust_5="13000.00000" pt_clust_6="13000.00000" pt_clust_7="13000.00000" pt_clust_8="13000.00000" pt_clust_9="24.56083"></scales>
<clustering>
<clus scale="   24.561">  1  9  2 -1</clus>
<clus scale="   80.457">  5  6 -1 -1</clus>
<clus scale="   91.720">  7  8 -1 -1</clus>
<clus scale="  247.461">  1  5  2 -1</clus>
<clus scale="  251.349">  2  5  1 -1</clus>
</clustering>
</event>
<event>
 9    1  0.2802611E-005  0.9359230E+02  0.7546771E-02  0.1301302E+00
          1   -1    0    0  502    0  0.00000000000E+00  0.00000000000E+00  0.54189079169E+03  0.54189079169E+03  0.00000000000E+00 0. -1.
         -2   -1    0    0    0  501 -0.00000000000E+00 -0.00000000000E+00 -0.35116121171E+02  0.35116121171E+02  0.00000000000E+00 0.  1.
         23    2    1    2    0    0 -0.10714378426E+02 -0.22519729593E+02  0.11383809241E+03  0.14821260546E+03  0.91574718178E+02 0.  0.
        -24    2    1    2    0    0 -0.15077304492E+02  0.15113149042E+02  0.39332861515E+03  0.40195735459E+03  0.80041133359E+02 0.  0.
         13    1    4    4    0    0 -0.45367404282E+02  0.76488355538E+01  0.15774993037E+03  0.16432208186E+03  0.00000000000E+00 0. -1.
        -14    1    4    4    0    0  0.30290099789E+02  0.74643134880E+01  0.23557868478E+03  0.23763527273E+03  0.00000000000E+00 0.  1.
        -13    1    3    3    0    0 -0.49770276910E+02 -0.33346002693E+01  0.73832702526E+02  0.89103692319E+02  0.00000000000E+00 0. -1.
         13    1    3    3    0    0  0.39055898483E+02 -0.19185129324E+02  0.40005389880E+02  0.59108913143E+02  0.00000000000E+00 0.  1.
         21    1    1    2  502  501  0.25791682919E+02  0.74065805516E+01 -0.39203703085E+00  0.26836952813E+02  0.00000000000E+00 0.  1.
<scales pt_clust_5="13000.00000" pt_clust_6="13000.00000" pt_clust_7="13000.00000" pt_clust_8="13000.00000" pt_clust_9="26.83409"></scales>
<clustering>
<clus scale="   26.834">  2  9  1 -1</clus>
<clus scale="   80.041">  5  6 -1 -1</clus>
<clus scale="   82.342">  1  5  2 -1</clus>
<clus scale="   91.575">  7  8 -1 -1</clus>
<clus scale="   82.342">  1  5  2 -1</clus>
</clustering>
</event>
<event>
 9    1  0.2802611E-005  0.1152679E+03  0.7546771E-02  0.1257202E+00
          1   -1    0    0  502    0  0.00000000000E+00  0.00000000000E+00  0.89242935573E+03  0.89242935573E+03  0.00000000000E+00 0. -1.
         -2   -1    0    0    0  501 -0.00000000000E+00 -0.00000000000E+00 -0.27848407655E+02  0.27848407655E+02  0.00000000000E+00 0.  1.
         23    2    1    2    0    0 -0.69313601702E+02 -0.33355275235E+02  0.26826645020E+03  0.29377559019E+03  0.91761971000E+02 0.  0.
        -24    2    1    2    0    0  0.68405241591E+02  0.53831770334E+01  0.58888388013E+03  0.59754569765E+03  0.74621584269E+02 0.  0.
         11    1    4    4    0    0  0.16632491461E+02 -0.22305176014E+02  0.69633102566E+02  0.74986196211E+02  0.00000000000E+00 0. -1.
        -12    1    4    4    0    0  0.51772750130E+02  0.27688353047E+02  0.51925077756E+03  0.52255950144E+03  0.00000000000E+00 0.  1.
        -13    1    3    3    0    0  0.23617510092E+01  0.23248720897E+02  0.26491179550E+02  0.35325111254E+02  0.00000000000E+00 0.  1.
         13    1    3    3    0    0 -0.71675352711E+02 -0.56603996132E+02  0.24177527065E+03  0.25845047894E+03  0.00000000000E+00 0. -1.
         21    1    1    2  502  501  0.90836011046E+00  0.27972098202E+02  0.74306177541E+01  0.28956475547E+02  0.00000000000E+00 0. -1.
<scales pt_clust_5="13000.00000" pt_clust_6="13000.00000" pt_clust_7="13000.00000" pt_clust_8="13000.00000" pt_clust_9="27.98684"></scales>
<clustering>
<clus scale="   27.987">  2  9  1 -1</clus>
<clus scale="   74.622">  5  6 -1 -1</clus>
<clus scale="   91.762">  7  8 -1 -1</clus>
<clus scale="  102.151">  1  5  2 -1</clus>
<clus scale="  102.151">  1  5  2 -1</clus>
</clustering>
</event>
<event>
 9    1  0.2802611E-005  0.4617986E+03  0.7546771E-02  0.1050504E+00
          1   -1    0    0  502    0  0.00000000000E+00  0.00000000000E+00  0.12109298346E+04  0.12109298346E+04  0.00000000000E+00 0. -1.
         -2   -1    0    0    0  501 -0.00000000000E+00 -0.00000000000E+00 -0.50642874726E+03  0.50642874726E+03  0.00000000000E+00 0.  1.
        -24    2    1    2    0    0 -0.13910658752E+03  0.14125709415E+03 -0.20954641745E+03  0.29974907621E+03  0.81459181706E+02 0.  0.
         23    2    1    2    0    0  0.48341285293E+03 -0.94385876756E+02  0.94427490506E+03  0.10688152810E+04  0.90079567423E+02 0.  0.
         13    1    3    3    0    0 -0.44114146637E+02  0.26126228673E+01 -0.27812611650E+02  0.52215180728E+02  0.00000000000E+00 0. -1.
        -14    1    3    3    0    0 -0.94992440886E+02  0.13864447129E+03 -0.18173380580E+03  0.24753389548E+03  0.00000000000E+00 0.  1.
        -13    1    4    4    0    0  0.32846528140E+02 -0.83074528202E+01  0.27324508245E+02  0.43526278661E+02  0.00000000000E+00 0.  1.
         13    1    4    4    0    0  0.45056632479E+03 -0.86078423936E+02  0.91695039682E+03  0.10252890023E+04  0.00000000000E+00 0. -1.
         21    1    1    2  502  501 -0.34430626541E+03 -0.46871217397E+02 -0.30227400265E+02  0.34879422464E+03  0.00000000000E+00 0.  1.
<scales pt_clust_5="13000.00000" pt_clust_6="13000.00000" pt_clust_7="13000.00000" pt_clust_8="13000.00000" pt_clust_9="452.92778"></scales>
<clustering>
<clus scale="   81.459">  5  6 -1 -1</clus>
<clus scale="   90.080">  7  8 -1 -1</clus>
<clus scale="  214.336">  2  5  1 -1</clus>
<clus scale="  452.928">  2  9  1 -1</clus>
<clus scale="  461.799">  1  5  2 -1</clus>
</clustering>
</event>
<event>
 9    1  0.2802611E-005  0.9242226E+02  0.7546771E-02  0.1299820E+00
         -2   -1    0    0    0  501 -0.00000000000E+00  0.00000000000E+00  0.51819453223E+02  0.51819453223E+02  0.00000000000E+00 0.  1.
          1   -1    0    0  502    0  0.00000000000E+00 -0.00000000000E+00 -0.51716481957E+03  0.51716481957E+03  0.00000000000E+00 0. -1.
        -24    2    1    2    0    0  0.33349794160E+00  0.45363130790E+02 -0.52244364341E+02  0.10925040793E+03  0.84547342778E+02 0.  0.
         23    2    1    2    0    0 -0.36157914080E+01 -0.20029090404E+02 -0.42265670962E+03  0.43245936027E+03  0.89264582532E+02 0.  0.
         11    1    3    3    0    0 -0.34527654539E+02  0.36455331135E+02 -0.53336610105E+02  0.73252604552E+02  0.00000000000E+00 0. -1.
        -12    1    3    3    0    0  0.34861152481E+02  0.89077996552E+01  0.10922457642E+01  0.35997803375E+02  0.00000000000E+00 0.  1.
        -11    1    4    4    0    0 -0.35608655898E+02  0.18310242321E+02 -0.14911523377E+03  0.15439752036E+03  0.00000000000E+00 0.  1.
         11    1    4    4    0    0  0.31992864490E+02 -0.38339332725E+02 -0.27354147584E+03  0.27806183992E+03  0.00000000000E+00 0. -1.
         21    1    1    2  502  501  0.32822934664E+01 -0.25334040386E+02  0.95557076124E+01  0.27274504591E+02  0.00000000000E+00 0. -1.
<scales pt_clust_5="13000.00000" pt_clust_6="13000.00000" pt_clust_7="13000.00000" pt_clust_8="13000.00000" pt_clust_9="25.54578"></scales>
<clustering>
<clus scale="   25.546">  1  9  2 -1</clus>
<clus scale="   84.547">  5  6 -1 -1</clus>
<clus scale="   87.875">  1  5  2 -1</clus>
<clus scale="   89.265">  7  8 -1 -1</clus>
<clus scale="   92.422">  2  5  1 -1</clus>
</clustering>
</event>
<event>
 9    1  0.2893446E-005  0.1218949E+03  0.7546771E-02  0.1259495E+00
         -2   -1    0    0    0  501 -0.00000000000E+00  0.00000000000E+00  0.33445514623E+03  0.33445514623E+03  0.00000000000E+00 0.  1.
          1   -1    0    0  502    0  0.00000000000E+00 -0.00000000000E+00 -0.18174318657E+03  0.18174318657E+03  0.00000000000E+00 0. -1.
         23    2    1    2    0    0  0.36486831975E+02  0.19214966345E+02  0.27631947349E+03  0.30453260096E+03  0.12119055153E+03 0.  0.
        -24    2    1    2    0    0 -0.47053807723E+01 -0.11439619744E+02 -0.14897117802E+03  0.17026727636E+03  0.81520108013E+02 0.  0.
         13    1    4    4    0    0 -0.14786821096E+02 -0.32463076075E+02 -0.14128288742E+03  0.14571669658E+03  0.00000000000E+00 0. -1.
        -14    1    4    4    0    0  0.10081440324E+02  0.21023456330E+02 -0.76882906058E+01  0.24550579780E+02  0.00000000000E+00 0.  1.
        -11    1    3    3    0    0  0.30742455321E+02  0.64086473591E+02  0.22578108986E+03  0.23670503838E+03  0.00000000000E+00 0.  1.
         11    1    3    3    0    0  0.57443766539E+01 -0.44871507246E+02  0.50538383629E+02  0.67827562580E+02  0.00000000000E+00 0. -1.
         21    1    1    2  502  501 -0.31781451203E+02 -0.77753466006E+01  0.25363664188E+02  0.41398455483E+02  0.00000000000E+00 0.  1.
<scales pt_clust_5="13000.00000" pt_clust_6="13000.00000" pt_clust_7="13000.00000" pt_clust_8="13000.00000" pt_clust_9="32.71875"></scales>
<clustering>
<clus scale="   32.719">  1  9  2 -1</clus>
<clus scale="   81.520">  5  6 -1 -1</clus>
<clus scale="   82.564">  2  5  1 -1</clus>
<clus scale="  121.191">  7  8 -1 -1</clus>
<clus scale="   82.564">  2  5  1 -1</clus>
</clustering>
</event>
<event>
 9    1  0.2802611E-005  0.1584409E+03  0.7546771E-02  0.1192789E+00
          3   -1    0    0  502    0  0.00000000000E+00  0.00000000000E+00  0.48615989511E+02  0.48615989511E+02  0.00000000000E+00 0. -1.
         -4   -1    0    0    0  501 -0.00000000000E+00 -0.00000000000E+00 -0.76235757736E+03  0.76235757736E+03  0.00000000000E+00 0.  1.
         23    2    1    2    0    0 -0.21085571740E+02 -0.10824635613E+03 -0.34710599956E+03  0.37606578220E+03  0.93707111046E+02 0.  0.
        -24    2    1    2    0    0  0.36266802478E+02  0.13213311045E+03 -0.15598776174E+03  0.22236707415E+03  0.79627219044E+02 0.  0.
         13    1    4    4    0    0 -0.31270496937E+00  0.34589939066E+02  0.23861856321E+00  0.34592175528E+02  0.00000000000E+00 0. -1.
        -14    1    4    4    0    0  0.36579507447E+02  0.97543171387E+02 -0.15622638030E+03  0.18777489862E+03  0.00000000000E+00 0.  1.
        -13    1    3    3    0    0  0.20755490454E+02 -0.96048021084E+02 -0.20333961631E+03  0.22583846505E+03  0.00000000000E+00 0.  1.
         13    1    3    3    0    0 -0.41841062195E+02 -0.12198335048E+02 -0.14376638325E+03  0.15022731715E+03  0.00000000000E+00 0. -1.
         21    1    1    2  502  501 -0.15181230737E+02 -0.23886754321E+02 -0.21064782655E+03  0.21254071052E+03  0.00000000000E+00 0.  1.
<scales pt_clust_5="13000.00000" pt_clust_6="13000.00000" pt_clust_7="13000.00000" pt_clust_8="13000.00000" pt_clust_9="28.30277"></scales>
<clustering>
<clus scale="   28.303">  2  9  1 -1</clus>
<clus scale="   79.627">  5  6 -1 -1</clus>
<clus scale="   93.707">  7  8 -1 -1</clus>
<clus scale="  150.542">  1  5  2 -1</clus>
<clus scale="  150.542">  1  5  2 -1</clus>
</clustering>
</event>
<event>
 9    1  0.2802611E-005  0.1067513E+03  0.7546771E-02  0.1271939E+00
         -4   -1    0    0    0  501 -0.00000000000E+00  0.00000000000E+00  0.36639327714E+02  0.36639327714E+02  0.00000000000E+00 0.  1.
          3   -1    0    0  502    0  0.00000000000E+00 -0.00000000000E+00 -0.41683427006E+03  0.41683427006E+03  0.00000000000E+00 0. -1.
         23    2    1    2    0    0  0.64881623408E+02  0.18378572903E+02 -0.15354660366E+03  0.18989880874E+03  0.89093215604E+02 0.  0.
        -24    2    1    2    0    0 -0.37754519036E+02 -0.43130131333E+02 -0.18365890935E+03  0.20703621396E+03  0.76470824326E+02 0.  0.
         11    1    4    4    0    0  0.21930124893E+02 -0.24111311258E+02 -0.54843042814E+02  0.63796904733E+02  0.00000000000E+00 0. -1.
        -12    1    4    4    0    0 -0.59684643930E+02 -0.19018820075E+02 -0.12881586653E+03  0.14323930923E+03  0.00000000000E+00 0.  1.
        -11    1    3    3    0    0  0.18082615033E+02 -0.16669823250E+02 -0.11999153730E+03  0.12248605226E+03  0.00000000000E+00 0. -1.
         11    1    3    3    0    0  0.46799008375E+02  0.35048396153E+02 -0.33555066354E+02  0.67412756477E+02  0.00000000000E+00 0.  1.
         21    1    1    2  502  501 -0.27127104372E+02  0.24751558430E+02 -0.42989429339E+02  0.56538575072E+02  0.00000000000E+00 0. -1.
<scales pt_clust_5="13000.00000" pt_clust_6="13000.00000" pt_clust_7="13000.00000" pt_clust_8="13000.00000" pt_clust_9="36.72219"></scales>
<clustering>
<clus scale="   36.722">  1  9  2 -1</clus>
<clus scale="   76.471">  5  6 -1 -1</clus>
<clus scale="   89.093">  7  8 -1 -1</clus>
<clus scale="   96.468">  2  5  1 -1</clus>
<clus scale="   96.468">  2  5  1 -1</clus>
</clustering>
</event>
<event>
 9    1  0.2802611E-005  0.1394251E+03  0.7546771E-02  0.1215843E+00
          1   -1    0    0  502    0  0.00000000000E+00  0.00000000000E+00  0.13834802703E+03  0.13834802703E+03  0.00000000000E+00 0. -1.
         -2   -1    0    0    0  501 -0.00000000000E+00 -0.00000000000E+00 -0.66299719624E+03  0.66299719624E+03  0.00000000000E+00 0.  1.
        -24    2    1    2    0    0  0.75549154442E+02 -0.27034302487E+01 -0.36277974505E+03  0.37979997822E+03  0.83209955938E+02 0.  0.
         23    2    1    2    0    0 -0.10662095854E+03 -0.22217158307E+02  0.88963506458E+02  0.16756955363E+03  0.91123097510E+02 0.  0.
         11    1    3    3    0    0  0.84190855903E+01 -0.36356747834E+02 -0.12291978393E+03  0.12845998364E+03  0.00000000000E+00 0. -1.
        -12    1    3    3    0    0  0.67130068852E+02  0.33653317585E+02 -0.23985996112E+03  0.25133999458E+03  0.00000000000E+00 0.  1.
        -11    1    4    4    0    0 -0.19575224827E+02 -0.47394321021E+02  0.28970423340E+02  0.58895640930E+02  0.00000000000E+00 0.  1.
         11    1    4    4    0    0 -0.87045733713E+02  0.25177162714E+02  0.59993083119E+02  0.10867391270E+03  0.00000000000E+00 0. -1.
         21    1    1    2  502  501  0.31071804098E+02  0.24920588555E+02 -0.25083293062E+03  0.25397569141E+03  0.00000000000E+00 0.  1.
<scales pt_clust_5="13000.00000" pt_clust_6="13000.00000" pt_clust_7="13000.00000" pt_clust_8="13000.00000" pt_clust_9="39.83080"></scales>
<clustering>
<clus scale="   39.831">  2  9  1 -1</clus>
<clus scale="   83.210">  5  6 -1 -1</clus>
<clus scale="   91.123">  7  8 -1 -1</clus>
<clus scale="  134.387">  2  5  1 -1</clus>
<clus scale="  139.425">  1  5  2 -1</clus>
</clustering>
</event>
<event>
 9    1  0.2802611E-005  0.2024003E+03  0.7546771E-02  0.1148709E+00
          1   -1    0    0  502    0  0.00000000000E+00  0.00000000000E+00  0.69869669353E+03  0.69869669353E+03  0.00000000000E+00 0. -1.
         -2   -1    0    0    0  501 -0.00000000000E+00 -0.00000000000E+00 -0.83430649054E+02  0.83430649054E+02  0.00000000000E+00 0.  1.
         23    2    1    2    0    0 -0.13114540056E+03 -0.10973709969E+03  0.16072586166E+03  0.25129519689E+03  0.89861706176E+02 0.  0.
        -24    2    1    2    0    0  0.12173453975E+03  0.16401448674E+03  0.35566745352E+03  0.41764903898E+03  0.78812005698E+02 0.  0.
         11    1    4    4    0    0  0.18861046591E+02  0.86887571179E+02  0.16939555970E+03  0.19131138165E+03  0.00000000000E+00 0. -1.
        -12    1    4    4    0    0  0.10287349316E+03  0.77126915560E+02  0.18627189382E+03  0.22633765733E+03  0.00000000000E+00 0.  1.
        -11    1    3    3    0    0 -0.65780518191E+02 -0.99936560619E+02  0.13495543544E+03  0.18035343711E+03  0.00000000000E+00 0.  1.
         11    1    3    3    0    0 -0.65364882371E+02 -0.98005390695E+01  0.25770426222E+02  0.70941759783E+02  0.00000000000E+00 0. -1.
         21    1    1    2  502  501  0.94108608121E+01 -0.54277387051E+02  0.98872729297E+02  0.11318310671E+03  0.00000000000E+00 0.  1.
<scales pt_clust_5="13000.00000" pt_clust_6="13000.00000" pt_clust_7="13000.00000" pt_clust_8="13000.00000" pt_clust_9="55.08719"></scales>
<clustering>
<clus scale="   55.087">  1  9  2 -1</clus>
<clus scale="   78.812">  5  6 -1 -1</clus>
<clus scale="   89.862">  7  8 -1 -1</clus>
<clus scale="  197.742">  1  5  2 -1</clus>
<clus scale="   55.087">  1  5  2 -1</clus>
</clustering>
</event>
<event>
 9    1  0.2802611E-005  0.1764637E+03  0.7546771E-02  0.1172658E+00
          1   -1    0    0  502    0  0.00000000000E+00  0.00000000000E+00  0.10247346359E+04  0.10247346359E+04  0.00000000000E+00 0. -1.
         -2   -1    0    0    0  501 -0.00000000000E+00 -0.00000000000E+00 -0.11169271216E+03  0.11169271216E+03  0.00000000000E+00 0.  1.
        -24    2    1    2    0    0  0.37827707961E+02 -0.57383932416E+02  0.81506816423E+01  0.10588923800E+03  0.80138916408E+02 0.  0.
         23    2    1    2    0    0 -0.87321248083E+02  0.14315546037E+03  0.91151051095E+03  0.93129003578E+03  0.91275588035E+02 0.  0.
         13    1    3    3    0    0  0.35499684193E+02  0.11484052659E+01  0.26710248764E+02  0.44440789839E+02  0.00000000000E+00 0. -1.
        -14    1    3    3    0    0  0.23280237680E+01 -0.58532337682E+02 -0.18559567122E+02  0.61448448157E+02  0.00000000000E+00 0.  1.
        -13    1    4    4    0    0 -0.20548990057E+02  0.11045084982E+03  0.63987158925E+03  0.64965937378E+03  0.00000000000E+00 0. -1.
         13    1    4    4    0    0 -0.66772258026E+02  0.32704610543E+02  0.27163892171E+03  0.28163066200E+03  0.00000000000E+00 0.  1.
         21    1    1    2  502  501  0.49493540122E+02 -0.85771527950E+02 -0.66192688958E+01  0.99248074245E+02  0.00000000000E+00 0.  1.
<scales pt_clust_5="13000.00000" pt_clust_6="13000.00000" pt_clust_7="13000.00000" pt_clust_8="13000.00000" pt_clust_9="99.02709"></scales>
<clustering>
<clus scale="   80.139">  5  6 -1 -1</clus>
<clus scale="   91.276">  7  8 -1 -1</clus>
<clus scale="   99.027">  2  9  1 -1</clus>
<clus scale="  170.969">  2  5  1 -1</clus>
<clus scale="  176.464">  1  5  2 -1</clus>
</clustering>
</event>
<event>
 9    1  0.2802611E-005  0.1155538E+03  0.7546771E-02  0.1262302E+00
          1   -1    0    0  502    0  0.00000000000E+00  0.00000000000E+00  0.14599728010E+03  0.14599728010E+03  0.00000000000E+00 0. -1.
         -2   -1    0    0    0  501 -0.00000000000E+00 -0.00000000000E+00 -0.16454518513E+03  0.16454518513E+03  0.00000000000E+00 0.  1.
         23    2    1    2    0    0 -0.60945855232E+01 -0.15429263464E+02 -0.59700738696E+02  0.12521718189E+03  0.10881157244E+03 0.  0.
        -24    2    1    2    0    0 -0.33753440644E+02  0.31929376823E+02  0.82218995685E+02  0.12577237750E+03  0.83065924613E+02 0.  0.
         13    1    4    4    0    0 -0.40456610792E+02  0.52266844508E+02  0.80689511068E+02  0.10430415902E+03  0.00000000000E+00 0. -1.
        -14    1    4    4    0    0  0.67031701484E+01 -0.20337467685E+02  0.15294846173E+01  0.21468218488E+02  0.00000000000E+00 0.  1.
        -13    1    3    3    0    0  0.45435615987E+02  0.86641342129E+01 -0.53867678707E+01  0.46566937733E+02  0.00000000000E+00 0. -1.
         13    1    3    3    0    0 -0.51530201510E+02 -0.24093397677E+02 -0.54313970826E+02  0.78650244158E+02  0.00000000000E+00 0.  1.
         21    1    1    2  502  501  0.39848026167E+02 -0.16500113359E+02 -0.41066162021E+02  0.59552905835E+02  0.00000000000E+00 0. -1.
<scales pt_clust_5="13000.00000" pt_clust_6="13000.00000" pt_clust_7="13000.00000" pt_clust_8="13000.00000" pt_clust_9="43.12910"></scales>
<clustering>
<clus scale="   43.129">  2  9  1 -1</clus>
<clus scale="   83.066">  5  6 -1 -1</clus>
<clus scale="   91.721">  1  5  2 -1</clus>
<clus scale="  108.812">  7  8 -1 -1</clus>
<clus scale="   91.721">  1  5  2 -1</clus>
</clustering>
</event>
<event>
 9    1  0.2802611E-005  0.1430355E+03  0.7546771E-02  0.1224570E+00
         -4   -1    0    0    0  501 -0.00000000000E+00  0.00000000000E+00  0.24215594256E+03  0.24215594256E+03  0.00000000000E+00 0.  1.
          3   -1    0    0  502    0  0.00000000000E+00 -0.00000000000E+00 -0.10723177280E+03  0.10723177280E+03  0.00000000000E+00 0. -1.
        -24    2    1    2    0    0  0.36759709344E+02 -0.37438564745E+02  0.12981396396E+03  0.16144033655E+03  0.80364137921E+02 0.  0.
         23    2    1    2    0    0 -0.34066376147E+02  0.62925218718E+02 -0.25366995903E+02  0.14812673846E+03  0.12719255100E+03 0.  0.
         11    1    3    3    0    0  0.56251904592E+02 -0.47034480665E+01  0.63512917099E+02  0.84972288614E+02  0.00000000000E+00 0. -1.
        -12    1    3    3    0    0 -0.19492195248E+02 -0.32735116679E+02  0.66301046863E+02  0.76468047934E+02  0.00000000000E+00 0.  1.
        -11    1    4    4    0    0  0.23458444147E+02  0.81374740823E+02 -0.22600954732E+02  0.87652439787E+02  0.00000000000E+00 0. -1.
         11    1    4    4    0    0 -0.57524820295E+02 -0.18449522105E+02 -0.27660411707E+01  0.60474298670E+02  0.00000000000E+00 0.  1.
         21    1    1    2  502  501 -0.26933331964E+01 -0.25486653972E+02  0.30477201704E+02  0.39820640353E+02  0.00000000000E+00 0.  1.
<scales pt_clust_5="13000.00000" pt_clust_6="13000.00000" pt_clust_7="13000.00000" pt_clust_8="13000.00000" pt_clust_9="25.62857"></scales>
<clustering>
<clus scale="   25.629">  1  9  2 -1</clus>
<clus scale="   80.364">  5  6 -1 -1</clus>
<clus scale="  103.632">  1  5  2 -1</clus>
<clus scale="  127.193">  7  8 -1 -1</clus>
<clus scale="  143.035">  2  5  1 -1</clus>
</clustering>
</event>
<event>
 9    1  0.2802611E-005  0.1239577E+03  0.7546771E-02  0.1241514E+00
         -2   -1    0    0    0  501 -0.00000000000E+00  0.00000000000E+00  0.78320605375E+02  0.78320605375E+02  0.00000000000E+00 0.  1.
          1   -1    0    0  502    0  0.00000000000E+00 -0.00000000000E+00 -0.37565859288E+03  0.37565859288E+03  0.00000000000E+00 0. -1.
        -24    2    1    2    0    0  0.78950185126E+02  0.39242864030E+01 -0.14792811369E+03  0.18658997249E+03  0.81759153977E+02 0.  0.
         23    2    1    2    0    0 -0.71765346724E+02 -0.29213063694E+02 -0.18520587862E+03  0.22297641094E+03  0.97023678974E+02 0.  0.
         13    1    3    3    0    0  0.28190323869E+02 -0.21986712552E+02 -0.96532284330E+01  0.37030996583E+02  0.00000000000E+00 0. -1.
        -14    1    3    3    0    0  0.50759861256E+02  0.25910998955E+02 -0.13827488526E+03  0.14955897591E+03  0.00000000000E+00 0.  1.
        -13    1    4    4    0    0  0.12217699015E+02  0.20456238341E+02 -0.19997893058E+02  0.31107002155E+02  0.00000000000E+00 0.  1.
         13    1    4    4    0    0 -0.83983045739E+02 -0.49669302035E+02 -0.16520798556E+03  0.19186940879E+03  0.00000000000E+00 0. -1.
         21    1    1    2  502  501 -0.71848384012E+01  0.25288777291E+02  0.35796004808E+02  0.44412814816E+02  0.00000000000E+00 0.  1.
<scales pt_clust_5="13000.00000" pt_clust_6="13000.00000" pt_clust_7="13000.00000" pt_clust_8="13000.00000" pt_clust_9="26.28962"></scales>
<clustering>
<clus scale="   26.290">  1  9  2 -1</clus>
<clus scale="   81.759">  5  6 -1 -1</clus>
<clus scale="   97.024">  7  8 -1 -1</clus>
<clus scale="  112.412">  1  5  2 -1</clus>
<clus scale="  123.958">  2  5  1 -1</clus>
</clustering>
</event>
<event>
 9    1  0.2802611E-005  0.9383474E+02  0.7546771E-02  0.1294488E+00
          1   -1    0    0  502    0  0.00000000000E+00  0.00000000000E+00  0.54403455501E+03  0.54403455501E+03  0.00000000000E+00 0. -1.
         -2   -1    0    0    0  501 -0.00000000000E+00 -0.00000000000E+00 -0.89178185633E+02  0.89178185633E+02  0.00000000000E+00 0.  1.
         23    2    1    2    0    0 -0.33786979342E+02  0.13523388329E+02  0.99818325721E+02  0.13789756060E+03  0.87906752102E+02 0.  0.
        -24    2    1    2    0    0 -0.11904875208E+02  0.43199834685E+02  0.39829795327E+03  0.41059983679E+03  0.89123591850E+02 0.  0.
         11    1    4    4    0    0  0.23577215021E+02 -0.14771359842E+02  0.69731427873E+02  0.75076961665E+02  0.00000000000E+00 0. -1.
        -12    1    4    4    0    0 -0.35482090229E+02  0.57971194527E+02  0.32856652540E+03  0.33552287513E+03  0.00000000000E+00 0.  1.
        -13    1    3    3    0    0 -0.56712498233E+02 -0.14658994374E+02  0.66273181248E+02  0.88449579562E+02  0.00000000000E+00 0. -1.
         13    1    3    3    0    0  0.22925518891E+02  0.28182382702E+02  0.33545144473E+02  0.49447981039E+02  0.00000000000E+00 0.  1.
         21    1    1    2  502  501  0.45691854550E+02 -0.56723223013E+02 -0.43259909617E+02  0.84715343246E+02  0.00000000000E+00 0.  1.
<scales pt_clust_5="13000.00000" pt_clust_6="13000.00000" pt_clust_7="13000.00000" pt_clust_8="13000.00000" pt_clust_9="72.83728"></scales>
<clustering>
<clus scale="   72.837">  2  9  1 -1</clus>
<clus scale="   87.907">  7  8 -1 -1</clus>
<clus scale="   89.124">  5  6 -1 -1</clus>
<clus scale="   92.680">  2  7  1 -1</clus>
<clus scale="   93.835">  1  5  2 -1</clus>
</clustering>
</event>
<event>
 9    1  0.2802611E-005  0.1487447E+03  0.7546771E-02  0.1203905E+00
         -2   -1    0    0    0  501 -0.00000000000E+00  0.00000000000E+00  0.98495186445E+02  0.98495186445E+02  0.00000000000E+00 0.  1.
          1   -1    0    0  502    0  0.00000000000E+00 -0.00000000000E+00 -0.33930781581E+03  0.33930781581E+03  0.00000000000E+00 0. -1.
        -24    2    1    2    0    0 -0.44991820733E+02 -0.91166913179E+02 -0.39655123599E+02  0.13585043404E+03  0.80914409164E+02 0.  0.
         23    2    1    2    0    0  0.37638184741E+02  0.12075386279E+03 -0.21735923103E+03  0.26742780244E+03  0.90964091107E+02 0.  0.
         13    1    3    3    0    0  0.16857818851E+02 -0.43889393329E+02 -0.33556426568E+02  0.57762433010E+02  0.00000000000E+00 0. -1.
        -14    1    3    3    0    0 -0.61849639584E+02 -0.47277519850E+02 -0.60986970310E+01  0.78088001032E+02  0.00000000000E+00 0.  1.
        -13    1    4    4    0    0 -0.25262417694E+02  0.11511859163E+02 -0.57461623567E+02  0.63816540428E+02  0.00000000000E+00 0.  1.
         13    1    4    4    0    0  0.62900602435E+02  0.10924200363E+03 -0.15989760747E+03  0.20361126201E+03  0.00000000000E+00 0. -1.
         21    1    1    2  502  501  0.73536359922E+01 -0.29586949615E+02  0.16201725271E+02  0.34524765772E+02  0.00000000000E+00 0.  1.
<scales pt_clust_5="13000.00000" pt_clust_6="13000.00000" pt_clust_7="13000.00000" pt_clust_8="13000.00000" pt_clust_9="30.48710"></scales>
<clustering>
<clus scale="   30.487">  1  9  2 -1</clus>
<clus scale="   80.914">  5  6 -1 -1</clus>
<clus scale="   90.964">  7  8 -1 -1</clus>
<clus scale="  142.820">  1  5  2 -1</clus>
<clus scale="  148.745">  2  5  1 -1</clus>
</clustering>
</event>
<event>
 9    1  0.2802611E-005  0.1201623E+03  0.7546771E-02  0.1244532E+00
         -4   -1    0    0    0  501 -0.00000000000E+00  0.00000000000E+00  0.19006503483E+03  0.19006503483E+03  0.00000000000E+00 0.  1.
          3   -1    0    0  502    0  0.00000000000E+00 -0.00000000000E+00 -0.10043616830E+03  0.10043616830E+03  0.00000000000E+00 0. -1.
        -24    2    1    2    0    0 -0.83866187703E+02 -0.30056415459E+02  0.28430098196E+02  0.12536270456E+03  0.83490189015E+02 0.  0.
         23    2    1    2    0    0  0.59552826842E+02  0.44990490114E+02  0.24660933692E+02  0.11877925502E+03  0.89048674263E+02 0.  0.
         13    1    3    3    0    0 -0.91987908825E+02 -0.25418054547E+02  0.14774807404E-02  0.95435071484E+02  0.00000000000E+00 0. -1.
        -14    1    3    3    0    0  0.81217211220E+01 -0.46383609115E+01  0.28428620715E+02  0.29927633079E+02  0.00000000000E+00 0.  1.
        -13    1    4    4    0    0  0.14263246112E+02 -0.25652052058E+02  0.18379965245E+02  0.34630782360E+02  0.00000000000E+00 0. -1.
         13    1    4    4    0    0  0.45289580730E+02  0.70642542172E+02  0.62809684469E+01  0.84148472665E+02  0.00000000000E+00 0.  1.
         21    1    1    2  502  501  0.24313360861E+02 -0.14934074656E+02  0.36537834640E+02  0.46359243548E+02  0.00000000000E+00 0. -1.
<scales pt_clust_5="13000.00000" pt_clust_6="13000.00000" pt_clust_7="13000.00000" pt_clust_8="13000.00000" pt_clust_9="28.53360"></scales>
<clustering>
<clus scale="   28.534">  1  9  2 -1</clus>
<clus scale="   83.490">  5  6 -1 -1</clus>
<clus scale="   89.049">  7  8 -1 -1</clus>
<clus scale="  116.103">  1  5  2 -1</clus>
<clus scale="  120.162">  2  5  1 -1</clus>
</clustering>
</event>
<event>
 9    1  0.2802611E-005  0.1012294E+03  0.7546771E-02  0.1279183E+00
         -2   -1    0    0    0  501 -0.00000000000E+00  0.00000000000E+00  0.21967473629E+03  0.21967473629E+03  0.00000000000E+00 0.  1.
          1   -1    0    0  502    0  0.00000000000E+00 -0.00000000000E+00 -0.14802459593E+03  0.14802459593E+03  0.00000000000E+00 0. -1.
        -24    2    1    2    0    0 -0.12438877427E+01 -0.41944680260E+02  0.17311213949E+03  0.19944910862E+03  0.89728650019E+02 0.  0.
         23    2    1    2    0    0  0.21171993134E+02  0.26220967107E+02 -0.10321962103E+03  0.14280511062E+03  0.92753528469E+02 0.  0.
         11    1    3    3    0    0 -0.30076736764E+02  0.15599032152E+02  0.48015952575E+02  0.58766245415E+02  0.00000000000E+00 0. -1.
        -12    1    3    3    0    0  0.28832849021E+02 -0.57543712413E+02  0.12509618691E+03  0.14068286321E+03  0.00000000000E+00 0.  1.
        -13    1    4    4    0    0  0.37213098974E+02 -0.22622014540E+02 -0.67030558608E+02  0.79935386810E+02  0.00000000000E+00 0.  1.
         13    1    4    4    0    0 -0.16041105840E+02  0.48842981647E+02 -0.36189062423E+02  0.62869723808E+02  0.00000000000E+00 0. -1.
         21    1    1    2  502  501 -0.19928105391E+02  0.15723713153E+02  0.17576219053E+01  0.25445112980E+02  0.00000000000E+00 0. -1.
<scales pt_clust_5="13000.00000" pt_clust_6="13000.00000" pt_clust_7="13000.00000" pt_clust_8="13000.00000" pt_clust_9="25.38434"></scales>
<clustering>
<clus scale="   25.384">  2  9  1 -1</clus>
<clus scale="   89.729">  5  6 -1 -1</clus>
<clus scale="   92.754">  7  8 -1 -1</clus>
<clus scale="   98.465">  1  5  2 -1</clus>
<clus scale="   25.384">  2  5  1 -1</clus>
</clustering>
</event>
<event>
 9    1  0.2802611E-005  0.1271412E+03  0.7546771E-02  0.1234601E+00
          1   -1    0    0  502    0  0.00000000000E+00  0.00000000000E+00  0.28013546607E+03  0.28013546607E+03  0.00000000000E+00 0. -1.
         -2   -1    0    0    0  501 -0.00000000000E+00 -0.00000000000E+00 -0.21776082503E+03  0.21776082503E+03  0.00000000000E+00 0.  1.
        -24    2    1    2    0    0  0.53349069008E+02 -0.65409177023E+02 -0.14579620959E+03  0.18671321248E+03  0.80503449497E+02 0.  0.
         23    2    1    2    0    0 -0.49755053432E+02  0.12941687740E+03  0.16493742069E+03  0.23385887724E+03  0.90891849039E+02 0.  0.
         11    1    3    3    0    0  0.28083268662E+02  0.14299554033E+02 -0.27359394271E+02  0.41733483909E+02  0.00000000000E+00 0. -1.
        -12    1    3    3    0    0  0.25265800346E+02 -0.79708731056E+02 -0.11843681532E+03  0.14497972857E+03  0.00000000000E+00 0.  1.
        -11    1    4    4    0    0 -0.70605375203E+02  0.93713740246E+02  0.14875123490E+03  0.18945794784E+03  0.00000000000E+00 0.  1.
         11    1    4    4    0    0  0.20850321771E+02  0.35703137151E+02  0.16186185794E+02  0.44400929392E+02  0.00000000000E+00 0. -1.
         21    1    1    2  502  501 -0.35940155760E+01 -0.64007700374E+02  0.43233429935E+02  0.77324201380E+02  0.00000000000E+00 0.  1.
<scales pt_clust_5="13000.00000" pt_clust_6="13000.00000" pt_clust_7="13000.00000" pt_clust_8="13000.00000" pt_clust_9="64.10852"></scales>
<clustering>
<clus scale="   64.109">  1  9  2 -1</clus>
<clus scale="   80.503">  5  6 -1 -1</clus>
<clus scale="   90.892">  7  8 -1 -1</clus>
<clus scale="  119.935">  2  5  1 -1</clus>
<clus scale="   64.109">  1  5  2 -1</clus>
</clustering>
</event>
<event>
 9    1  0.2802611E-005  0.1094439E+03  0.7546771E-02  0.1265522E+00
          1   -1    0    0  502    0  0.00000000000E+00  0.00000000000E+00  0.44686530158E+02  0.44686530158E+02  0.00000000000E+00 0. -1.
         -2   -1    0    0    0  501 -0.00000000000E+00 -0.00000000000E+00 -0.67664248833E+03  0.67664248833E+03  0.00000000000E+00 0.  1.
        -24    2    1    2    0    0 -0.42957973354E+02  0.43594216099E+02 -0.49652335523E+03  0.50677937932E+03  0.80895326609E+02 0.  0.
         23    2    1    2    0    0  0.60498770270E+02 -0.15148917963E+02 -0.46543364601E+02  0.11958590274E+03  0.90801500134E+02 0.  0.
         11    1    3    3    0    0  0.92319660502E+01 -0.18251240011E+02 -0.10747551946E+03  0.10940440687E+03  0.00000000000E+00 0. -1.
        -12    1    3    3    0    0 -0.52189939405E+02  0.61845456110E+02 -0.38904783577E+03  0.39737497245E+03  0.00000000000E+00 0.  1.
        -13    1    4    4    0    0  0.29154346937E+01  0.32111796542E+02 -0.28272593552E+02  0.42883642369E+02  0.00000000000E+00 0.  1.
         13    1    4    4    0    0  0.57583335577E+02 -0.47260714505E+02 -0.18270771048E+02  0.76702260373E+02  0.00000000000E+00 0. -1.
         21    1    1    2  502  501 -0.17540796916E+02 -0.28445298135E+02 -0.88889238344E+02  0.94963736425E+02  0.00000000000E+00 0.  1.
<scales pt_clust_5="13000.00000" pt_clust_6="13000.00000" pt_clust_7="13000.00000" pt_clust_8="13000.00000" pt_clust_9="33.41878"></scales>
<clustering>
<clus scale="   33.419">  2  9  1 -1</clus>
<clus scale="   80.895">  5  6 -1 -1</clus>
<clus scale="   90.802">  7  8 -1 -1</clus>
<clus scale="  101.376">  2  5  1 -1</clus>
<clus scale="  109.444">  1  5  2 -1</clus>
</clustering>
</event>
<event>
 9    1  0.2802611E-005  0.1279612E+03  0.7546771E-02  0.1232510E+00
          1   -1    0    0  502    0  0.00000000000E+00  0.00000000000E+00  0.59630685840E+02  0.59630685840E+02  0.00000000000E+00 0. -1.
         -2   -1    0    0    0  501 -0.00000000000E+00 -0.00000000000E+00 -0.75841587303E+03  0.75841587303E+03  0.00000000000E+00 0.  1.
         23    2    1    2    0    0  0.31356688669E+02 -0.38467048646E+02 -0.46416992373E+03  0.47552789898E+03  0.90609651031E+02 0.  0.
        -24    2    1    2    0    0 -0.65067562312E+02  0.72337331676E+02 -0.28757954211E+02  0.13118751962E+03  0.83166508614E+02 0.  0.
         13    1    4    4    0    0 -0.32039662621E+02  0.78255442390E+02  0.35132151384E+01  0.84633308604E+02  0.00000000000E+00 0. -1.
        -14    1    4    4    0    0 -0.33027899691E+02 -0.59181107145E+01 -0.32271169349E+02  0.46554211019E+02  0.00000000000E+00 0.  1.
        -11    1    3    3    0    0 -0.96184673152E+01  0.21576679276E+02 -0.53636825192E+02  0.58608676992E+02  0.00000000000E+00 0. -1.
         11    1    3    3    0    0  0.40975155985E+02 -0.60043727921E+02 -0.41053309854E+03  0.41691922199E+03  0.00000000000E+00 0.  1.
         21    1    1    2  502  501  0.33710873643E+02 -0.33870283030E+02 -0.20585730925E+03  0.21133114027E+03  0.00000000000E+00 0.  1.
<scales pt_clust_5="13000.00000" pt_clust_6="13000.00000" pt_clust_7="13000.00000" pt_clust_8="13000.00000" pt_clust_9="47.78723"></scales>
<clustering>
<clus scale="   47.787">  2  9  1 -1</clus>
<clus scale="   83.167">  5  6 -1 -1</clus>
<clus scale="   90.610">  7  8 -1 -1</clus>
<clus scale="  122.803">  1  5  2 -1</clus>
<clus scale="  122.803">  1  5  2 -1</clus>
</clustering>
</event>
<event>
 9    1  0.2802611E-005  0.9018477E+02  0.7546771E-02  0.1304422E+00
          1   -1    0    0  502    0  0.00000000000E+00  0.00000000000E+00  0.54045084099E+03  0.54045084099E+03  0.00000000000E+00 0. -1.
         -2   -1    0    0    0  501 -0.00000000000E+00 -0.00000000000E+00 -0.10621017585E+03  0.10621017585E+03  0.00000000000E+00 0.  1.
        -24    2    1    2    0    0  0.52297684348E+02  0.14930302128E+02 -0.49255320052E+02  0.10759191234E+03  0.78689080171E+02 0.  0.
         23    2    1    2    0    0 -0.36089989748E+02 -0.55146287927E+00  0.50236463095E+03  0.51033817734E+03  0.82292413698E+02 0.  0.
         11    1    3    3    0    0  0.50190063940E+02  0.40842038109E+02 -0.18458304038E+02  0.67289104490E+02  0.00000000000E+00 0. -1.
        -12    1    3    3    0    0  0.21076204081E+01 -0.25911735981E+02 -0.30797016014E+02  0.40302807851E+02  0.00000000000E+00 0.  1.
        -11    1    4    4    0    0 -0.53584304253E+02 -0.25444806533E+02  0.31959506649E+03  0.32505341463E+03  0.00000000000E+00 0. -1.
         11    1    4    4    0    0  0.17494314505E+02  0.24893343653E+02  0.18276956447E+03  0.18528476271E+03  0.00000000000E+00 0.  1.
         21    1    1    2  502  501 -0.16207694600E+02 -0.14378839249E+02 -0.18868645758E+02  0.28730927154E+02  0.00000000000E+00 0.  1.
<scales pt_clust_5="13000.00000" pt_clust_6="13000.00000" pt_clust_7="13000.00000" pt_clust_8="13000.00000" pt_clust_9="21.66657"></scales>
<clustering>
<clus scale="   21.667">  2  9  1 -1</clus>
<clus scale="   78.689">  5  6 -1 -1</clus>
<clus scale="   82.292">  7  8 -1 -1</clus>
<clus scale="   86.909">  2  5  1 -1</clus>
<clus scale="   90.185">  1  5  2 -1</clus>
</clustering>
</event>
<event>
 9    1  0.2802611E-005  0.1015603E+03  0.7546771E-02  0.1282786E+00
          1   -1    0    0  502    0  0.00000000000E+00  0.00000000000E+00  0.19133477348E+03  0.19133477348E+03  0.00000000000E+00 0. -1.
         -2   -1    0    0    0  501 -0.00000000000E+00 -0.00000000000E+00 -0.10460934089E+03  0.10460934089E+03  0.00000000000E+00 0.  1.
        -24    2    1    2    0    0 -0.81668251907E-01 -0.40902444129E+01 -0.11025894724E+02  0.80267573840E+02  0.79401361995E+02 0.  0.
         23    2    1    2    0    0 -0.33490943684E+01  0.66660542960E+02  0.10279853967E+03  0.15280932535E+03  0.91259551471E+02 0.  0.
         11    1    3    3    0    0 -0.25423819538E+02  0.97443299676E+00  0.25172441502E+02  0.35790668207E+02  0.00000000000E+00 0. -1.
        -12    1    3    3    0    0  0.25342151287E+02 -0.50646774097E+01 -0.36198336226E+02  0.44476905632E+02  0.00000000000E+00 0.  1.
        -11    1    4    4    0    0  0.31468392582E+02  0.32966368996E+02  0.78953935495E+01  0.46253415612E+02  0.00000000000E+00 0.  1.
         11    1    4    4    0    0 -0.34817486950E+02  0.33694173964E+02  0.94903146116E+02  0.10655590973E+03  0.00000000000E+00 0. -1.
         21    1    1    2  502  501  0.34307626203E+01 -0.62570298548E+02 -0.50472123461E+01  0.62867215184E+02  0.00000000000E+00 0.  1.
<scales pt_clust_5="13000.00000" pt_clust_6="13000.00000" pt_clust_7="13000.00000" pt_clust_8="13000.00000" pt_clust_9="62.66428"></scales>
<clustering>
<clus scale="   62.664">  2  9  1 -1</clus>
<clus scale="   79.401">  5  6 -1 -1</clus>
<clus scale="   91.054">  2  5  1 -1</clus>
<clus scale="   91.260">  7  8 -1 -1</clus>
<clus scale="  101.560">  1  5  2 -1</clus>
</clustering>
</event>
<event>
 9    1  0.2802611E-005  0.1538679E+03  0.7546771E-02  0.1198974E+00
         -2   -1    0    0    0  501 -0.00000000000E+00  0.00000000000E+00  0.92302564596E+02  0.92302564596E+02  0.00000000000E+00 0.  1.
          1   -1    0    0  502    0  0.00000000000E+00 -0.00000000000E+00 -0.74182413565E+03  0.74182413565E+03  0.00000000000E+00 0. -1.
         23    2    1    2    0    0 -0.11958569110E+03  0.28265339293E+02 -0.78063735015E+01  0.15564192491E+03  0.95204004132E+02 0.  0.
        -24    2    1    2    0    0  0.10865339915E+03 -0.53154019561E+02 -0.63422589300E+03  0.65028812490E+03  0.77467742261E+02 0.  0.
         11    1    4    4    0    0  0.70656657525E+02  0.81603061413E+01 -0.33851416393E+03  0.34590575744E+03  0.00000000000E+00 0. -1.
        -12    1    4    4    0    0  0.37996741621E+02 -0.61314325702E+02 -0.29571172908E+03  0.30438236746E+03  0.00000000000E+00 0.  1.
        -13    1    3    3    0    0 -0.75107973361E+02  0.37550587058E+02  0.37060601253E+02  0.91786395594E+02  0.00000000000E+00 0.  1.
         13    1    3    3    0    0 -0.44477717738E+02 -0.92852477650E+01 -0.44866974754E+02  0.63855529321E+02  0.00000000000E+00 0. -1.
         21    1    1    2  502  501  0.10932291954E+02  0.24888680267E+02 -0.74893045481E+01  0.28196650429E+02  0.00000000000E+00 0. -1.
<scales pt_clust_5="13000.00000" pt_clust_6="13000.00000" pt_clust_7="13000.00000" pt_clust_8="13000.00000" pt_clust_9="27.18384"></scales>
<clustering>
<clus scale="   27.184">  1  9  2 -1</clus>
<clus scale="   77.468">  5  6 -1 -1</clus>
<clus scale="   95.204">  7  8 -1 -1</clus>
<clus scale="  143.572">  2  5  1 -1</clus>
<clus scale="  143.572">  2  5  1 -1</clus>
</clustering>
</event>
<event>
 9    1  0.2802611E-005  0.1262365E+03  0.7546771E-02  0.1236244E+00
          1   -1    0    0  502    0  0.00000000000E+00  0.00000000000E+00  0.13177995347E+03  0.13177995347E+03  0.00000000000E+00 0. -1.
         -2   -1    0    0    0  501 -0.00000000000E+00 -0.00000000000E+00 -0.30690657406E+03  0.30690657406E+03  0.00000000000E+00 0.  1.
         23    2    1    2    0    0 -0.18933581757E+02 -0.60307392037E+02 -0.14520797216E+03  0.18396238482E+03  0.93602039494E+02 0.  0.
        -24    2    1    2    0    0 -0.46919534383E+02  0.81489488145E+02  0.61890599705E+02  0.13977088202E+03  0.82846084666E+02 0.  0.
         11    1    4    4    0    0 -0.46770775346E+02  0.38750383060E+02  0.73629778962E+02  0.95448635212E+02  0.00000000000E+00 0. -1.
        -12    1    4    4    0    0 -0.14875903705E+00  0.42739105085E+02 -0.11739179257E+02  0.44322246810E+02  0.00000000000E+00 0.  1.
        -11    1    3    3    0    0  0.36928068382E+02 -0.13941876165E+02 -0.62413687760E+02  0.73847996352E+02  0.00000000000E+00 0.  1.
         11    1    3    3    0    0 -0.55861650139E+02 -0.46365515872E+02 -0.82794284397E+02  0.11011438847E+03  0.00000000000E+00 0. -1.
         21    1    1    2  502  501  0.65853116140E+02 -0.21182096108E+02 -0.91809248130E+02  0.11495326069E+03  0.00000000000E+00 0.  1.
<scales pt_clust_5="13000.00000" pt_clust_6="13000.00000" pt_clust_7="13000.00000" pt_clust_8="13000.00000" pt_clust_9="69.17596"></scales>
<clustering>
<clus scale="   69.176">  2  9  1 -1</clus>
<clus scale="   82.846">  5  6 -1 -1</clus>
<clus scale="   93.602">  7  8 -1 -1</clus>
<clus scale="  118.481">  1  5  2 -1</clus>
<clus scale="  118.481">  1  5  2 -1</clus>
</clustering>
</event>
<event>
 9    1  0.2802611E-005  0.1238116E+03  0.7546771E-02  0.1236999E+00
         -2   -1    0    0    0  501 -0.00000000000E+00  0.00000000000E+00  0.48324992011E+03  0.48324992011E+03  0.00000000000E+00 0.  1.
          1   -1    0    0  502    0  0.00000000000E+00 -0.00000000000E+00 -0.88558802950E+02  0.88558802950E+02  0.00000000000E+00 0. -1.
        -24    2    1    2    0    0  0.68791343045E+02  0.33006223624E+02  0.32818555281E+03  0.35078015640E+03  0.97566907168E+02 0.  0.
         23    2    1    2    0    0 -0.21898196019E+02 -0.77246075793E+02 -0.29818019374E+01  0.12624130047E+03  0.97372930466E+02 0.  0.
         11    1    3    3    0    0 -0.19643846888E+02  0.29239249328E+02  0.86648091206E+02  0.93534518396E+02  0.00000000000E+00 0. -1.
        -12    1    3    3    0    0  0.88435189933E+02  0.37669742956E+01  0.24153746161E+03  0.25724563801E+03  0.00000000000E+00 0.  1.
        -11    1    4    4    0    0 -0.46482419508E+02 -0.28664356800E+02  0.30274525639E+02  0.62440432227E+02  0.00000000000E+00 0.  1.
         11    1    4    4    0    0  0.24584223489E+02 -0.48581718993E+02 -0.33256327576E+02  0.63800868244E+02  0.00000000000E+00 0. -1.
         21    1    1    2  502  501 -0.46893147026E+02  0.44239852169E+02  0.69487366280E+02  0.94787266183E+02  0.00000000000E+00 0. -1.
<scales pt_clust_5="13000.00000" pt_clust_6="13000.00000" pt_clust_7="13000.00000" pt_clust_8="13000.00000" pt_clust_9="64.46807"></scales>
<clustering>
<clus scale="   64.468">  1  9  2 -1</clus>
<clus scale="   97.373">  7  8 -1 -1</clus>
<clus scale="   97.567">  5  6 -1 -1</clus>
<clus scale="  123.659">  2  7  1 -1</clus>
<clus scale="  123.659">  2  5  1 -1</clus>
</clustering>
</event>
<event>
 9    1  0.2802611E-005  0.1229238E+03  0.7546771E-02  0.1240279E+00
          1   -1    0    0  502    0  0.00000000000E+00  0.00000000000E+00  0.79587408146E+03  0.79587408146E+03  0.00000000000E+00 0. -1.
         -2   -1    0    0    0  501 -0.00000000000E+00 -0.00000000000E+00 -0.27661037929E+02  0.27661037929E+02  0.00000000000E+00 0.  1.
        -24    2    1    2    0    0 -0.63523603537E+02 -0.65036627399E+02  0.19425949980E+03  0.22938105122E+03  0.81325901712E+02 0.  0.
         23    2    1    2    0    0  0.72870153098E+02  0.31311634024E+02  0.43359441728E+03  0.44949786351E+03  0.88055283574E+02 0.  0.
         11    1    3    3    0    0  0.88071908282E+01 -0.27590850195E+02  0.15292874598E+02  0.32752002049E+02  0.00000000000E+00 0. -1.
        -12    1    3    3    0    0 -0.72330794365E+02 -0.37445777204E+02  0.17896662520E+03  0.19662904917E+03  0.00000000000E+00 0.  1.
        -13    1    4    4    0    0  0.21692025380E+02 -0.30951715569E+02  0.12935199424E+03  0.13476086626E+03  0.00000000000E+00 0.  1.
         13    1    4    4    0    0  0.51178127718E+02  0.62263349593E+02  0.30424242304E+03  0.31473699725E+03  0.00000000000E+00 0. -1.
         21    1    1    2  502  501 -0.93465495614E+01  0.33724993374E+02  0.14035912645E+03  0.14465620465E+03  0.00000000000E+00 0. -1.
<scales pt_clust_5="13000.00000" pt_clust_6="13000.00000" pt_clust_7="13000.00000" pt_clust_8="13000.00000" pt_clust_9="34.99619"></scales>
<clustering>
<clus scale="   34.996">  1  9  2 -1</clus>
<clus scale="   81.326">  5  6 -1 -1</clus>
<clus scale="   88.055">  7  8 -1 -1</clus>
<clus scale="  118.197">  2  5  1 -1</clus>
<clus scale="   34.996">  1  5  2 -1</clus>
</clustering>
</event>
<event>
 9    1  0.2802611E-005  0.1006900E+03  0.7546771E-02  0.1284314E+00
         -2   -1    0    0    0  501 -0.00000000000E+00  0.00000000000E+00  0.51256749108E+03  0.51256749108E+03  0.00000000000E+00 0.  1.
          1   -1    0    0  502    0  0.00000000000E+00 -0.00000000000E+00 -0.30957920612E+02  0.30957920612E+02  0.00000000000E+00 0. -1.
        -24    2    1    2    0    0  0.52933911426E+02 -0.80822319244E+01  0.31428102206E+03  0.32889102179E+03  0.80804838530E+02 0.  0.
         23    2    1    2    0    0 -0.11690531379E+02  0.73549721383E+01  0.10872572000E+03  0.14296963706E+03  0.91805614157E+02 0.  0.
         13    1    3    3    0    0  0.15862488574E+02  0.14090518301E+02  0.13775534205E+02  0.25296770394E+02  0.00000000000E+00 0. -1.
        -14    1    3    3    0    0  0.37071422852E+02 -0.22172750225E+02  0.30050548786E+03  0.30359425139E+03  0.00000000000E+00 0.  1.
        -13    1    4    4    0    0 -0.49861259224E+02  0.89477868862E+01  0.40831303345E+02  0.65064609385E+02  0.00000000000E+00 0. -1.
         13    1    4    4    0    0  0.38170727845E+02 -0.15928147479E+01  0.67894416659E+02  0.77905027671E+02  0.00000000000E+00 0.  1.
         21    1    1    2  502  501 -0.41243380046E+02  0.72725978608E+00  0.58602828397E+02  0.71664752846E+02  0.00000000000E+00 0.  1.
<scales pt_clust_5="13000.00000" pt_clust_6="13000.00000" pt_clust_7="13000.00000" pt_clust_8="13000.00000" pt_clust_9="41.24979"></scales>
<clustering>
<clus scale="   41.250">  2  9  1 -1</clus>
<clus scale="   80.805">  5  6 -1 -1</clus>
<clus scale="   90.772">  1  5  2 -1</clus>
<clus scale="   91.806">  7  8 -1 -1</clus>
<clus scale="   41.250">  2  5  1 -1</clus>
</clustering>
</event>
<event>
 9    1  0.2802611E-005  0.2132884E+03  0.7546771E-02  0.1139796E+00
         -4   -1    0    0    0  501 -0.00000000000E+00  0.00000000000E+00  0.32220786678E+03  0.32220786678E+03  0.00000000000E+00 0.  1.
          3   -1    0    0  502    0  0.00000000000E+00 -0.00000000000E+00 -0.29140502776E+03  0.29140502776E+03  0.00000000000E+00 0. -1.
        -24    2    1    2    0    0  0.15131947077E+03 -0.87251816344E+02  0.20966716023E+03  0.28480098795E+03  0.81491244760E+02 0.  0.
         23    2    1    2    0    0 -0.17553949080E+03  0.87449176310E+02 -0.20146208624E+03  0.29568627744E+03  0.91552887507E+02 0.  0.
         11    1    3    3    0    0  0.39403412388E+02 -0.67940627686E+02  0.97215482649E+02  0.12497762946E+03  0.00000000000E+00 0. -1.
        -12    1    3    3    0    0  0.11191605838E+03 -0.19311188658E+02  0.11245167758E+03  0.15982335850E+03  0.00000000000E+00 0.  1.
        -11    1    4    4    0    0 -0.14953062148E+03  0.90439853723E+02 -0.12497581475E+03  0.21484349693E+03  0.00000000000E+00 0. -1.
         11    1    4    4    0    0 -0.26008869317E+02 -0.29906774133E+01 -0.76486271491E+02  0.80842780514E+02  0.00000000000E+00 0.  1.
         21    1    1    2  502  501  0.24220020032E+02 -0.19735996515E+00  0.22597765029E+02  0.33125629136E+02  0.00000000000E+00 0.  1.
<scales pt_clust_5="13000.00000" pt_clust_6="13000.00000" pt_clust_7="13000.00000" pt_clust_8="13000.00000" pt_clust_9="24.22082"></scales>
<clustering>
<clus scale="   24.221">  1  9  2 -1</clus>
<clus scale="   81.491">  5  6 -1 -1</clus>
<clus scale="   91.553">  7  8 -1 -1</clus>
<clus scale="  209.167">  1  5  2 -1</clus>
<clus scale="  213.288">  2  5  1 -1</clus>
</clustering>
</event>
<event>
 9    1  0.2802611E-005  0.1083929E+03  0.7546771E-02  0.1271624E+00
         -2   -1    0    0    0  501 -0.00000000000E+00  0.00000000000E+00  0.10603325130E+03  0.10603325130E+03  0.00000000000E+00 0.  1.
          1   -1    0    0  502    0  0.00000000000E+00 -0.00000000000E+00 -0.25992807714E+03  0.25992807714E+03  0.00000000000E+00 0. -1.
        -24    2    1    2    0    0 -0.16867462739E+02  0.63838657409E+01  0.26883225483E+02  0.11180507429E+03  0.10701589500E+03 0.  0.
         23    2    1    2    0    0 -0.12506979949E+02 -0.16172022812E+02 -0.19786926162E+03  0.21878995138E+03  0.91097965174E+02 0.  0.
         13    1    3    3    0    0 -0.52779269637E+02  0.14211591702E+02 -0.14406714780E+02  0.56525870828E+02  0.00000000000E+00 0. -1.
        -14    1    3    3    0    0  0.35911806898E+02 -0.78277259613E+01  0.41289940262E+02  0.55279203461E+02  0.00000000000E+00 0.  1.
        -11    1    4    4    0    0 -0.50675616244E+02 -0.50330389520E+01 -0.84598918092E+02  0.98743741600E+02  0.00000000000E+00 0. -1.
         11    1    4    4    0    0  0.38168636296E+02 -0.11138983860E+02 -0.11327034353E+03  0.12004620978E+03  0.00000000000E+00 0.  1.
         21    1    1    2  502  501  0.29374442688E+02  0.97881570715E+01  0.17091210307E+02  0.35366302773E+02  0.00000000000E+00 0.  1.
<scales pt_clust_5="13000.00000" pt_clust_6="13000.00000" pt_clust_7="13000.00000" pt_clust_8="13000.00000" pt_clust_9="30.96233"></scales>
<clustering>
<clus scale="   30.962">  1  9  2 -1</clus>
<clus scale="   91.098">  7  8 -1 -1</clus>
<clus scale="   92.712">  2  7  1 -1</clus>
<clus scale="  107.016">  5  6 -1 -1</clus>
<clus scale="   92.712">  2  5  1 -1</clus>
</clustering>
</event>
<event>
 9    1  0.2802611E-005  0.1378440E+03  0.7546771E-02  0.1242117E+00
          3   -1    0    0  502    0  0.00000000000E+00  0.00000000000E+00  0.19945333001E+03  0.19945333001E+03  0.00000000000E+00 0. -1.
         -4   -1    0    0    0  501 -0.00000000000E+00 -0.00000000000E+00 -0.36887616439E+03  0.36887616439E+03  0.00000000000E+00 0.  1.
        -24    2    1    2    0    0 -0.11539205289E+02  0.95436413971E+01 -0.21723506267E+03  0.23175961410E+03  0.79354974168E+02 0.  0.
         23    2    1    2    0    0 -0.54074140722E+02  0.83566862070E+02  0.13624816839E+03  0.19236311024E+03  0.92371909477E+02 0.  0.
         13    1    3    3    0    0 -0.97214923805E+01  0.34178075745E+02 -0.42999334956E+02  0.55781637502E+02  0.00000000000E+00 0. -1.
        -14    1    3    3    0    0 -0.18177129081E+01 -0.24634434348E+02 -0.17423572771E+03  0.17597797660E+03  0.00000000000E+00 0.  1.
        -11    1    4    4    0    0  0.17953477758E+02  0.47288382098E+02  0.29434682761E+02  0.58522807471E+02  0.00000000000E+00 0.  1.
         11    1    4    4    0    0 -0.72027618480E+02  0.36278479972E+02  0.10681348563E+03  0.13384030277E+03  0.00000000000E+00 0. -1.
         21    1    1    2  502  501  0.65613346011E+02 -0.93110503467E+02 -0.88435940098E+02  0.14420677006E+03  0.00000000000E+00 0. -1.
<scales pt_clust_5="13000.00000" pt_clust_6="13000.00000" pt_clust_7="13000.00000" pt_clust_8="13000.00000" pt_clust_9="102.31515"></scales>
<clustering>
<clus scale="   79.355">  5  6 -1 -1</clus>
<clus scale="   80.755">  2  5  1 -1</clus>
<clus scale="   92.372">  7  8 -1 -1</clus>
<clus scale="  102.315">  2  9  1 -1</clus>
<clus scale="  137.844">  1  5  2 -1</clus>
</clustering>
</event>
<event>
 9    1  0.2802611E-005  0.1073457E+03  0.7546771E-02  0.1265590E+00
         -2   -1    0    0    0  501 -0.00000000000E+00  0.00000000000E+00  0.43175509431E+03  0.43175509431E+03  0.00000000000E+00 0.  1.
          1   -1    0    0  502    0  0.00000000000E+00 -0.00000000000E+00 -0.16056256184E+03  0.16056256184E+03  0.00000000000E+00 0. -1.
        -24    2    1    2    0    0 -0.42106166381E-01  0.34697096290E+01  0.26063541299E+03  0.27638714824E+03  0.91907543515E+02 0.  0.
         23    2    1    2    0    0 -0.58131772532E+02 -0.12820604884E+02 -0.12614238704E+03  0.16707354809E+03  0.91967373424E+02 0.  0.
         13    1    3    3    0    0 -0.29399392441E+02  0.31983088531E+02  0.78584140140E+02  0.89792590504E+02  0.00000000000E+00 0. -1.
        -14    1    3    3    0    0  0.29357286275E+02 -0.28513378902E+02  0.18205127285E+03  0.18659455774E+03  0.00000000000E+00 0.  1.
        -11    1    4    4    0    0 -0.13320353461E+01  0.32690194936E+02 -0.61805477355E+02  0.69930967348E+02  0.00000000000E+00 0.  1.
         11    1    4    4    0    0 -0.56799737186E+02 -0.45510799819E+02 -0.64336909684E+02  0.97142580737E+02  0.00000000000E+00 0. -1.
         21    1    1    2  502  501  0.58173878698E+02  0.93508952546E+01  0.13669950652E+03  0.14885695982E+03  0.00000000000E+00 0.  1.
<scales pt_clust_5="13000.00000" pt_clust_6="13000.00000" pt_clust_7="13000.00000" pt_clust_8="13000.00000" pt_clust_9="58.92062"></scales>
<clustering>
<clus scale="   58.921">  1  9  2 -1</clus>
<clus scale="   91.908">  5  6 -1 -1</clus>
<clus scale="   91.967">  7  8 -1 -1</clus>
<clus scale="  107.294">  1  5  2 -1</clus>
<clus scale="  107.346">  2  5  1 -1</clus>
</clustering>
</event>
<event>
 9    1  0.2802611E-005  0.1066433E+03  0.7546771E-02  0.1272434E+00
         -4   -1    0    0    0  501 -0.00000000000E+00  0.00000000000E+00  0.18165988662E+03  0.18165988662E+03  0.00000000000E+00 0.  1.
          3   -1    0    0  502    0  0.00000000000E+00 -0.00000000000E+00 -0.97521433326E+02  0.97521433326E+02  0.00000000000E+00 0. -1.
        -24    2    1    2    0    0 -0.62188272498E+02 -0.26060430130E+02  0.75841342996E+02  0.12941250148E+03  0.80306655877E+02 0.  0.
         23    2    1    2    0    0  0.32905736813E+02  0.34324277231E+02 -0.22161850716E+02  0.10671645069E+03  0.92931747522E+02 0.  0.
         13    1    3    3    0    0 -0.75999492193E+02 -0.37204214566E+02  0.72338874441E+02  0.11132380316E+03  0.00000000000E+00 0. -1.
        -14    1    3    3    0    0  0.13811219695E+02  0.11143784436E+02  0.35024685540E+01  0.18088698322E+02  0.00000000000E+00 0.  1.
        -11    1    4    4    0    0  0.56335461168E+02 -0.54836630269E+00  0.52028174378E+01  0.56577859626E+02  0.00000000000E+00 0.  1.
         11    1    4    4    0    0 -0.23429724355E+02  0.34872643534E+02 -0.27364668154E+02  0.50138591061E+02  0.00000000000E+00 0. -1.
         21    1    1    2  502  501  0.29282535685E+02 -0.82638471007E+01  0.30458961016E+02  0.43052367777E+02  0.00000000000E+00 0.  1.
<scales pt_clust_5="13000.00000" pt_clust_6="13000.00000" pt_clust_7="13000.00000" pt_clust_8="13000.00000" pt_clust_9="30.42627"></scales>
<clustering>
<clus scale="   30.426">  1  9  2 -1</clus>
<clus scale="   80.307">  5  6 -1 -1</clus>
<clus scale="   92.932">  7  8 -1 -1</clus>
<clus scale="   95.842">  1  5  2 -1</clus>
<clus scale="  106.643">  2  5  1 -1</clus>
</clustering>
</event>
<event>
 9    1  0.2802611E-005  0.1001292E+03  0.7546771E-02  0.1285399E+00
         -2   -1    0    0    0  501 -0.00000000000E+00  0.00000000000E+00  0.27833806564E+03  0.27833806564E+03  0.00000000000E+00 0.  1.
          1   -1    0    0  502    0  0.00000000000E+00 -0.00000000000E+00 -0.14889768290E+03  0.14889768290E+03  0.00000000000E+00 0. -1.
         23    2    1    2    0    0  0.34203255567E+02  0.22790941193E+02  0.24667127401E+03  0.26646903727E+03  0.92031194218E+02 0.  0.
        -24    2    1    2    0    0 -0.15846124914E+02 -0.10388691271E+02 -0.10852452343E+03  0.13696333147E+03  0.81377868001E+02 0.  0.
         13    1    4    4    0    0 -0.35105533973E+02 -0.35377795795E+02 -0.50718359919E+02  0.71107938964E+02  0.00000000000E+00 0. -1.
        -14    1    4    4    0    0  0.19259409060E+02  0.24989104523E+02 -0.57806163506E+02  0.65855392501E+02  0.00000000000E+00 0.  1.
        -13    1    3    3    0    0  0.56382237029E+02  0.42563399252E+02  0.16190711676E+03  0.17664799479E+03  0.00000000000E+00 0. -1.
         13    1    3    3    0    0 -0.22178981462E+02 -0.19772458059E+02  0.84764157253E+02  0.89821042474E+02  0.00000000000E+00 0.  1.
         21    1    1    2  502  501 -0.18357130653E+02 -0.12402249922E+02 -0.87063678447E+01  0.23803379802E+02  0.00000000000E+00 0. -1.
<scales pt_clust_5="13000.00000" pt_clust_6="13000.00000" pt_clust_7="13000.00000" pt_clust_8="13000.00000" pt_clust_9="22.15401"></scales>
<clustering>
<clus scale="   22.154">  2  9  1 -1</clus>
<clus scale="   81.378">  5  6 -1 -1</clus>
<clus scale="   90.435">  2  5  1 -1</clus>
<clus scale="   92.031">  7  8 -1 -1</clus>
<clus scale="   22.154">  2  5  1 -1</clus>
</clustering>
</event>
<event>
 9    1  0.2802611E-005  0.1467418E+03  0.7546771E-02  0.1226677E+00
          3   -1    0    0  502    0  0.00000000000E+00  0.00000000000E+00  0.37126118196E+03  0.37126118196E+03  0.00000000000E+00 0. -1.
         -4   -1    0    0    0  501 -0.00000000000E+00 -0.00000000000E+00 -0.10418490963E+03  0.10418490963E+03  0.00000000000E+00 0.  1.
         23    2    1    2    0    0 -0.16464387004E+02 -0.73039983322E+01 -0.51544044197E+01  0.92005353258E+02  0.90077703746E+02 0.  0.
        -24    2    1    2    0    0 -0.65609890780E+00 -0.11826880694E+03  0.13671375514E+03  0.19789700628E+03  0.80527219564E+02 0.  0.
         13    1    4    4    0    0 -0.18861892444E+02 -0.11678845389E+03  0.92868234053E+02  0.15039887913E+03  0.00000000000E+00 0. -1.
        -14    1    4    4    0    0  0.18205793537E+02 -0.14803530508E+01  0.43845521083E+02  0.47498127148E+02  0.00000000000E+00 0.  1.
        -11    1    3    3    0    0 -0.46626235103E+02  0.77237872734E+01 -0.24410513185E+02  0.53193381578E+02  0.00000000000E+00 0.  1.
         11    1    3    3    0    0  0.30161848099E+02 -0.15027785606E+02  0.19256108765E+02  0.38811971680E+02  0.00000000000E+00 0. -1.
         21    1    1    2  502  501  0.17120485912E+02  0.12557280527E+03  0.13551692160E+03  0.18554373205E+03  0.00000000000E+00 0.  1.
<scales pt_clust_5="13000.00000" pt_clust_6="13000.00000" pt_clust_7="13000.00000" pt_clust_8="13000.00000" pt_clust_9="122.67239"></scales>
<clustering>
<clus scale="   80.527">  5  6 -1 -1</clus>
<clus scale="   90.078">  7  8 -1 -1</clus>
<clus scale="   91.861">  2  7  1 -1</clus>
<clus scale="  122.672">  1  9  2 -1</clus>
<clus scale="  122.672">  1  5  2 -1</clus>
</clustering>
</event>
<event>
 9    1  0.2802611E-005  0.9962036E+02  0.7546771E-02  0.1286843E+00
         -4   -1    0    0    0  501 -0.00000000000E+00  0.00000000000E+00  0.17499383583E+03  0.17499383583E+03  0.00000000000E+00 0.  1.
          3   -1    0    0  502    0  0.00000000000E+00 -0.00000000000E+00 -0.96520843401E+02  0.96520843401E+02  0.00000000000E+00 0. -1.
        -24    2    1    2    0    0  0.36554003999E+02 -0.75418705919E+01  0.78417656016E+02  0.11867661458E+03  0.80880993146E+02 0.  0.
         23    2    1    2    0    0 -0.10274974274E+02  0.44671326840E+02 -0.16990548020E+02  0.10426084673E+03  0.92089863187E+02 0.  0.
         11    1    3    3    0    0 -0.45405567835E+01 -0.26424952144E+02 -0.14953060331E+01  0.26853876663E+02  0.00000000000E+00 0. -1.
        -12    1    3    3    0    0  0.41094560783E+02  0.18883081552E+02  0.79912962050E+02  0.91822737916E+02  0.00000000000E+00 0.  1.
        -13    1    4    4    0    0  0.31552204068E+02  0.42126596222E+02  0.11128595826E+02  0.53796257638E+02  0.00000000000E+00 0.  1.
         13    1    4    4    0    0 -0.41827178342E+02  0.25447306186E+01 -0.28119143847E+02  0.50464589096E+02  0.00000000000E+00 0. -1.
         21    1    1    2  502  501 -0.26279029726E+02 -0.37129456248E+02  0.17045884433E+02  0.48577217919E+02  0.00000000000E+00 0. -1.
<scales pt_clust_5="13000.00000" pt_clust_6="13000.00000" pt_clust_7="13000.00000" pt_clust_8="13000.00000" pt_clust_9="45.48828"></scales>
<clustering>
<clus scale="   45.488">  1  9  2 -1</clus>
<clus scale="   80.881">  5  6 -1 -1</clus>
<clus scale="   89.361">  1  5  2 -1</clus>
<clus scale="   92.090">  7  8 -1 -1</clus>
<clus scale="   99.620">  2  5  1 -1</clus>
</clustering>
</event>
<event>
 9    1  0.2802611E-005  0.9643519E+02  0.7546771E-02  0.1295574E+00
         -2   -1    0    0    0  501 -0.00000000000E+00  0.00000000000E+00  0.28970642207E+02  0.28970642207E+02  0.00000000000E+00 0.  1.
          1   -1    0    0  502    0  0.00000000000E+00 -0.00000000000E+00 -0.45309331171E+03  0.45309331171E+03  0.00000000000E+00 0. -1.
        -24    2    1    2    0    0  0.11677765065E+02  0.50042598251E+01 -0.68459348750E+02  0.10490149958E+03  0.78461642658E+02 0.  0.
         23    2    1    2    0    0 -0.31234590084E+02 -0.17572746787E+02 -0.31743277533E+03  0.33241861820E+03  0.91946559613E+02 0.  0.
         13    1    3    3    0    0  0.35876820942E+02  0.28331961118E+01 -0.42371281904E+01  0.36237087857E+02  0.00000000000E+00 0. -1.
        -14    1    3    3    0    0 -0.24199055877E+02  0.21710637133E+01 -0.64222220560E+02  0.68664411718E+02  0.00000000000E+00 0.  1.
        -13    1    4    4    0    0 -0.37456734042E+02 -0.48722395443E+02 -0.15181970145E+03  0.16378675310E+03  0.00000000000E+00 0. -1.
         13    1    4    4    0    0  0.62221439573E+01  0.31149648657E+02 -0.16561307388E+03  0.16863186510E+03  0.00000000000E+00 0.  1.
         21    1    1    2  502  501  0.19556825019E+02  0.12568486962E+02 -0.38230545423E+02  0.44743836142E+02  0.00000000000E+00 0.  1.
<scales pt_clust_5="13000.00000" pt_clust_6="13000.00000" pt_clust_7="13000.00000" pt_clust_8="13000.00000" pt_clust_9="23.24729"></scales>
<clustering>
<clus scale="   23.247">  1  9  2 -1</clus>
<clus scale="   78.462">  5  6 -1 -1</clus>
<clus scale="   83.677">  1  5  2 -1</clus>
<clus scale="   91.947">  7  8 -1 -1</clus>
<clus scale="   96.435">  2  5  1 -1</clus>
</clustering>
</event>
<event>
 9    1  0.2802611E-005  0.1085221E+03  0.7546771E-02  0.1273878E+00
         -2   -1    0    0    0  501 -0.00000000000E+00  0.00000000000E+00  0.53327181378E+03  0.53327181378E+03  0.00000000000E+00 0.  1.
          1   -1    0    0  502    0  0.00000000000E+00 -0.00000000000E+00 -0.19788601406E+03  0.19788601406E+03  0.00000000000E+00 0. -1.
         23    2    1    2    0    0  0.28303746615E+02 -0.13661002691E+02  0.12155676281E+03  0.15610975027E+03  0.92771129546E+02 0.  0.
        -24    2    1    2    0    0  0.30429635490E+02 -0.55853300621E+02 -0.16277480757E+03  0.18760478596E+03  0.68222898128E+02 0.  0.
         11    1    4    4    0    0  0.58688765789E+01 -0.63730449864E+02 -0.13663863269E+03  0.15088449190E+03  0.00000000000E+00 0. -1.
        -12    1    4    4    0    0  0.24560758911E+02  0.78771492429E+01 -0.26136174878E+02  0.36720294058E+02  0.00000000000E+00 0.  1.
        -13    1    3    3    0    0 -0.11499921265E+01  0.38223589511E+02  0.49860092766E+02  0.62836248516E+02  0.00000000000E+00 0.  1.
         13    1    3    3    0    0  0.29453738741E+02 -0.51884592201E+02  0.71696670041E+02  0.93273501750E+02  0.00000000000E+00 0. -1.
         21    1    1    2  502  501 -0.58733382105E+02  0.69514303312E+02  0.37660384448E+03  0.38744329162E+03  0.00000000000E+00 0.  1.
<scales pt_clust_5="13000.00000" pt_clust_6="13000.00000" pt_clust_7="13000.00000" pt_clust_8="13000.00000" pt_clust_9="91.00466"></scales>
<clustering>
<clus scale="   68.223">  5  6 -1 -1</clus>
<clus scale="   91.005">  1  9  2 -1</clus>
<clus scale="   88.459">  2  5  1 -1</clus>
<clus scale="   92.771">  7  8 -1 -1</clus>
<clus scale="   88.459">  2  5  1 -1</clus>
</clustering>
</event>
<event>
 9    1  0.2802611E-005  0.1046367E+03  0.7546771E-02  0.1279887E+00
         -2   -1    0    0    0  501 -0.00000000000E+00  0.00000000000E+00  0.14194766608E+03  0.14194766608E+03  0.00000000000E+00 0.  1.
          1   -1    0    0  502    0  0.00000000000E+00 -0.00000000000E+00 -0.86844405638E+02  0.86844405638E+02  0.00000000000E+00 0. -1.
         23    2    1    2    0    0 -0.16588088090E+02  0.14112205400E+02  0.55812874544E+02  0.11565198371E+03  0.98924139435E+02 0.  0.
        -24    2    1    2    0    0  0.37339518997E+02 -0.15537250291E+02 -0.83078733659E+01  0.90995423154E+02  0.81089459547E+02 0.  0.
         11    1    4    4    0    0  0.58726287603E+02 -0.20473185331E+02  0.92643128133E+01  0.62878896818E+02  0.00000000000E+00 0. -1.
        -12    1    4    4    0    0 -0.21386768605E+02  0.49359350399E+01 -0.17572186179E+02  0.28116526336E+02  0.00000000000E+00 0.  1.
        -13    1    3    3    0    0  0.20138000382E+02 -0.34565587668E+02  0.17715750536E+02  0.43751191152E+02  0.00000000000E+00 0. -1.
         13    1    3    3    0    0 -0.36726088472E+02  0.48677793068E+02  0.38097124008E+02  0.71900792555E+02  0.00000000000E+00 0.  1.
         21    1    1    2  502  501 -0.20751430907E+02  0.14250448906E+01  0.75982592609E+01  0.22144664852E+02  0.00000000000E+00 0.  1.
<scales pt_clust_5="13000.00000" pt_clust_6="13000.00000" pt_clust_7="13000.00000" pt_clust_8="13000.00000" pt_clust_9="20.80030"></scales>
<clustering>
<clus scale="   20.800">  1  9  2 -1</clus>
<clus scale="   81.089">  5  6 -1 -1</clus>
<clus scale="   87.968">  2  5  1 -1</clus>
<clus scale="   98.924">  7  8 -1 -1</clus>
<clus scale="   87.968">  2  5  1 -1</clus>
</clustering>
</event>
<event>
 9    1  0.2802611E-005  0.1784558E+03  0.7546771E-02  0.1170675E+00
          1   -1    0    0  502    0  0.00000000000E+00  0.00000000000E+00  0.44590306417E+03  0.44590306417E+03  0.00000000000E+00 0. -1.
         -2   -1    0    0    0  501 -0.00000000000E+00 -0.00000000000E+00 -0.16460682085E+03  0.16460682085E+03  0.00000000000E+00 0.  1.
        -24    2    1    2    0    0 -0.56295691793E+02  0.12650948440E+03  0.25264520822E+02  0.16177751965E+03  0.79748450110E+02 0.  0.
         23    2    1    2    0    0  0.59668880022E+02 -0.14709263446E+03  0.32702029432E+03  0.37474302970E+03  0.91068364740E+02 0.  0.
         11    1    3    3    0    0 -0.53739173373E+02  0.43486737081E+02  0.36139081775E+02  0.78006591313E+02  0.00000000000E+00 0. -1.
        -12    1    3    3    0    0 -0.25565184196E+01  0.83022747322E+02 -0.10874560952E+02  0.83770928342E+02  0.00000000000E+00 0.  1.
        -13    1    4    4    0    0  0.35911444389E+02 -0.22069137389E+02  0.30382376744E+02  0.51959286753E+02  0.00000000000E+00 0.  1.
         13    1    4    4    0    0  0.23757435633E+02 -0.12502349707E+03  0.29663791757E+03  0.32278374294E+03  0.00000000000E+00 0. -1.
         21    1    1    2  502  501 -0.33731882298E+01  0.20583150057E+02 -0.70988571815E+02  0.73989335674E+02  0.00000000000E+00 0.  1.
<scales pt_clust_5="13000.00000" pt_clust_6="13000.00000" pt_clust_7="13000.00000" pt_clust_8="13000.00000" pt_clust_9="20.85772"></scales>
<clustering>
<clus scale="   20.858">  2  9  1 -1</clus>
<clus scale="   79.748">  5  6 -1 -1</clus>
<clus scale="   91.068">  7  8 -1 -1</clus>
<clus scale="  172.953">  2  5  1 -1</clus>
<clus scale="  178.456">  1  5  2 -1</clus>
</clustering>
</event>
<event>
 9    1  0.2802611E-005  0.1264215E+03  0.7546771E-02  0.1235426E+00
          1   -1    0    0  502    0  0.00000000000E+00  0.00000000000E+00  0.82204685693E+03  0.82204685693E+03  0.00000000000E+00 0. -1.
         -2   -1    0    0    0  501 -0.00000000000E+00 -0.00000000000E+00 -0.25507411278E+02  0.25507411278E+02  0.00000000000E+00 0.  1.
         23    2    1    2    0    0 -0.13256790854E+02 -0.73070662890E+02  0.25450615546E+03  0.28000382093E+03  0.90076036159E+02 0.  0.
        -24    2    1    2    0    0  0.67597632233E+00  0.98034260233E+02  0.50734076394E+03  0.52299677779E+03  0.80745313827E+02 0.  0.
         13    1    4    4    0    0 -0.39609975911E+02  0.40459282733E+02  0.23760816664E+03  0.24426122207E+03  0.00000000000E+00 0. -1.
        -14    1    4    4    0    0  0.40285952233E+02  0.57574977500E+02  0.26973259730E+03  0.27873555572E+03  0.00000000000E+00 0.  1.
        -11    1    3    3    0    0  0.23036330532E+02 -0.68918116531E+01  0.14515792718E+03  0.14713596914E+03  0.00000000000E+00 0. -1.
         11    1    3    3    0    0 -0.36293121386E+02 -0.66178851237E+02  0.10934822828E+03  0.13286785179E+03  0.00000000000E+00 0.  1.
         21    1    1    2  502  501  0.12580814532E+02 -0.24963597343E+02  0.34692526257E+02  0.44553669486E+02  0.00000000000E+00 0.  1.
<scales pt_clust_5="13000.00000" pt_clust_6="13000.00000" pt_clust_7="13000.00000" pt_clust_8="13000.00000" pt_clust_9="27.95457"></scales>
<clustering>
<clus scale="   27.955">  2  9  1 -1</clus>
<clus scale="   80.745">  5  6 -1 -1</clus>
<clus scale="   90.076">  7  8 -1 -1</clus>
<clus scale="  119.952">  1  5  2 -1</clus>
<clus scale="  119.952">  1  5  2 -1</clus>
</clustering>
</event>
<event>
 9    1  0.2802611E-005  0.1765452E+03  0.7546771E-02  0.1172463E+00
          1   -1    0    0  502    0  0.00000000000E+00  0.00000000000E+00  0.16637270713E+04  0.16637270713E+04  0.00000000000E+00 0. -1.
         -2   -1    0    0    0  501 -0.00000000000E+00 -0.00000000000E+00 -0.39661088739E+02  0.39661088739E+02  0.00000000000E+00 0.  1.
        -24    2    1    2    0    0  0.54774171127E+02  0.10492258896E+03  0.42743090668E+03  0.45065479526E+03  0.79897465595E+02 0.  0.
         23    2    1    2    0    0 -0.15328199151E+03 -0.10831653521E+03  0.10806034396E+04  0.11004880030E+04  0.90234197902E+02 0.  0.
         13    1    3    3    0    0 -0.26193855109E+01  0.58168865699E+02  0.27628807178E+03  0.28235717934E+03  0.00000000000E+00 0. -1.
        -14    1    3    3    0    0  0.57393556638E+02  0.46753723265E+02  0.15114283490E+03  0.16829761592E+03  0.00000000000E+00 0.  1.
        -11    1    4    4    0    0 -0.96194197061E+02 -0.13866423593E+02  0.55135309815E+03  0.55985340946E+03  0.00000000000E+00 0.  1.
         11    1    4    4    0    0 -0.57087794450E+02 -0.94450111617E+02  0.52925034142E+03  0.54063459356E+03  0.00000000000E+00 0. -1.
         21    1    1    2  502  501  0.98507820385E+02  0.33939462454E+01  0.11603163628E+03  0.15224536172E+03  0.00000000000E+00 0.  1.
<scales pt_clust_5="13000.00000" pt_clust_6="13000.00000" pt_clust_7="13000.00000" pt_clust_8="13000.00000" pt_clust_9="98.56627"></scales>
<clustering>
<clus scale="   79.897">  5  6 -1 -1</clus>
<clus scale="   90.234">  7  8 -1 -1</clus>
<clus scale="   98.566">  2  9  1 -1</clus>
<clus scale="  171.492">  2  5  1 -1</clus>
<clus scale="  176.545">  1  5  2 -1</clus>
</clustering>
</event>
<event>
 9    1  0.2802611E-005  0.1636795E+03  0.7546771E-02  0.1202755E+00
          1   -1    0    0  502    0  0.00000000000E+00  0.00000000000E+00  0.12619799881E+04  0.12619799881E+04  0.00000000000E+00 0. -1.
         -2   -1    0    0    0  501 -0.00000000000E+00 -0.00000000000E+00 -0.46209507240E+02  0.46209507240E+02  0.00000000000E+00 0.  1.
        -24    2    1    2    0    0  0.13246830388E+03  0.59297232446E+02  0.19764977778E+03  0.25718979852E+03  0.77570255236E+02 0.  0.
         23    2    1    2    0    0 -0.31421276717E+02  0.52592648991E+02  0.44879038417E+03  0.46204565846E+03  0.91214572421E+02 0.  0.
         13    1    3    3    0    0  0.86761135520E+02 -0.15267579070E+01  0.86752067890E+02  0.12270186188E+03  0.00000000000E+00 0. -1.
        -14    1    3    3    0    0  0.45707168364E+02  0.60823990353E+02  0.11089770989E+03  0.13448793664E+03  0.00000000000E+00 0.  1.
        -11    1    4    4    0    0 -0.36617862983E+02 -0.16792373598E+02  0.16090373810E+03  0.16587002331E+03  0.00000000000E+00 0. -1.
         11    1    4    4    0    0  0.51965862659E+01  0.69385022590E+02  0.28788664607E+03  0.29617563514E+03  0.00000000000E+00 0.  1.
         21    1    1    2  502  501 -0.10104702717E+03 -0.11188988144E+03  0.56933031892E+03  0.58895403837E+03  0.00000000000E+00 0. -1.
<scales pt_clust_5="13000.00000" pt_clust_6="13000.00000" pt_clust_7="13000.00000" pt_clust_8="13000.00000" pt_clust_9="144.13129"></scales>
<clustering>
<clus scale="   77.570">  5  6 -1 -1</clus>
<clus scale="   91.215">  7  8 -1 -1</clus>
<clus scale="  109.879">  1  7  2 -1</clus>
<clus scale="  144.131">  1  9  2 -1</clus>
<clus scale="  109.879">  1  5  2 -1</clus>
</clustering>
</event>
<event>
 9    1  0.2802611E-005  0.1004216E+03  0.7546771E-02  0.1280704E+00
         -2   -1    0    0    0  501 -0.00000000000E+00  0.00000000000E+00  0.11211016854E+03  0.11211016854E+03  0.00000000000E+00 0.  1.
          1   -1    0    0  502    0  0.00000000000E+00 -0.00000000000E+00 -0.13700115465E+03  0.13700115465E+03  0.00000000000E+00 0. -1.
        -24    2    1    2    0    0  0.27717310905E+02  0.29058436905E+02  0.31462893494E+02  0.10118763238E+03  0.87386390252E+02 0.  0.
         23    2    1    2    0    0 -0.16095434296E+02 -0.55992457232E+02 -0.46853625782E+02  0.11708922487E+03  0.90113295686E+02 0.  0.
         13    1    3    3    0    0  0.56579522083E+02  0.33011887128E+02  0.13254153488E+02  0.66833371871E+02  0.00000000000E+00 0. -1.
        -14    1    3    3    0    0 -0.28862211179E+02 -0.39534502226E+01  0.18208740006E+02  0.34354260513E+02  0.00000000000E+00 0.  1.
        -11    1    4    4    0    0 -0.34612110466E+02 -0.32471564499E+02  0.13821814344E+02  0.49431197069E+02  0.00000000000E+00 0.  1.
         11    1    4    4    0    0  0.18516676170E+02 -0.23520892732E+02 -0.60675440126E+02  0.67658027800E+02  0.00000000000E+00 0. -1.
         21    1    1    2  502  501 -0.11621876609E+02  0.26934020326E+02 -0.95002538201E+01  0.30834465935E+02  0.00000000000E+00 0.  1.
<scales pt_clust_5="13000.00000" pt_clust_6="13000.00000" pt_clust_7="13000.00000" pt_clust_8="13000.00000" pt_clust_9="29.33444"></scales>
<clustering>
<clus scale="   29.334">  2  9  1 -1</clus>
<clus scale="   87.386">  5  6 -1 -1</clus>
<clus scale="   90.113">  7  8 -1 -1</clus>
<clus scale="   97.982">  1  5  2 -1</clus>
<clus scale="   29.334">  2  5  1 -1</clus>
</clustering>
</event>
<event>
 9    1  0.3671078E-005  0.1352193E+03  0.7546771E-02  0.1225670E+00
         -4   -1    0    0    0  501 -0.00000000000E+00  0.00000000000E+00  0.45871887775E+03  0.45871887775E+03  0.00000000000E+00 0.  1.
          3   -1    0    0  502    0  0.00000000000E+00 -0.00000000000E+00 -0.45682811613E+03  0.45682811613E+03  0.00000000000E+00 0. -1.
        -24    2    1    2    0    0 -0.79312202229E+02  0.53908018268E+02  0.39803420461E+03  0.41706126960E+03  0.79450454393E+02 0.  0.
         23    2    1    2    0    0  0.89145992096E+02 -0.11466750942E+02 -0.42514400542E+03  0.44615029443E+03  0.10111461611E+03 0.  0.
         11    1    3    3    0    0  0.10625832175E+02  0.27690620762E+02  0.12239270510E+03  0.12593511444E+03  0.00000000000E+00 0. -1.
        -12    1    3    3    0    0 -0.89938034404E+02  0.26217397506E+02  0.27564149951E+03  0.29112615516E+03  0.00000000000E+00 0.  1.
        -13    1    4    4    0    0  0.73913909406E+01 -0.42104301925E+02 -0.20327781939E+03  0.20772403991E+03  0.00000000000E+00 0.  1.
         13    1    4    4    0    0  0.81754601155E+02  0.30637550983E+02 -0.22186618603E+03  0.23842625452E+03  0.00000000000E+00 0. -1.
         21    1    1    2  502  501 -0.98337898664E+01 -0.42441267326E+02  0.29000562433E+02  0.52335429842E+02  0.00000000000E+00 0.  1.
<scales pt_clust_5="13000.00000" pt_clust_6="13000.00000" pt_clust_7="13000.00000" pt_clust_8="13000.00000" pt_clust_9="43.56564"></scales>
<clustering>
<clus scale="   43.566">  1  9  2 -1</clus>
<clus scale="   79.450">  5  6 -1 -1</clus>
<clus scale="  101.115">  7  8 -1 -1</clus>
<clus scale="  119.885">  1  5  2 -1</clus>
<clus scale="  135.219">  2  5  1 -1</clus>
</clustering>
</event>
<event>
 9    1  0.2802611E-005  0.1628984E+03  0.7546771E-02  0.1187684E+00
          1   -1    0    0  502    0  0.00000000000E+00  0.00000000000E+00  0.68406176582E+03  0.68406176582E+03  0.00000000000E+00 0. -1.
         -2   -1    0    0    0  501 -0.00000000000E+00 -0.00000000000E+00 -0.81883243932E+02  0.81883243932E+02  0.00000000000E+00 0.  1.
         23    2    1    2    0    0  0.86175008970E+02  0.70224860999E+02  0.11108673124E+03  0.18199318031E+03  0.91780131560E+02 0.  0.
        -24    2    1    2    0    0 -0.11103926375E+03 -0.89754154322E+02  0.51776790910E+03  0.54258469564E+03  0.77000116517E+02 0.  0.
         13    1    4    4    0    0 -0.57438516229E+02 -0.73799248081E+02  0.41680766727E+03  0.42716992363E+03  0.00000000000E+00 0. -1.
        -14    1    4    4    0    0 -0.53600747520E+02 -0.15954906241E+02  0.10096024183E+03  0.11541477201E+03  0.00000000000E+00 0.  1.
        -11    1    3    3    0    0  0.38191463608E+02  0.16881516571E+02 -0.84254945817E+01  0.42597681313E+02  0.00000000000E+00 0.  1.
         11    1    3    3    0    0  0.47983545361E+02  0.53343344428E+02  0.11951222582E+03  0.13939549900E+03  0.00000000000E+00 0. -1.
         21    1    1    2  502  501  0.24864254780E+02  0.19529293324E+02 -0.26676118446E+02  0.41367133800E+02  0.00000000000E+00 0. -1.
<scales pt_clust_5="13000.00000" pt_clust_6="13000.00000" pt_clust_7="13000.00000" pt_clust_8="13000.00000" pt_clust_9="31.61684"></scales>
<clustering>
<clus scale="   31.617">  2  9  1 -1</clus>
<clus scale="   77.000">  5  6 -1 -1</clus>
<clus scale="   91.780">  7  8 -1 -1</clus>
<clus scale="  155.053">  1  5  2 -1</clus>
<clus scale="  155.053">  1  5  2 -1</clus>
</clustering>
</event>
<event>
 9    1  0.2802611E-005  0.9307951E+02  0.7546771E-02  0.1301197E+00
         -2   -1    0    0    0  501 -0.00000000000E+00  0.00000000000E+00  0.46083915517E+02  0.46083915517E+02  0.00000000000E+00 0.  1.
          1   -1    0    0  502    0  0.00000000000E+00 -0.00000000000E+00 -0.48793086791E+03  0.48793086791E+03  0.00000000000E+00 0. -1.
         23    2    1    2    0    0 -0.15311156215E+01  0.20887188209E+02 -0.35806425011E+02  0.99004668133E+02  0.89895524326E+02 0.  0.
        -24    2    1    2    0    0 -0.23160952977E+02  0.19536381745E+02 -0.35559439927E+03  0.36581058422E+03  0.80323762238E+02 0.  0.
         13    1    4    4    0    0 -0.36419562141E+02  0.44415087121E+02 -0.22591150788E+03  0.23309889289E+03  0.00000000000E+00 0. -1.
        -14    1    4    4    0    0  0.13258609164E+02 -0.24878705376E+02 -0.12968289138E+03  0.13271169133E+03  0.00000000000E+00 0.  1.
        -11    1    3    3    0    0 -0.26511519085E+02  0.99710086317E+01 -0.57544259092E+02  0.64137535124E+02  0.00000000000E+00 0. -1.
         11    1    3    3    0    0  0.24980403463E+02  0.10916179578E+02  0.21737834081E+02  0.34867133009E+02  0.00000000000E+00 0.  1.
         21    1    1    2  502  501  0.24692068599E+02 -0.40423569954E+02 -0.50446128115E+02  0.69199531077E+02  0.00000000000E+00 0. -1.
<scales pt_clust_5="13000.00000" pt_clust_6="13000.00000" pt_clust_7="13000.00000" pt_clust_8="13000.00000" pt_clust_9="47.36838"></scales>
<clustering>
<clus scale="   47.368">  1  9  2 -1</clus>
<clus scale="   80.324">  5  6 -1 -1</clus>
<clus scale="   83.872">  2  5  1 -1</clus>
<clus scale="   89.896">  7  8 -1 -1</clus>
<clus scale="   83.872">  2  5  1 -1</clus>
</clustering>
</event>
<event>
 9    1  0.2802611E-005  0.1191080E+03  0.7546771E-02  0.1260413E+00
          1   -1    0    0  502    0  0.00000000000E+00  0.00000000000E+00  0.10243913428E+03  0.10243913428E+03  0.00000000000E+00 0. -1.
         -2   -1    0    0    0  501 -0.00000000000E+00 -0.00000000000E+00 -0.50637843306E+03  0.50637843306E+03  0.00000000000E+00 0.  1.
        -24    2    1    2    0    0  0.93769418038E+01  0.28630845334E+02 -0.14734366474E+03  0.17106736691E+03  0.81524451189E+02 0.  0.
         23    2    1    2    0    0  0.73497370908E+02  0.14446255424E+02  0.41764172873E+02  0.12511245046E+03  0.91095122257E+02 0.  0.
         13    1    3    3    0    0 -0.22731751461E+02  0.32251114447E+02 -0.30593352193E+02  0.49928149435E+02  0.00000000000E+00 0. -1.
        -14    1    3    3    0    0  0.32108693265E+02 -0.36202691133E+01 -0.11675031254E+03  0.12113921748E+03  0.00000000000E+00 0.  1.
        -11    1    4    4    0    0  0.62501592770E+02  0.50207699556E+02  0.32930858142E+02  0.86670084870E+02  0.00000000000E+00 0.  1.
         11    1    4    4    0    0  0.10995778138E+02 -0.35761444132E+02  0.88333147317E+01  0.38442365594E+02  0.00000000000E+00 0. -1.
         21    1    1    2  502  501 -0.82874312712E+02 -0.43077100758E+02 -0.29835980692E+03  0.31263774997E+03  0.00000000000E+00 0. -1.
<scales pt_clust_5="13000.00000" pt_clust_6="13000.00000" pt_clust_7="13000.00000" pt_clust_8="13000.00000" pt_clust_9="76.73585"></scales>
<clustering>
<clus scale="   81.524">  5  6 -1 -1</clus>
<clus scale="   86.913">  2  5  1 -1</clus>
<clus scale="   76.736">  2  9  1 -1</clus>
<clus scale="   91.095">  7  8 -1 -1</clus>
<clus scale="  119.108">  1  5  2 -1</clus>
</clustering>
</event>
<event>
 9    1  0.2802611E-005  0.1592724E+03  0.7546771E-02  0.1213489E+00
          1   -1    0    0  502    0  0.00000000000E+00  0.00000000000E+00  0.60263015379E+03  0.60263015379E+03  0.00000000000E+00 0. -1.
         -2   -1    0    0    0  501 -0.00000000000E+00 -0.00000000000E+00 -0.10592282064E+03  0.10592282064E+03  0.00000000000E+00 0.  1.
         23    2    1    2    0    0 -0.81666586342E+01  0.18226075496E+02  0.18373565340E+02  0.96522531880E+02  0.92628975574E+02 0.  0.
        -24    2    1    2    0    0  0.45511021567E+02  0.11607366335E+03  0.43077049796E+02  0.15499714849E+03  0.81388791691E+02 0.  0.
         11    1    4    4    0    0 -0.20376213357E+02  0.12768959390E+02 -0.26998362846E+01  0.24197634402E+02  0.00000000000E+00 0. -1.
        -12    1    4    4    0    0  0.65887234924E+02  0.10330470396E+03  0.45776886080E+02  0.13079951409E+03  0.00000000000E+00 0.  1.
        -11    1    3    3    0    0 -0.11170503288E+02 -0.29561647750E+02 -0.18020978408E+02  0.36378933797E+02  0.00000000000E+00 0.  1.
         11    1    3    3    0    0  0.30038446534E+01  0.47787723246E+02  0.36394543748E+02  0.60143598083E+02  0.00000000000E+00 0. -1.
         21    1    1    2  502  501 -0.37344362933E+02 -0.13429973885E+03  0.43525671802E+03  0.45703329406E+03  0.00000000000E+00 0. -1.
<scales pt_clust_5="13000.00000" pt_clust_6="13000.00000" pt_clust_7="13000.00000" pt_clust_8="13000.00000" pt_clust_9="136.90716"></scales>
<clustering>
<clus scale="   81.389">  5  6 -1 -1</clus>
<clus scale="   92.629">  7  8 -1 -1</clus>
<clus scale="   94.758">  2  7  1 -1</clus>
<clus scale="  136.907">  1  9  2 -1</clus>
<clus scale="  136.907">  1  5  2 -1</clus>
</clustering>
</event>
<event>
 9    1  0.2802611E-005  0.1059768E+03  0.7546771E-02  0.1273503E+00
         -4   -1    0    0    0  501 -0.00000000000E+00  0.00000000000E+00  0.48670601978E+02  0.48670601978E+02  0.00000000000E+00 0.  1.
          3   -1    0    0  502    0  0.00000000000E+00 -0.00000000000E+00 -0.49728901634E+03  0.49728901634E+03  0.00000000000E+00 0. -1.
        -24    2    1    2    0    0 -0.66892703100E+02  0.21236713817E+02 -0.15894922695E+03  0.19114657447E+03  0.79665076693E+02 0.  0.
         23    2    1    2    0    0  0.36908097918E+02 -0.25678698279E+02 -0.30440813073E+03  0.32110778871E+03  0.91783978334E+02 0.  0.
         11    1    3    3    0    0 -0.29622390776E+02  0.39436858363E+01 -0.14455454970E+03  0.14761116670E+03  0.00000000000E+00 0. -1.
        -12    1    3    3    0    0 -0.37270312324E+02  0.17293027981E+02 -0.14394677243E+02  0.43535407779E+02  0.00000000000E+00 0.  1.
        -11    1    4    4    0    0  0.24488866390E+02 -0.54557088207E+02 -0.25942952214E+03  0.26623271288E+03  0.00000000000E+00 0. -1.
         11    1    4    4    0    0  0.12419231529E+02  0.28878389928E+02 -0.44978608593E+02  0.54875075831E+02  0.00000000000E+00 0.  1.
         21    1    1    2  502  501  0.29984605182E+02  0.44419844618E+01  0.14738943312E+02  0.33705255137E+02  0.00000000000E+00 0.  1.
<scales pt_clust_5="13000.00000" pt_clust_6="13000.00000" pt_clust_7="13000.00000" pt_clust_8="13000.00000" pt_clust_9="30.31184"></scales>
<clustering>
<clus scale="   30.312">  1  9  2 -1</clus>
<clus scale="   79.665">  5  6 -1 -1</clus>
<clus scale="   91.784">  7  8 -1 -1</clus>
<clus scale="   95.673">  1  5  2 -1</clus>
<clus scale="  105.977">  2  5  1 -1</clus>
</clustering>
</event>
<event>
 9    1  0.2802611E-005  0.1057161E+03  0.7546771E-02  0.1272980E+00
          1   -1    0    0  502    0  0.00000000000E+00  0.00000000000E+00  0.18325419632E+03  0.18325419632E+03  0.00000000000E+00 0. -1.
         -2   -1    0    0    0  501 -0.00000000000E+00 -0.00000000000E+00 -0.12246277892E+03  0.12246277892E+03  0.00000000000E+00 0.  1.
        -24    2    1    2    0    0  0.50260515660E+02 -0.41388435114E+02 -0.44296483966E+02  0.11388506242E+03  0.82270936276E+02 0.  0.
         23    2    1    2    0    0 -0.47836100055E+02  0.13956965930E+02  0.12104594346E+03  0.16000389999E+03  0.92011076598E+02 0.  0.
         11    1    3    3    0    0  0.15187637694E+02 -0.59261809808E+02 -0.10643064045E+02  0.62095903671E+02  0.00000000000E+00 0. -1.
        -12    1    3    3    0    0  0.35072877966E+02  0.17873374694E+02 -0.33653419921E+02  0.51789158752E+02  0.00000000000E+00 0.  1.
        -13    1    4    4    0    0 -0.40779162252E+02  0.51921555844E+02  0.76859146251E+02  0.10132184561E+03  0.00000000000E+00 0.  1.
         13    1    4    4    0    0 -0.70569378026E+01 -0.37964589914E+02  0.44186797214E+02  0.58682054382E+02  0.00000000000E+00 0. -1.
         21    1    1    2  502  501 -0.24244156052E+01  0.27431469184E+02 -0.15958042107E+02  0.31828012827E+02  0.00000000000E+00 0. -1.
<scales pt_clust_5="13000.00000" pt_clust_6="13000.00000" pt_clust_7="13000.00000" pt_clust_8="13000.00000" pt_clust_9="27.53840"></scales>
<clustering>
<clus scale="   27.538">  2  9  1 -1</clus>
<clus scale="   82.271">  5  6 -1 -1</clus>
<clus scale="   92.011">  7  8 -1 -1</clus>
<clus scale="   97.357">  2  5  1 -1</clus>
<clus scale="  105.716">  1  5  2 -1</clus>
</clustering>
</event>
<event>
 9    1  0.2802611E-005  0.1649610E+03  0.7546771E-02  0.1218876E+00
         -4   -1    0    0    0  501 -0.00000000000E+00  0.00000000000E+00  0.18354576028E+04  0.18354576028E+04  0.00000000000E+00 0.  1.
          3   -1    0    0  502    0  0.00000000000E+00 -0.00000000000E+00 -0.36790966697E+02  0.36790966697E+02  0.00000000000E+00 0. -1.
        -24    2    1    2    0    0 -0.60717638394E+00  0.65035561419E+00  0.49575740886E+03  0.50156606868E+03  0.76107300488E+02 0.  0.
         23    2    1    2    0    0 -0.10622961436E+03 -0.87163830005E+02  0.20004150475E+03  0.25927983102E+03  0.91253289930E+02 0.  0.
         13    1    3    3    0    0 -0.27384635947E+02  0.23714200634E+02  0.16521884127E+03  0.16914356951E+03  0.00000000000E+00 0. -1.
        -14    1    3    3    0    0  0.26777459563E+02 -0.23063845020E+02  0.33053856759E+03  0.33242249917E+03  0.00000000000E+00 0.  1.
        -11    1    4    4    0    0  0.13264247350E+02 -0.29208336022E+02  0.36042257024E+02  0.48250507172E+02  0.00000000000E+00 0.  1.
         11    1    4    4    0    0 -0.11949386171E+03 -0.57955493983E+02  0.16399924773E+03  0.21102932385E+03  0.00000000000E+00 0. -1.
         21    1    1    2  502  501  0.10683679075E+03  0.86513474390E+02  0.11028677225E+04  0.11114026698E+04  0.00000000000E+00 0.  1.
<scales pt_clust_5="13000.00000" pt_clust_6="13000.00000" pt_clust_7="13000.00000" pt_clust_8="13000.00000" pt_clust_9="137.42260"></scales>
<clustering>
<clus scale="   76.107">  5  6 -1 -1</clus>
<clus scale="   76.113">  1  5  2 -1</clus>
<clus scale="   91.253">  7  8 -1 -1</clus>
<clus scale="  137.423">  1  9  2 -1</clus>
<clus scale="  164.961">  2  5  1 -1</clus>
</clustering>
</event>
<event>
 9    1  0.2802611E-005  0.1115532E+03  0.7546771E-02  0.1260339E+00
          1   -1    0    0  502    0  0.00000000000E+00  0.00000000000E+00  0.27171158426E+03  0.27171158426E+03  0.00000000000E+00 0. -1.
         -2   -1    0    0    0  501 -0.00000000000E+00 -0.00000000000E+00 -0.85294202769E+02  0.85294202769E+02  0.00000000000E+00 0.  1.
         23    2    1    2    0    0 -0.18426898244E+02 -0.80114539008E+02  0.64010256470E+01  0.12252859709E+03  0.90633294296E+02 0.  0.
        -24    2    1    2    0    0  0.28936295784E+02  0.22435834292E+02  0.11693654681E+03  0.14835899952E+03  0.83639469656E+02 0.  0.
         11    1    4    4    0    0  0.32079394742E+02  0.43792418026E+02  0.11439686509E+03  0.12662348197E+03  0.00000000000E+00 0. -1.
        -12    1    4    4    0    0 -0.31430989578E+01 -0.21356583734E+02  0.25396817179E+01  0.21735517548E+02  0.00000000000E+00 0.  1.
        -11    1    3    3    0    0 -0.35520507922E+02 -0.78476282630E+01 -0.22577291404E+02  0.42813851024E+02  0.00000000000E+00 0.  1.
         11    1    3    3    0    0  0.17093609677E+02 -0.72266910745E+02  0.28978317051E+02  0.79714746061E+02  0.00000000000E+00 0. -1.
         21    1    1    2  502  501 -0.10509397540E+02  0.57678704716E+02  0.63079809037E+02  0.86118190427E+02  0.00000000000E+00 0.  1.
<scales pt_clust_5="13000.00000" pt_clust_6="13000.00000" pt_clust_7="13000.00000" pt_clust_8="13000.00000" pt_clust_9="58.62832"></scales>
<clustering>
<clus scale="   58.628">  1  9  2 -1</clus>
<clus scale="   83.639">  5  6 -1 -1</clus>
<clus scale="   90.633">  7  8 -1 -1</clus>
<clus scale="  105.949">  1  5  2 -1</clus>
<clus scale="   58.628">  1  5  2 -1</clus>
</clustering>
</event>
<event>
 9    1  0.2802611E-005  0.1240237E+03  0.7546771E-02  0.1241444E+00
         -2   -1    0    0    0  501 -0.00000000000E+00  0.00000000000E+00  0.18042088651E+03  0.18042088651E+03  0.00000000000E+00 0.  1.
          1   -1    0    0  502    0  0.00000000000E+00 -0.00000000000E+00 -0.12327532823E+03  0.12327532823E+03  0.00000000000E+00 0. -1.
         23    2    1    2    0    0 -0.58790023529E+02  0.59118251410E+02  0.10177745133E+03  0.16225503167E+03  0.94956891213E+02 0.  0.
        -24    2    1    2    0    0  0.33411576555E+02 -0.65090049554E+02 -0.39906418377E+02  0.11494480493E+03  0.79162730835E+02 0.  0.
         11    1    4    4    0    0 -0.43039573650E+01 -0.42005939590E+02  0.14671201494E+02  0.44701981646E+02  0.00000000000E+00 0. -1.
        -12    1    4    4    0    0  0.37715533920E+02 -0.23084109964E+02 -0.54577619871E+02  0.70242823281E+02  0.00000000000E+00 0.  1.
        -13    1    3    3    0    0  0.22444973763E+02  0.34969057291E+02  0.31081173215E+02  0.51890761639E+02  0.00000000000E+00 0.  1.
         13    1    3    3    0    0 -0.81234997292E+02  0.24149194119E+02  0.70696278112E+02  0.11036427004E+03  0.00000000000E+00 0. -1.
         21    1    1    2  502  501  0.25378446974E+02  0.59717981434E+01 -0.47254746655E+01  0.26496378143E+02  0.00000000000E+00 0. -1.
<scales pt_clust_5="13000.00000" pt_clust_6="13000.00000" pt_clust_7="13000.00000" pt_clust_8="13000.00000" pt_clust_9="26.07159"></scales>
<clustering>
<clus scale="   26.072">  2  9  1 -1</clus>
<clus scale="   79.163">  5  6 -1 -1</clus>
<clus scale="   94.957">  7  8 -1 -1</clus>
<clus scale="  112.391">  2  5  1 -1</clus>
<clus scale="   26.072">  2  5  1 -1</clus>
</clustering>
</event>
<event>
 9    1  0.2802611E-005  0.9676781E+02  0.7546771E-02  0.1292659E+00
          3   -1    0    0  502    0  0.00000000000E+00  0.00000000000E+00  0.12708742365E+03  0.12708742365E+03  0.00000000000E+00 0. -1.
         -4   -1    0    0    0  501 -0.00000000000E+00 -0.00000000000E+00 -0.14793974483E+03  0.14793974483E+03  0.00000000000E+00 0.  1.
        -24    2    1    2    0    0 -0.30591042503E+02  0.26656095034E+02 -0.66544500930E+02  0.11229442886E+03  0.80842494174E+02 0.  0.
         23    2    1    2    0    0 -0.47862319872E-01 -0.34294515717E+02  0.72596182228E+02  0.12124884746E+03  0.90856817226E+02 0.  0.
         13    1    3    3    0    0  0.18541989736E+02  0.35851406545E+02 -0.27045571748E+02  0.48585920654E+02  0.00000000000E+00 0. -1.
        -14    1    3    3    0    0 -0.49133032240E+02 -0.91953115109E+01 -0.39498929183E+02  0.63708508203E+02  0.00000000000E+00 0.  1.
        -11    1    4    4    0    0 -0.18382792087E+02 -0.13194068605E+02 -0.16412973907E+02  0.27953464968E+02  0.00000000000E+00 0.  1.
         11    1    4    4    0    0  0.18334929768E+02 -0.21100447112E+02  0.89009156134E+02  0.93295382489E+02  0.00000000000E+00 0. -1.
         21    1    1    2  502  501  0.30638904823E+02  0.76384206831E+01 -0.26904002477E+02  0.41483892158E+02  0.00000000000E+00 0. -1.
<scales pt_clust_5="13000.00000" pt_clust_6="13000.00000" pt_clust_7="13000.00000" pt_clust_8="13000.00000" pt_clust_9="31.57670"></scales>
<clustering>
<clus scale="   31.577">  2  9  1 -1</clus>
<clus scale="   80.842">  5  6 -1 -1</clus>
<clus scale="   87.433">  2  5  1 -1</clus>
<clus scale="   90.857">  7  8 -1 -1</clus>
<clus scale="   96.768">  1  5  2 -1</clus>
</clustering>
</event>
<event>
 9    1  0.2802611E-005  0.9535823E+02  0.7546771E-02  0.1295463E+00
         -4   -1    0    0    0  501 -0.00000000000E+00  0.00000000000E+00  0.15111062337E+03  0.15111062337E+03  0.00000000000E+00 0.  1.
          3   -1    0    0  502    0  0.00000000000E+00 -0.00000000000E+00 -0.36987295992E+03  0.36987295992E+03  0.00000000000E+00 0. -1.
        -24    2    1    2    0    0  0.61831922937E+02  0.34170222234E+01  0.69378035563E+02  0.12347013229E+03  0.81220065335E+02 0.  0.
         23    2    1    2    0    0 -0.26646998006E+02 -0.97693227601E+01 -0.32949661854E+03  0.34284472336E+03  0.90382412753E+02 0.  0.
         13    1    3    3    0    0  0.11708194994E+02 -0.34593400121E+02  0.12323215265E+02  0.38544088995E+02  0.00000000000E+00 0. -1.
        -14    1    3    3    0    0  0.50123727944E+02  0.38010422345E+02  0.57054820298E+02  0.84926043291E+02  0.00000000000E+00 0.  1.
        -11    1    4    4    0    0  0.19860768966E+02 -0.29975320740E+02 -0.20966449920E+03  0.21272557961E+03  0.00000000000E+00 0.  1.
         11    1    4    4    0    0 -0.46507766972E+02  0.20205997980E+02 -0.11983211934E+03  0.13011914374E+03  0.00000000000E+00 0. -1.
         21    1    1    2  502  501 -0.35184924932E+02  0.63523005367E+01  0.41356246427E+02  0.54668727652E+02  0.00000000000E+00 0.  1.
<scales pt_clust_5="13000.00000" pt_clust_6="13000.00000" pt_clust_7="13000.00000" pt_clust_8="13000.00000" pt_clust_9="35.75375"></scales>
<clustering>
<clus scale="   35.754">  1  9  2 -1</clus>
<clus scale="   81.220">  5  6 -1 -1</clus>
<clus scale="   86.723">  1  5  2 -1</clus>
<clus scale="   90.382">  7  8 -1 -1</clus>
<clus scale="   95.358">  2  5  1 -1</clus>
</clustering>
</event>
<event>
 9    1  0.2802611E-005  0.1238848E+03  0.7546771E-02  0.1239820E+00
         -2   -1    0    0    0  501 -0.00000000000E+00  0.00000000000E+00  0.23458546672E+03  0.23458546672E+03  0.00000000000E+00 0.  1.
          1   -1    0    0  502    0  0.00000000000E+00 -0.00000000000E+00 -0.22436644249E+03  0.22436644249E+03  0.00000000000E+00 0. -1.
         23    2    1    2    0    0 -0.13373542617E+02 -0.32564488206E+02  0.97523668747E+02  0.13775100011E+03  0.90692747952E+02 0.  0.
        -24    2    1    2    0    0  0.90823314378E+02  0.28210218423E+02 -0.16809880835E+03  0.20919589261E+03  0.80380478079E+02 0.  0.
         11    1    4    4    0    0  0.38806119758E+02 -0.52236663898E+01 -0.13180042144E+03  0.13749382791E+03  0.00000000000E+00 0. -1.
        -12    1    4    4    0    0  0.52017194620E+02  0.33433884813E+02 -0.36298386916E+02  0.71702064702E+02  0.00000000000E+00 0.  1.
        -11    1    3    3    0    0  0.37409369288E+02 -0.26994880270E+02  0.48810238573E+02  0.67161178227E+02  0.00000000000E+00 0. -1.
         11    1    3    3    0    0 -0.50782911905E+02 -0.55696079357E+01  0.48713430174E+02  0.70589821883E+02  0.00000000000E+00 0.  1.
         21    1    1    2  502  501 -0.77449771761E+02  0.43542697833E+01  0.80794163827E+02  0.11200501649E+03  0.00000000000E+00 0.  1.
<scales pt_clust_5="13000.00000" pt_clust_6="13000.00000" pt_clust_7="13000.00000" pt_clust_8="13000.00000" pt_clust_9="77.57207"></scales>
<clustering>
<clus scale="   77.572">  1  9  2 -1</clus>
<clus scale="   80.380">  5  6 -1 -1</clus>
<clus scale="   90.693">  7  8 -1 -1</clus>
<clus scale="  116.547">  2  5  1 -1</clus>
<clus scale="  116.547">  2  5  1 -1</clus>
</clustering>
</event>
<event>
 9    1  0.2802611E-005  0.1022419E+03  0.7546771E-02  0.1280364E+00
          1   -1    0    0  502    0  0.00000000000E+00  0.00000000000E+00  0.13717539669E+03  0.13717539669E+03  0.00000000000E+00 0. -1.
         -2   -1    0    0    0  501 -0.00000000000E+00 -0.00000000000E+00 -0.14248242014E+03  0.14248242014E+03  0.00000000000E+00 0.  1.
        -24    2    1    2    0    0 -0.84038989362E+01 -0.42745864847E+02 -0.63901729748E+02  0.11191275020E+03  0.80890037176E+02 0.  0.
         23    2    1    2    0    0  0.48274300008E+02  0.47614351518E+02  0.58428292743E+02  0.12757818055E+03  0.90910902798E+02 0.  0.
         11    1    3    3    0    0  0.28798544997E+02 -0.76351489973E+01  0.33594308178E+00  0.29795378030E+02  0.00000000000E+00 0. -1.
        -12    1    3    3    0    0 -0.37202443933E+02 -0.35110715850E+02 -0.64237672830E+02  0.82117372174E+02  0.00000000000E+00 0.  1.
        -13    1    4    4    0    0  0.69347622747E+02  0.96834982291E+01  0.36160043149E+02  0.78806164981E+02  0.00000000000E+00 0. -1.
         13    1    4    4    0    0 -0.21073322739E+02  0.37930853289E+02  0.22268249595E+02  0.48772015567E+02  0.00000000000E+00 0.  1.
         21    1    1    2  502  501 -0.39870401072E+02 -0.48684866710E+01  0.16641355028E+00  0.40166886082E+02  0.00000000000E+00 0. -1.
<scales pt_clust_5="13000.00000" pt_clust_6="13000.00000" pt_clust_7="13000.00000" pt_clust_8="13000.00000" pt_clust_9="40.16654"></scales>
<clustering>
<clus scale="   40.167">  1  9  2 -1</clus>
<clus scale="   80.890">  5  6 -1 -1</clus>
<clus scale="   90.911">  7  8 -1 -1</clus>
<clus scale="   93.444">  2  5  1 -1</clus>
<clus scale="   40.167">  1  5  2 -1</clus>
</clustering>
</event>
<event>
 9    1  0.2802611E-005  0.1007267E+03  0.7546771E-02  0.1283810E+00
          1   -1    0    0  502    0  0.00000000000E+00  0.00000000000E+00  0.35139617968E+03  0.35139617968E+03  0.00000000000E+00 0. -1.
         -2   -1    0    0    0  501 -0.00000000000E+00 -0.00000000000E+00 -0.21863380759E+03  0.21863380759E+03  0.00000000000E+00 0.  1.
         23    2    1    2    0    0 -0.27905592189E+02  0.15796279957E+02 -0.16793854592E+03  0.19368141486E+03  0.90999399566E+02 0.  0.
        -24    2    1    2    0    0  0.27525669086E+01 -0.44007150318E+02  0.32067186601E+03  0.33360086310E+03  0.80714833247E+02 0.  0.
         11    1    4    4    0    0 -0.23093734965E+02 -0.57669931278E+02  0.23528175008E+03  0.24334470097E+03  0.00000000000E+00 0. -1.
        -12    1    4    4    0    0  0.25846301873E+02  0.13662780960E+02  0.85390115927E+02  0.90256162128E+02  0.00000000000E+00 0.  1.
        -11    1    3    3    0    0  0.12669681235E+02  0.43440406598E+02 -0.60446317273E+02  0.75507264683E+02  0.00000000000E+00 0.  1.
         11    1    3    3    0    0 -0.40575273424E+02 -0.27644126641E+02 -0.10749222865E+03  0.11817415018E+03  0.00000000000E+00 0. -1.
         21    1    1    2  502  501  0.25153025281E+02  0.28210870361E+02 -0.19970948002E+02  0.42747709312E+02  0.00000000000E+00 0. -1.
<scales pt_clust_5="13000.00000" pt_clust_6="13000.00000" pt_clust_7="13000.00000" pt_clust_8="13000.00000" pt_clust_9="37.79587"></scales>
<clustering>
<clus scale="   37.796">  2  9  1 -1</clus>
<clus scale="   80.715">  5  6 -1 -1</clus>
<clus scale="   90.999">  7  8 -1 -1</clus>
<clus scale="   91.542">  1  5  2 -1</clus>
<clus scale="   91.542">  1  5  2 -1</clus>
</clustering>
</event>
<event>
 9    1  0.2802611E-005  0.1505201E+03  0.7546771E-02  0.1202159E+00
          1   -1    0    0  502    0  0.00000000000E+00  0.00000000000E+00  0.54153642158E+03  0.54153642158E+03  0.00000000000E+00 0. -1.
         -2   -1    0    0    0  501 -0.00000000000E+00 -0.00000000000E+00 -0.60469731555E+02  0.60469731555E+02  0.00000000000E+00 0.  1.
         23    2    1    2    0    0 -0.12564249942E+03 -0.33159670388E+02  0.11655362687E+03  0.19665060593E+03  0.90559988249E+02 0.  0.
        -24    2    1    2    0    0  0.11669024135E+03  0.12217212486E+02  0.35263973412E+03  0.37967081614E+03  0.77648398874E+02 0.  0.
         11    1    4    4    0    0  0.11659757958E+03  0.99166899059E+01  0.35647900135E+03  0.37519410271E+03  0.00000000000E+00 0. -1.
        -12    1    4    4    0    0  0.92661764417E-01  0.23005225798E+01 -0.38392672313E+01  0.44767134391E+01  0.00000000000E+00 0.  1.
        -13    1    3    3    0    0 -0.56565791328E+02 -0.82456731503E+01 -0.19983819300E+01  0.57198543728E+02  0.00000000000E+00 0.  1.
         13    1    3    3    0    0 -0.69076708096E+02 -0.24913997237E+02  0.11855200880E+03  0.13945206220E+03  0.00000000000E+00 0. -1.
         21    1    1    2  502  501  0.89522580766E+01  0.20942457902E+02  0.11873329039E+02  0.25684731069E+02  0.00000000000E+00 0. -1.
<scales pt_clust_5="13000.00000" pt_clust_6="13000.00000" pt_clust_7="13000.00000" pt_clust_8="13000.00000" pt_clust_9="22.77563"></scales>
<clustering>
<clus scale="   22.776">  2  9  1 -1</clus>
<clus scale="   77.648">  5  6 -1 -1</clus>
<clus scale="   90.560">  7  8 -1 -1</clus>
<clus scale="  143.124">  1  5  2 -1</clus>
<clus scale="  143.124">  1  5  2 -1</clus>
</clustering>
</event>
<event>
 9    1  0.2802611E-005  0.1231490E+03  0.7546771E-02  0.1241195E+00
          1   -1    0    0  502    0  0.00000000000E+00  0.00000000000E+00  0.31262800156E+03  0.31262800156E+03  0.00000000000E+00 0. -1.
         -2   -1    0    0    0  501 -0.00000000000E+00 -0.00000000000E+00 -0.20641454235E+03  0.20641454235E+03  0.00000000000E+00 0.  1.
        -24    2    1    2    0    0 -0.10779001727E+03 -0.59278556262E+02 -0.64533752385E+01  0.14850188410E+03  0.82936894529E+02 0.  0.
         23    2    1    2    0    0  0.69924115156E+02 -0.41299031184E+02  0.19786198726E+03  0.23339879275E+03  0.93437886318E+02 0.  0.
         13    1    3    3    0    0 -0.39011181285E+02 -0.40106444492E+02  0.34946173124E+02  0.65966917247E+02  0.00000000000E+00 0. -1.
        -14    1    3    3    0    0 -0.68778835983E+02 -0.19172111770E+02 -0.41399548362E+02  0.82534966854E+02  0.00000000000E+00 0.  1.
        -13    1    4    4    0    0  0.15201501694E+02 -0.47848978958E+02  0.34307204247E+02  0.60807850680E+02  0.00000000000E+00 0. -1.
         13    1    4    4    0    0  0.54722613462E+02  0.65499477737E+01  0.16355478301E+03  0.17259094207E+03  0.00000000000E+00 0.  1.
         21    1    1    2  502  501  0.37865902113E+02  0.10057758745E+03 -0.85195152803E+02  0.13714186706E+03  0.00000000000E+00 0.  1.
<scales pt_clust_5="13000.00000" pt_clust_6="13000.00000" pt_clust_7="13000.00000" pt_clust_8="13000.00000" pt_clust_9="107.46943"></scales>
<clustering>
<clus scale="   82.937">  5  6 -1 -1</clus>
<clus scale="   93.438">  7  8 -1 -1</clus>
<clus scale="  107.469">  2  9  1 -1</clus>
<clus scale="  115.384">  2  5  1 -1</clus>
<clus scale="  123.149">  1  5  2 -1</clus>
</clustering>
</event>
<event>
 9    1  0.2802611E-005  0.1042941E+03  0.7546771E-02  0.1275133E+00
          1   -1    0    0  502    0  0.00000000000E+00  0.00000000000E+00  0.38452721757E+03  0.38452721757E+03  0.00000000000E+00 0. -1.
         -2   -1    0    0    0  501 -0.00000000000E+00 -0.00000000000E+00 -0.76214734131E+02  0.76214734131E+02  0.00000000000E+00 0.  1.
        -24    2    1    2    0    0  0.33055253753E+02 -0.39120291788E+02 -0.12854413282E+02  0.98627422757E+02  0.83301173753E+02 0.  0.
         23    2    1    2    0    0 -0.49429859503E+02  0.13714499135E+02  0.31403229850E+03  0.33105837810E+03  0.91389095127E+02 0.  0.
         11    1    3    3    0    0 -0.26493292888E+02 -0.63438477392E+01  0.63922226107E+01  0.27982127905E+02  0.00000000000E+00 0. -1.
        -12    1    3    3    0    0  0.59548546641E+02 -0.32776444049E+02 -0.19246635893E+02  0.70645294852E+02  0.00000000000E+00 0.  1.
        -11    1    4    4    0    0  0.19484302641E+02 -0.14240914775E+02  0.36670774516E+02  0.43899742671E+02  0.00000000000E+00 0.  1.
         11    1    4    4    0    0 -0.68914162144E+02  0.27955413909E+02  0.27736152399E+03  0.28715863543E+03  0.00000000000E+00 0. -1.
         21    1    1    2  502  501  0.16374605750E+02  0.25405792653E+02  0.71345982217E+01  0.31056150850E+02  0.00000000000E+00 0. -1.
<scales pt_clust_5="13000.00000" pt_clust_6="13000.00000" pt_clust_7="13000.00000" pt_clust_8="13000.00000" pt_clust_9="30.22552"></scales>
<clustering>
<clus scale="   30.226">  2  9  1 -1</clus>
<clus scale="   83.301">  5  6 -1 -1</clus>
<clus scale="   91.389">  7  8 -1 -1</clus>
<clus scale="   97.285">  2  5  1 -1</clus>
<clus scale="  104.294">  1  5  2 -1</clus>
</clustering>
</event>
<event>
 9    1  0.2802611E-005  0.1280516E+03  0.7546771E-02  0.1236870E+00
          1   -1    0    0  502    0  0.00000000000E+00  0.00000000000E+00  0.23970853762E+03  0.23970853762E+03  0.00000000000E+00 0. -1.
         -2   -1    0    0    0  501 -0.00000000000E+00 -0.00000000000E+00 -0.11467133624E+03  0.11467133624E+03  0.00000000000E+00 0.  1.
        -24    2    1    2    0    0 -0.40971634456E+02 -0.58052477084E+02  0.99450153364E+01  0.10753802234E+03  0.80104668978E+02 0.  0.
         23    2    1    2    0    0  0.31435065031E+02  0.76369816506E+02  0.15450210050E+03  0.20234901573E+03  0.10126061882E+03 0.  0.
         11    1    3    3    0    0  0.22893669452E+02 -0.28884228177E+02  0.27396676365E+01  0.36958416053E+02  0.00000000000E+00 0. -1.
        -12    1    3    3    0    0 -0.63865303908E+02 -0.29168248907E+02  0.72053476999E+01  0.70579606282E+02  0.00000000000E+00 0.  1.
        -13    1    4    4    0    0  0.18195673344E+02 -0.21952739552E+02  0.54360894793E+02  0.61384950802E+02  0.00000000000E+00 0. -1.
         13    1    4    4    0    0  0.13239391687E+02  0.98322556058E+02  0.10014120571E+03  0.14096406493E+03  0.00000000000E+00 0.  1.
         21    1    1    2  502  501  0.95365694247E+01 -0.18317339422E+02 -0.39409914448E+02  0.44492835791E+02  0.00000000000E+00 0.  1.
<scales pt_clust_5="13000.00000" pt_clust_6="13000.00000" pt_clust_7="13000.00000" pt_clust_8="13000.00000" pt_clust_9="20.65118"></scales>
<clustering>
<clus scale="   20.651">  2  9  1 -1</clus>
<clus scale="   80.105">  5  6 -1 -1</clus>
<clus scale="  101.261">  7  8 -1 -1</clus>
<clus scale="  112.073">  2  5  1 -1</clus>
<clus scale="  128.052">  1  5  2 -1</clus>
</clustering>
</event>
<event>
 9    1  0.2802611E-005  0.1688071E+03  0.7546771E-02  0.1180753E+00
          1   -1    0    0  502    0  0.00000000000E+00  0.00000000000E+00  0.12261887793E+03  0.12261887793E+03  0.00000000000E+00 0. -1.
         -2   -1    0    0    0  501 -0.00000000000E+00 -0.00000000000E+00 -0.51894231895E+03  0.51894231895E+03  0.00000000000E+00 0.  1.
        -24    2    1    2    0    0 -0.10391970210E+03  0.11427129518E+03 -0.37824597030E+03  0.41667924511E+03  0.81818982349E+02 0.  0.
         23    2    1    2    0    0  0.10555506315E+03 -0.89402479291E+02  0.31032196242E+02  0.16981025488E+03  0.93476471897E+02 0.  0.
         11    1    3    3    0    0 -0.30856013708E+02  0.12328641358E+02 -0.24290957834E+02  0.41159927262E+02  0.00000000000E+00 0. -1.
        -12    1    3    3    0    0 -0.73063688396E+02  0.10194265382E+03 -0.35395501246E+03  0.37551931785E+03  0.00000000000E+00 0.  1.
        -13    1    4    4    0    0  0.43634928933E+02 -0.65497487437E+02  0.58412875824E+02  0.98010162461E+02  0.00000000000E+00 0. -1.
         13    1    4    4    0    0  0.61920134212E+02 -0.23904991854E+02 -0.27380679582E+02  0.71800092415E+02  0.00000000000E+00 0.  1.
         21    1    1    2  502  501 -0.16353610414E+01 -0.24868815890E+02 -0.49109666964E+02  0.55071696895E+02  0.00000000000E+00 0. -1.
<scales pt_clust_5="13000.00000" pt_clust_6="13000.00000" pt_clust_7="13000.00000" pt_clust_8="13000.00000" pt_clust_9="24.92253"></scales>
<clustering>
<clus scale="   24.923">  2  9  1 -1</clus>
<clus scale="   81.819">  5  6 -1 -1</clus>
<clus scale="   93.476">  7  8 -1 -1</clus>
<clus scale="  162.642">  2  5  1 -1</clus>
<clus scale="  168.807">  1  5  2 -1</clus>
</clustering>
</event>
<event>
 9    1  0.2802611E-005  0.1724010E+03  0.7546771E-02  0.1176784E+00
         -2   -1    0    0    0  501 -0.00000000000E+00  0.00000000000E+00  0.30007190875E+03  0.30007190875E+03  0.00000000000E+00 0.  1.
          1   -1    0    0  502    0  0.00000000000E+00 -0.00000000000E+00 -0.13492054161E+03  0.13492054161E+03  0.00000000000E+00 0. -1.
        -24    2    1    2    0    0 -0.28020895568E+02  0.13036723689E+03  0.12549724681E+03  0.20042295089E+03  0.81480140196E+02 0.  0.
         23    2    1    2    0    0  0.23011402330E+02 -0.15034970775E+03 -0.12734239680E+02  0.17827621009E+03  0.92117788544E+02 0.  0.
         13    1    3    3    0    0  0.26692949670E+02  0.31140353678E+02  0.20118308497E+02  0.45683492927E+02  0.00000000000E+00 0. -1.
        -14    1    3    3    0    0 -0.54713845237E+02  0.99226883207E+02  0.10537893831E+03  0.15473945797E+03  0.00000000000E+00 0.  1.
        -11    1    4    4    0    0  0.58283520008E+02 -0.95699871051E+02 -0.15802434240E+02  0.11315984690E+03  0.00000000000E+00 0. -1.
         11    1    4    4    0    0 -0.35272117677E+02 -0.54649836704E+02  0.30681945598E+01  0.65116363190E+02  0.00000000000E+00 0.  1.
         21    1    1    2  502  501  0.50094932374E+01  0.19982470869E+02  0.52388360012E+02  0.56293289381E+02  0.00000000000E+00 0.  1.
<scales pt_clust_5="13000.00000" pt_clust_6="13000.00000" pt_clust_7="13000.00000" pt_clust_8="13000.00000" pt_clust_9="20.60083"></scales>
<clustering>
<clus scale="   20.601">  1  9  2 -1</clus>
<clus scale="   81.480">  5  6 -1 -1</clus>
<clus scale="   92.118">  7  8 -1 -1</clus>
<clus scale="  166.959">  1  5  2 -1</clus>
<clus scale="  172.401">  2  5  1 -1</clus>
</clustering>
</event>
<event>
 9    1  0.2802611E-005  0.3003430E+03  0.7546771E-02  0.1085630E+00
         -2   -1    0    0    0  501 -0.00000000000E+00  0.00000000000E+00  0.31101916549E+03  0.31101916549E+03  0.00000000000E+00 0.  1.
          1   -1    0    0  502    0  0.00000000000E+00 -0.00000000000E+00 -0.18315822170E+04  0.18315822170E+04  0.00000000000E+00 0. -1.
        -24    2    1    2    0    0 -0.12866556475E+03  0.77336014155E+02 -0.47118805885E+01  0.16941215656E+03  0.78374679150E+02 0.  0.
         23    2    1    2    0    0  0.28521966083E+03 -0.12346213075E+03 -0.16979205029E+04  0.17286773750E+04  0.93799148210E+02 0.  0.
         13    1    3    3    0    0 -0.75526194855E+02  0.58024499631E+02  0.33733777927E+02  0.10103967755E+03  0.00000000000E+00 0. -1.
        -14    1    3    3    0    0 -0.53139369898E+02  0.19311514524E+02 -0.38445658516E+02  0.68372479004E+02  0.00000000000E+00 0.  1.
        -11    1    4    4    0    0  0.48415934570E+02 -0.32940356836E+02 -0.16844361396E+03  0.17833233278E+03  0.00000000000E+00 0.  1.
         11    1    4    4    0    0  0.23680372626E+03 -0.90521773911E+02 -0.15294768889E+04  0.15503450422E+04  0.00000000000E+00 0. -1.
         21    1    1    2  502  501 -0.15655409608E+03  0.46126116592E+02  0.18206933191E+03  0.24451185095E+03  0.00000000000E+00 0.  1.
<scales pt_clust_5="13000.00000" pt_clust_6="13000.00000" pt_clust_7="13000.00000" pt_clust_8="13000.00000" pt_clust_9="163.20785"></scales>
<clustering>
<clus scale="   78.375">  5  6 -1 -1</clus>
<clus scale="   93.799">  7  8 -1 -1</clus>
<clus scale="  163.208">  1  9  2 -1</clus>
<clus scale="  295.889">  1  5  2 -1</clus>
<clus scale="  300.343">  2  5  1 -1</clus>
</clustering>
</event>
<event>
 9    1  0.8422670E-005  0.1890016E+03  0.7546771E-02  0.1160738E+00
          3   -1    0    0  502    0  0.00000000000E+00  0.00000000000E+00  0.67927378290E+03  0.67927378290E+03  0.00000000000E+00 0. -1.
         -4   -1    0    0    0  501 -0.00000000000E+00 -0.00000000000E+00 -0.73289509727E+03  0.73289509727E+03  0.00000000000E+00 0.  1.
         23    2    1    2    0    0  0.11102824264E+03  0.11919332882E+00 -0.61137594323E+03  0.62824349774E+03  0.92639428008E+02 0.  0.
        -24    2    1    2    0    0 -0.14887835585E+03 -0.73658246831E+02  0.64076838416E+03  0.66674216251E+03  0.79816583261E+02 0.  0.
         11    1    4    4    0    0 -0.70050792788E+02 -0.54143955412E+02  0.46181482654E+03  0.47022506897E+03  0.00000000000E+00 0. -1.
        -12    1    4    4    0    0 -0.78827563063E+02 -0.19514291419E+02  0.17895355762E+03  0.19651709354E+03  0.00000000000E+00 0.  1.
        -13    1    3    3    0    0  0.98086048054E+02 -0.36524241882E+02 -0.40975061795E+03  0.42290715527E+03  0.00000000000E+00 0.  1.
         13    1    3    3    0    0  0.12942194583E+02  0.36643435211E+02 -0.20162532528E+03  0.20533634247E+03  0.00000000000E+00 0. -1.
         21    1    1    2  502  501  0.37850113213E+02  0.73539053503E+02 -0.83013755310E+02  0.11718321992E+03  0.00000000000E+00 0. -1.
<scales pt_clust_5="13000.00000" pt_clust_6="13000.00000" pt_clust_7="13000.00000" pt_clust_8="13000.00000" pt_clust_9="82.70806"></scales>
<clustering>
<clus scale="   79.817">  5  6 -1 -1</clus>
<clus scale="   82.708">  2  9  1 -1</clus>
<clus scale="   92.639">  7  8 -1 -1</clus>
<clus scale="  183.058">  1  5  2 -1</clus>
<clus scale="  183.058">  1  5  2 -1</clus>
</clustering>
</event>
<event>
 9    1  0.2802611E-005  0.9692025E+02  0.7546771E-02  0.1292781E+00
         -2   -1    0    0    0  501 -0.00000000000E+00  0.00000000000E+00  0.40659411343E+03  0.40659411343E+03  0.00000000000E+00 0.  1.
          1   -1    0    0  502    0  0.00000000000E+00 -0.00000000000E+00 -0.12107461304E+03  0.12107461304E+03  0.00000000000E+00 0. -1.
         23    2    1    2    0    0 -0.31606123538E+01 -0.32021624358E+02  0.33479289457E+03  0.34851529488E+03  0.91330469256E+02 0.  0.
        -24    2    1    2    0    0 -0.44386071843E+02  0.38508005962E+02 -0.74953072327E+02  0.12472727801E+03  0.80535339646E+02 0.  0.
         11    1    4    4    0    0 -0.41922712172E+02  0.62568172202E+02 -0.53324013349E+02  0.92280769222E+02  0.00000000000E+00 0. -1.
        -12    1    4    4    0    0 -0.24633596707E+01 -0.24060166239E+02 -0.21629058978E+02  0.32446508789E+02  0.00000000000E+00 0.  1.
        -13    1    3    3    0    0 -0.13242139107E+02 -0.60489655346E+02  0.16884110050E+03  0.17983789887E+03  0.00000000000E+00 0.  1.
         13    1    3    3    0    0  0.10081526753E+02  0.28468030988E+02  0.16595179406E+03  0.16867739600E+03  0.00000000000E+00 0. -1.
         21    1    1    2  502  501  0.47546684197E+02 -0.64863816046E+01  0.25679678146E+02  0.54426153586E+02  0.00000000000E+00 0.  1.
<scales pt_clust_5="13000.00000" pt_clust_6="13000.00000" pt_clust_7="13000.00000" pt_clust_8="13000.00000" pt_clust_9="47.98708"></scales>
<clustering>
<clus scale="   47.987">  2  9  1 -1</clus>
<clus scale="   80.535">  5  6 -1 -1</clus>
<clus scale="   86.823">  2  5  1 -1</clus>
<clus scale="   91.330">  7  8 -1 -1</clus>
<clus scale="   47.987">  2  5  1 -1</clus>
</clustering>
</event>
<event>
 9    1  0.2802611E-005  0.9792943E+02  0.7546771E-02  0.1290487E+00
         -4   -1    0    0    0  501 -0.00000000000E+00  0.00000000000E+00  0.28627494383E+03  0.28627494383E+03  0.00000000000E+00 0.  1.
          3   -1    0    0  502    0  0.00000000000E+00 -0.00000000000E+00 -0.24234175371E+03  0.24234175371E+03  0.00000000000E+00 0. -1.
        -24    2    1    2    0    0 -0.14743088725E+02  0.59492003267E+01  0.90966247677E+02  0.12226084614E+03  0.80125555429E+02 0.  0.
         23    2    1    2    0    0  0.33859676832E+02 -0.17397227863E+02 -0.21518164636E+03  0.23673731116E+03  0.91061914703E+02 0.  0.
         11    1    3    3    0    0  0.11341542245E+02  0.29695944604E+02  0.78761306196E+02  0.84934227848E+02  0.00000000000E+00 0. -1.
        -12    1    3    3    0    0 -0.26084630969E+02 -0.23746744277E+02  0.12204941481E+02  0.37326618292E+02  0.00000000000E+00 0.  1.
        -11    1    4    4    0    0 -0.30041975919E+01  0.32639288197E+02 -0.10773614531E+03  0.11261183483E+03  0.00000000000E+00 0. -1.
         11    1    4    4    0    0  0.36863874424E+02 -0.50036516061E+02 -0.10744550105E+03  0.12412547633E+03  0.00000000000E+00 0.  1.
         21    1    1    2  502  501 -0.19116588107E+02  0.11448027537E+02  0.16814858881E+03  0.16961854024E+03  0.00000000000E+00 0.  1.
<scales pt_clust_5="13000.00000" pt_clust_6="13000.00000" pt_clust_7="13000.00000" pt_clust_8="13000.00000" pt_clust_9="22.28231"></scales>
<clustering>
<clus scale="   22.282">  1  9  2 -1</clus>
<clus scale="   80.126">  5  6 -1 -1</clus>
<clus scale="   87.852">  1  5  2 -1</clus>
<clus scale="   91.062">  7  8 -1 -1</clus>
<clus scale="   97.929">  2  5  1 -1</clus>
</clustering>
</event>
<event>
 9    1  0.2802611E-005  0.1972220E+03  0.7546771E-02  0.1175084E+00
         -2   -1    0    0    0  501 -0.00000000000E+00  0.00000000000E+00  0.23402523395E+03  0.23402523395E+03  0.00000000000E+00 0.  1.
          1   -1    0    0  502    0  0.00000000000E+00 -0.00000000000E+00 -0.75095312689E+03  0.75095312689E+03  0.00000000000E+00 0. -1.
        -24    2    1    2    0    0  0.70231082171E+02  0.44336014164E+02 -0.69746453836E+02  0.13526717643E+03  0.80836589132E+02 0.  0.
         23    2    1    2    0    0  0.15114233396E+03  0.72601734247E+02 -0.54751560400E+03  0.57999360801E+03  0.92218391763E+02 0.  0.
         13    1    3    3    0    0  0.83200104913E+02  0.46461973422E+02 -0.41157608471E+02  0.10380231773E+03  0.00000000000E+00 0. -1.
        -14    1    3    3    0    0 -0.12969022742E+02 -0.21259592578E+01 -0.28588845365E+02  0.31464858699E+02  0.00000000000E+00 0.  1.
        -13    1    4    4    0    0  0.62703616772E+02  0.16847202374E+01 -0.97616592267E+02  0.11603267180E+03  0.00000000000E+00 0.  1.
         13    1    4    4    0    0  0.88438717188E+02  0.70917014010E+02 -0.44989901173E+03  0.46396093621E+03  0.00000000000E+00 0. -1.
         21    1    1    2  502  501 -0.22137341613E+03 -0.11693774841E+03  0.10033416489E+03  0.26971757640E+03  0.00000000000E+00 0.  1.
<scales pt_clust_5="13000.00000" pt_clust_6="13000.00000" pt_clust_7="13000.00000" pt_clust_8="13000.00000" pt_clust_9="174.33379"></scales>
<clustering>
<clus scale="   80.837">  5  6 -1 -1</clus>
<clus scale="   92.218">  7  8 -1 -1</clus>
<clus scale="  115.899">  1  5  2 -1</clus>
<clus scale="  174.334">  1  9  2 -1</clus>
<clus scale="  197.222">  2  5  1 -1</clus>
</clustering>
</event>
<event>
 9    1  0.2802611E-005  0.9806110E+02  0.7546771E-02  0.1290405E+00
         -2   -1    0    0    0  501 -0.00000000000E+00  0.00000000000E+00  0.15384207156E+03  0.15384207156E+03  0.00000000000E+00 0.  1.
          1   -1    0    0  502    0  0.00000000000E+00 -0.00000000000E+00 -0.46309757401E+03  0.46309757401E+03  0.00000000000E+00 0. -1.
        -24    2    1    2    0    0 -0.26650590882E+02 -0.47680760489E+02  0.10884505817E+03  0.14580628616E+03  0.80178036158E+02 0.  0.
         23    2    1    2    0    0  0.31692436911E+02  0.14744431299E+02 -0.42581914410E+03  0.43693104189E+03  0.91460281439E+02 0.  0.
         13    1    3    3    0    0 -0.11586958470E+02 -0.64291581179E+02  0.48305005060E+02  0.81246775511E+02  0.00000000000E+00 0. -1.
        -14    1    3    3    0    0 -0.15063632412E+02  0.16610820690E+02  0.60540053108E+02  0.64559510653E+02  0.00000000000E+00 0.  1.
        -13    1    4    4    0    0 -0.32402606959E+02  0.17711269055E+01 -0.13374786688E+03  0.13762833184E+03  0.00000000000E+00 0.  1.
         13    1    4    4    0    0  0.64095043870E+02  0.12973304394E+02 -0.29207127721E+03  0.29930271006E+03  0.00000000000E+00 0. -1.
         21    1    1    2  502  501 -0.50418460288E+01  0.32936329190E+02  0.77185834774E+01  0.34202317506E+02  0.00000000000E+00 0. -1.
<scales pt_clust_5="13000.00000" pt_clust_6="13000.00000" pt_clust_7="13000.00000" pt_clust_8="13000.00000" pt_clust_9="33.31999"></scales>
<clustering>
<clus scale="   33.320">  1  9  2 -1</clus>
<clus scale="   80.178">  5  6 -1 -1</clus>
<clus scale="   87.633">  1  5  2 -1</clus>
<clus scale="   91.460">  7  8 -1 -1</clus>
<clus scale="   98.061">  2  5  1 -1</clus>
</clustering>
</event>
<event>
 9    1  0.2802611E-005  0.9013401E+02  0.7546771E-02  0.1307438E+00
          1   -1    0    0  502    0  0.00000000000E+00  0.00000000000E+00  0.29482371497E+03  0.29482371497E+03  0.00000000000E+00 0. -1.
         -2   -1    0    0    0  501 -0.00000000000E+00 -0.00000000000E+00 -0.83816184513E+02  0.83816184513E+02  0.00000000000E+00 0.  1.
        -24    2    1    2    0    0  0.25187010884E+02  0.22331690786E+02 -0.27597817290E+02  0.92004964034E+02  0.81056671268E+02 0.  0.
         23    2    1    2    0    0 -0.63644082287E+01 -0.10669505158E+02  0.24711087421E+03  0.26291488223E+03  0.88916292747E+02 0.  0.
         11    1    3    3    0    0 -0.15622454760E+02  0.38644044944E+02 -0.33651273462E+01  0.41818027027E+02  0.00000000000E+00 0. -1.
        -12    1    3    3    0    0  0.40809465643E+02 -0.16312354158E+02 -0.24232689944E+02  0.50186937007E+02  0.00000000000E+00 0.  1.
        -11    1    4    4    0    0 -0.25618825944E+01 -0.47823596346E+02  0.96345348804E+02  0.10759222019E+03  0.00000000000E+00 0.  1.
         11    1    4    4    0    0 -0.38025256343E+01  0.37154091188E+02  0.15076552540E+03  0.15532266204E+03  0.00000000000E+00 0. -1.
         21    1    1    2  502  501 -0.18822602655E+02 -0.11662185628E+02 -0.85055264584E+01  0.23720053218E+02  0.00000000000E+00 0.  1.
<scales pt_clust_5="13000.00000" pt_clust_6="13000.00000" pt_clust_7="13000.00000" pt_clust_8="13000.00000" pt_clust_9="22.14265"></scales>
<clustering>
<clus scale="   22.143">  2  9  1 -1</clus>
<clus scale="   81.057">  5  6 -1 -1</clus>
<clus scale="   82.391">  2  5  1 -1</clus>
<clus scale="   88.916">  7  8 -1 -1</clus>
<clus scale="   90.134">  1  5  2 -1</clus>
</clustering>
</event>
<event>
 9    1  0.2802611E-005  0.1313053E+03  0.7546771E-02  0.1228557E+00
          1   -1    0    0  502    0  0.00000000000E+00  0.00000000000E+00  0.97647415416E+02  0.97647415416E+02  0.00000000000E+00 0. -1.
         -2   -1    0    0    0  501 -0.00000000000E+00 -0.00000000000E+00 -0.52066452145E+03  0.52066452145E+03  0.00000000000E+00 0.  1.
         23    2    1    2    0    0  0.37526686976E+02  0.11720487529E+03 -0.29763362660E+03  0.33370824341E+03  0.87350907303E+02 0.  0.
        -24    2    1    2    0    0 -0.21582761726E+02 -0.91904836482E+02  0.31819258700E+02  0.12458181498E+03  0.74805406397E+02 0.  0.
         11    1    4    4    0    0  0.14366130469E+02 -0.71080146937E+02  0.44135028527E+00  0.72518740911E+02  0.00000000000E+00 0. -1.
        -12    1    4    4    0    0 -0.35948892195E+02 -0.20824689545E+02  0.31377908415E+02  0.52063074066E+02  0.00000000000E+00 0.  1.
        -13    1    3    3    0    0 -0.20759779563E+02  0.17524731631E+02 -0.22321950497E+02  0.35161827886E+02  0.00000000000E+00 0.  1.
         13    1    3    3    0    0  0.58286466539E+02  0.99680143662E+02 -0.27531167610E+03  0.29854641552E+03  0.00000000000E+00 0. -1.
         21    1    1    2  502  501 -0.15943925251E+02 -0.25300038812E+02 -0.15720273813E+03  0.16002187848E+03  0.00000000000E+00 0.  1.
<scales pt_clust_5="13000.00000" pt_clust_6="13000.00000" pt_clust_7="13000.00000" pt_clust_8="13000.00000" pt_clust_9="29.90486"></scales>
<clustering>
<clus scale="   29.905">  2  9  1 -1</clus>
<clus scale="   74.805">  5  6 -1 -1</clus>
<clus scale="   87.351">  7  8 -1 -1</clus>
<clus scale="  123.316">  1  5  2 -1</clus>
<clus scale="  123.316">  1  5  2 -1</clus>
</clustering>
</event>
<event>
 9    1  0.2802611E-005  0.9772771E+02  0.7546771E-02  0.1286723E+00
          1   -1    0    0  502    0  0.00000000000E+00  0.00000000000E+00  0.41156567738E+03  0.41156567738E+03  0.00000000000E+00 0. -1.
         -2   -1    0    0    0  501 -0.00000000000E+00 -0.00000000000E+00 -0.36951298971E+02  0.36951298971E+02  0.00000000000E+00 0.  1.
         23    2    1    2    0    0 -0.73590480803E+02  0.90956410460E+01  0.14680243685E+03  0.18448784481E+03  0.83585404617E+02 0.  0.
        -24    2    1    2    0    0  0.36604548069E+02  0.13578958416E+02  0.16684233213E+03  0.18920005995E+03  0.80224795706E+02 0.  0.
         11    1    4    4    0    0 -0.24565958925E+01 -0.27239922192E+02  0.88367760141E+02  0.92503563481E+02  0.00000000000E+00 0. -1.
        -12    1    4    4    0    0  0.39061143961E+02  0.40818880608E+02  0.78474571985E+02  0.96696496472E+02  0.00000000000E+00 0.  1.
        -11    1    3    3    0    0 -0.28950283774E+02 -0.26465788833E+02  0.10947992141E+03  0.11629449730E+03  0.00000000000E+00 0.  1.
         11    1    3    3    0    0 -0.44640197030E+02  0.35561429879E+02  0.37322515441E+02  0.68193347511E+02  0.00000000000E+00 0. -1.
         21    1    1    2  502  501  0.36985932735E+02 -0.22674599462E+02  0.60969609425E+02  0.74829071586E+02  0.00000000000E+00 0. -1.
<scales pt_clust_5="13000.00000" pt_clust_6="13000.00000" pt_clust_7="13000.00000" pt_clust_8="13000.00000" pt_clust_9="43.38314"></scales>
<clustering>
<clus scale="   43.383">  2  9  1 -1</clus>
<clus scale="   80.225">  5  6 -1 -1</clus>
<clus scale="   83.585">  7  8 -1 -1</clus>
<clus scale="   94.869">  1  5  2 -1</clus>
<clus scale="   94.869">  1  5  2 -1</clus>
</clustering>
</event>
<event>
 9    1  0.2802611E-005  0.1422800E+03  0.7546771E-02  0.1211011E+00
          1   -1    0    0  502    0  0.00000000000E+00  0.00000000000E+00  0.25502109736E+03  0.25502109736E+03  0.00000000000E+00 0. -1.
         -2   -1    0    0    0  501 -0.00000000000E+00 -0.00000000000E+00 -0.91520251688E+02  0.91520251688E+02  0.00000000000E+00 0.  1.
        -24    2    1    2    0    0  0.12717692836E+03  0.76402242889E+01  0.77672094092E+02  0.16950225648E+03  0.80409679861E+02 0.  0.
         23    2    1    2    0    0 -0.10814934640E+03 -0.15869331410E+02  0.79694980758E+02  0.15541988297E+03  0.76524069793E+02 0.  0.
         13    1    3    3    0    0  0.80715099825E+02  0.43009193854E+02  0.55863815342E+02  0.10717035019E+03  0.00000000000E+00 0. -1.
        -14    1    3    3    0    0  0.46461828536E+02 -0.35368969565E+02  0.21808278750E+02  0.62331906284E+02  0.00000000000E+00 0.  1.
        -11    1    4    4    0    0 -0.69638843342E+02 -0.46767965651E+02  0.53952969430E+02  0.99738327755E+02  0.00000000000E+00 0.  1.
         11    1    4    4    0    0 -0.38510503059E+02  0.30898634240E+02  0.25742011328E+02  0.55681555214E+02  0.00000000000E+00 0. -1.
         21    1    1    2  502  501 -0.19027581960E+02  0.82291071213E+01  0.61337708193E+01  0.21619209600E+02  0.00000000000E+00 0. -1.
<scales pt_clust_5="13000.00000" pt_clust_6="13000.00000" pt_clust_7="13000.00000" pt_clust_8="13000.00000" pt_clust_9="20.73082"></scales>
<clustering>
<clus scale="   20.731">  2  9  1 -1</clus>
<clus scale="   76.524">  7  8 -1 -1</clus>
<clus scale="   80.410">  5  6 -1 -1</clus>
<clus scale="  140.121">  1  7  2 -1</clus>
<clus scale="  140.121">  1  5  2 -1</clus>
</clustering>
</event>
<event>
 9    1  0.2802611E-005  0.9188616E+02  0.7546771E-02  0.1302405E+00
          1   -1    0    0  502    0  0.00000000000E+00  0.00000000000E+00  0.32938839074E+03  0.32938839074E+03  0.00000000000E+00 0. -1.
         -2   -1    0    0    0  501 -0.00000000000E+00 -0.00000000000E+00 -0.67012575529E+02  0.67012575529E+02  0.00000000000E+00 0.  1.
         23    2    1    2    0    0 -0.44087275705E-01 -0.15100767534E+00 -0.16716904129E+02  0.91485182273E+02  0.89944754961E+02 0.  0.
        -24    2    1    2    0    0 -0.18273059256E+02 -0.10626506385E+02  0.26702560256E+03  0.28047630827E+03  0.83171267545E+02 0.  0.
         13    1    4    4    0    0 -0.28786485549E+02 -0.41001287794E+02  0.19945289836E+03  0.20564830662E+03  0.00000000000E+00 0. -1.
        -14    1    4    4    0    0  0.10513426293E+02  0.30374781409E+02  0.67572704202E+02  0.74828001652E+02  0.00000000000E+00 0.  1.
        -13    1    3    3    0    0 -0.43496009818E+02  0.99033319115E+01 -0.25206250385E+01  0.44680335760E+02  0.00000000000E+00 0.  1.
         13    1    3    3    0    0  0.43451922542E+02 -0.10054339587E+02 -0.14196279090E+02  0.46804846513E+02  0.00000000000E+00 0. -1.
         21    1    1    2  502  501  0.18317146532E+02  0.10777514061E+02  0.12067116779E+02  0.24439475726E+02  0.00000000000E+00 0.  1.
<scales pt_clust_5="13000.00000" pt_clust_6="13000.00000" pt_clust_7="13000.00000" pt_clust_8="13000.00000" pt_clust_9="21.25259"></scales>
<clustering>
<clus scale="   21.253">  2  9  1 -1</clus>
<clus scale="   83.171">  5  6 -1 -1</clus>
<clus scale="   85.267">  1  5  2 -1</clus>
<clus scale="   89.945">  7  8 -1 -1</clus>
<clus scale="   85.267">  1  5  2 -1</clus>
</clustering>
</event>
<event>
 9    1  0.2802611E-005  0.1286671E+03  0.7546771E-02  0.1232075E+00
         -2   -1    0    0    0  501 -0.00000000000E+00  0.00000000000E+00  0.33355582051E+03  0.33355582051E+03  0.00000000000E+00 0.  1.
          1   -1    0    0  502    0  0.00000000000E+00 -0.00000000000E+00 -0.10011253017E+03  0.10011253017E+03  0.00000000000E+00 0. -1.
        -24    2    1    2    0    0 -0.55157682887E+02  0.88503498686E+02  0.15769242827E+03  0.20622226018E+03  0.82374021389E+02 0.  0.
         23    2    1    2    0    0  0.29008294211E+02 -0.81041281043E+02 -0.20228671655E+02  0.12768865411E+03  0.92119611725E+02 0.  0.
         11    1    3    3    0    0 -0.40886363357E+02  0.17224718161E+02  0.16352409349E+02  0.47284108491E+02  0.00000000000E+00 0. -1.
        -12    1    3    3    0    0 -0.14271319530E+02  0.71278780525E+02  0.14134001892E+03  0.15893815169E+03  0.00000000000E+00 0.  1.
        -13    1    4    4    0    0 -0.20651709845E+02 -0.85307386011E+00  0.16522562650E+02  0.26461593510E+02  0.00000000000E+00 0.  1.
         13    1    4    4    0    0  0.49660004056E+02 -0.80188207183E+02 -0.36751234306E+02  0.10122706060E+03  0.00000000000E+00 0. -1.
         21    1    1    2  502  501  0.26149388676E+02 -0.74622176430E+01  0.95979533731E+02  0.99757436392E+02  0.00000000000E+00 0.  1.
<scales pt_clust_5="13000.00000" pt_clust_6="13000.00000" pt_clust_7="13000.00000" pt_clust_8="13000.00000" pt_clust_9="27.19329"></scales>
<clustering>
<clus scale="   27.193">  1  9  2 -1</clus>
<clus scale="   82.374">  5  6 -1 -1</clus>
<clus scale="   92.120">  7  8 -1 -1</clus>
<clus scale="  121.880">  1  5  2 -1</clus>
<clus scale="  128.667">  2  5  1 -1</clus>
</clustering>
</event>
<event>
 9    1  0.2802611E-005  0.1098134E+03  0.7546771E-02  0.1265245E+00
          1   -1    0    0  502    0  0.00000000000E+00  0.00000000000E+00  0.19445806145E+03  0.19445806145E+03  0.00000000000E+00 0. -1.
         -2   -1    0    0    0  501 -0.00000000000E+00 -0.00000000000E+00 -0.18427877944E+03  0.18427877944E+03  0.00000000000E+00 0.  1.
         23    2    1    2    0    0 -0.50813282671E+02 -0.25846248261E+02 -0.26373382968E+02  0.11057050699E+03  0.90995952888E+02 0.  0.
        -24    2    1    2    0    0  0.63566003626E+02 -0.17688020268E+02  0.12880369886E+03  0.16536498332E+03  0.80010511756E+02 0.  0.
         13    1    4    4    0    0  0.12741920883E+02  0.23330846689E+02  0.78640708688E+02  0.83012324495E+02  0.00000000000E+00 0. -1.
        -14    1    4    4    0    0  0.50824082742E+02 -0.41018866958E+02  0.50162990171E+02  0.82352658828E+02  0.00000000000E+00 0.  1.
        -11    1    3    3    0    0 -0.48558250974E+02 -0.57634827649E+02 -0.15876338561E+02  0.77017759134E+02  0.00000000000E+00 0.  1.
         11    1    3    3    0    0 -0.22550316966E+01  0.31788579388E+02 -0.10497044407E+02  0.33552747857E+02  0.00000000000E+00 0. -1.
         21    1    1    2  502  501 -0.12752720955E+02  0.43534268530E+02 -0.92251033879E+02  0.10280135057E+03  0.00000000000E+00 0. -1.
<scales pt_clust_5="13000.00000" pt_clust_6="13000.00000" pt_clust_7="13000.00000" pt_clust_8="13000.00000" pt_clust_9="45.36369"></scales>
<clustering>
<clus scale="   45.364">  2  9  1 -1</clus>
<clus scale="   80.011">  5  6 -1 -1</clus>
<clus scale="   90.996">  7  8 -1 -1</clus>
<clus scale="  100.898">  1  5  2 -1</clus>
<clus scale="  100.898">  1  5  2 -1</clus>
</clustering>
</event>
<event>
 9    1  0.2802611E-005  0.1049015E+03  0.7546771E-02  0.1275745E+00
         -4   -1    0    0    0  501 -0.00000000000E+00  0.00000000000E+00  0.67765260471E+02  0.67765260471E+02  0.00000000000E+00 0.  1.
          3   -1    0    0  502    0  0.00000000000E+00 -0.00000000000E+00 -0.46175097067E+03  0.46175097067E+03  0.00000000000E+00 0. -1.
         23    2    1    2    0    0 -0.27562470883E+02  0.81795373217E+00  0.15819589577E+02  0.99215335978E+02  0.93984385029E+02 0.  0.
        -24    2    1    2    0    0  0.48500206968E+02 -0.32170704951E+00 -0.38988246307E+03  0.40139493599E+03  0.82202104954E+02 0.  0.
         13    1    4    4    0    0  0.65542000204E+02  0.17704607654E+02 -0.23775765074E+03  0.24726080847E+03  0.00000000000E+00 0. -1.
        -14    1    4    4    0    0 -0.17041793236E+02 -0.18026314703E+02 -0.15212481234E+03  0.15413412752E+03  0.00000000000E+00 0.  1.
        -11    1    3    3    0    0 -0.77497753328E+01 -0.22588560873E+02  0.48708459914E+02  0.54247729604E+02  0.00000000000E+00 0.  1.
         11    1    3    3    0    0 -0.19812695551E+02  0.23406514605E+02 -0.32888870337E+02  0.44967606374E+02  0.00000000000E+00 0. -1.
         21    1    1    2  502  501 -0.20937736085E+02 -0.49624668266E+00 -0.19922836703E+02  0.28905959168E+02  0.00000000000E+00 0.  1.
<scales pt_clust_5="13000.00000" pt_clust_6="13000.00000" pt_clust_7="13000.00000" pt_clust_8="13000.00000" pt_clust_9="20.94362"></scales>
<clustering>
<clus scale="   20.944">  1  9  2 -1</clus>
<clus scale="   82.202">  5  6 -1 -1</clus>
<clus scale="   93.984">  7  8 -1 -1</clus>
<clus scale="   94.490">  2  5  1 -1</clus>
<clus scale="   94.490">  2  5  1 -1</clus>
</clustering>
</event>
<event>
 9    1  0.2802611E-005  0.1689941E+03  0.7546771E-02  0.1204707E+00
         -2   -1    0    0    0  501 -0.00000000000E+00  0.00000000000E+00  0.69120531074E+02  0.69120531074E+02  0.00000000000E+00 0.  1.
          1   -1    0    0  502    0  0.00000000000E+00 -0.00000000000E+00 -0.90256766397E+03  0.90256766397E+03  0.00000000000E+00 0. -1.
        -24    2    1    2    0    0  0.25351984384E+02 -0.12916550554E+03 -0.30221447845E+03  0.33871246943E+03  0.77885139976E+02 0.  0.
         23    2    1    2    0    0 -0.92986888740E+01 -0.27976757126E+02 -0.44056744143E+03  0.45084505861E+03  0.91062790773E+02 0.  0.
         11    1    3    3    0    0  0.21428108554E+02 -0.10500123536E+03 -0.29394821936E+03  0.31287374279E+03  0.00000000000E+00 0. -1.
        -12    1    3    3    0    0  0.39238758299E+01 -0.24164270185E+02 -0.82662590915E+01  0.25838726642E+02  0.00000000000E+00 0.  1.
        -13    1    4    4    0    0 -0.48097508537E+02 -0.55789633594E+01 -0.17728536326E+03  0.18377865813E+03  0.00000000000E+00 0.  1.
         13    1    4    4    0    0  0.38798819663E+02 -0.22397793766E+02 -0.26328207818E+03  0.26706640047E+03  0.00000000000E+00 0. -1.
         21    1    1    2  502  501 -0.16053295510E+02  0.15714226267E+03 -0.90665213009E+02  0.18213066700E+03  0.00000000000E+00 0.  1.
<scales pt_clust_5="13000.00000" pt_clust_6="13000.00000" pt_clust_7="13000.00000" pt_clust_8="13000.00000" pt_clust_9="149.97639"></scales>
<clustering>
<clus scale="   77.885">  5  6 -1 -1</clus>
<clus scale="   91.063">  7  8 -1 -1</clus>
<clus scale="   95.716">  2  7  1 -1</clus>
<clus scale="  149.976">  1  9  2 -1</clus>
<clus scale="   95.716">  2  5  1 -1</clus>
</clustering>
</event>
<event>
 9    1  0.2802611E-005  0.1392051E+03  0.7546771E-02  0.1238164E+00
          1   -1    0    0  502    0  0.00000000000E+00  0.00000000000E+00  0.19316070160E+03  0.19316070160E+03  0.00000000000E+00 0. -1.
         -2   -1    0    0    0  501 -0.00000000000E+00 -0.00000000000E+00 -0.29511402415E+03  0.29511402415E+03  0.00000000000E+00 0.  1.
        -24    2    1    2    0    0 -0.70514985955E+01 -0.21307868545E+02 -0.80629203882E+02  0.11713052639E+03  0.81943534212E+02 0.  0.
         23    2    1    2    0    0 -0.40399438884E+02  0.10008104179E+03  0.13138031922E+03  0.19288750344E+03  0.91084966469E+02 0.  0.
         11    1    3    3    0    0 -0.40379754847E+02  0.39055769644E+01 -0.25369416434E+02  0.47847522644E+02  0.00000000000E+00 0. -1.
        -12    1    3    3    0    0  0.33328256251E+02 -0.25213445510E+02 -0.55259787448E+02  0.69283003746E+02  0.00000000000E+00 0.  1.
        -11    1    4    4    0    0  0.75194870626E+01  0.23724434066E+02 -0.86509778395E+01  0.26348261328E+02  0.00000000000E+00 0.  1.
         11    1    4    4    0    0 -0.47918925946E+02  0.76356607728E+02  0.14003129706E+03  0.16653924211E+03  0.00000000000E+00 0. -1.
         21    1    1    2  502  501  0.47450937479E+02 -0.78773173248E+02 -0.15270443789E+03  0.17825669592E+03  0.00000000000E+00 0.  1.
<scales pt_clust_5="13000.00000" pt_clust_6="13000.00000" pt_clust_7="13000.00000" pt_clust_8="13000.00000" pt_clust_9="105.26910"></scales>
<clustering>
<clus scale="   81.944">  5  6 -1 -1</clus>
<clus scale="   84.962">  2  5  1 -1</clus>
<clus scale="   91.085">  7  8 -1 -1</clus>
<clus scale="  105.269">  2  9  1 -1</clus>
<clus scale="  139.205">  1  5  2 -1</clus>
</clustering>
</event>
<event>
 9    1  0.2802611E-005  0.1105411E+03  0.7546771E-02  0.1261462E+00
          1   -1    0    0  502    0  0.00000000000E+00  0.00000000000E+00  0.47286724408E+03  0.47286724408E+03  0.00000000000E+00 0. -1.
         -2   -1    0    0    0  501 -0.00000000000E+00 -0.00000000000E+00 -0.21544833561E+03  0.21544833561E+03  0.00000000000E+00 0.  1.
         23    2    1    2    0    0  0.89017068717E+01 -0.30587797056E+02 -0.14496735592E+03  0.17339229869E+03  0.89635379442E+02 0.  0.
        -24    2    1    2    0    0 -0.33635012590E+01  0.58567033949E+02  0.44775127415E+03  0.46133696251E+03  0.94388446673E+02 0.  0.
         13    1    4    4    0    0 -0.47716920635E+02  0.28249499361E+02  0.18421129047E+03  0.19237655331E+03  0.00000000000E+00 0. -1.
        -14    1    4    4    0    0  0.44353419376E+02  0.30317534588E+02  0.26353998369E+03  0.26896040920E+03  0.00000000000E+00 0.  1.
        -11    1    3    3    0    0  0.32912221131E+02  0.96563516012E+01 -0.10914161535E+03  0.11440433395E+03  0.00000000000E+00 0. -1.
         11    1    3    3    0    0 -0.24010514259E+02 -0.40244148657E+02 -0.35825740570E+02  0.58987964735E+02  0.00000000000E+00 0.  1.
         21    1    1    2  502  501 -0.55382056127E+01 -0.27979236893E+02 -0.45365009764E+02  0.53586318491E+02  0.00000000000E+00 0.  1.
<scales pt_clust_5="13000.00000" pt_clust_6="13000.00000" pt_clust_7="13000.00000" pt_clust_8="13000.00000" pt_clust_9="28.52209"></scales>
<clustering>
<clus scale="   28.522">  2  9  1 -1</clus>
<clus scale="   89.635">  7  8 -1 -1</clus>
<clus scale="   94.388">  5  6 -1 -1</clus>
<clus scale="  106.511">  2  7  1 -1</clus>
<clus scale="  110.541">  1  5  2 -1</clus>
</clustering>
</event>
<event>
 9    1  0.2802611E-005  0.1125807E+03  0.7546771E-02  0.1260453E+00
          1   -1    0    0  502    0  0.00000000000E+00  0.00000000000E+00  0.63490663958E+02  0.63490663958E+02  0.00000000000E+00 0. -1.
         -2   -1    0    0    0  501 -0.00000000000E+00 -0.00000000000E+00 -0.39059073868E+03  0.39059073868E+03  0.00000000000E+00 0.  1.
        -24    2    1    2    0    0 -0.24565762423E+02  0.73524110738E+02 -0.23496781850E+03  0.26031903828E+03  0.80912634480E+02 0.  0.
         23    2    1    2    0    0 -0.22994021449E+02 -0.29596129881E+02 -0.31543736539E+02  0.10509123455E+03  0.92975826628E+02 0.  0.
         11    1    3    3    0    0 -0.31635920396E+02 -0.42733002803E+01 -0.47544946740E+02  0.57267918725E+02  0.00000000000E+00 0. -1.
        -12    1    3    3    0    0  0.70701579731E+01  0.77797411018E+02 -0.18742287176E+03  0.20305111956E+03  0.00000000000E+00 0.  1.
        -13    1    4    4    0    0 -0.91348254180E+01  0.33044822707E+02 -0.16798989338E+01  0.34325317239E+02  0.00000000000E+00 0.  1.
         13    1    4    4    0    0 -0.13859196031E+02 -0.62640952588E+02 -0.29863837605E+02  0.70765917306E+02  0.00000000000E+00 0. -1.
         21    1    1    2  502  501  0.47559783871E+02 -0.43927980857E+02 -0.60588519678E+02  0.88671129805E+02  0.00000000000E+00 0. -1.
<scales pt_clust_5="13000.00000" pt_clust_6="13000.00000" pt_clust_7="13000.00000" pt_clust_8="13000.00000" pt_clust_9="64.74257"></scales>
<clustering>
<clus scale="   64.743">  1  9  2 -1</clus>
<clus scale="   80.913">  5  6 -1 -1</clus>
<clus scale="   92.976">  7  8 -1 -1</clus>
<clus scale="  102.843">  2  5  1 -1</clus>
<clus scale="   64.743">  1  5  2 -1</clus>
</clustering>
</event>
<event>
 9    1  0.2802611E-005  0.1000885E+03  0.7546771E-02  0.1284580E+00
         -2   -1    0    0    0  501 -0.00000000000E+00  0.00000000000E+00  0.71122948085E+02  0.71122948085E+02  0.00000000000E+00 0.  1.
          1   -1    0    0  502    0  0.00000000000E+00 -0.00000000000E+00 -0.64318680180E+03  0.64318680180E+03  0.00000000000E+00 0. -1.
        -24    2    1    2    0    0  0.28777278669E+02 -0.42013819542E+02  0.17912853631E+02  0.98445463862E+02  0.82324639263E+02 0.  0.
         23    2    1    2    0    0 -0.58567731100E+01  0.40167060763E+02 -0.58347044353E+03  0.59196676393E+03  0.91319201542E+02 0.  0.
         13    1    3    3    0    0  0.43695541828E+02  0.80396324942E+01  0.10908434207E+02  0.45748551923E+02  0.00000000000E+00 0. -1.
        -14    1    3    3    0    0 -0.14918263159E+02 -0.50053452036E+02  0.70044194243E+01  0.52696911939E+02  0.00000000000E+00 0.  1.
        -13    1    4    4    0    0  0.19521287135E+02  0.62875654516E+02 -0.39273421472E+03  0.39821425388E+03  0.00000000000E+00 0. -1.
         13    1    4    4    0    0 -0.25378060245E+02 -0.22708593753E+02 -0.19073622880E+03  0.19375251005E+03  0.00000000000E+00 0.  1.
         21    1    1    2  502  501 -0.22920505559E+02  0.18467587788E+01 -0.65062638155E+01  0.23897522087E+02  0.00000000000E+00 0.  1.
<scales pt_clust_5="13000.00000" pt_clust_6="13000.00000" pt_clust_7="13000.00000" pt_clust_8="13000.00000" pt_clust_9="22.99478"></scales>
<clustering>
<clus scale="   22.995">  1  9  2 -1</clus>
<clus scale="   82.325">  5  6 -1 -1</clus>
<clus scale="   91.319">  7  8 -1 -1</clus>
<clus scale="   91.956">  1  5  2 -1</clus>
<clus scale="  100.088">  2  5  1 -1</clus>
</clustering>
</event>
<event>
 9    1  0.2802611E-005  0.9172597E+02  0.7546771E-02  0.1305548E+00
          1   -1    0    0  502    0  0.00000000000E+00  0.00000000000E+00  0.53132625788E+03  0.53132625788E+03  0.00000000000E+00 0. -1.
         -2   -1    0    0    0  501 -0.00000000000E+00 -0.00000000000E+00 -0.11871459163E+03  0.11871459163E+03  0.00000000000E+00 0.  1.
         23    2    1    2    0    0  0.71164722523E+02 -0.34317895467E+02  0.16083483903E+02  0.12071969126E+03  0.89846701238E+02 0.  0.
        -24    2    1    2    0    0 -0.13466728818E+02  0.49134983327E+01  0.44263880954E+03  0.44982356716E+03  0.78782171879E+02 0.  0.
         11    1    4    4    0    0 -0.26200231018E+02 -0.24482051190E+02  0.11116384480E+03  0.11680420937E+03  0.00000000000E+00 0. -1.
        -12    1    4    4    0    0  0.12733502199E+02  0.29395549523E+02  0.33147496474E+03  0.33301935778E+03  0.00000000000E+00 0.  1.
        -11    1    3    3    0    0  0.40944818036E+02 -0.46824658683E+02  0.45232893251E+02  0.76909306437E+02  0.00000000000E+00 0. -1.
         11    1    3    3    0    0  0.30219904487E+02  0.12506763216E+02 -0.29149409348E+02  0.43810384827E+02  0.00000000000E+00 0.  1.
         21    1    1    2  502  501 -0.57697993705E+02  0.29404397134E+02 -0.46110627200E+02  0.79497591090E+02  0.00000000000E+00 0.  1.
<scales pt_clust_5="13000.00000" pt_clust_6="13000.00000" pt_clust_7="13000.00000" pt_clust_8="13000.00000" pt_clust_9="64.75861"></scales>
<clustering>
<clus scale="   64.759">  2  9  1 -1</clus>
<clus scale="   78.782">  5  6 -1 -1</clus>
<clus scale="   80.919">  1  5  2 -1</clus>
<clus scale="   89.847">  7  8 -1 -1</clus>
<clus scale="   80.919">  1  5  2 -1</clus>
</clustering>
</event>
<event>
 9    1  0.2802611E-005  0.1420957E+03  0.7546771E-02  0.1213523E+00
         -2   -1    0    0    0  501 -0.00000000000E+00  0.00000000000E+00  0.21079115914E+03  0.21079115914E+03  0.00000000000E+00 0.  1.
          1   -1    0    0  502    0  0.00000000000E+00 -0.00000000000E+00 -0.72644561329E+03  0.72644561329E+03  0.00000000000E+00 0. -1.
        -24    2    1    2    0    0 -0.70372849241E+02  0.50249791587E+02  0.15518479793E+03  0.19510422558E+03  0.80659518133E+02 0.  0.
         23    2    1    2    0    0  0.25546846969E+02 -0.10489826692E+03 -0.65390596773E+03  0.66945130818E+03  0.94423257704E+02 0.  0.
         11    1    3    3    0    0 -0.34731823247E+02 -0.39786942946E+01  0.10449411735E+02  0.36487254760E+02  0.00000000000E+00 0. -1.
        -12    1    3    3    0    0 -0.35641025995E+02  0.54228485882E+02  0.14473538619E+03  0.15861697082E+03  0.00000000000E+00 0.  1.
        -13    1    4    4    0    0  0.33507178362E+02  0.43164316530E+01 -0.14190939216E+03  0.14587542002E+03  0.00000000000E+00 0.  1.
         13    1    4    4    0    0 -0.79603313933E+01 -0.10921469858E+03 -0.51199657558E+03  0.52357588816E+03  0.00000000000E+00 0. -1.
         21    1    1    2  502  501  0.44826002273E+02  0.54648475337E+02 -0.16933284338E+02  0.72681238672E+02  0.00000000000E+00 0.  1.
<scales pt_clust_5="13000.00000" pt_clust_6="13000.00000" pt_clust_7="13000.00000" pt_clust_8="13000.00000" pt_clust_9="70.68116"></scales>
<clustering>
<clus scale="   70.681">  1  9  2 -1</clus>
<clus scale="   80.660">  5  6 -1 -1</clus>
<clus scale="   94.423">  7  8 -1 -1</clus>
<clus scale="  133.347">  1  5  2 -1</clus>
<clus scale="  142.096">  2  5  1 -1</clus>
</clustering>
</event>
<event>
 9    1  0.2802611E-005  0.8973519E+02  0.7546771E-02  0.1303701E+00
         -2   -1    0    0    0  501 -0.00000000000E+00  0.00000000000E+00  0.22329806604E+02  0.22329806604E+02  0.00000000000E+00 0.  1.
          1   -1    0    0  502    0  0.00000000000E+00 -0.00000000000E+00 -0.59202064940E+03  0.59202064940E+03  0.00000000000E+00 0. -1.
        -24    2    1    2    0    0  0.15587159952E+02  0.77344552835E+01 -0.11123246969E+03  0.13915921635E+03  0.81791465499E+02 0.  0.
         23    2    1    2    0    0 -0.43788274492E+02 -0.27357245293E+01 -0.39029319332E+03  0.40125355031E+03  0.82162873065E+02 0.  0.
         13    1    3    3    0    0 -0.27408467287E+02 -0.16523781214E+02 -0.60065303360E+02  0.68059533442E+02  0.00000000000E+00 0. -1.
        -14    1    3    3    0    0  0.42995627240E+02  0.24258236497E+02 -0.51167166332E+02  0.71099682912E+02  0.00000000000E+00 0.  1.
        -11    1    4    4    0    0 -0.28794321691E+02 -0.41712135224E+02 -0.18932531593E+03  0.19599257751E+03  0.00000000000E+00 0.  1.
         11    1    4    4    0    0 -0.14993952801E+02  0.38976410695E+02 -0.20096787740E+03  0.20526097280E+03  0.00000000000E+00 0. -1.
         21    1    1    2  502  501  0.28201114540E+02 -0.49987307542E+01 -0.68165179784E+02  0.73937689343E+02  0.00000000000E+00 0.  1.
<scales pt_clust_5="13000.00000" pt_clust_6="13000.00000" pt_clust_7="13000.00000" pt_clust_8="13000.00000" pt_clust_9="28.64071"></scales>
<clustering>
<clus scale="   28.641">  1  9  2 -1</clus>
<clus scale="   81.791">  5  6 -1 -1</clus>
<clus scale="   82.163">  7  8 -1 -1</clus>
<clus scale="   89.395">  1  5  2 -1</clus>
<clus scale="   89.735">  2  5  1 -1</clus>
</clustering>
</event>
<event>
 9    1  0.2802611E-005  0.9346912E+02  0.7546771E-02  0.1302654E+00
          1   -1    0    0  502    0  0.00000000000E+00  0.00000000000E+00  0.40590948434E+03  0.40590948434E+03  0.00000000000E+00 0. -1.
         -2   -1    0    0    0  501 -0.00000000000E+00 -0.00000000000E+00 -0.15765647157E+03  0.15765647157E+03  0.00000000000E+00 0.  1.
        -24    2    1    2    0    0 -0.18236548855E+02 -0.26719903679E+02 -0.24540252040E+02  0.89639953422E+02  0.79916032888E+02 0.  0.
         23    2    1    2    0    0  0.99832889816E+01 -0.20450144775E+01  0.36511621400E+03  0.37687414129E+03  0.92846219648E+02 0.  0.
         11    1    3    3    0    0 -0.23704360279E+02  0.23498178464E+02 -0.20024736395E+02  0.38923658038E+02  0.00000000000E+00 0. -1.
        -12    1    3    3    0    0  0.54678114239E+01 -0.50218082143E+02 -0.45155156448E+01  0.50716295384E+02  0.00000000000E+00 0.  1.
        -13    1    4    4    0    0  0.49367206796E+02 -0.56876953012E+01  0.25676638229E+03  0.26153096577E+03  0.00000000000E+00 0.  1.
         13    1    4    4    0    0 -0.39383917814E+02  0.36426808236E+01  0.10834983171E+03  0.11534317551E+03  0.00000000000E+00 0. -1.
         21    1    1    2  502  501  0.82532598734E+01  0.28764918157E+02 -0.92322949194E+02  0.97051861203E+02  0.00000000000E+00 0.  1.
<scales pt_clust_5="13000.00000" pt_clust_6="13000.00000" pt_clust_7="13000.00000" pt_clust_8="13000.00000" pt_clust_9="29.92552"></scales>
<clustering>
<clus scale="   29.926">  2  9  1 -1</clus>
<clus scale="   79.916">  5  6 -1 -1</clus>
<clus scale="   80.639">  2  5  1 -1</clus>
<clus scale="   92.846">  7  8 -1 -1</clus>
<clus scale="   93.469">  1  5  2 -1</clus>
</clustering>
</event>
<event>
 9    1  0.2802611E-005  0.2414291E+03  0.7546771E-02  0.1144382E+00
          1   -1    0    0  502    0  0.00000000000E+00  0.00000000000E+00  0.13869598765E+04  0.13869598765E+04  0.00000000000E+00 0. -1.
         -2   -1    0    0    0  501 -0.00000000000E+00 -0.00000000000E+00 -0.39768840817E+03  0.39768840817E+03  0.00000000000E+00 0.  1.
        -24    2    1    2    0    0 -0.81959291502E+02 -0.61401183897E+02  0.53674035416E+02  0.13987973370E+03  0.78727421993E+02 0.  0.
         23    2    1    2    0    0  0.28963677789E+03  0.14128477320E+03 -0.26350757110E+03  0.42519315895E+03  0.86614849464E+02 0.  0.
         11    1    3    3    0    0 -0.84809928021E+02 -0.67294095593E+02  0.25866007091E+02  0.11131158752E+03  0.00000000000E+00 0. -1.
        -12    1    3    3    0    0  0.28506365195E+01  0.58929116961E+01  0.27808028324E+02  0.28568146179E+02  0.00000000000E+00 0.  1.
        -13    1    4    4    0    0  0.84743489834E+02  0.85627046372E+02 -0.80538363143E+02  0.14491334679E+03  0.00000000000E+00 0. -1.
         13    1    4    4    0    0  0.20489328806E+03  0.55657726831E+02 -0.18296920796E+03  0.28027981217E+03  0.00000000000E+00 0.  1.
         21    1    1    2  502  501 -0.20767748639E+03 -0.79883589305E+02  0.11991050040E+04  0.12195753921E+04  0.00000000000E+00 0. -1.
<scales pt_clust_5="13000.00000" pt_clust_6="13000.00000" pt_clust_7="13000.00000" pt_clust_8="13000.00000" pt_clust_9="225.35719"></scales>
<clustering>
<clus scale="   78.727">  5  6 -1 -1</clus>
<clus scale="   86.615">  7  8 -1 -1</clus>
<clus scale="  129.172">  2  5  1 -1</clus>
<clus scale="  225.357">  1  9  2 -1</clus>
<clus scale="  225.357">  1  5  2 -1</clus>
</clustering>
</event>
<event>
 9    1  0.2802611E-005  0.2145506E+03  0.7546771E-02  0.1138567E+00
          1   -1    0    0  502    0  0.00000000000E+00  0.00000000000E+00  0.67042913135E+03  0.67042913135E+03  0.00000000000E+00 0. -1.
         -2   -1    0    0    0  501 -0.00000000000E+00 -0.00000000000E+00 -0.26185495574E+03  0.26185495574E+03  0.00000000000E+00 0.  1.
         23    2    1    2    0    0 -0.15837706708E+03 -0.49223156273E+02 -0.14952290164E+03  0.23947802646E+03  0.86524057661E+02 0.  0.
        -24    2    1    2    0    0  0.18797544852E+03 -0.79519487395E+02  0.50504407698E+03  0.55044963007E+03  0.79165380269E+02 0.  0.
         11    1    4    4    0    0  0.19478040967E+03 -0.70873458624E+02  0.48758457202E+03  0.52981239132E+03  0.00000000000E+00 0. -1.
        -12    1    4    4    0    0 -0.68049611491E+01 -0.86460287716E+01  0.17459504961E+02  0.20637238750E+02  0.00000000000E+00 0.  1.
        -13    1    3    3    0    0 -0.99183747336E+02 -0.44890155642E+02 -0.14306210630E+03  0.17977571602E+03  0.00000000000E+00 0.  1.
         13    1    3    3    0    0 -0.59193319741E+02 -0.43330006309E+01 -0.64607953389E+01  0.59702310448E+02  0.00000000000E+00 0. -1.
         21    1    1    2  502  501 -0.29598381443E+02  0.12874264367E+03  0.53053000273E+02  0.14235643056E+03  0.00000000000E+00 0.  1.
<scales pt_clust_5="13000.00000" pt_clust_6="13000.00000" pt_clust_7="13000.00000" pt_clust_8="13000.00000" pt_clust_9="132.10122"></scales>
<clustering>
<clus scale="   79.165">  5  6 -1 -1</clus>
<clus scale="   86.524">  7  8 -1 -1</clus>
<clus scale="  132.101">  2  9  1 -1</clus>
<clus scale="  211.690">  1  5  2 -1</clus>
<clus scale="  211.690">  1  5  2 -1</clus>
</clustering>
</event>
<event>
 9    1  0.2802611E-005  0.4477974E+03  0.7546771E-02  0.1076442E+00
          1   -1    0    0  502    0  0.00000000000E+00  0.00000000000E+00  0.17383677742E+04  0.17383677742E+04  0.00000000000E+00 0. -1.
         -2   -1    0    0    0  501 -0.00000000000E+00 -0.00000000000E+00 -0.17739972436E+03  0.17739972436E+03  0.00000000000E+00 0.  1.
         23    2    1    2    0    0 -0.44925827009E+03 -0.11841570412E+03  0.59934755132E+03  0.76399595924E+03  0.92828154321E+02 0.  0.
        -24    2    1    2    0    0  0.30790043642E+02  0.73406981642E+02  0.55467202958E+03  0.56632427610E+03  0.82009228532E+02 0.  0.
         11    1    4    4    0    0  0.57375100145E+02  0.36485869490E+02  0.36432780986E+03  0.37061823192E+03  0.00000000000E+00 0. -1.
        -12    1    4    4    0    0 -0.26585056503E+02  0.36921112151E+02  0.19034421972E+03  0.19570604419E+03  0.00000000000E+00 0.  1.
        -11    1    3    3    0    0 -0.33253185264E+03 -0.79565463235E+02  0.50069944100E+03  0.60630687459E+03  0.00000000000E+00 0. -1.
         11    1    3    3    0    0 -0.11672641745E+03 -0.38850240882E+02  0.98648110326E+02  0.15768908465E+03  0.00000000000E+00 0.  1.
         21    1    1    2  502  501  0.41846822645E+03  0.45008722476E+02  0.40694846895E+03  0.58544726323E+03  0.00000000000E+00 0.  1.
<scales pt_clust_5="13000.00000" pt_clust_6="13000.00000" pt_clust_7="13000.00000" pt_clust_8="13000.00000" pt_clust_9="438.07013"></scales>
<clustering>
<clus scale="   82.009">  5  6 -1 -1</clus>
<clus scale="   92.828">  7  8 -1 -1</clus>
<clus scale="  114.290">  1  5  2 -1</clus>
<clus scale="  438.070">  2  9  1 -1</clus>
<clus scale="  114.290">  1  5  2 -1</clus>
</clustering>
</event>
<event>
 9    1  0.2802611E-005  0.9803034E+02  0.7546771E-02  0.1285353E+00
          1   -1    0    0  502    0  0.00000000000E+00  0.00000000000E+00  0.87917751327E+02  0.87917751327E+02  0.00000000000E+00 0. -1.
         -2   -1    0    0    0  501 -0.00000000000E+00 -0.00000000000E+00 -0.17363576811E+03  0.17363576811E+03  0.00000000000E+00 0.  1.
        -24    2    1    2    0    0  0.62195082763E+02  0.12647533283E+02 -0.96691896767E+02  0.14120538716E+03  0.81002778007E+02 0.  0.
         23    2    1    2    0    0 -0.46721781553E+02 -0.25486182157E+02  0.21403374198E+02  0.97698004134E+02  0.79084291943E+02 0.  0.
         13    1    3    3    0    0  0.30758154373E+02 -0.14403567535E+02  0.21332308468E+01  0.34030537639E+02  0.00000000000E+00 0. -1.
        -14    1    3    3    0    0  0.31436928390E+02  0.27051100818E+02 -0.98825127614E+02  0.10717484952E+03  0.00000000000E+00 0.  1.
        -11    1    4    4    0    0 -0.46494888170E+02 -0.47488103047E+02  0.31431349515E+02  0.73517510086E+02  0.00000000000E+00 0. -1.
         11    1    4    4    0    0 -0.22689338353E+00  0.22001920889E+02 -0.10027975317E+02  0.24180494048E+02  0.00000000000E+00 0.  1.
         21    1    1    2  502  501 -0.15473301210E+02  0.12838648874E+02 -0.10429494211E+02  0.22650128140E+02  0.00000000000E+00 0. -1.
<scales pt_clust_5="13000.00000" pt_clust_6="13000.00000" pt_clust_7="13000.00000" pt_clust_8="13000.00000" pt_clust_9="20.10607"></scales>
<clustering>
<clus scale="   20.106">  2  9  1 -1</clus>
<clus scale="   79.084">  7  8 -1 -1</clus>
<clus scale="   81.003">  5  6 -1 -1</clus>
<clus scale="   96.451">  1  7  2 -1</clus>
<clus scale="   96.451">  1  5  2 -1</clus>
</clustering>
</event>
<event>
 9    1  0.2802611E-005  0.1528975E+03  0.7546771E-02  0.1201990E+00
         -2   -1    0    0    0  501 -0.00000000000E+00  0.00000000000E+00  0.30581981996E+03  0.30581981996E+03  0.00000000000E+00 0.  1.
          1   -1    0    0  502    0  0.00000000000E+00 -0.00000000000E+00 -0.12035836099E+03  0.12035836099E+03  0.00000000000E+00 0. -1.
        -24    2    1    2    0    0 -0.34518681654E+01  0.11264145334E+03  0.18005488419E+03  0.22152371380E+03  0.62872744895E+02 0.  0.
         23    2    1    2    0    0 -0.13499487271E+02 -0.12411822138E+03 -0.35098145284E+02  0.15927058231E+03  0.92453607569E+02 0.  0.
         11    1    3    3    0    0  0.24148559636E+02  0.17963533780E+02  0.49058198940E+02  0.57554742303E+02  0.00000000000E+00 0. -1.
        -12    1    3    3    0    0 -0.27600427801E+02  0.94677919563E+02  0.13099668525E+03  0.16396897149E+03  0.00000000000E+00 0.  1.
        -11    1    4    4    0    0  0.12501280726E+02 -0.11799907192E+03 -0.46274532662E+01  0.11874963713E+03  0.00000000000E+00 0.  1.
         11    1    4    4    0    0 -0.26000767997E+02 -0.61191494578E+01 -0.30470692018E+02  0.40520945184E+02  0.00000000000E+00 0. -1.
         21    1    1    2  502  501  0.16951355436E+02  0.11476768038E+02  0.40504720062E+02  0.45383884838E+02  0.00000000000E+00 0.  1.
<scales pt_clust_5="13000.00000" pt_clust_6="13000.00000" pt_clust_7="13000.00000" pt_clust_8="13000.00000" pt_clust_9="20.47107"></scales>
<clustering>
<clus scale="   20.471">  1  9  2 -1</clus>
<clus scale="   62.873">  5  6 -1 -1</clus>
<clus scale="   92.454">  7  8 -1 -1</clus>
<clus scale="  137.051">  1  5  2 -1</clus>
<clus scale="  152.898">  2  5  1 -1</clus>
</clustering>
</event>
<event>
 9    1  0.2802611E-005  0.1261491E+03  0.7546771E-02  0.1243506E+00
         -2   -1    0    0    0  501 -0.00000000000E+00  0.00000000000E+00  0.43605966338E+02  0.43605966338E+02  0.00000000000E+00 0.  1.
          1   -1    0    0  502    0  0.00000000000E+00 -0.00000000000E+00 -0.96513219944E+03  0.96513219944E+03  0.00000000000E+00 0. -1.
         23    2    1    2    0    0  0.68333855474E+02 -0.11176464127E+02 -0.90597912544E+02  0.15752603820E+03  0.10868321765E+03 0.  0.
        -24    2    1    2    0    0 -0.23180864506E+02  0.59154333905E+02 -0.66304713417E+03  0.67086590132E+03  0.79956036211E+02 0.  0.
         11    1    4    4    0    0  0.21949634792E+02  0.23934064352E+02 -0.10543914016E+03  0.11032696035E+03  0.00000000000E+00 0. -1.
        -12    1    4    4    0    0 -0.45130499298E+02  0.35220269553E+02 -0.55760799402E+03  0.56053894097E+03  0.00000000000E+00 0.  1.
        -13    1    3    3    0    0  0.56690790556E+02  0.26451225672E+02 -0.43491290959E+01  0.62709074282E+02  0.00000000000E+00 0.  1.
         13    1    3    3    0    0  0.11643064917E+02 -0.37627689799E+02 -0.86248783448E+02  0.94816963917E+02  0.00000000000E+00 0. -1.
         21    1    1    2  502  501 -0.45152990968E+02 -0.47977869778E+02 -0.16788118638E+03  0.18034622625E+03  0.00000000000E+00 0. -1.
<scales pt_clust_5="13000.00000" pt_clust_6="13000.00000" pt_clust_7="13000.00000" pt_clust_8="13000.00000" pt_clust_9="65.88375"></scales>
<clustering>
<clus scale="   65.884">  2  9  1 -1</clus>
<clus scale="   79.956">  5  6 -1 -1</clus>
<clus scale="  102.443">  2  5  1 -1</clus>
<clus scale="  108.683">  7  8 -1 -1</clus>
<clus scale="   65.884">  2  5  1 -1</clus>
</clustering>
</event>
<event>
 9    1  0.2802611E-005  0.1952845E+03  0.7546771E-02  0.1154212E+00
          1   -1    0    0  502    0  0.00000000000E+00  0.00000000000E+00  0.13381909853E+04  0.13381909853E+04  0.00000000000E+00 0. -1.
         -2   -1    0    0    0  501 -0.00000000000E+00 -0.00000000000E+00 -0.40431253016E+02  0.40431253016E+02  0.00000000000E+00 0.  1.
        -24    2    1    2    0    0 -0.18906843183E+03  0.26989525502E+02  0.50021461366E+03  0.54263919230E+03  0.88132439586E+02 0.  0.
         23    2    1    2    0    0  0.16226105681E+03 -0.65824078638E+01  0.77035622823E+03  0.79268961041E+03  0.92391132857E+02 0.  0.
         13    1    3    3    0    0 -0.18125492772E+03  0.30497769521E+02  0.50136745266E+03  0.53399699002E+03  0.00000000000E+00 0. -1.
        -14    1    3    3    0    0 -0.78135041094E+01 -0.35082440193E+01 -0.11528389981E+01  0.86422022843E+01  0.00000000000E+00 0.  1.
        -13    1    4    4    0    0  0.33704803706E+02 -0.37060441539E+02  0.14153843349E+03  0.15014199371E+03  0.00000000000E+00 0. -1.
         13    1    4    4    0    0  0.12855625311E+03  0.30478033675E+02  0.62881779474E+03  0.64254761670E+03  0.00000000000E+00 0.  1.
         21    1    1    2  502  501  0.26807375011E+02 -0.20407117638E+02  0.27188890400E+02  0.43293435605E+02  0.00000000000E+00 0. -1.
<scales pt_clust_5="13000.00000" pt_clust_6="13000.00000" pt_clust_7="13000.00000" pt_clust_8="13000.00000" pt_clust_9="33.69103"></scales>
<clustering>
<clus scale="   33.691">  2  9  1 -1</clus>
<clus scale="   88.132">  5  6 -1 -1</clus>
<clus scale="   92.391">  7  8 -1 -1</clus>
<clus scale="  193.306">  2  5  1 -1</clus>
<clus scale="  195.284">  1  5  2 -1</clus>
</clustering>
</event>
<event>
 9    1  0.2802611E-005  0.3820434E+03  0.7546771E-02  0.1050424E+00
         -2   -1    0    0    0  501 -0.00000000000E+00  0.00000000000E+00  0.43788128091E+03  0.43788128091E+03  0.00000000000E+00 0.  1.
          1   -1    0    0  502    0  0.00000000000E+00 -0.00000000000E+00 -0.61152074694E+03  0.61152074694E+03  0.00000000000E+00 0. -1.
        -24    2    1    2    0    0 -0.38095053865E+03  0.42947369704E+02  0.24292097934E+03  0.46112231981E+03  0.81580648239E+02 0.  0.
         23    2    1    2    0    0  0.36684516715E+03 -0.28099598306E+02 -0.42153638019E+03  0.56720418319E+03  0.93073634920E+02 0.  0.
         11    1    3    3    0    0 -0.26941389818E+03  0.50624915246E+01  0.13510244040E+03  0.30143348645E+03  0.00000000000E+00 0. -1.
        -12    1    3    3    0    0 -0.11153664047E+03  0.37884878179E+02  0.10781853894E+03  0.15968883336E+03  0.00000000000E+00 0.  1.
        -11    1    4    4    0    0  0.19805663900E+03 -0.56579231914E+02 -0.19856103270E+03  0.28610159986E+03  0.00000000000E+00 0.  1.
         11    1    4    4    0    0  0.16878852815E+03  0.28479633608E+02 -0.22297534749E+03  0.28110258333E+03  0.00000000000E+00 0. -1.
         21    1    1    2  502  501  0.14105371498E+02 -0.14847771398E+02  0.49759348269E+01  0.21075524857E+02  0.00000000000E+00 0.  1.
<scales pt_clust_5="13000.00000" pt_clust_6="13000.00000" pt_clust_7="13000.00000" pt_clust_8="13000.00000" pt_clust_9="20.47969"></scales>
<clustering>
<clus scale="   20.480">  1  9  2 -1</clus>
<clus scale="   81.581">  5  6 -1 -1</clus>
<clus scale="   93.074">  7  8 -1 -1</clus>
<clus scale="  379.407">  1  5  2 -1</clus>
<clus scale="  382.043">  2  5  1 -1</clus>
</clustering>
</event>
<event>
 9    1  0.2802611E-005  0.1696611E+03  0.7546771E-02  0.1180642E+00
          1   -1    0    0  502    0  0.00000000000E+00  0.00000000000E+00  0.53405070815E+03  0.53405070815E+03  0.00000000000E+00 0. -1.
         -2   -1    0    0    0  501 -0.00000000000E+00 -0.00000000000E+00 -0.21209314334E+03  0.21209314334E+03  0.00000000000E+00 0.  1.
         23    2    1    2    0    0  0.10462443041E+03  0.55892728934E+02 -0.89083903625E+02  0.17493247346E+03  0.92710084669E+02 0.  0.
        -24    2    1    2    0    0 -0.13087653065E+03 -0.61289846921E+02  0.47486993058E+03  0.50198440185E+03  0.74845020692E+02 0.  0.
         11    1    4    4    0    0 -0.11888623661E+03 -0.43520035775E+02  0.29741332782E+03  0.32323771180E+03  0.00000000000E+00 0. -1.
        -12    1    4    4    0    0 -0.11990294048E+02 -0.17769811147E+02  0.17745660277E+03  0.17874669005E+03  0.00000000000E+00 0.  1.
        -11    1    3    3    0    0  0.82471382848E+02  0.18997314500E+02 -0.10425256314E+02  0.85270821013E+02  0.00000000000E+00 0.  1.
         11    1    3    3    0    0  0.22153047561E+02  0.36895414434E+02 -0.78658647311E+02  0.89661652445E+02  0.00000000000E+00 0. -1.
         21    1    1    2  502  501  0.26252100245E+02  0.53971179876E+01 -0.63828462146E+02  0.69226976171E+02  0.00000000000E+00 0.  1.
<scales pt_clust_5="13000.00000" pt_clust_6="13000.00000" pt_clust_7="13000.00000" pt_clust_8="13000.00000" pt_clust_9="26.80115"></scales>
<clustering>
<clus scale="   26.801">  2  9  1 -1</clus>
<clus scale="   74.845">  5  6 -1 -1</clus>
<clus scale="   92.710">  7  8 -1 -1</clus>
<clus scale="  160.597">  1  5  2 -1</clus>
<clus scale="  160.597">  1  5  2 -1</clus>
</clustering>
</event>
<event>
 9    1  0.2802611E-005  0.1114921E+03  0.7546771E-02  0.1262482E+00
          1   -1    0    0  502    0  0.00000000000E+00  0.00000000000E+00  0.80467743062E+03  0.80467743062E+03  0.00000000000E+00 0. -1.
         -2   -1    0    0    0  501 -0.00000000000E+00 -0.00000000000E+00 -0.95177225120E+02  0.95177225120E+02  0.00000000000E+00 0.  1.
        -24    2    1    2    0    0  0.10520469181E+03 -0.72050769364E+02  0.36744266372E+01  0.15081242906E+03  0.80445924722E+02 0.  0.
         23    2    1    2    0    0 -0.55359734481E+02  0.18860820230E+02  0.64468303032E+03  0.65389956454E+03  0.92455395594E+02 0.  0.
         11    1    3    3    0    0  0.65528256998E+02 -0.38854985883E+02  0.41476502117E+02  0.86740778306E+02  0.00000000000E+00 0. -1.
        -12    1    3    3    0    0  0.39676434810E+02 -0.33195783481E+02 -0.37802075480E+02  0.64071650757E+02  0.00000000000E+00 0.  1.
        -11    1    4    4    0    0  0.25155094706E+02  0.13878873880E+02  0.17091350132E+03  0.17331135815E+03  0.00000000000E+00 0.  1.
         11    1    4    4    0    0 -0.80514829187E+02  0.49819463498E+01  0.47376952900E+03  0.48058820638E+03  0.00000000000E+00 0. -1.
         21    1    1    2  502  501 -0.49844957326E+02  0.53189949135E+02  0.61142748540E+02  0.95142662139E+02  0.00000000000E+00 0.  1.
<scales pt_clust_5="13000.00000" pt_clust_6="13000.00000" pt_clust_7="13000.00000" pt_clust_8="13000.00000" pt_clust_9="72.89506"></scales>
<clustering>
<clus scale="   72.895">  2  9  1 -1</clus>
<clus scale="   80.446">  5  6 -1 -1</clus>
<clus scale="   92.455">  7  8 -1 -1</clus>
<clus scale="  101.755">  2  5  1 -1</clus>
<clus scale="  111.492">  1  5  2 -1</clus>
</clustering>
</event>
<event>
 9    1  0.2802611E-005  0.9512340E+02  0.7546771E-02  0.1297246E+00
         -2   -1    0    0    0  501 -0.00000000000E+00  0.00000000000E+00  0.60173351761E+02  0.60173351761E+02  0.00000000000E+00 0.  1.
          1   -1    0    0  502    0  0.00000000000E+00 -0.00000000000E+00 -0.31828007733E+03  0.31828007733E+03  0.00000000000E+00 0. -1.
        -24    2    1    2    0    0 -0.34379498782E+01  0.12084888493E+02 -0.16888817407E+02  0.81624335755E+02  0.78863400921E+02 0.  0.
         23    2    1    2    0    0  0.86385941633E+00 -0.35446780938E+02 -0.25273348918E+03  0.27065634860E+03  0.90130028032E+02 0.  0.
         13    1    3    3    0    0  0.17250565066E+02 -0.24278587695E+02 -0.25147911272E+02  0.38980113608E+02  0.00000000000E+00 0. -1.
        -14    1    3    3    0    0 -0.20688514944E+02  0.36363476188E+02  0.82590938650E+01  0.42644222147E+02  0.00000000000E+00 0.  1.
        -13    1    4    4    0    0  0.44143781330E+02 -0.27077894560E+02 -0.11712604352E+03  0.12806403037E+03  0.00000000000E+00 0. -1.
         13    1    4    4    0    0 -0.43279921914E+02 -0.83688863783E+01 -0.13560744566E+03  0.14259231824E+03  0.00000000000E+00 0.  1.
         21    1    1    2  502  501  0.25740904619E+01  0.23361892445E+02  0.11515581023E+02  0.26172744729E+02  0.00000000000E+00 0.  1.
<scales pt_clust_5="13000.00000" pt_clust_6="13000.00000" pt_clust_7="13000.00000" pt_clust_8="13000.00000" pt_clust_9="23.50328"></scales>
<clustering>
<clus scale="   23.503">  1  9  2 -1</clus>
<clus scale="   78.863">  5  6 -1 -1</clus>
<clus scale="   84.525">  1  5  2 -1</clus>
<clus scale="   90.130">  7  8 -1 -1</clus>
<clus scale="   95.123">  2  5  1 -1</clus>
</clustering>
</event>
<event>
 9    1  0.2802611E-005  0.1099959E+03  0.7546771E-02  0.1263217E+00
         -2   -1    0    0    0  501 -0.00000000000E+00  0.00000000000E+00  0.20249213503E+03  0.20249213503E+03  0.00000000000E+00 0.  1.
          1   -1    0    0  502    0  0.00000000000E+00 -0.00000000000E+00 -0.81081848807E+02  0.81081848807E+02  0.00000000000E+00 0. -1.
        -24    2    1    2    0    0  0.59602423050E+02 -0.41684040863E+02  0.10425370849E+03  0.15089783961E+03  0.81309988129E+02 0.  0.
         23    2    1    2    0    0 -0.51953051403E+02  0.14831356781E+02  0.15698212992E+02  0.10471713214E+03  0.88318487187E+02 0.  0.
         13    1    3    3    0    0  0.76183988315E+02 -0.34542773875E+02  0.59535442665E+02  0.10267264600E+03  0.00000000000E+00 0. -1.
        -14    1    3    3    0    0 -0.16581565266E+02 -0.71412669880E+01  0.44718265824E+02  0.48225193615E+02  0.00000000000E+00 0.  1.
        -11    1    4    4    0    0 -0.32739002290E+02  0.46399444484E+02 -0.12604082402E+02  0.58168837125E+02  0.00000000000E+00 0.  1.
         11    1    4    4    0    0 -0.19214049114E+02 -0.31568087702E+02  0.28302295394E+02  0.46548295018E+02  0.00000000000E+00 0. -1.
         21    1    1    2  502  501 -0.76493716466E+01  0.26852684082E+02  0.14583647433E+01  0.27959012084E+02  0.00000000000E+00 0.  1.
<scales pt_clust_5="13000.00000" pt_clust_6="13000.00000" pt_clust_7="13000.00000" pt_clust_8="13000.00000" pt_clust_9="27.92095"></scales>
<clustering>
<clus scale="   27.921">  2  9  1 -1</clus>
<clus scale="   81.310">  5  6 -1 -1</clus>
<clus scale="   88.318">  7  8 -1 -1</clus>
<clus scale="  104.452">  1  5  2 -1</clus>
<clus scale="   27.921">  2  5  1 -1</clus>
</clustering>
</event>
<event>
 9    1  0.2802611E-005  0.2162813E+03  0.7546771E-02  0.1137730E+00
         -2   -1    0    0    0  501 -0.00000000000E+00  0.00000000000E+00  0.10695979754E+03  0.10695979754E+03  0.00000000000E+00 0.  1.
          1   -1    0    0  502    0  0.00000000000E+00 -0.00000000000E+00 -0.48601760410E+03  0.48601760410E+03  0.00000000000E+00 0. -1.
        -24    2    1    2    0    0 -0.10005712698E+03 -0.15090133587E+03 -0.12833466299E+03  0.23597755809E+03  0.80205862447E+02 0.  0.
         23    2    1    2    0    0  0.11168743150E+03  0.17432860826E+03 -0.23294370722E+03  0.32537375571E+03  0.93492053990E+02 0.  0.
         13    1    3    3    0    0 -0.90717269589E+01 -0.45906234613E+02 -0.72404158976E+02  0.86209285134E+02  0.00000000000E+00 0. -1.
        -14    1    3    3    0    0 -0.90985400022E+02 -0.10499510126E+03 -0.55930504013E+02  0.14976827296E+03  0.00000000000E+00 0.  1.
        -11    1    4    4    0    0  0.31333482705E+01  0.78743138619E+02 -0.55196686656E+02  0.96213169414E+02  0.00000000000E+00 0.  1.
         11    1    4    4    0    0  0.10855408323E+03  0.95585469642E+02 -0.17774702056E+03  0.22916058630E+03  0.00000000000E+00 0. -1.
         21    1    1    2  502  501 -0.11630304524E+02 -0.23427272392E+02 -0.17779436353E+02  0.31626087840E+02  0.00000000000E+00 0. -1.
<scales pt_clust_5="13000.00000" pt_clust_6="13000.00000" pt_clust_7="13000.00000" pt_clust_8="13000.00000" pt_clust_9="26.15533"></scales>
<clustering>
<clus scale="   26.155">  1  9  2 -1</clus>
<clus scale="   80.206">  5  6 -1 -1</clus>
<clus scale="   93.492">  7  8 -1 -1</clus>
<clus scale="  210.879">  1  5  2 -1</clus>
<clus scale="  216.281">  2  5  1 -1</clus>
</clustering>
</event>
<event>
 9    1  0.2802611E-005  0.9590556E+02  0.7546771E-02  0.1296718E+00
         -2   -1    0    0    0  501 -0.00000000000E+00  0.00000000000E+00  0.78848945449E+02  0.78848945449E+02  0.00000000000E+00 0.  1.
          1   -1    0    0  502    0  0.00000000000E+00 -0.00000000000E+00 -0.27586955964E+03  0.27586955964E+03  0.00000000000E+00 0. -1.
         23    2    1    2    0    0  0.35895189693E+02  0.26421899822E+02  0.11534215226E+02  0.10375706420E+03  0.92983379249E+02 0.  0.
        -24    2    1    2    0    0 -0.78346441272E+01 -0.19822352777E+02 -0.20605127082E+03  0.22202675506E+03  0.79902731103E+02 0.  0.
         13    1    4    4    0    0  0.90983177256E+01 -0.35641839539E+02 -0.19073471652E+03  0.19424945868E+03  0.00000000000E+00 0. -1.
        -14    1    4    4    0    0 -0.16932961853E+02  0.15819486762E+02 -0.15316554297E+02  0.27777296378E+02  0.00000000000E+00 0.  1.
        -11    1    3    3    0    0 -0.49974541554E+01  0.48553158247E+02  0.25683498305E+02  0.55154562903E+02  0.00000000000E+00 0.  1.
         11    1    3    3    0    0  0.40892643849E+02 -0.22131258425E+02 -0.14149283078E+02  0.48602501294E+02  0.00000000000E+00 0. -1.
         21    1    1    2  502  501 -0.28060545566E+02 -0.65995470454E+01 -0.25035586003E+01  0.28934685834E+02  0.00000000000E+00 0. -1.
<scales pt_clust_5="13000.00000" pt_clust_6="13000.00000" pt_clust_7="13000.00000" pt_clust_8="13000.00000" pt_clust_9="28.82617"></scales>
<clustering>
<clus scale="   28.826">  1  9  2 -1</clus>
<clus scale="   79.903">  5  6 -1 -1</clus>
<clus scale="   83.285">  2  5  1 -1</clus>
<clus scale="   92.983">  7  8 -1 -1</clus>
<clus scale="   83.285">  2  5  1 -1</clus>
</clustering>
</event>
<event>
 9    1  0.2802611E-005  0.1328717E+03  0.7546771E-02  0.1224942E+00
         -2   -1    0    0    0  501 -0.00000000000E+00  0.00000000000E+00  0.34973422181E+02  0.34973422181E+02  0.00000000000E+00 0.  1.
          1   -1    0    0  502    0  0.00000000000E+00 -0.00000000000E+00 -0.61135282698E+03  0.61135282698E+03  0.00000000000E+00 0. -1.
        -24    2    1    2    0    0 -0.50377326663E+02  0.79348793265E+02 -0.23586557032E+03  0.26764439210E+03  0.84657234317E+02 0.  0.
         23    2    1    2    0    0  0.27259335919E+02 -0.96873861719E+02 -0.29282761094E+03  0.32286478588E+03  0.91466079807E+02 0.  0.
         13    1    3    3    0    0 -0.15011490858E+02  0.67457248414E+02 -0.21289115593E+03  0.22382687394E+03  0.00000000000E+00 0. -1.
        -14    1    3    3    0    0 -0.35365835805E+02  0.11891544851E+02 -0.22974414389E+02  0.43817518159E+02  0.00000000000E+00 0.  1.
        -11    1    4    4    0    0  0.59881215192E+02 -0.72888461147E+02 -0.22327882657E+03  0.24238795782E+03  0.00000000000E+00 0.  1.
         11    1    4    4    0    0 -0.32621879272E+02 -0.23985400572E+02 -0.69548784368E+02  0.80476828062E+02  0.00000000000E+00 0. -1.
         21    1    1    2  502  501  0.23117990744E+02  0.17525068453E+02 -0.47686223542E+02  0.55817071188E+02  0.00000000000E+00 0.  1.
<scales pt_clust_5="13000.00000" pt_clust_6="13000.00000" pt_clust_7="13000.00000" pt_clust_8="13000.00000" pt_clust_9="29.00982"></scales>
<clustering>
<clus scale="   29.010">  1  9  2 -1</clus>
<clus scale="   84.657">  5  6 -1 -1</clus>
<clus scale="   91.466">  7  8 -1 -1</clus>
<clus scale="  128.280">  1  5  2 -1</clus>
<clus scale="  132.872">  2  5  1 -1</clus>
</clustering>
</event>
<event>
 9    1  0.2802611E-005  0.1450309E+03  0.7546771E-02  0.1209131E+00
         -2   -1    0    0    0  501 -0.00000000000E+00  0.00000000000E+00  0.18397703050E+03  0.18397703050E+03  0.00000000000E+00 0.  1.
          1   -1    0    0  502    0  0.00000000000E+00 -0.00000000000E+00 -0.22919766387E+03  0.22919766387E+03  0.00000000000E+00 0. -1.
        -24    2    1    2    0    0 -0.88222027372E+02 -0.69112900583E+02  0.41877365386E+02  0.14387503268E+03  0.79916157050E+02 0.  0.
         23    2    1    2    0    0  0.10988677105E+03  0.31451926867E+02 -0.13867113900E+03  0.20186451613E+03  0.91952552585E+02 0.  0.
         13    1    3    3    0    0 -0.40115499077E+02 -0.68594471296E+02  0.51661849403E+02  0.94780807352E+02  0.00000000000E+00 0. -1.
        -14    1    3    3    0    0 -0.48106528295E+02 -0.51842928744E+00 -0.97844840167E+01  0.49094225333E+02  0.00000000000E+00 0.  1.
        -11    1    4    4    0    0  0.52527893066E+02  0.15480173394E+02 -0.43447517271E+01  0.54933525154E+02  0.00000000000E+00 0.  1.
         11    1    4    4    0    0  0.57358877985E+02  0.15971753474E+02 -0.13432638727E+03  0.14693099098E+03  0.00000000000E+00 0. -1.
         21    1    1    2  502  501 -0.21664743679E+02  0.37660973716E+02  0.51573140244E+02  0.67435145544E+02  0.00000000000E+00 0.  1.
<scales pt_clust_5="13000.00000" pt_clust_6="13000.00000" pt_clust_7="13000.00000" pt_clust_8="13000.00000" pt_clust_9="43.44779"></scales>
<clustering>
<clus scale="   43.448">  1  9  2 -1</clus>
<clus scale="   79.916">  5  6 -1 -1</clus>
<clus scale="   91.953">  7  8 -1 -1</clus>
<clus scale="  137.714">  1  5  2 -1</clus>
<clus scale="  145.031">  2  5  1 -1</clus>
</clustering>
</event>
<event>
 9    1  0.2802611E-005  0.1280029E+03  0.7546771E-02  0.1232733E+00
         -2   -1    0    0    0  501 -0.00000000000E+00  0.00000000000E+00  0.39472001445E+03  0.39472001445E+03  0.00000000000E+00 0.  1.
          1   -1    0    0  502    0  0.00000000000E+00 -0.00000000000E+00 -0.12969634900E+03  0.12969634900E+03  0.00000000000E+00 0. -1.
        -24    2    1    2    0    0 -0.10225741304E+03  0.22806140221E+02  0.14362551643E+03  0.19581730570E+03  0.82094029546E+02 0.  0.
         23    2    1    2    0    0  0.86679572193E+02  0.19877572830E+02 -0.60839016009E+02  0.14078278369E+03  0.90608720205E+02 0.  0.
         13    1    3    3    0    0 -0.88567597694E+01  0.37481224323E+02  0.43822039586E+02  0.58340856386E+02  0.00000000000E+00 0. -1.
        -14    1    3    3    0    0 -0.93400653274E+02 -0.14675084102E+02  0.99803476847E+02  0.13747644931E+03  0.00000000000E+00 0.  1.
        -13    1    4    4    0    0  0.25827825881E+02  0.52059095642E+02 -0.28586604345E+02  0.64764341861E+02  0.00000000000E+00 0.  1.
         13    1    4    4    0    0  0.60851746312E+02 -0.32181522812E+02 -0.32252411664E+02  0.76018441827E+02  0.00000000000E+00 0. -1.
         21    1    1    2  502  501  0.15577840851E+02 -0.42683713050E+02  0.18223716502E+03  0.18781627406E+03  0.00000000000E+00 0.  1.
<scales pt_clust_5="13000.00000" pt_clust_6="13000.00000" pt_clust_7="13000.00000" pt_clust_8="13000.00000" pt_clust_9="45.43752"></scales>
<clustering>
<clus scale="   45.438">  1  9  2 -1</clus>
<clus scale="   82.094">  5  6 -1 -1</clus>
<clus scale="   90.609">  7  8 -1 -1</clus>
<clus scale="  122.124">  1  5  2 -1</clus>
<clus scale="  128.003">  2  5  1 -1</clus>
</clustering>
</event>
<event>
 9    1  0.2802611E-005  0.1410386E+03  0.7546771E-02  0.1239484E+00
          1   -1    0    0  502    0  0.00000000000E+00  0.00000000000E+00  0.73769955155E+03  0.73769955155E+03  0.00000000000E+00 0. -1.
         -2   -1    0    0    0  501 -0.00000000000E+00 -0.00000000000E+00 -0.97811731603E+02  0.97811731603E+02  0.00000000000E+00 0.  1.
         23    2    1    2    0    0 -0.51768175630E+02 -0.72833010772E+02 -0.26771251349E+02  0.14303170185E+03  0.10842866950E+03 0.  0.
        -24    2    1    2    0    0 -0.11072861952E+02  0.27992524838E+01  0.43894083037E+03  0.44608696665E+03  0.78702510519E+02 0.  0.
         11    1    4    4    0    0  0.68396463696E+01  0.37824033043E+02  0.17050574767E+03  0.17478457663E+03  0.00000000000E+00 0. -1.
        -12    1    4    4    0    0 -0.17912508321E+02 -0.35024780560E+02  0.26843508269E+03  0.27130239002E+03  0.00000000000E+00 0.  1.
        -13    1    3    3    0    0  0.21773899010E+02 -0.20416037458E+02 -0.41918818430E+02  0.51459737681E+02  0.00000000000E+00 0.  1.
         13    1    3    3    0    0 -0.73542074640E+02 -0.52416973315E+02  0.15147567082E+02  0.91571964172E+02  0.00000000000E+00 0. -1.
         21    1    1    2  502  501  0.62841037582E+02  0.70033758289E+02  0.22771824093E+03  0.24639261465E+03  0.00000000000E+00 0. -1.
<scales pt_clust_5="13000.00000" pt_clust_6="13000.00000" pt_clust_7="13000.00000" pt_clust_8="13000.00000" pt_clust_9="90.19489"></scales>
<clustering>
<clus scale="   78.703">  5  6 -1 -1</clus>
<clus scale="   79.527">  1  5  2 -1</clus>
<clus scale="   90.195">  1  9  2 -1</clus>
<clus scale="  108.429">  7  8 -1 -1</clus>
<clus scale="   79.527">  1  5  2 -1</clus>
</clustering>
</event>
<event>
 9    1  0.2802611E-005  0.1534659E+03  0.7546771E-02  0.1197928E+00
          3   -1    0    0  502    0  0.00000000000E+00  0.00000000000E+00  0.17845620303E+03  0.17845620303E+03  0.00000000000E+00 0. -1.
         -4   -1    0    0    0  501 -0.00000000000E+00 -0.00000000000E+00 -0.29836776193E+03  0.29836776193E+03  0.00000000000E+00 0.  1.
        -24    2    1    2    0    0  0.77996455485E+02 -0.16749122363E+02 -0.13719503669E+03  0.17848433984E+03  0.81671300380E+02 0.  0.
         23    2    1    2    0    0 -0.13586804408E+03  0.88742726106E+01  0.10379606468E+03  0.19395781773E+03  0.91143479737E+02 0.  0.
         11    1    3    3    0    0  0.89790436869E+02  0.25872904295E+01 -0.95993612035E+02  0.13146782943E+03  0.00000000000E+00 0. -1.
        -12    1    3    3    0    0 -0.11793981383E+02 -0.19336412792E+02 -0.41201424658E+02  0.47016510402E+02  0.00000000000E+00 0.  1.
        -11    1    4    4    0    0 -0.12466800018E+03 -0.25763638065E+02  0.77311437415E+02  0.14893936240E+03  0.00000000000E+00 0.  1.
         11    1    4    4    0    0 -0.11200043900E+02  0.34637910675E+02  0.26484627261E+02  0.45018455332E+02  0.00000000000E+00 0. -1.
         21    1    1    2  502  501  0.57871588598E+02  0.78748497523E+01 -0.86512586884E+02  0.10438180739E+03  0.00000000000E+00 0. -1.
<scales pt_clust_5="13000.00000" pt_clust_6="13000.00000" pt_clust_7="13000.00000" pt_clust_8="13000.00000" pt_clust_9="58.40491"></scales>
<clustering>
<clus scale="   58.405">  2  9  1 -1</clus>
<clus scale="   81.671">  5  6 -1 -1</clus>
<clus scale="   91.143">  7  8 -1 -1</clus>
<clus scale="  148.037">  2  5  1 -1</clus>
<clus scale="  153.466">  1  5  2 -1</clus>
</clustering>
</event>
<event>
 9    1  0.2802611E-005  0.1097604E+03  0.7546771E-02  0.1265252E+00
          1   -1    0    0  502    0  0.00000000000E+00  0.00000000000E+00  0.42064118097E+03  0.42064118097E+03  0.00000000000E+00 0. -1.
         -2   -1    0    0    0  501 -0.00000000000E+00 -0.00000000000E+00 -0.72383439269E+02  0.72383439269E+02  0.00000000000E+00 0.  1.
         23    2    1    2    0    0  0.41721625938E+02  0.24155990030E+02  0.84866828542E+02  0.13310335326E+03  0.90498166486E+02 0.  0.
        -24    2    1    2    0    0 -0.53794413568E+02 -0.40402529169E+02  0.30026317717E+03  0.31785862217E+03  0.79686415588E+02 0.  0.
         13    1    4    4    0    0 -0.54828628484E+02 -0.54397984436E+02  0.29092323268E+03  0.30100107396E+03  0.00000000000E+00 0. -1.
        -14    1    4    4    0    0  0.10342149157E+01  0.13995455268E+02  0.93399444949E+01  0.16857548215E+02  0.00000000000E+00 0.  1.
        -11    1    3    3    0    0  0.19856391506E+02  0.25073904943E+02  0.10098167421E+03  0.10592580195E+03  0.00000000000E+00 0. -1.
         11    1    3    3    0    0  0.21865234432E+02 -0.91791491287E+00 -0.16114845665E+02  0.27177551313E+02  0.00000000000E+00 0.  1.
         21    1    1    2  502  501  0.12072787630E+02  0.16246539139E+02 -0.36872264009E+02  0.42062644809E+02  0.00000000000E+00 0.  1.
<scales pt_clust_5="13000.00000" pt_clust_6="13000.00000" pt_clust_7="13000.00000" pt_clust_8="13000.00000" pt_clust_9="20.24110"></scales>
<clustering>
<clus scale="   20.241">  2  9  1 -1</clus>
<clus scale="   79.686">  5  6 -1 -1</clus>
<clus scale="   90.498">  7  8 -1 -1</clus>
<clus scale="  101.031">  1  5  2 -1</clus>
<clus scale="  101.031">  1  5  2 -1</clus>
</clustering>
</event>
<event>
 9    1  0.2802611E-005  0.2813189E+03  0.7546771E-02  0.1095399E+00
         -2   -1    0    0    0  501 -0.00000000000E+00  0.00000000000E+00  0.77152401113E+02  0.77152401113E+02  0.00000000000E+00 0.  1.
          1   -1    0    0  502    0  0.00000000000E+00 -0.00000000000E+00 -0.13201093710E+04  0.13201093710E+04  0.00000000000E+00 0. -1.
        -24    2    1    2    0    0  0.25784404792E+03 -0.13664452365E+02 -0.31335238373E+03  0.41378452853E+03  0.79734869137E+02 0.  0.
         23    2    1    2    0    0 -0.26831688666E+03  0.32540907566E+02 -0.91248435103E+03  0.95592541311E+03  0.90071317418E+02 0.  0.
         11    1    3    3    0    0  0.10196900722E+03  0.31275614624E+02 -0.14487319596E+03  0.17990020959E+03  0.00000000000E+00 0. -1.
        -12    1    3    3    0    0  0.15587504070E+03 -0.44940066989E+02 -0.16847918777E+03  0.23388431894E+03  0.00000000000E+00 0.  1.
        -13    1    4    4    0    0 -0.21505249072E+03  0.18276822754E+02 -0.57909966206E+03  0.61801135476E+03  0.00000000000E+00 0. -1.
         13    1    4    4    0    0 -0.53264395941E+02  0.14264084812E+02 -0.33338468897E+03  0.33791405835E+03  0.00000000000E+00 0.  1.
         21    1    1    2  502  501  0.10472838740E+02 -0.18876455201E+02 -0.17120235159E+02  0.27551830505E+02  0.00000000000E+00 0. -1.
<scales pt_clust_5="13000.00000" pt_clust_6="13000.00000" pt_clust_7="13000.00000" pt_clust_8="13000.00000" pt_clust_9="21.58705"></scales>
<clustering>
<clus scale="   21.587">  1  9  2 -1</clus>
<clus scale="   79.735">  5  6 -1 -1</clus>
<clus scale="   90.071">  7  8 -1 -1</clus>
<clus scale="  278.182">  1  5  2 -1</clus>
<clus scale="  281.319">  2  5  1 -1</clus>
</clustering>
</event>
<event>
 9    1  0.2802611E-005  0.2502921E+03  0.7546771E-02  0.1114020E+00
         -2   -1    0    0    0  501 -0.00000000000E+00  0.00000000000E+00  0.55671944111E+03  0.55671944111E+03  0.00000000000E+00 0.  1.
          1   -1    0    0  502    0  0.00000000000E+00 -0.00000000000E+00 -0.25522170996E+03  0.25522170996E+03  0.00000000000E+00 0. -1.
         23    2    1    2    0    0  0.10961863543E+03 -0.69833164527E+02  0.33831858653E+03  0.37324208939E+03  0.89203560489E+02 0.  0.
        -24    2    1    2    0    0 -0.19623598514E+03  0.17334455309E+03 -0.10041423443E+03  0.28949688109E+03  0.71892487321E+02 0.  0.
         11    1    4    4    0    0 -0.50306367756E+02  0.14003275082E+02 -0.38043678276E+02  0.64607614154E+02  0.00000000000E+00 0. -1.
        -12    1    4    4    0    0 -0.14592961738E+03  0.15934127801E+03 -0.62370556157E+02  0.22488926694E+03  0.00000000000E+00 0.  1.
        -13    1    3    3    0    0  0.10185971726E+03 -0.90037206648E+02  0.28861364423E+03  0.31902967921E+03  0.00000000000E+00 0. -1.
         13    1    3    3    0    0  0.77589181705E+01  0.20204042121E+02  0.49704942299E+02  0.54212410186E+02  0.00000000000E+00 0.  1.
         21    1    1    2  502  501  0.86617349714E+02 -0.10351138856E+03  0.63593379051E+02  0.14920218059E+03  0.00000000000E+00 0.  1.
<scales pt_clust_5="13000.00000" pt_clust_6="13000.00000" pt_clust_7="13000.00000" pt_clust_8="13000.00000" pt_clust_9="134.97101"></scales>
<clustering>
<clus scale="   71.892">  5  6 -1 -1</clus>
<clus scale="   89.204">  7  8 -1 -1</clus>
<clus scale="  134.971">  1  9  2 -1</clus>
<clus scale="  244.658">  2  5  1 -1</clus>
<clus scale="  244.658">  2  5  1 -1</clus>
</clustering>
</event>
<event>
 9    1  0.2802611E-005  0.9372553E+02  0.7546771E-02  0.1296090E+00
          1   -1    0    0  502    0  0.00000000000E+00  0.00000000000E+00  0.44962600108E+03  0.44962600108E+03  0.00000000000E+00 0. -1.
         -2   -1    0    0    0  501 -0.00000000000E+00 -0.00000000000E+00 -0.97557834508E+02  0.97557834508E+02  0.00000000000E+00 0.  1.
        -24    2    1    2    0    0  0.33768972979E+01 -0.56367492991E+01 -0.55322607233E+02  0.10572038068E+03  0.89850050871E+02 0.  0.
         23    2    1    2    0    0  0.14039557493E+02  0.49535343696E+02  0.35625737495E+03  0.37185710487E+03  0.93314145688E+02 0.  0.
         11    1    3    3    0    0 -0.38163859530E+02 -0.23248000843E+02 -0.31715581887E+02  0.54798064308E+02  0.00000000000E+00 0. -1.
        -12    1    3    3    0    0  0.41540756828E+02  0.17611251543E+02 -0.23607025346E+02  0.50922316370E+02  0.00000000000E+00 0.  1.
        -11    1    4    4    0    0 -0.20180428584E+02 -0.20354025692E+02  0.10304673432E+03  0.10695870939E+03  0.00000000000E+00 0. -1.
         11    1    4    4    0    0  0.34219986077E+02  0.69889369389E+02  0.25321064063E+03  0.26489839549E+03  0.00000000000E+00 0.  1.
         21    1    1    2  502  501 -0.17416454791E+02 -0.43898594397E+02  0.51133398853E+02  0.69606350040E+02  0.00000000000E+00 0. -1.
<scales pt_clust_5="13000.00000" pt_clust_6="13000.00000" pt_clust_7="13000.00000" pt_clust_8="13000.00000" pt_clust_9="47.22732"></scales>
<clustering>
<clus scale="   47.227">  1  9  2 -1</clus>
<clus scale="   89.850">  5  6 -1 -1</clus>
<clus scale="   90.277">  2  5  1 -1</clus>
<clus scale="   93.314">  7  8 -1 -1</clus>
<clus scale="   47.227">  1  5  2 -1</clus>
</clustering>
</event>
<event>
 9    1  0.2802611E-005  0.2124619E+03  0.7546771E-02  0.1140795E+00
         -2   -1    0    0    0  501 -0.00000000000E+00  0.00000000000E+00  0.16465911849E+03  0.16465911849E+03  0.00000000000E+00 0.  1.
          1   -1    0    0  502    0  0.00000000000E+00 -0.00000000000E+00 -0.60029075602E+03  0.60029075602E+03  0.00000000000E+00 0. -1.
         23    2    1    2    0    0 -0.55776236496E+02  0.20200537117E+03  0.40417962588E+02  0.23215113207E+03  0.91342092604E+02 0.  0.
        -24    2    1    2    0    0  0.58983528824E+02 -0.17963397978E+03 -0.46468162091E+03  0.50750058387E+03  0.76683834327E+02 0.  0.
         13    1    4    4    0    0  0.42190037438E+02 -0.13409059796E+03 -0.41448180678E+03  0.43767048778E+03  0.00000000000E+00 0. -1.
        -14    1    4    4    0    0  0.16793491386E+02 -0.45543381827E+02 -0.50199814133E+02  0.69830096091E+02  0.00000000000E+00 0.  1.
        -11    1    3    3    0    0 -0.47149312614E+02  0.12067152897E+03  0.67382193076E+02  0.14603094031E+03  0.00000000000E+00 0.  1.
         11    1    3    3    0    0 -0.86269238823E+01  0.81333842196E+02 -0.26964230488E+02  0.86120191755E+02  0.00000000000E+00 0. -1.
         21    1    1    2  502  501 -0.32072923280E+01 -0.22371391385E+02 -0.11367979205E+02  0.25298158585E+02  0.00000000000E+00 0.  1.
<scales pt_clust_5="13000.00000" pt_clust_6="13000.00000" pt_clust_7="13000.00000" pt_clust_8="13000.00000" pt_clust_9="22.60013"></scales>
<clustering>
<clus scale="   22.600">  1  9  2 -1</clus>
<clus scale="   76.684">  5  6 -1 -1</clus>
<clus scale="   91.342">  7  8 -1 -1</clus>
<clus scale="  206.584">  2  5  1 -1</clus>
<clus scale="  206.584">  2  5  1 -1</clus>
</clustering>
</event>
<event>
 9    1  0.2802611E-005  0.1416519E+03  0.7546771E-02  0.1211245E+00
          1   -1    0    0  502    0  0.00000000000E+00  0.00000000000E+00  0.20855766334E+03  0.20855766334E+03  0.00000000000E+00 0. -1.
         -2   -1    0    0    0  501 -0.00000000000E+00 -0.00000000000E+00 -0.13272389545E+03  0.13272389545E+03  0.00000000000E+00 0.  1.
         23    2    1    2    0    0 -0.85160407728E+02  0.75883678775E+02 -0.32507142242E+02  0.14402937726E+03  0.81713643095E+02 0.  0.
        -24    2    1    2    0    0  0.72307150142E+02 -0.91847215254E+02  0.10421337716E+03  0.17634578882E+03  0.81075115450E+02 0.  0.
         11    1    4    4    0    0  0.40893761033E+02 -0.97489048566E+02  0.59198896823E+02  0.12116486152E+03  0.00000000000E+00 0. -1.
        -12    1    4    4    0    0  0.31413389109E+02  0.56418333114E+01  0.45014480332E+02  0.55180927303E+02  0.00000000000E+00 0.  1.
        -11    1    3    3    0    0 -0.57228236106E+01  0.57738878784E+02 -0.59441019745E+01  0.58325476266E+02  0.00000000000E+00 0. -1.
         11    1    3    3    0    0 -0.79437584118E+02  0.18144799991E+02 -0.26563040268E+02  0.85703900993E+02  0.00000000000E+00 0.  1.
         21    1    1    2  502  501  0.12853257586E+02  0.15963536479E+02  0.41275329826E+01  0.20906392707E+02  0.00000000000E+00 0. -1.
<scales pt_clust_5="13000.00000" pt_clust_6="13000.00000" pt_clust_7="13000.00000" pt_clust_8="13000.00000" pt_clust_9="20.49490"></scales>
<clustering>
<clus scale="   20.495">  2  9  1 -1</clus>
<clus scale="   81.075">  5  6 -1 -1</clus>
<clus scale="   81.714">  7  8 -1 -1</clus>
<clus scale="  141.285">  1  5  2 -1</clus>
<clus scale="  141.285">  1  5  2 -1</clus>
</clustering>
</event>
<event>
 9    1  0.2802611E-005  0.1078645E+03  0.7546771E-02  0.1268003E+00
          1   -1    0    0  502    0  0.00000000000E+00  0.00000000000E+00  0.16075145702E+03  0.16075145702E+03  0.00000000000E+00 0. -1.
         -2   -1    0    0    0  501 -0.00000000000E+00 -0.00000000000E+00 -0.22619868459E+03  0.22619868459E+03  0.00000000000E+00 0.  1.
        -24    2    1    2    0    0 -0.13570381234E+02  0.50114472840E+02 -0.43185258670E+02  0.10626708196E+03  0.82049439403E+02 0.  0.
         23    2    1    2    0    0  0.75801622673E+02  0.56820295915E+01  0.84373577162E+02  0.14519462184E+03  0.90467708210E+02 0.  0.
         11    1    3    3    0    0 -0.74137081506E+01  0.71990340542E+02 -0.23185946504E+02  0.75994475557E+02  0.00000000000E+00 0. -1.
        -12    1    3    3    0    0 -0.61566730834E+01 -0.21875867702E+02 -0.19999312166E+02  0.30272606400E+02  0.00000000000E+00 0.  1.
        -13    1    4    4    0    0  0.30228594146E+02  0.20766513011E+02 -0.11112202580E+02  0.38320973537E+02  0.00000000000E+00 0.  1.
         13    1    4    4    0    0  0.45573028527E+02 -0.15084483419E+02  0.95485779742E+02  0.10687364831E+03  0.00000000000E+00 0. -1.
         21    1    1    2  502  501 -0.62231241439E+02 -0.55796502432E+02 -0.10663554607E+03  0.13548843781E+03  0.00000000000E+00 0.  1.
<scales pt_clust_5="13000.00000" pt_clust_6="13000.00000" pt_clust_7="13000.00000" pt_clust_8="13000.00000" pt_clust_9="83.58216"></scales>
<clustering>
<clus scale="   82.049">  5  6 -1 -1</clus>
<clus scale="   83.582">  2  9  1 -1</clus>
<clus scale="   90.468">  7  8 -1 -1</clus>
<clus scale="  100.908">  2  5  1 -1</clus>
<clus scale="  107.865">  1  5  2 -1</clus>
</clustering>
</event>
<event>
 9    1  0.2802611E-005  0.2209477E+03  0.7546771E-02  0.1134417E+00
         -2   -1    0    0    0  501 -0.00000000000E+00  0.00000000000E+00  0.11402106469E+03  0.11402106469E+03  0.00000000000E+00 0.  1.
          1   -1    0    0  502    0  0.00000000000E+00 -0.00000000000E+00 -0.47031475444E+03  0.47031475444E+03  0.00000000000E+00 0. -1.
         23    2    1    2    0    0 -0.12722492189E+03  0.13882074146E+03 -0.11836109168E+03  0.24013162655E+03  0.90534363821E+02 0.  0.
        -24    2    1    2    0    0  0.14348537864E+03 -0.15547476903E+03 -0.22590395748E+03  0.31800405361E+03  0.73030968911E+02 0.  0.
         11    1    4    4    0    0  0.40802739641E+02 -0.29591721443E+02 -0.10172460045E+03  0.11352721205E+03  0.00000000000E+00 0. -1.
        -12    1    4    4    0    0  0.10268263900E+03 -0.12588304758E+03 -0.12417935704E+03  0.20447684156E+03  0.00000000000E+00 0.  1.
        -13    1    3    3    0    0 -0.92647769607E+02  0.13094694095E+03 -0.12585312196E+03  0.20388653429E+03  0.00000000000E+00 0. -1.
         13    1    3    3    0    0 -0.34577152287E+02  0.78738005093E+01  0.74920302807E+01  0.36245092254E+02  0.00000000000E+00 0.  1.
         21    1    1    2  502  501 -0.16260456744E+02  0.16654027563E+02 -0.12028640582E+02  0.26200138966E+02  0.00000000000E+00 0. -1.
<scales pt_clust_5="13000.00000" pt_clust_6="13000.00000" pt_clust_7="13000.00000" pt_clust_8="13000.00000" pt_clust_9="23.27572"></scales>
<clustering>
<clus scale="   23.276">  1  9  2 -1</clus>
<clus scale="   73.031">  5  6 -1 -1</clus>
<clus scale="   90.534">  7  8 -1 -1</clus>
<clus scale="  214.371">  2  5  1 -1</clus>
<clus scale="  214.371">  2  5  1 -1</clus>
</clustering>
</event>
<event>
 9    1  0.2802611E-005  0.1514313E+03  0.7546771E-02  0.1199891E+00
         -4   -1    0    0    0  501 -0.00000000000E+00  0.00000000000E+00  0.12566906073E+03  0.12566906073E+03  0.00000000000E+00 0.  1.
          3   -1    0    0  502    0  0.00000000000E+00 -0.00000000000E+00 -0.38523597152E+03  0.38523597152E+03  0.00000000000E+00 0. -1.
        -24    2    1    2    0    0 -0.13774585505E+03  0.18880105134E+02 -0.48287349630E+02  0.16875812171E+03  0.82566679446E+02 0.  0.
         23    2    1    2    0    0  0.11635324746E+03 -0.11894217387E+02 -0.25420204960E+03  0.29368263193E+03  0.89169813693E+02 0.  0.
         13    1    3    3    0    0 -0.38491740594E+02 -0.30756121850E+02 -0.25465789031E+02  0.55462235225E+02  0.00000000000E+00 0. -1.
        -14    1    3    3    0    0 -0.99254114461E+02  0.49636226984E+02 -0.22821560599E+02  0.11329588649E+03  0.00000000000E+00 0.  1.
        -11    1    4    4    0    0  0.73963153646E+02  0.78556414257E+01 -0.22854070012E+03  0.24033957396E+03  0.00000000000E+00 0. -1.
         11    1    4    4    0    0  0.42390093810E+02 -0.19749858813E+02 -0.25661349482E+02  0.53343057970E+02  0.00000000000E+00 0.  1.
         21    1    1    2  502  501  0.21392607599E+02 -0.69858877471E+01  0.42922488440E+02  0.48464278612E+02  0.00000000000E+00 0.  1.
<scales pt_clust_5="13000.00000" pt_clust_6="13000.00000" pt_clust_7="13000.00000" pt_clust_8="13000.00000" pt_clust_9="22.50436"></scales>
<clustering>
<clus scale="   22.504">  1  9  2 -1</clus>
<clus scale="   82.567">  5  6 -1 -1</clus>
<clus scale="   89.170">  7  8 -1 -1</clus>
<clus scale="  147.640">  1  5  2 -1</clus>
<clus scale="  151.431">  2  5  1 -1</clus>
</clustering>
</event>
<event>
 9    1  0.2802611E-005  0.1147049E+03  0.7546771E-02  0.1255294E+00
          1   -1    0    0  502    0  0.00000000000E+00  0.00000000000E+00  0.88633876052E+02  0.88633876052E+02  0.00000000000E+00 0. -1.
         -2   -1    0    0    0  501 -0.00000000000E+00 -0.00000000000E+00 -0.85274634907E+03  0.85274634907E+03  0.00000000000E+00 0.  1.
        -24    2    1    2    0    0  0.21062490684E+02  0.68474640547E+02 -0.71641371474E+03  0.72449665004E+03  0.80711711313E+02 0.  0.
         23    2    1    2    0    0 -0.48499113732E+02 -0.52646350882E+02  0.41532726852E+02  0.12219692884E+03  0.89907284042E+02 0.  0.
         13    1    3    3    0    0 -0.27956580388E+02  0.12335134941E+02 -0.14076626956E+03  0.14404467566E+03  0.00000000000E+00 0. -1.
        -14    1    3    3    0    0  0.49019071073E+02  0.56139505606E+02 -0.57564744518E+03  0.58045197438E+03  0.00000000000E+00 0.  1.
        -11    1    4    4    0    0 -0.24117359100E+02 -0.10240892803E+01 -0.24848033496E+02  0.34642755916E+02  0.00000000000E+00 0.  1.
         11    1    4    4    0    0 -0.24381754631E+02 -0.51622261602E+02  0.66380760348E+02  0.87554172923E+02  0.00000000000E+00 0. -1.
         21    1    1    2  502  501  0.27436623047E+02 -0.15828289665E+02 -0.89231485131E+02  0.94686646242E+02  0.00000000000E+00 0. -1.
<scales pt_clust_5="13000.00000" pt_clust_6="13000.00000" pt_clust_7="13000.00000" pt_clust_8="13000.00000" pt_clust_9="31.67496"></scales>
<clustering>
<clus scale="   31.675">  2  9  1 -1</clus>
<clus scale="   80.712">  5  6 -1 -1</clus>
<clus scale="   89.907">  7  8 -1 -1</clus>
<clus scale="  107.649">  2  5  1 -1</clus>
<clus scale="  114.705">  1  5  2 -1</clus>
</clustering>
</event>
<event>
 9    1  0.2802611E-005  0.2085868E+03  0.7546771E-02  0.1144216E+00
          1   -1    0    0  502    0  0.00000000000E+00  0.00000000000E+00  0.15247793571E+03  0.15247793571E+03  0.00000000000E+00 0. -1.
         -2   -1    0    0    0  501 -0.00000000000E+00 -0.00000000000E+00 -0.50800465795E+03  0.50800465795E+03  0.00000000000E+00 0.  1.
         23    2    1    2    0    0 -0.16373801070E+03  0.11460199760E+03 -0.20828031304E+03  0.30472789138E+03  0.97645506714E+02 0.  0.
        -24    2    1    2    0    0  0.17912517018E+03 -0.35920382828E+02 -0.13804131207E+02  0.20008067511E+03  0.80409091666E+02 0.  0.
         13    1    4    4    0    0  0.94778262712E+02 -0.52867890207E+02 -0.29867831055E+02  0.11256118438E+03  0.00000000000E+00 0. -1.
        -14    1    4    4    0    0  0.84346907465E+02  0.16947507379E+02  0.16063699847E+02  0.87519490733E+02  0.00000000000E+00 0.  1.
        -13    1    3    3    0    0 -0.43739276031E+02 -0.11746156963E+02 -0.64519645254E+02  0.78828174498E+02  0.00000000000E+00 0.  1.
         13    1    3    3    0    0 -0.11999873467E+03  0.12634815456E+03 -0.14376066778E+03  0.22589971688E+03  0.00000000000E+00 0. -1.
         21    1    1    2  502  501 -0.15387159473E+02 -0.78681614771E+02 -0.13344227799E+03  0.15567402717E+03  0.00000000000E+00 0. -1.
<scales pt_clust_5="13000.00000" pt_clust_6="13000.00000" pt_clust_7="13000.00000" pt_clust_8="13000.00000" pt_clust_9="80.17207"></scales>
<clustering>
<clus scale="   80.172">  2  9  1 -1</clus>
<clus scale="   80.409">  5  6 -1 -1</clus>
<clus scale="   97.646">  7  8 -1 -1</clus>
<clus scale="  201.096">  1  5  2 -1</clus>
<clus scale="  201.096">  1  5  2 -1</clus>
</clustering>
</event>
<event>
 9    1  0.2802611E-005  0.9375505E+02  0.7546771E-02  0.1300440E+00
         -2   -1    0    0    0  501 -0.00000000000E+00  0.00000000000E+00  0.23956251795E+02  0.23956251795E+02  0.00000000000E+00 0.  1.
          1   -1    0    0  502    0  0.00000000000E+00 -0.00000000000E+00 -0.64169232883E+03  0.64169232883E+03  0.00000000000E+00 0. -1.
         23    2    1    2    0    0 -0.17006874232E+02 -0.51761394620E+01 -0.10461577302E+03  0.14012772435E+03  0.91516626775E+02 0.  0.
        -24    2    1    2    0    0  0.14188666879E+02 -0.18257958009E+02 -0.45690402243E+03  0.46455062147E+03  0.80692768547E+02 0.  0.
         13    1    4    4    0    0 -0.17508672766E+02  0.23612175755E+02 -0.11824149866E+03  0.12184063555E+03  0.00000000000E+00 0. -1.
        -14    1    4    4    0    0  0.31697339645E+02 -0.41870133764E+02 -0.33866252377E+03  0.34270998592E+03  0.00000000000E+00 0.  1.
        -13    1    3    3    0    0  0.31313308471E+02 -0.18189880104E+02 -0.71420454598E+02  0.80076690495E+02  0.00000000000E+00 0. -1.
         13    1    3    3    0    0 -0.48320182703E+02  0.13013740642E+02 -0.33195318418E+02  0.60051033853E+02  0.00000000000E+00 0.  1.
         21    1    1    2  502  501  0.28182073534E+01  0.23434097471E+02 -0.56216281583E+02  0.60970234804E+02  0.00000000000E+00 0. -1.
<scales pt_clust_5="13000.00000" pt_clust_6="13000.00000" pt_clust_7="13000.00000" pt_clust_8="13000.00000" pt_clust_9="23.60295"></scales>
<clustering>
<clus scale="   23.603">  1  9  2 -1</clus>
<clus scale="   80.693">  5  6 -1 -1</clus>
<clus scale="   83.223">  2  5  1 -1</clus>
<clus scale="   91.517">  7  8 -1 -1</clus>
<clus scale="   83.223">  2  5  1 -1</clus>
</clustering>
</event>
<event>
 9    1  0.2802611E-005  0.8455702E+02  0.7546771E-02  0.1329654E+00
         -2   -1    0    0    0  501 -0.00000000000E+00  0.00000000000E+00  0.15058737497E+03  0.15058737497E+03  0.00000000000E+00 0.  1.
          1   -1    0    0  502    0  0.00000000000E+00 -0.00000000000E+00 -0.40015423434E+03  0.40015423434E+03  0.00000000000E+00 0. -1.
         23    2    1    2    0    0  0.28919443750E+02 -0.33870697779E+01 -0.42824312871E+02  0.81562245879E+02  0.63013266154E+02 0.  0.
        -24    2    1    2    0    0 -0.12308873930E+02  0.20039450443E+02 -0.33153383192E+03  0.34219086895E+03  0.81405289353E+02 0.  0.
         13    1    4    4    0    0 -0.28340626868E+02 -0.23466729077E+02 -0.17999794494E+03  0.18372027294E+03  0.00000000000E+00 0. -1.
        -14    1    4    4    0    0  0.16031752939E+02  0.43506179520E+02 -0.15153588698E+03  0.15847059601E+03  0.00000000000E+00 0.  1.
        -11    1    3    3    0    0  0.18784849890E+02 -0.32824668714E+02 -0.18784195555E+02  0.42227662311E+02  0.00000000000E+00 0.  1.
         11    1    3    3    0    0  0.10134593860E+02  0.29437598936E+02 -0.24040117317E+02  0.39334583568E+02  0.00000000000E+00 0. -1.
         21    1    1    2  502  501 -0.16610569820E+02 -0.16652380665E+02  0.12479128542E+03  0.12698849448E+03  0.00000000000E+00 0.  1.
<scales pt_clust_5="13000.00000" pt_clust_6="13000.00000" pt_clust_7="13000.00000" pt_clust_8="13000.00000" pt_clust_9="23.52048"></scales>
<clustering>
<clus scale="   23.520">  1  9  2 -1</clus>
<clus scale="   63.013">  7  8 -1 -1</clus>
<clus scale="   67.035">  1  7  2 -1</clus>
<clus scale="   81.405">  5  6 -1 -1</clus>
<clus scale="   84.557">  2  5  1 -1</clus>
</clustering>
</event>
<event>
 9    1  0.2802611E-005  0.1922870E+03  0.7546771E-02  0.1157911E+00
         -2   -1    0    0    0  501 -0.00000000000E+00  0.00000000000E+00  0.68704426629E+03  0.68704426629E+03  0.00000000000E+00 0.  1.
          1   -1    0    0  502    0  0.00000000000E+00 -0.00000000000E+00 -0.20040147495E+03  0.20040147495E+03  0.00000000000E+00 0. -1.
         23    2    1    2    0    0  0.16465770010E+01  0.91393950526E+02  0.26338022493E+03  0.29464034888E+03  0.95332192339E+02 0.  0.
        -24    2    1    2    0    0  0.36330895376E+02 -0.17889384459E+03 -0.12235387607E+03  0.23426774416E+03  0.81166269914E+02 0.  0.
         11    1    4    4    0    0  0.34267459090E+02 -0.46525422567E+02 -0.72726064794E+02  0.92886781610E+02  0.00000000000E+00 0. -1.
        -12    1    4    4    0    0  0.20634362859E+01 -0.13236842203E+03 -0.49627811275E+02  0.14138096255E+03  0.00000000000E+00 0.  1.
        -13    1    3    3    0    0  0.42988596830E+02  0.76663475927E+02  0.18472210388E+03  0.20456677066E+03  0.00000000000E+00 0.  1.
         13    1    3    3    0    0 -0.41342019829E+02  0.14730474599E+02  0.78658121050E+02  0.90073578216E+02  0.00000000000E+00 0. -1.
         21    1    1    2  502  501 -0.37977472377E+02  0.87499894067E+02  0.34561644248E+03  0.35853764820E+03  0.00000000000E+00 0.  1.
<scales pt_clust_5="13000.00000" pt_clust_6="13000.00000" pt_clust_7="13000.00000" pt_clust_8="13000.00000" pt_clust_9="95.38616"></scales>
<clustering>
<clus scale="   81.166">  5  6 -1 -1</clus>
<clus scale="   95.332">  7  8 -1 -1</clus>
<clus scale="   95.386">  1  9  2 -1</clus>
<clus scale="  185.672">  2  5  1 -1</clus>
<clus scale="  185.672">  2  5  1 -1</clus>
</clustering>
</event>
<event>
 9    1  0.2802611E-005  0.9205134E+02  0.7546771E-02  0.1307919E+00
         -2   -1    0    0    0  501 -0.00000000000E+00  0.00000000000E+00  0.36059511198E+03  0.36059511198E+03  0.00000000000E+00 0.  1.
          1   -1    0    0  502    0  0.00000000000E+00 -0.00000000000E+00 -0.14736908188E+03  0.14736908188E+03  0.00000000000E+00 0. -1.
        -24    2    1    2    0    0 -0.61849187763E+02 -0.36417004214E+01  0.22556525117E+03  0.24589212580E+03  0.75793607795E+02 0.  0.
         23    2    1    2    0    0  0.41430964229E+01  0.88364452304E+01 -0.11319070670E+03  0.14576213510E+03  0.91319307572E+02 0.  0.
         11    1    3    3    0    0  0.10310434361E+02  0.18825111500E+02  0.37479171954E+02  0.43190024428E+02  0.00000000000E+00 0. -1.
        -12    1    3    3    0    0 -0.72159622123E+02 -0.22466811922E+02  0.18808607922E+03  0.20270210137E+03  0.00000000000E+00 0.  1.
        -11    1    4    4    0    0 -0.20945348695E+02 -0.14237122125E+02  0.22201731843E+01  0.25423069196E+02  0.00000000000E+00 0.  1.
         11    1    4    4    0    0  0.25088445118E+02  0.23073567356E+02 -0.11541087988E+03  0.12033906591E+03  0.00000000000E+00 0. -1.
         21    1    1    2  502  501  0.57706091340E+02 -0.51947448090E+01  0.10085148563E+03  0.11630993296E+03  0.00000000000E+00 0.  1.
<scales pt_clust_5="13000.00000" pt_clust_6="13000.00000" pt_clust_7="13000.00000" pt_clust_8="13000.00000" pt_clust_9="57.93944"></scales>
<clustering>
<clus scale="   57.939">  1  9  2 -1</clus>
<clus scale="   75.794">  5  6 -1 -1</clus>
<clus scale="   76.674">  1  5  2 -1</clus>
<clus scale="   91.319">  7  8 -1 -1</clus>
<clus scale="   92.051">  2  5  1 -1</clus>
</clustering>
</event>
<event>
 9    1  0.2802611E-005  0.1563214E+03  0.7546771E-02  0.1196070E+00
         -2   -1    0    0    0  501 -0.00000000000E+00  0.00000000000E+00  0.88089678276E+02  0.88089678276E+02  0.00000000000E+00 0.  1.
          1   -1    0    0  502    0  0.00000000000E+00 -0.00000000000E+00 -0.60297852007E+03  0.60297852007E+03  0.00000000000E+00 0. -1.
         23    2    1    2    0    0  0.87927846812E+02 -0.10802728871E+03 -0.61649458031E+02  0.17980975266E+03  0.95549411964E+02 0.  0.
        -24    2    1    2    0    0 -0.70286527884E+02  0.98389700453E+02 -0.46590215238E+03  0.48750039547E+03  0.77272833739E+02 0.  0.
         11    1    4    4    0    0 -0.26081964143E+02  0.94271674390E+02 -0.34914688826E+03  0.36258925388E+03  0.00000000000E+00 0. -1.
        -12    1    4    4    0    0 -0.44204563741E+02  0.41180260634E+01 -0.11675526411E+03  0.12491114159E+03  0.00000000000E+00 0.  1.
        -11    1    3    3    0    0  0.54236638668E+02 -0.12083142668E+03 -0.43151992174E+02  0.13929802969E+03  0.00000000000E+00 0.  1.
         11    1    3    3    0    0  0.33691208144E+02  0.12804137967E+02 -0.18497465857E+02  0.40511722975E+02  0.00000000000E+00 0. -1.
         21    1    1    2  502  501 -0.17641318928E+02  0.96375882550E+01  0.12662768617E+02  0.23758050213E+02  0.00000000000E+00 0. -1.
<scales pt_clust_5="13000.00000" pt_clust_6="13000.00000" pt_clust_7="13000.00000" pt_clust_8="13000.00000" pt_clust_9="20.10222"></scales>
<clustering>
<clus scale="   20.102">  1  9  2 -1</clus>
<clus scale="   77.273">  5  6 -1 -1</clus>
<clus scale="   95.549">  7  8 -1 -1</clus>
<clus scale="  145.869">  2  5  1 -1</clus>
<clus scale="  145.869">  2  5  1 -1</clus>
</clustering>
</event>
<event>
 9    1  0.2802611E-005  0.9489789E+02  0.7546771E-02  0.1294361E+00
         -2   -1    0    0    0  501 -0.00000000000E+00  0.00000000000E+00  0.26855113120E+03  0.26855113120E+03  0.00000000000E+00 0.  1.
          1   -1    0    0  502    0  0.00000000000E+00 -0.00000000000E+00 -0.91900021697E+02  0.91900021697E+02  0.00000000000E+00 0. -1.
         23    2    1    2    0    0 -0.30541910721E+02  0.82772481964E+01  0.20378889259E+03  0.22508039094E+03  0.90166227023E+02 0.  0.
        -24    2    1    2    0    0  0.21533232163E+02  0.24828262213E+02 -0.39161404387E+02  0.99015589313E+02  0.84795923496E+02 0.  0.
         13    1    4    4    0    0  0.40393083279E+02 -0.17568241883E+02 -0.13936583159E+02  0.46200353352E+02  0.00000000000E+00 0. -1.
        -14    1    4    4    0    0 -0.18859851116E+02  0.42396504096E+02 -0.25224821227E+02  0.52815235961E+02  0.00000000000E+00 0.  1.
        -13    1    3    3    0    0 -0.34336992139E+02  0.45950938227E+02  0.13176644700E+03  0.14371121845E+03  0.00000000000E+00 0.  1.
         13    1    3    3    0    0  0.37950814183E+01 -0.37673690030E+02  0.72022445587E+02  0.81369172491E+02  0.00000000000E+00 0. -1.
         21    1    1    2  502  501  0.90086785577E+01 -0.33105510409E+02  0.12023621304E+02  0.36355172645E+02  0.00000000000E+00 0. -1.
<scales pt_clust_5="13000.00000" pt_clust_6="13000.00000" pt_clust_7="13000.00000" pt_clust_8="13000.00000" pt_clust_9="34.30934"></scales>
<clustering>
<clus scale="   34.309">  2  9  1 -1</clus>
<clus scale="   84.796">  5  6 -1 -1</clus>
<clus scale="   89.811">  2  5  1 -1</clus>
<clus scale="   90.166">  7  8 -1 -1</clus>
<clus scale="   34.309">  2  5  1 -1</clus>
</clustering>
</event>
<event>
 9    1  0.2802611E-005  0.9787569E+02  0.7546771E-02  0.1303802E+00
         -2   -1    0    0    0  501 -0.00000000000E+00  0.00000000000E+00  0.84207952520E+02  0.84207952520E+02  0.00000000000E+00 0.  1.
          1   -1    0    0  502    0  0.00000000000E+00 -0.00000000000E+00 -0.12839291016E+03  0.12839291016E+03  0.00000000000E+00 0. -1.
        -24    2    1    2    0    0  0.37249332838E+02 -0.10638918132E+02  0.73458219278E+01  0.72100594061E+02  0.60364187962E+02 0.  0.
         23    2    1    2    0    0 -0.18994907435E+02  0.25881752804E+02 -0.60787610640E+02  0.11498053160E+03  0.92166791221E+02 0.  0.
         13    1    3    3    0    0  0.41855972280E+02  0.11555343859E+02  0.18061131970E+02  0.47028213609E+02  0.00000000000E+00 0. -1.
        -14    1    3    3    0    0 -0.46066394419E+01 -0.22194261991E+02 -0.10715310042E+02  0.25072380453E+02  0.00000000000E+00 0.  1.
        -11    1    4    4    0    0 -0.26972608884E+02 -0.25622381730E+02 -0.32450673393E+01  0.37343788473E+02  0.00000000000E+00 0.  1.
         11    1    4    4    0    0  0.79777014487E+01  0.51504134534E+02 -0.57542543300E+02  0.77636743131E+02  0.00000000000E+00 0. -1.
         21    1    1    2  502  501 -0.18254425403E+02 -0.15242834673E+02  0.92568310745E+01  0.25519737012E+02  0.00000000000E+00 0.  1.
<scales pt_clust_5="13000.00000" pt_clust_6="13000.00000" pt_clust_7="13000.00000" pt_clust_8="13000.00000" pt_clust_9="23.78167"></scales>
<clustering>
<clus scale="   23.782">  1  9  2 -1</clus>
<clus scale="   60.364">  5  6 -1 -1</clus>
<clus scale="   68.766">  1  5  2 -1</clus>
<clus scale="   92.167">  7  8 -1 -1</clus>
<clus scale="   97.876">  2  5  1 -1</clus>
</clustering>
</event>
<event>
 9    1  0.2802611E-005  0.1050537E+03  0.7546771E-02  0.1277297E+00
          1   -1    0    0  502    0  0.00000000000E+00  0.00000000000E+00  0.24938717171E+03  0.24938717171E+03  0.00000000000E+00 0. -1.
         -2   -1    0    0    0  501 -0.00000000000E+00 -0.00000000000E+00 -0.46942296518E+03  0.46942296518E+03  0.00000000000E+00 0.  1.
        -24    2    1    2    0    0 -0.18965157398E+02 -0.18181918646E+02 -0.14674308125E+03  0.16873864914E+03  0.79050240090E+02 0.  0.
         23    2    1    2    0    0 -0.46336375336E+02  0.18944149685E+02  0.22263901802E+03  0.24701957779E+03  0.94575890061E+02 0.  0.
         13    1    3    3    0    0 -0.48266816386E+02 -0.94431495616E+01 -0.65332755822E+02  0.81775470778E+02  0.00000000000E+00 0. -1.
        -14    1    3    3    0    0  0.29301658989E+02 -0.87387690846E+01 -0.81410325423E+02  0.86963178358E+02  0.00000000000E+00 0.  1.
        -11    1    4    4    0    0  0.14151737507E+02  0.18856884424E+02  0.94236597713E+01  0.25390138403E+02  0.00000000000E+00 0.  1.
         11    1    4    4    0    0 -0.60488112842E+02  0.87265260977E-01  0.21321535825E+03  0.22162943939E+03  0.00000000000E+00 0. -1.
         21    1    1    2  502  501  0.65301532734E+02 -0.76223103923E+00 -0.29593173024E+03  0.30305190997E+03  0.00000000000E+00 0.  1.
<scales pt_clust_5="13000.00000" pt_clust_6="13000.00000" pt_clust_7="13000.00000" pt_clust_8="13000.00000" pt_clust_9="65.30598"></scales>
<clustering>
<clus scale="   65.306">  2  9  1 -1</clus>
<clus scale="   79.050">  5  6 -1 -1</clus>
<clus scale="   91.327">  2  5  1 -1</clus>
<clus scale="   94.576">  7  8 -1 -1</clus>
<clus scale="  105.054">  1  5  2 -1</clus>
</clustering>
</event>
<event>
 9    1  0.2802611E-005  0.9031589E+02  0.7546771E-02  0.1306071E+00
         -2   -1    0    0    0  501 -0.00000000000E+00  0.00000000000E+00  0.35390788848E+03  0.35390788848E+03  0.00000000000E+00 0.  1.
          1   -1    0    0  502    0  0.00000000000E+00 -0.00000000000E+00 -0.15361461483E+03  0.15361461483E+03  0.00000000000E+00 0. -1.
         23    2    1    2    0    0  0.59003487807E+01  0.21385508606E+02  0.27815052943E+03  0.29307060108E+03  0.89613091140E+02 0.  0.
        -24    2    1    2    0    0 -0.11170160076E+02  0.35828571101E+01 -0.13092357825E+03  0.15556875711E+03  0.83204840629E+02 0.  0.
         13    1    4    4    0    0 -0.35584450702E+02 -0.26297847547E+02 -0.56773378420E+02  0.71979486068E+02  0.00000000000E+00 0. -1.
        -14    1    4    4    0    0  0.24414290626E+02  0.29880704657E+02 -0.74150199833E+02  0.83589271039E+02  0.00000000000E+00 0.  1.
        -11    1    3    3    0    0  0.20673383193E+02  0.53269739296E+02  0.17624547679E+03  0.18527687925E+03  0.00000000000E+00 0.  1.
         11    1    3    3    0    0 -0.14773034413E+02 -0.31884230689E+02  0.10190505264E+03  0.10779372183E+03  0.00000000000E+00 0. -1.
         21    1    1    2  502  501  0.52698112955E+01 -0.24968365716E+02  0.53066322477E+02  0.58883145117E+02  0.00000000000E+00 0. -1.
<scales pt_clust_5="13000.00000" pt_clust_6="13000.00000" pt_clust_7="13000.00000" pt_clust_8="13000.00000" pt_clust_9="25.51843"></scales>
<clustering>
<clus scale="   25.518">  1  9  2 -1</clus>
<clus scale="   83.205">  5  6 -1 -1</clus>
<clus scale="   83.961">  2  5  1 -1</clus>
<clus scale="   89.613">  7  8 -1 -1</clus>
<clus scale="   83.961">  2  5  1 -1</clus>
</clustering>
</event>
<event>
 9    1  0.2802611E-005  0.1109994E+03  0.7546771E-02  0.1263676E+00
          1   -1    0    0  502    0  0.00000000000E+00  0.00000000000E+00  0.13580233151E+03  0.13580233151E+03  0.00000000000E+00 0. -1.
         -2   -1    0    0    0  501 -0.00000000000E+00 -0.00000000000E+00 -0.35946734074E+03  0.35946734074E+03  0.00000000000E+00 0.  1.
        -24    2    1    2    0    0 -0.61483309473E+02  0.48351308941E+02 -0.29890191690E+03  0.31926283619E+03  0.80426091682E+02 0.  0.
         23    2    1    2    0    0  0.38541543083E+02 -0.45114113328E+02  0.94997120210E+02  0.14555572639E+03  0.92958500809E+02 0.  0.
         11    1    3    3    0    0 -0.47279402524E+02  0.23028061404E+02 -0.65206441980E+02  0.83770600993E+02  0.00000000000E+00 0. -1.
        -12    1    3    3    0    0 -0.14203906949E+02  0.25323247537E+02 -0.23369547492E+03  0.23549223519E+03  0.00000000000E+00 0.  1.
        -11    1    4    4    0    0  0.45873057125E+02 -0.13581625640E+02  0.10179443430E+03  0.11247624096E+03  0.00000000000E+00 0. -1.
         11    1    4    4    0    0 -0.73315140428E+01 -0.31532487687E+02 -0.67973140892E+01  0.33079485437E+02  0.00000000000E+00 0.  1.
         21    1    1    2  502  501  0.22941766390E+02 -0.32371956133E+01 -0.19760212538E+02  0.30451109669E+02  0.00000000000E+00 0.  1.
<scales pt_clust_5="13000.00000" pt_clust_6="13000.00000" pt_clust_7="13000.00000" pt_clust_8="13000.00000" pt_clust_9="23.16903"></scales>
<clustering>
<clus scale="   23.169">  2  9  1 -1</clus>
<clus scale="   80.426">  5  6 -1 -1</clus>
<clus scale="   92.959">  7  8 -1 -1</clus>
<clus scale="  100.737">  2  5  1 -1</clus>
<clus scale="  110.999">  1  5  2 -1</clus>
</clustering>
</event>
<event>
 9    1  0.2802611E-005  0.3215726E+03  0.7546771E-02  0.1075235E+00
         -2   -1    0    0    0  501 -0.00000000000E+00  0.00000000000E+00  0.60654896548E+03  0.60654896548E+03  0.00000000000E+00 0.  1.
          1   -1    0    0  502    0  0.00000000000E+00 -0.00000000000E+00 -0.37854289631E+03  0.37854289631E+03  0.00000000000E+00 0. -1.
        -24    2    1    2    0    0  0.18452965414E+03 -0.20129402451E+03  0.41909300171E+03  0.50675238279E+03  0.81169919431E+02 0.  0.
         23    2    1    2    0    0 -0.21328064235E+03  0.23131473170E+03 -0.24586766750E+03  0.40957327286E+03  0.91127484398E+02 0.  0.
         13    1    3    3    0    0  0.32642262134E+02  0.22943662089E-01  0.51262480856E+02  0.60773018249E+02  0.00000000000E+00 0. -1.
        -14    1    3    3    0    0  0.15188739200E+03 -0.20131696817E+03  0.36783052086E+03  0.44597936454E+03  0.00000000000E+00 0.  1.
        -13    1    4    4    0    0 -0.87548482415E+01  0.35052345946E+02 -0.61822142616E+02  0.71605109047E+02  0.00000000000E+00 0.  1.
         13    1    4    4    0    0 -0.20452579411E+03  0.19626238576E+03 -0.18404552488E+03  0.33796816381E+03  0.00000000000E+00 0. -1.
         21    1    1    2  502  501  0.28750988213E+02 -0.30020707198E+02  0.54780734962E+02  0.68766206140E+02  0.00000000000E+00 0.  1.
<scales pt_clust_5="13000.00000" pt_clust_6="13000.00000" pt_clust_7="13000.00000" pt_clust_8="13000.00000" pt_clust_9="41.56756"></scales>
<clustering>
<clus scale="   41.568">  1  9  2 -1</clus>
<clus scale="   81.170">  5  6 -1 -1</clus>
<clus scale="   91.127">  7  8 -1 -1</clus>
<clus scale="  318.894">  1  5  2 -1</clus>
<clus scale="  321.573">  2  5  1 -1</clus>
</clustering>
</event>
<event>
 9    1  0.2802611E-005  0.1460983E+03  0.7546771E-02  0.1208067E+00
         -2   -1    0    0    0  501 -0.00000000000E+00  0.00000000000E+00  0.32470786717E+03  0.32470786717E+03  0.00000000000E+00 0.  1.
          1   -1    0    0  502    0  0.00000000000E+00 -0.00000000000E+00 -0.94938386958E+02  0.94938386958E+02  0.00000000000E+00 0. -1.
         23    2    1    2    0    0  0.87218455147E+02  0.91976427773E+02  0.11525258788E+03  0.19537685482E+03  0.93926749136E+02 0.  0.
        -24    2    1    2    0    0 -0.87075150718E+02 -0.58364503245E+02  0.33151425785E+02  0.13623462690E+03  0.80450975273E+02 0.  0.
         11    1    4    4    0    0 -0.41997667487E+02 -0.15096309523E+02 -0.24764088592E+02  0.51038835404E+02  0.00000000000E+00 0. -1.
        -12    1    4    4    0    0 -0.45077483231E+02 -0.43268193722E+02  0.57915514378E+02  0.85195791492E+02  0.00000000000E+00 0.  1.
        -13    1    3    3    0    0  0.53144301371E+02  0.10595973721E+03  0.10151161018E+03  0.15606533785E+03  0.00000000000E+00 0.  1.
         13    1    3    3    0    0  0.34074153776E+02 -0.13983309438E+02  0.13740977703E+02  0.39311516971E+02  0.00000000000E+00 0. -1.
         21    1    1    2  502  501 -0.14330442852E+00 -0.33611924528E+02  0.81365466549E+02  0.88034772410E+02  0.00000000000E+00 0.  1.
<scales pt_clust_5="13000.00000" pt_clust_6="13000.00000" pt_clust_7="13000.00000" pt_clust_8="13000.00000" pt_clust_9="33.61223"></scales>
<clustering>
<clus scale="   33.612">  1  9  2 -1</clus>
<clus scale="   80.451">  5  6 -1 -1</clus>
<clus scale="   93.927">  7  8 -1 -1</clus>
<clus scale="  137.822">  2  5  1 -1</clus>
<clus scale="  137.822">  2  5  1 -1</clus>
</clustering>
</event>
<event>
 9    1  0.2802611E-005  0.1939739E+03  0.7546771E-02  0.1155858E+00
          1   -1    0    0  502    0  0.00000000000E+00  0.00000000000E+00  0.51038062606E+03  0.51038062606E+03  0.00000000000E+00 0. -1.
         -2   -1    0    0    0  501 -0.00000000000E+00 -0.00000000000E+00 -0.17150781957E+03  0.17150781957E+03  0.00000000000E+00 0.  1.
         23    2    1    2    0    0 -0.15022243145E+03  0.36803560848E+02 -0.84630539240E+02  0.19828658581E+03  0.90741175539E+02 0.  0.
        -24    2    1    2    0    0  0.16689892075E+03 -0.48970470030E+02  0.42110068147E+03  0.46281937272E+03  0.81379549948E+02 0.  0.
         11    1    4    4    0    0  0.14427204922E+03 -0.15670446308E+02  0.27096368664E+03  0.30737811658E+03  0.00000000000E+00 0. -1.
        -12    1    4    4    0    0  0.22626871530E+02 -0.33300023722E+02  0.15013699483E+03  0.15544125614E+03  0.00000000000E+00 0.  1.
        -11    1    3    3    0    0 -0.65115094077E+02 -0.77065185561E+01  0.64972450626E+01  0.65890667764E+02  0.00000000000E+00 0. -1.
         11    1    3    3    0    0 -0.85107337370E+02  0.44510079404E+02 -0.91127784303E+02  0.13239591804E+03  0.00000000000E+00 0.  1.
         21    1    1    2  502  501 -0.16676489299E+02  0.12166909182E+02  0.24026642621E+01  0.20782487097E+02  0.00000000000E+00 0.  1.
<scales pt_clust_5="13000.00000" pt_clust_6="13000.00000" pt_clust_7="13000.00000" pt_clust_8="13000.00000" pt_clust_9="20.64313"></scales>
<clustering>
<clus scale="   20.643">  2  9  1 -1</clus>
<clus scale="   81.380">  5  6 -1 -1</clus>
<clus scale="   90.741">  7  8 -1 -1</clus>
<clus scale="  189.775">  1  5  2 -1</clus>
<clus scale="  189.775">  1  5  2 -1</clus>
</clustering>
</event>
<event>
 9    1  0.2802611E-005  0.2196317E+03  0.7546771E-02  0.1134984E+00
          1   -1    0    0  502    0  0.00000000000E+00  0.00000000000E+00  0.83279491314E+03  0.83279491314E+03  0.00000000000E+00 0. -1.
         -2   -1    0    0    0  501 -0.00000000000E+00 -0.00000000000E+00 -0.12941032126E+03  0.12941032126E+03  0.00000000000E+00 0.  1.
         23    2    1    2    0    0  0.57502078277E+02  0.15623682582E+03  0.23266283135E+03  0.30056900334E+03  0.92159090329E+02 0.  0.
        -24    2    1    2    0    0 -0.79407595210E+02 -0.20966495254E+03  0.52859252488E+03  0.57988391144E+03  0.81180877563E+02 0.  0.
         13    1    4    4    0    0 -0.65487006258E+02 -0.21178714366E+03  0.47048734879E+03  0.52009680597E+03  0.00000000000E+00 0. -1.
        -14    1    4    4    0    0 -0.13920588952E+02  0.21221911119E+01  0.58105176092E+02  0.59787105471E+02  0.00000000000E+00 0.  1.
        -11    1    3    3    0    0  0.72358739680E+02  0.64696757767E+02  0.12970667158E+03  0.16200394540E+03  0.00000000000E+00 0.  1.
         11    1    3    3    0    0 -0.14856661404E+02  0.91540068058E+02  0.10295615977E+03  0.13856505794E+03  0.00000000000E+00 0. -1.
         21    1    1    2  502  501  0.21905516934E+02  0.53428126720E+02 -0.57870764350E+02  0.81752319621E+02  0.00000000000E+00 0.  1.
<scales pt_clust_5="13000.00000" pt_clust_6="13000.00000" pt_clust_7="13000.00000" pt_clust_8="13000.00000" pt_clust_9="57.74441"></scales>
<clustering>
<clus scale="   57.744">  2  9  1 -1</clus>
<clus scale="   81.181">  5  6 -1 -1</clus>
<clus scale="   92.159">  7  8 -1 -1</clus>
<clus scale="  215.256">  1  5  2 -1</clus>
<clus scale="  215.256">  1  5  2 -1</clus>
</clustering>
</event>
<event>
 9    1  0.2802611E-005  0.1672409E+03  0.7546771E-02  0.1181808E+00
          1   -1    0    0  502    0  0.00000000000E+00  0.00000000000E+00  0.11714745503E+04  0.11714745503E+04  0.00000000000E+00 0. -1.
         -2   -1    0    0    0  501 -0.00000000000E+00 -0.00000000000E+00 -0.70521128359E+02  0.70521128359E+02  0.00000000000E+00 0.  1.
        -24    2    1    2    0    0  0.15442620145E+03 -0.66715976578E+01  0.21008635613E+03  0.27359923038E+03  0.82633527828E+02 0.  0.
         23    2    1    2    0    0 -0.13678473526E+03  0.17028673327E+02  0.91898612499E+03  0.93362330009E+03  0.90094001043E+02 0.  0.
         13    1    3    3    0    0  0.22905361526E+02 -0.28433744020E+02  0.20615075515E+02  0.41929878656E+02  0.00000000000E+00 0. -1.
        -14    1    3    3    0    0  0.13152083992E+03  0.21762146362E+02  0.18947128062E+03  0.23166935172E+03  0.00000000000E+00 0.  1.
        -11    1    4    4    0    0 -0.11283161567E+03  0.50414683278E+02  0.68949050158E+03  0.70047824060E+03  0.00000000000E+00 0. -1.
         11    1    4    4    0    0 -0.23953119592E+02 -0.33386009951E+02  0.22949562341E+03  0.23314505949E+03  0.00000000000E+00 0.  1.
         21    1    1    2  502  501 -0.17641466186E+02 -0.10357075669E+02 -0.28119059186E+02  0.34773148191E+02  0.00000000000E+00 0.  1.
<scales pt_clust_5="13000.00000" pt_clust_6="13000.00000" pt_clust_7="13000.00000" pt_clust_8="13000.00000" pt_clust_9="20.45704"></scales>
<clustering>
<clus scale="   20.457">  2  9  1 -1</clus>
<clus scale="   82.634">  5  6 -1 -1</clus>
<clus scale="   90.094">  7  8 -1 -1</clus>
<clus scale="  163.343">  2  5  1 -1</clus>
<clus scale="  167.241">  1  5  2 -1</clus>
</clustering>
</event>
<event>
 9    1  0.2802611E-005  0.1033134E+03  0.7546771E-02  0.1278844E+00
         -2   -1    0    0    0  501 -0.00000000000E+00  0.00000000000E+00  0.16309654942E+03  0.16309654942E+03  0.00000000000E+00 0.  1.
          1   -1    0    0  502    0  0.00000000000E+00 -0.00000000000E+00 -0.19948077888E+03  0.19948077888E+03  0.00000000000E+00 0. -1.
        -24    2    1    2    0    0 -0.39215555267E+02 -0.93159165794E+01  0.86352132166E+02  0.12526768585E+03  0.81305942657E+02 0.  0.
         23    2    1    2    0    0 -0.26008518245E+02  0.49714583070E+02 -0.11835113806E+03  0.16046263727E+03  0.92699963789E+02 0.  0.
         13    1    3    3    0    0 -0.14209965853E+02 -0.25478052554E+02  0.90610229214E+02  0.95190692453E+02  0.00000000000E+00 0. -1.
        -14    1    3    3    0    0 -0.25005589415E+02  0.16162135974E+02 -0.42580970476E+01  0.30076993395E+02  0.00000000000E+00 0.  1.
        -11    1    4    4    0    0 -0.43315866141E+02  0.65790366459E+02 -0.11023489677E+03  0.13548567838E+03  0.00000000000E+00 0. -1.
         11    1    4    4    0    0  0.17307347895E+02 -0.16075783389E+02 -0.81162412917E+01  0.24976958891E+02  0.00000000000E+00 0.  1.
         21    1    1    2  502  501  0.65224073513E+02 -0.40398666491E+02 -0.43852235570E+01  0.76847005182E+02  0.00000000000E+00 0.  1.
<scales pt_clust_5="13000.00000" pt_clust_6="13000.00000" pt_clust_7="13000.00000" pt_clust_8="13000.00000" pt_clust_9="76.72178"></scales>
<clustering>
<clus scale="   76.722">  1  9  2 -1</clus>
<clus scale="   81.306">  5  6 -1 -1</clus>
<clus scale="   92.700">  7  8 -1 -1</clus>
<clus scale="   93.226">  1  5  2 -1</clus>
<clus scale="  103.313">  2  5  1 -1</clus>
</clustering>
</event>
<event>
 9    1  0.2802611E-005  0.1097600E+03  0.7546771E-02  0.1269882E+00
         -2   -1    0    0    0  501 -0.00000000000E+00  0.00000000000E+00  0.32021407717E+03  0.32021407717E+03  0.00000000000E+00 0.  1.
          1   -1    0    0  502    0  0.00000000000E+00 -0.00000000000E+00 -0.34357353263E+03  0.34357353263E+03  0.00000000000E+00 0. -1.
         23    2    1    2    0    0 -0.50803374722E+02 -0.11255561364E+01  0.28812202811E+03  0.30837488498E+03  0.97460334715E+02 0.  0.
        -24    2    1    2    0    0  0.41918513972E+02 -0.55093838819E+02 -0.25461543126E+03  0.27495584802E+03  0.77325336305E+02 0.  0.
         11    1    4    4    0    0 -0.19003650489E+01 -0.48143071389E+02 -0.19366183812E+03  0.19956521303E+03  0.00000000000E+00 0. -1.
        -12    1    4    4    0    0  0.43818879021E+02 -0.69507674309E+01 -0.60953593141E+02  0.75390634984E+02  0.00000000000E+00 0.  1.
        -11    1    3    3    0    0 -0.27854376133E+02  0.47754404987E+02  0.12926317088E+03  0.14058917743E+03  0.00000000000E+00 0. -1.
         11    1    3    3    0    0 -0.22948998588E+02 -0.48879961123E+02  0.15885885723E+03  0.16778570754E+03  0.00000000000E+00 0.  1.
         21    1    1    2  502  501  0.88848607499E+01  0.56219394956E+02 -0.56866052315E+02  0.80456876807E+02  0.00000000000E+00 0.  1.
<scales pt_clust_5="13000.00000" pt_clust_6="13000.00000" pt_clust_7="13000.00000" pt_clust_8="13000.00000" pt_clust_9="56.91714"></scales>
<clustering>
<clus scale="   56.917">  2  9  1 -1</clus>
<clus scale="   77.325">  5  6 -1 -1</clus>
<clus scale="   92.347">  2  5  1 -1</clus>
<clus scale="   97.460">  7  8 -1 -1</clus>
<clus scale="   56.917">  2  5  1 -1</clus>
</clustering>
</event>
<event>
 9    1  0.2802611E-005  0.9813227E+02  0.7546771E-02  0.1290783E+00
         -2   -1    0    0    0  501 -0.00000000000E+00  0.00000000000E+00  0.72780291767E+03  0.72780291767E+03  0.00000000000E+00 0.  1.
          1   -1    0    0  502    0  0.00000000000E+00 -0.00000000000E+00 -0.49509137023E+02  0.49509137023E+02  0.00000000000E+00 0. -1.
        -24    2    1    2    0    0  0.10976802764E+02  0.60932987965E+02  0.56837548539E+03  0.57722296282E+03  0.79387260956E+02 0.  0.
         23    2    1    2    0    0  0.15886398827E+02 -0.29609533198E+02  0.17858159559E+02  0.99203716300E+02  0.91615289887E+02 0.  0.
         11    1    3    3    0    0  0.11565267431E+02  0.20173955482E+02  0.33405662820E+02  0.40702361098E+02  0.00000000000E+00 0. -1.
        -12    1    3    3    0    0 -0.58846466638E+00  0.40759032483E+02  0.53496982257E+03  0.53652060173E+03  0.00000000000E+00 0.  1.
        -11    1    4    4    0    0 -0.15504653560E+02  0.26562448601E+02 -0.44958758868E+01  0.31083289042E+02  0.00000000000E+00 0.  1.
         11    1    4    4    0    0  0.31391052387E+02 -0.56171981799E+02  0.22354035446E+02  0.68120427258E+02  0.00000000000E+00 0. -1.
         21    1    1    2  502  501 -0.26863201591E+02 -0.31323454767E+02  0.92060135702E+02  0.10088537557E+03  0.00000000000E+00 0. -1.
<scales pt_clust_5="13000.00000" pt_clust_6="13000.00000" pt_clust_7="13000.00000" pt_clust_8="13000.00000" pt_clust_9="41.26488"></scales>
<clustering>
<clus scale="   41.265">  1  9  2 -1</clus>
<clus scale="   79.387">  5  6 -1 -1</clus>
<clus scale="   86.827">  1  5  2 -1</clus>
<clus scale="   91.615">  7  8 -1 -1</clus>
<clus scale="   98.132">  2  5  1 -1</clus>
</clustering>
</event>
<event>
 9    1  0.5417008E-005  0.9628905E+02  0.7546771E-02  0.1291846E+00
         -2   -1    0    0    0  501 -0.00000000000E+00  0.00000000000E+00  0.18142463080E+03  0.18142463080E+03  0.00000000000E+00 0.  1.
          1   -1    0    0  502    0  0.00000000000E+00 -0.00000000000E+00 -0.45188321702E+03  0.45188321702E+03  0.00000000000E+00 0. -1.
        -24    2    1    2    0    0 -0.44095613691E+02  0.49803999399E+02  0.14218881510E+03  0.17755164123E+03  0.82958210325E+02 0.  0.
         23    2    1    2    0    0  0.27179935892E+02 -0.20619483927E+02 -0.41093553669E+03  0.42198037827E+03  0.89641019045E+02 0.  0.
         11    1    3    3    0    0 -0.17830562848E+02 -0.22824456089E+02  0.34824816477E+02  0.45295172038E+02  0.00000000000E+00 0. -1.
        -12    1    3    3    0    0 -0.26265050843E+02  0.72628455489E+02  0.10736399862E+03  0.13225646919E+03  0.00000000000E+00 0.  1.
        -13    1    4    4    0    0  0.24252997431E+02 -0.53322439030E+02 -0.31956328195E+03  0.32488795231E+03  0.00000000000E+00 0. -1.
         13    1    4    4    0    0  0.29269384617E+01  0.32702955102E+02 -0.91372254740E+02  0.97092425953E+02  0.00000000000E+00 0.  1.
         21    1    1    2  502  501  0.16915677799E+02 -0.29184515472E+02 -0.17118646375E+01  0.33775828328E+02  0.00000000000E+00 0. -1.
<scales pt_clust_5="13000.00000" pt_clust_6="13000.00000" pt_clust_7="13000.00000" pt_clust_8="13000.00000" pt_clust_9="33.73242"></scales>
<clustering>
<clus scale="   33.732">  1  9  2 -1</clus>
<clus scale="   82.958">  5  6 -1 -1</clus>
<clus scale="   89.641">  7  8 -1 -1</clus>
<clus scale="   90.101">  1  5  2 -1</clus>
<clus scale="   96.289">  2  5  1 -1</clus>
</clustering>
</event>
<event>
 9    1  0.2802611E-005  0.1117888E+03  0.7546771E-02  0.1261680E+00
          1   -1    0    0  502    0  0.00000000000E+00  0.00000000000E+00  0.29430053050E+03  0.29430053050E+03  0.00000000000E+00 0. -1.
         -2   -1    0    0    0  501 -0.00000000000E+00 -0.00000000000E+00 -0.36721384725E+03  0.36721384725E+03  0.00000000000E+00 0.  1.
        -24    2    1    2    0    0 -0.30844058548E+01 -0.77294470120E+01 -0.27688471127E+03  0.28879945495E+03  0.81674499893E+02 0.  0.
         23    2    1    2    0    0 -0.59621991258E+02 -0.25517559595E+02  0.25911222057E+03  0.28283741513E+03  0.93015766723E+02 0.  0.
         13    1    3    3    0    0 -0.22726791778E+02 -0.37400919094E+02 -0.18864441334E+03  0.19365446160E+03  0.00000000000E+00 0. -1.
        -14    1    3    3    0    0  0.19642385924E+02  0.29671472082E+02 -0.88240297931E+02  0.95144993348E+02  0.00000000000E+00 0.  1.
        -11    1    4    4    0    0 -0.19159275123E+02 -0.57996985320E+02  0.15224092311E+03  0.16403666298E+03  0.00000000000E+00 0. -1.
         11    1    4    4    0    0 -0.40462716135E+02  0.32479425725E+02  0.10687129745E+03  0.11880075215E+03  0.00000000000E+00 0.  1.
         21    1    1    2  502  501  0.62706397113E+02  0.33247006607E+02 -0.55140826052E+02  0.89877507670E+02  0.00000000000E+00 0.  1.
<scales pt_clust_5="13000.00000" pt_clust_6="13000.00000" pt_clust_7="13000.00000" pt_clust_8="13000.00000" pt_clust_9="70.97504"></scales>
<clustering>
<clus scale="   70.975">  2  9  1 -1</clus>
<clus scale="   81.674">  5  6 -1 -1</clus>
<clus scale="   93.016">  7  8 -1 -1</clus>
<clus scale="  102.545">  2  5  1 -1</clus>
<clus scale="  111.789">  1  5  2 -1</clus>
</clustering>
</event>
<event>
 9    1  0.2802611E-005  0.9860040E+02  0.7546771E-02  0.1288154E+00
         -4   -1    0    0    0  501 -0.00000000000E+00  0.00000000000E+00  0.23165230814E+03  0.23165230814E+03  0.00000000000E+00 0.  1.
          3   -1    0    0  502    0  0.00000000000E+00 -0.00000000000E+00 -0.65401047490E+02  0.65401047490E+02  0.00000000000E+00 0. -1.
        -24    2    1    2    0    0 -0.35513166490E+02 -0.23420379821E+02  0.15584276424E+03  0.18070952839E+03  0.80989303618E+02 0.  0.
         23    2    1    2    0    0  0.29402656353E+02  0.38538977140E+01  0.10541706169E+02  0.95844966274E+02  0.90530443846E+02 0.  0.
         13    1    3    3    0    0  0.22373802381E+02  0.22626074260E+01  0.73299445740E+02  0.76671475603E+02  0.00000000000E+00 0. -1.
        -14    1    3    3    0    0 -0.57886968871E+02 -0.25682987247E+02  0.82543318496E+02  0.10403805279E+03  0.00000000000E+00 0.  1.
        -13    1    4    4    0    0  0.49994413758E+02 -0.27654587447E+02  0.11093878897E+02  0.58200444696E+02  0.00000000000E+00 0.  1.
         13    1    4    4    0    0 -0.20591757404E+02  0.31508485161E+02 -0.55217272845E+00  0.37644521578E+02  0.00000000000E+00 0. -1.
         21    1    1    2  502  501  0.61105101364E+01  0.19566482107E+02 -0.13320975440E+00  0.20498860969E+02  0.00000000000E+00 0.  1.
<scales pt_clust_5="13000.00000" pt_clust_6="13000.00000" pt_clust_7="13000.00000" pt_clust_8="13000.00000" pt_clust_9="20.49843"></scales>
<clustering>
<clus scale="   20.498">  2  9  1 -1</clus>
<clus scale="   80.989">  5  6 -1 -1</clus>
<clus scale="   89.920">  1  5  2 -1</clus>
<clus scale="   90.530">  7  8 -1 -1</clus>
<clus scale="   20.498">  2  5  1 -1</clus>
</clustering>
</event>
<event>
 9    1  0.2802611E-005  0.1221408E+03  0.7546771E-02  0.1242412E+00
         -2   -1    0    0    0  501 -0.00000000000E+00  0.00000000000E+00  0.14467370910E+03  0.14467370910E+03  0.00000000000E+00 0.  1.
          1   -1    0    0  502    0  0.00000000000E+00 -0.00000000000E+00 -0.31446509906E+03  0.31446509906E+03  0.00000000000E+00 0. -1.
        -24    2    1    2    0    0  0.30089369334E+02 -0.52401530002E+02  0.44943374219E+02  0.11075994653E+03  0.81219261106E+02 0.  0.
         23    2    1    2    0    0  0.19184943015E+02  0.86846879250E+02 -0.24877874899E+03  0.27928882730E+03  0.90559045006E+02 0.  0.
         13    1    3    3    0    0  0.51141976558E+02 -0.29447170490E+02  0.37718641758E+01  0.59134292720E+02  0.00000000000E+00 0. -1.
        -14    1    3    3    0    0 -0.21052607225E+02 -0.22954359512E+02  0.41171510044E+02  0.51625653805E+02  0.00000000000E+00 0.  1.
        -11    1    4    4    0    0 -0.14052785649E+02  0.30323809747E+02 -0.18437191517E+03  0.18737667231E+03  0.00000000000E+00 0.  1.
         11    1    4    4    0    0  0.33237728664E+02  0.56523069503E+02 -0.64406833823E+02  0.91912154995E+02  0.00000000000E+00 0. -1.
         21    1    1    2  502  501 -0.49274312349E+02 -0.34445349248E+02  0.34043984812E+02  0.69090034333E+02  0.00000000000E+00 0.  1.
<scales pt_clust_5="13000.00000" pt_clust_6="13000.00000" pt_clust_7="13000.00000" pt_clust_8="13000.00000" pt_clust_9="60.12021"></scales>
<clustering>
<clus scale="   60.120">  1  9  2 -1</clus>
<clus scale="   81.219">  5  6 -1 -1</clus>
<clus scale="   90.559">  7  8 -1 -1</clus>
<clus scale="  115.386">  1  5  2 -1</clus>
<clus scale="  122.141">  2  5  1 -1</clus>
</clustering>
</event>
<event>
 9    1  0.2802611E-005  0.1130223E+03  0.7546771E-02  0.1256437E+00
         -2   -1    0    0    0  501 -0.00000000000E+00  0.00000000000E+00  0.55523212737E+02  0.55523212737E+02  0.00000000000E+00 0.  1.
          1   -1    0    0  502    0  0.00000000000E+00 -0.00000000000E+00 -0.45001373530E+03  0.45001373530E+03  0.00000000000E+00 0. -1.
         23    2    1    2    0    0  0.11585005527E+02  0.82177155075E+02 -0.10416705430E+03  0.15999195641E+03  0.88652996257E+02 0.  0.
        -24    2    1    2    0    0  0.21146307689E+01 -0.66080678537E+02 -0.30257830642E+03  0.32111227483E+03  0.84784042077E+02 0.  0.
         13    1    4    4    0    0 -0.36628847344E+02 -0.48997601430E+02 -0.21950495606E+03  0.22787027700E+03  0.00000000000E+00 0. -1.
        -14    1    4    4    0    0  0.38743478113E+02 -0.17083077108E+02 -0.83073350357E+02  0.93241997830E+02  0.00000000000E+00 0.  1.
        -11    1    3    3    0    0 -0.35202148128E+02  0.25087695570E+02 -0.60083103271E+02  0.74017315545E+02  0.00000000000E+00 0. -1.
         11    1    3    3    0    0  0.46787153655E+02  0.57089459505E+02 -0.44083951032E+02  0.85974640868E+02  0.00000000000E+00 0.  1.
         21    1    1    2  502  501 -0.13699636296E+02 -0.16096476538E+02  0.12254838161E+02  0.24432716794E+02  0.00000000000E+00 0. -1.
<scales pt_clust_5="13000.00000" pt_clust_6="13000.00000" pt_clust_7="13000.00000" pt_clust_8="13000.00000" pt_clust_9="21.13709"></scales>
<clustering>
<clus scale="   21.137">  1  9  2 -1</clus>
<clus scale="   84.784">  5  6 -1 -1</clus>
<clus scale="   88.653">  7  8 -1 -1</clus>
<clus scale="  110.014">  2  5  1 -1</clus>
<clus scale="  110.014">  2  5  1 -1</clus>
</clustering>
</event>
<event>
 9    1  0.2802611E-005  0.1145969E+03  0.7546771E-02  0.1256552E+00
          1   -1    0    0  502    0  0.00000000000E+00  0.00000000000E+00  0.45934173119E+03  0.45934173119E+03  0.00000000000E+00 0. -1.
         -2   -1    0    0    0  501 -0.00000000000E+00 -0.00000000000E+00 -0.12267063226E+03  0.12267063226E+03  0.00000000000E+00 0.  1.
         23    2    1    2    0    0 -0.10797024821E+03  0.51624761883E+02 -0.31599523181E+02  0.15238516236E+03  0.88882041521E+02 0.  0.
        -24    2    1    2    0    0  0.69109724194E+02 -0.31306457396E+01  0.34995192105E+03  0.36483989959E+03  0.76523528167E+02 0.  0.
         11    1    4    4    0    0  0.34470384029E+02  0.34791575091E+02  0.21340392101E+03  0.21895180880E+03  0.00000000000E+00 0. -1.
        -12    1    4    4    0    0  0.34639340166E+02 -0.37922220830E+02  0.13654800003E+03  0.14588809079E+03  0.00000000000E+00 0.  1.
        -13    1    3    3    0    0 -0.76902541208E+02  0.38595350835E+02 -0.62755118254E+02  0.10649791931E+03  0.00000000000E+00 0.  1.
         13    1    3    3    0    0 -0.31067707004E+02  0.13029411048E+02  0.31155595072E+02  0.45887243054E+02  0.00000000000E+00 0. -1.
         21    1    1    2  502  501  0.38860524017E+02 -0.48494116143E+02  0.18318701066E+02  0.64787301504E+02  0.00000000000E+00 0. -1.
<scales pt_clust_5="13000.00000" pt_clust_6="13000.00000" pt_clust_7="13000.00000" pt_clust_8="13000.00000" pt_clust_9="62.14354"></scales>
<clustering>
<clus scale="   62.144">  2  9  1 -1</clus>
<clus scale="   76.524">  5  6 -1 -1</clus>
<clus scale="   88.882">  7  8 -1 -1</clus>
<clus scale="  105.301">  1  5  2 -1</clus>
<clus scale="  105.301">  1  5  2 -1</clus>
</clustering>
</event>
<event>
 9    1  0.2802611E-005  0.9862111E+02  0.7546771E-02  0.1287587E+00
         -2   -1    0    0    0  501 -0.00000000000E+00  0.00000000000E+00  0.11877451158E+03  0.11877451158E+03  0.00000000000E+00 0.  1.
          1   -1    0    0  502    0  0.00000000000E+00 -0.00000000000E+00 -0.36261518699E+03  0.36261518699E+03  0.00000000000E+00 0. -1.
         23    2    1    2    0    0 -0.72524125185E+01 -0.27136711753E+02 -0.42746251090E+02  0.10201480323E+03  0.88265392328E+02 0.  0.
        -24    2    1    2    0    0 -0.36632361592E+01  0.48227157185E+02 -0.28100953994E+03  0.29600593242E+03  0.79459879824E+02 0.  0.
         13    1    4    4    0    0 -0.21645246711E+02  0.52790678053E+02 -0.26626171298E+03  0.27230621035E+03  0.00000000000E+00 0. -1.
        -14    1    4    4    0    0  0.17982010552E+02 -0.45635208674E+01 -0.14747826952E+02  0.23699722066E+02  0.00000000000E+00 0.  1.
        -13    1    3    3    0    0  0.16957673817E+02 -0.37400775504E+02 -0.58414545195E+02  0.71404760345E+02  0.00000000000E+00 0.  1.
         13    1    3    3    0    0 -0.24210086336E+02  0.10264063750E+02  0.15668294105E+02  0.30610042881E+02  0.00000000000E+00 0. -1.
         21    1    1    2  502  501  0.10915648678E+02 -0.21090445432E+02  0.79915115622E+02  0.83368962927E+02  0.00000000000E+00 0.  1.
<scales pt_clust_5="13000.00000" pt_clust_6="13000.00000" pt_clust_7="13000.00000" pt_clust_8="13000.00000" pt_clust_9="23.74781"></scales>
<clustering>
<clus scale="   23.748">  1  9  2 -1</clus>
<clus scale="   79.460">  5  6 -1 -1</clus>
<clus scale="   88.265">  7  8 -1 -1</clus>
<clus scale="   90.825">  2  5  1 -1</clus>
<clus scale="   90.825">  2  5  1 -1</clus>
</clustering>
</event>
<event>
 9    1  0.2802611E-005  0.3307298E+03  0.7546771E-02  0.1109334E+00
          1   -1    0    0  502    0  0.00000000000E+00  0.00000000000E+00  0.61327662062E+03  0.61327662062E+03  0.00000000000E+00 0. -1.
         -2   -1    0    0    0  501 -0.00000000000E+00 -0.00000000000E+00 -0.41559953446E+03  0.41559953446E+03  0.00000000000E+00 0.  1.
        -24    2    1    2    0    0  0.76476203027E+02 -0.44145007952E+02 -0.21850144000E+03  0.24901689026E+03  0.80430970392E+02 0.  0.
         23    2    1    2    0    0  0.89815716984E+02  0.31167310643E+03  0.27151439792E+03  0.43322978520E+03  0.93600161419E+02 0.  0.
         11    1    3    3    0    0  0.16133587574E+02 -0.54104628745E+02 -0.83353765446E+02  0.10067499051E+03  0.00000000000E+00 0. -1.
        -12    1    3    3    0    0  0.60342615453E+02  0.99596207937E+01 -0.13514767455E+03  0.14834189975E+03  0.00000000000E+00 0.  1.
        -11    1    4    4    0    0  0.34649354122E+02  0.33138800421E+02  0.14110534941E+02  0.49978645747E+02  0.00000000000E+00 0.  1.
         11    1    4    4    0    0  0.55166362862E+02  0.27853430601E+03  0.25740386298E+03  0.38325113946E+03  0.00000000000E+00 0. -1.
         21    1    1    2  502  501 -0.16629192001E+03 -0.26752809848E+03  0.14466412824E+03  0.34662947961E+03  0.00000000000E+00 0.  1.
<scales pt_clust_5="13000.00000" pt_clust_6="13000.00000" pt_clust_7="13000.00000" pt_clust_8="13000.00000" pt_clust_9="317.20850"></scales>
<clustering>
<clus scale="   80.431">  5  6 -1 -1</clus>
<clus scale="   93.600">  7  8 -1 -1</clus>
<clus scale="  119.443">  2  5  1 -1</clus>
<clus scale="  317.208">  2  9  1 -1</clus>
<clus scale="  330.730">  1  5  2 -1</clus>
</clustering>
</event>
<event>
 9    1  0.2802611E-005  0.1087555E+03  0.7546771E-02  0.1269575E+00
          1   -1    0    0  502    0  0.00000000000E+00  0.00000000000E+00  0.42367168409E+03  0.42367168409E+03  0.00000000000E+00 0. -1.
         -2   -1    0    0    0  501 -0.00000000000E+00 -0.00000000000E+00 -0.46884743753E+02  0.46884743753E+02  0.00000000000E+00 0.  1.
        -24    2    1    2    0    0  0.60550263538E+02 -0.75772781299E+01  0.47216625223E+02  0.11109418775E+03  0.79929714728E+02 0.  0.
         23    2    1    2    0    0 -0.19834485770E+02  0.15335212437E+02  0.26476394471E+03  0.28253483438E+03  0.95380347317E+02 0.  0.
         11    1    3    3    0    0  0.24021244181E+02  0.31117154181E+01  0.64791895979E+02  0.69171473379E+02  0.00000000000E+00 0. -1.
        -12    1    3    3    0    0  0.36529019357E+02 -0.10688993548E+02 -0.17575270756E+02  0.41922714374E+02  0.00000000000E+00 0.  1.
        -11    1    4    4    0    0 -0.11530368209E+02  0.41778425356E+02  0.24421712272E+03  0.24803304063E+03  0.00000000000E+00 0. -1.
         11    1    4    4    0    0 -0.83041175615E+01 -0.26443212919E+02  0.20546821991E+02  0.34501793749E+02  0.00000000000E+00 0.  1.
         21    1    1    2  502  501 -0.40715777768E+02 -0.77579343066E+01  0.64806370401E+02  0.76927405705E+02  0.00000000000E+00 0.  1.
<scales pt_clust_5="13000.00000" pt_clust_6="13000.00000" pt_clust_7="13000.00000" pt_clust_8="13000.00000" pt_clust_9="41.44828"></scales>
<clustering>
<clus scale="   41.448">  1  9  2 -1</clus>
<clus scale="   79.930">  5  6 -1 -1</clus>
<clus scale="   95.380">  7  8 -1 -1</clus>
<clus scale="   95.494">  2  5  1 -1</clus>
<clus scale="   41.448">  1  5  2 -1</clus>
</clustering>
</event>
<event>
 9    1  0.2802611E-005  0.1192249E+03  0.7546771E-02  0.1248067E+00
          1   -1    0    0  502    0  0.00000000000E+00  0.00000000000E+00  0.76954224106E+02  0.76954224106E+02  0.00000000000E+00 0. -1.
         -2   -1    0    0    0  501 -0.00000000000E+00 -0.00000000000E+00 -0.24142251590E+03  0.24142251590E+03  0.00000000000E+00 0.  1.
         23    2    1    2    0    0  0.45716624889E+02  0.75645516334E+02 -0.10201461895E+03  0.16285775489E+03  0.91123059179E+02 0.  0.
        -24    2    1    2    0    0 -0.18569461948E+02 -0.69563082436E+02 -0.27490161463E+02  0.11083776327E+03  0.79658354457E+02 0.  0.
         13    1    4    4    0    0  0.24888525637E+02 -0.40052389721E+02  0.74611473826E+01  0.47742029189E+02  0.00000000000E+00 0. -1.
        -14    1    4    4    0    0 -0.43457987585E+02 -0.29510692714E+02 -0.34951308845E+02  0.63095734083E+02  0.00000000000E+00 0.  1.
        -13    1    3    3    0    0 -0.25761102381E+02  0.46334123054E+01 -0.22121562914E+02  0.34270489510E+02  0.00000000000E+00 0.  1.
         13    1    3    3    0    0  0.71477727270E+02  0.71012104029E+02 -0.79893056041E+02  0.12858726538E+03  0.00000000000E+00 0. -1.
         21    1    1    2  502  501 -0.27147162941E+02 -0.60824338984E+01 -0.34963511374E+02  0.44681221844E+02  0.00000000000E+00 0.  1.
<scales pt_clust_5="13000.00000" pt_clust_6="13000.00000" pt_clust_7="13000.00000" pt_clust_8="13000.00000" pt_clust_9="27.82022"></scales>
<clustering>
<clus scale="   27.820">  2  9  1 -1</clus>
<clus scale="   79.658">  5  6 -1 -1</clus>
<clus scale="   91.123">  7  8 -1 -1</clus>
<clus scale="  110.710">  1  5  2 -1</clus>
<clus scale="  110.710">  1  5  2 -1</clus>
</clustering>
</event>
<event>
 9    1  0.2802611E-005  0.2104950E+03  0.7546771E-02  0.1142209E+00
          1   -1    0    0  502    0  0.00000000000E+00  0.00000000000E+00  0.72599830644E+03  0.72599830644E+03  0.00000000000E+00 0. -1.
         -2   -1    0    0    0  501 -0.00000000000E+00 -0.00000000000E+00 -0.11189231089E+03  0.11189231089E+03  0.00000000000E+00 0.  1.
        -24    2    1    2    0    0  0.15742570966E+03  0.12568327089E+02  0.12333594924E+03  0.21523823604E+03  0.78580690822E+02 0.  0.
         23    2    1    2    0    0 -0.20356317287E+03  0.57238900101E+02  0.48721091692E+03  0.53890047456E+03  0.91241366067E+02 0.  0.
         11    1    3    3    0    0  0.47509029333E+02 -0.10359407048E+02  0.82493929672E+02  0.95758412765E+02  0.00000000000E+00 0. -1.
        -12    1    3    3    0    0  0.10991668033E+03  0.22927734137E+02  0.40842019565E+02  0.11947982327E+03  0.00000000000E+00 0.  1.
        -11    1    4    4    0    0 -0.43387871682E+02  0.46997953776E+02  0.89351335570E+02  0.10988619675E+03  0.00000000000E+00 0.  1.
         11    1    4    4    0    0 -0.16017530118E+03  0.10240946325E+02  0.39785958135E+03  0.42901427781E+03  0.00000000000E+00 0. -1.
         21    1    1    2  502  501  0.46137463205E+02 -0.69807227190E+02  0.35591293818E+01  0.83751906730E+02  0.00000000000E+00 0.  1.
<scales pt_clust_5="13000.00000" pt_clust_6="13000.00000" pt_clust_7="13000.00000" pt_clust_8="13000.00000" pt_clust_9="83.67625"></scales>
<clustering>
<clus scale="   78.581">  5  6 -1 -1</clus>
<clus scale="   83.676">  2  9  1 -1</clus>
<clus scale="   91.241">  7  8 -1 -1</clus>
<clus scale="  205.324">  2  5  1 -1</clus>
<clus scale="  210.495">  1  5  2 -1</clus>
</clustering>
</event>
<event>
 9    1  0.2802611E-005  0.1081299E+03  0.7546771E-02  0.1264635E+00
          3   -1    0    0  502    0  0.00000000000E+00  0.00000000000E+00  0.10975229152E+03  0.10975229152E+03  0.00000000000E+00 0. -1.
         -4   -1    0    0    0  501 -0.00000000000E+00 -0.00000000000E+00 -0.41212035618E+03  0.41212035618E+03  0.00000000000E+00 0.  1.
         23    2    1    2    0    0 -0.34647546908E+02 -0.67701954870E+02 -0.16930814134E+03  0.20541392044E+03  0.88009231264E+02 0.  0.
        -24    2    1    2    0    0  0.83685516370E+01  0.58164552583E+02  0.59117122747E+02  0.12225892120E+03  0.89438592216E+02 0.  0.
         13    1    4    4    0    0 -0.34793009968E+02  0.31798222517E+02  0.37735860888E+01  0.47285520510E+02  0.00000000000E+00 0. -1.
        -14    1    4    4    0    0  0.43161561605E+02  0.26366330065E+02  0.55343536659E+02  0.74973400691E+02  0.00000000000E+00 0.  1.
        -11    1    3    3    0    0  0.61970672004E+01 -0.59639909265E+02 -0.46914808765E+02  0.76133578009E+02  0.00000000000E+00 0. -1.
         11    1    3    3    0    0 -0.40844614108E+02 -0.80620456052E+01 -0.12239333258E+03  0.12928034243E+03  0.00000000000E+00 0.  1.
         21    1    1    2  502  501  0.26278995271E+02  0.95374022872E+01 -0.19217704606E+03  0.19419980605E+03  0.00000000000E+00 0.  1.
<scales pt_clust_5="13000.00000" pt_clust_6="13000.00000" pt_clust_7="13000.00000" pt_clust_8="13000.00000" pt_clust_9="27.95617"></scales>
<clustering>
<clus scale="   27.956">  2  9  1 -1</clus>
<clus scale="   88.009">  7  8 -1 -1</clus>
<clus scale="   89.439">  5  6 -1 -1</clus>
<clus scale="  106.951">  2  7  1 -1</clus>
<clus scale="  108.130">  1  5  2 -1</clus>
</clustering>
</event>
<event>
 9    1  0.2802611E-005  0.1841303E+03  0.7546771E-02  0.1165077E+00
         -2   -1    0    0    0  501 -0.00000000000E+00  0.00000000000E+00  0.43189110200E+03  0.43189110200E+03  0.00000000000E+00 0.  1.
          1   -1    0    0  502    0  0.00000000000E+00 -0.00000000000E+00 -0.10220414943E+03  0.10220414943E+03  0.00000000000E+00 0. -1.
        -24    2    1    2    0    0  0.60913536785E+02  0.13994648990E+03  0.24725391105E+03  0.30149387937E+03  0.80427506303E+02 0.  0.
         23    2    1    2    0    0 -0.82946278597E+02 -0.14100715474E+03  0.50837563911E+02  0.19406773834E+03  0.91185121266E+02 0.  0.
         11    1    3    3    0    0  0.19581989278E+02  0.62670697517E+02  0.41035698387E+02  0.77427379999E+02  0.00000000000E+00 0. -1.
        -12    1    3    3    0    0  0.41331547506E+02  0.77275792387E+02  0.20621821266E+03  0.22406649937E+03  0.00000000000E+00 0.  1.
        -11    1    4    4    0    0 -0.62653086776E+02 -0.84759558684E+02  0.75221495998E+02  0.12949079323E+03  0.00000000000E+00 0.  1.
         11    1    4    4    0    0 -0.20293191821E+02 -0.56247596054E+02 -0.24383932086E+02  0.64576945113E+02  0.00000000000E+00 0. -1.
         21    1    1    2  502  501  0.22032741813E+02  0.10606648333E+01  0.31595477619E+02  0.38533633720E+02  0.00000000000E+00 0.  1.
<scales pt_clust_5="13000.00000" pt_clust_6="13000.00000" pt_clust_7="13000.00000" pt_clust_8="13000.00000" pt_clust_9="22.05826"></scales>
<clustering>
<clus scale="   22.058">  1  9  2 -1</clus>
<clus scale="   80.428">  5  6 -1 -1</clus>
<clus scale="   91.185">  7  8 -1 -1</clus>
<clus scale="  179.047">  1  5  2 -1</clus>
<clus scale="  184.130">  2  5  1 -1</clus>
</clustering>
</event>
<event>
 9    1  0.2802611E-005  0.1121843E+03  0.7546771E-02  0.1259838E+00
         -2   -1    0    0    0  501 -0.00000000000E+00  0.00000000000E+00  0.29927946444E+03  0.29927946444E+03  0.00000000000E+00 0.  1.
          1   -1    0    0  502    0  0.00000000000E+00 -0.00000000000E+00 -0.66670208013E+02  0.66670208013E+02  0.00000000000E+00 0. -1.
        -24    2    1    2    0    0 -0.19865719599E+02  0.85728441107E+02  0.82633064388E+02  0.14407498245E+03  0.78647090261E+02 0.  0.
         23    2    1    2    0    0  0.13257159458E+02 -0.55301975368E+02  0.47667839391E+02  0.11493338879E+03  0.87769016118E+02 0.  0.
         13    1    3    3    0    0  0.27957947967E+02  0.53192563179E+02  0.44892165770E+02  0.75009347282E+02  0.00000000000E+00 0. -1.
        -14    1    3    3    0    0 -0.47823667566E+02  0.32535877928E+02  0.37740898618E+02  0.69065635163E+02  0.00000000000E+00 0.  1.
        -11    1    4    4    0    0  0.31708566120E+02 -0.43526959766E+02  0.66840597813E+02  0.85835277758E+02  0.00000000000E+00 0.  1.
         11    1    4    4    0    0 -0.18451406662E+02 -0.11775015603E+02 -0.19172758422E+02  0.29098111034E+02  0.00000000000E+00 0. -1.
         21    1    1    2  502  501  0.66085601407E+01 -0.30426465738E+02  0.10230835265E+03  0.10694130122E+03  0.00000000000E+00 0.  1.
<scales pt_clust_5="13000.00000" pt_clust_6="13000.00000" pt_clust_7="13000.00000" pt_clust_8="13000.00000" pt_clust_9="31.13588"></scales>
<clustering>
<clus scale="   31.136">  1  9  2 -1</clus>
<clus scale="   78.647">  5  6 -1 -1</clus>
<clus scale="   87.769">  7  8 -1 -1</clus>
<clus scale="  105.201">  1  5  2 -1</clus>
<clus scale="  112.184">  2  5  1 -1</clus>
</clustering>
</event>
<event>
 9    1  0.2802611E-005  0.1037907E+03  0.7546771E-02  0.1277382E+00
          1   -1    0    0  502    0  0.00000000000E+00  0.00000000000E+00  0.18067723191E+03  0.18067723191E+03  0.00000000000E+00 0. -1.
         -2   -1    0    0    0  501 -0.00000000000E+00 -0.00000000000E+00 -0.15916358388E+03  0.15916358388E+03  0.00000000000E+00 0.  1.
         23    2    1    2    0    0 -0.26614791161E+02 -0.18561369741E+02 -0.20386224615E+02  0.97936653614E+02  0.90128344109E+02 0.  0.
        -24    2    1    2    0    0  0.56140233410E+02  0.12942406723E+02  0.12191099365E+03  0.15643426122E+03  0.79310503789E+02 0.  0.
         11    1    4    4    0    0 -0.19289621747E+02  0.11728235539E+02  0.29144794818E+02  0.36865432060E+02  0.00000000000E+00 0. -1.
        -12    1    4    4    0    0  0.75429855157E+02  0.12141711841E+01  0.92766198836E+02  0.11956882916E+03  0.00000000000E+00 0.  1.
        -11    1    3    3    0    0 -0.49604618301E+01 -0.46802792348E+02 -0.35820911282E+02  0.59145965528E+02  0.00000000000E+00 0.  1.
         11    1    3    3    0    0 -0.21654329331E+02  0.28241422607E+02  0.15434686667E+02  0.38790688086E+02  0.00000000000E+00 0. -1.
         21    1    1    2  502  501 -0.29525442248E+02  0.56189630183E+01 -0.80011121007E+02  0.85469900961E+02  0.00000000000E+00 0.  1.
<scales pt_clust_5="13000.00000" pt_clust_6="13000.00000" pt_clust_7="13000.00000" pt_clust_8="13000.00000" pt_clust_9="30.05536"></scales>
<clustering>
<clus scale="   30.055">  2  9  1 -1</clus>
<clus scale="   79.311">  5  6 -1 -1</clus>
<clus scale="   90.128">  7  8 -1 -1</clus>
<clus scale="   94.549">  1  5  2 -1</clus>
<clus scale="   94.549">  1  5  2 -1</clus>
</clustering>
</event>
<event>
 9    1  0.2802611E-005  0.1544822E+03  0.7546771E-02  0.1195480E+00
          1   -1    0    0  502    0  0.00000000000E+00  0.00000000000E+00  0.66702497456E+03  0.66702497456E+03  0.00000000000E+00 0. -1.
         -2   -1    0    0    0  501 -0.00000000000E+00 -0.00000000000E+00 -0.86549798830E+02  0.86549798830E+02  0.00000000000E+00 0.  1.
        -24    2    1    2    0    0  0.89521714170E+02 -0.10595751977E+03  0.13313839737E+03  0.21338508998E+03  0.92553932763E+02 0.  0.
         23    2    1    2    0    0 -0.70839052840E+02  0.96209432301E+02  0.47916791349E+03  0.50201523899E+03  0.90238487262E+02 0.  0.
         13    1    3    3    0    0  0.92927928818E+01 -0.55060504000E+02  0.82216478704E+01  0.56441213612E+02  0.00000000000E+00 0. -1.
        -14    1    3    3    0    0  0.80228921288E+02 -0.50897015768E+02  0.12491674950E+03  0.15694387637E+03  0.00000000000E+00 0.  1.
        -13    1    4    4    0    0 -0.34542296655E+02  0.10376630208E+03  0.30693049132E+03  0.32583269052E+03  0.00000000000E+00 0. -1.
         13    1    4    4    0    0 -0.36296756185E+02 -0.75568697748E+01  0.17223742217E+03  0.17618254847E+03  0.00000000000E+00 0.  1.
         21    1    1    2  502  501 -0.18682661330E+02  0.97480874667E+01 -0.31831135127E+02  0.38174444424E+02  0.00000000000E+00 0. -1.
<scales pt_clust_5="13000.00000" pt_clust_6="13000.00000" pt_clust_7="13000.00000" pt_clust_8="13000.00000" pt_clust_9="21.07290"></scales>
<clustering>
<clus scale="   21.073">  2  9  1 -1</clus>
<clus scale="   90.238">  7  8 -1 -1</clus>
<clus scale="   92.554">  5  6 -1 -1</clus>
<clus scale="  153.106">  1  7  2 -1</clus>
<clus scale="  153.106">  1  5  2 -1</clus>
</clustering>
</event>
<event>
 9    1  0.2802611E-005  0.1234235E+03  0.7546771E-02  0.1241081E+00
         -2   -1    0    0    0  501 -0.00000000000E+00  0.00000000000E+00  0.49650723674E+02  0.49650723674E+02  0.00000000000E+00 0.  1.
          1   -1    0    0  502    0  0.00000000000E+00 -0.00000000000E+00 -0.56169734529E+03  0.56169734529E+03  0.00000000000E+00 0. -1.
         23    2    1    2    0    0 -0.78178428435E+02 -0.75153984294E+01 -0.17471477567E+03  0.21251804397E+03  0.92034332124E+02 0.  0.
        -24    2    1    2    0    0  0.80227317472E+02  0.27479431688E+02 -0.35399492567E+03  0.37274518656E+03  0.80218608037E+02 0.  0.
         13    1    4    4    0    0  0.52654789993E+02  0.48114369371E+02 -0.30250034064E+03  0.31079571351E+03  0.00000000000E+00 0. -1.
        -14    1    4    4    0    0  0.27572527478E+02 -0.20634937682E+02 -0.51494585025E+02  0.61949473054E+02  0.00000000000E+00 0.  1.
        -13    1    3    3    0    0 -0.14593654335E+02 -0.33277770777E+02 -0.16182202358E+02  0.39777486696E+02  0.00000000000E+00 0.  1.
         13    1    3    3    0    0 -0.63584774100E+02  0.25762372347E+02 -0.15853257331E+03  0.17274055728E+03  0.00000000000E+00 0. -1.
         21    1    1    2  502  501 -0.20488890363E+01 -0.19964033259E+02  0.16663079718E+02  0.26084838430E+02  0.00000000000E+00 0.  1.
<scales pt_clust_5="13000.00000" pt_clust_6="13000.00000" pt_clust_7="13000.00000" pt_clust_8="13000.00000" pt_clust_9="20.06890"></scales>
<clustering>
<clus scale="   20.069">  1  9  2 -1</clus>
<clus scale="   80.219">  5  6 -1 -1</clus>
<clus scale="   92.034">  7  8 -1 -1</clus>
<clus scale="  114.883">  2  5  1 -1</clus>
<clus scale="  114.883">  2  5  1 -1</clus>
</clustering>
</event>
<event>
 9    1  0.2802611E-005  0.1185058E+03  0.7546771E-02  0.1248863E+00
         -2   -1    0    0    0  501 -0.00000000000E+00  0.00000000000E+00  0.60488175988E+03  0.60488175988E+03  0.00000000000E+00 0.  1.
          1   -1    0    0  502    0  0.00000000000E+00 -0.00000000000E+00 -0.74439258195E+02  0.74439258195E+02  0.00000000000E+00 0. -1.
        -24    2    1    2    0    0 -0.47379676118E+01  0.79458590381E+02  0.45459448007E+03  0.46845738979E+03  0.80374553338E+02 0.  0.
         23    2    1    2    0    0 -0.17829305848E+02 -0.74378963025E+02 -0.12851064927E+02  0.11919786368E+03  0.90514454916E+02 0.  0.
         11    1    3    3    0    0 -0.16653743904E+02  0.16762003584E+02  0.25980805673E+02  0.35118573628E+02  0.00000000000E+00 0. -1.
        -12    1    3    3    0    0  0.11915776293E+02  0.62696586796E+02  0.42861367439E+03  0.43333881617E+03  0.00000000000E+00 0.  1.
        -13    1    4    4    0    0 -0.20663918506E+02 -0.95235869653E+02 -0.10867571555E+02  0.98055966203E+02  0.00000000000E+00 0. -1.
         13    1    4    4    0    0  0.28346126578E+01  0.20856906628E+02 -0.19834933727E+01  0.21141897478E+02  0.00000000000E+00 0.  1.
         21    1    1    2  502  501  0.22567273460E+02 -0.50796273560E+01  0.88699086542E+02  0.91665764596E+02  0.00000000000E+00 0.  1.
<scales pt_clust_5="13000.00000" pt_clust_6="13000.00000" pt_clust_7="13000.00000" pt_clust_8="13000.00000" pt_clust_9="23.13189"></scales>
<clustering>
<clus scale="   23.132">  1  9  2 -1</clus>
<clus scale="   80.375">  5  6 -1 -1</clus>
<clus scale="   90.514">  7  8 -1 -1</clus>
<clus scale="  110.954">  1  5  2 -1</clus>
<clus scale="  118.506">  2  5  1 -1</clus>
</clustering>
</event>
<event>
 9    1  0.2802611E-005  0.1684124E+03  0.7546771E-02  0.1181532E+00
         -2   -1    0    0    0  501 -0.00000000000E+00  0.00000000000E+00  0.14726464463E+03  0.14726464463E+03  0.00000000000E+00 0.  1.
          1   -1    0    0  502    0  0.00000000000E+00 -0.00000000000E+00 -0.10471656877E+04  0.10471656877E+04  0.00000000000E+00 0. -1.
        -24    2    1    2    0    0 -0.11128899997E+03 -0.12377000808E+03 -0.37662963817E+03  0.42343826910E+03  0.98720955123E+02 0.  0.
         23    2    1    2    0    0  0.27252864434E+02  0.11223749118E+03 -0.62120233862E+03  0.64143304662E+03  0.11047187306E+03 0.  0.
         13    1    3    3    0    0 -0.61172429327E+02 -0.32587384558E+01 -0.14801109214E+03  0.16018729314E+03  0.00000000000E+00 0. -1.
        -14    1    3    3    0    0 -0.50116570638E+02 -0.12051126962E+03 -0.22861854603E+03  0.26325097596E+03  0.00000000000E+00 0.  1.
        -13    1    4    4    0    0  0.43865793079E+02 -0.53407991969E+00 -0.22108824926E+03  0.22539855147E+03  0.00000000000E+00 0.  1.
         13    1    4    4    0    0 -0.16612928645E+02  0.11277157110E+03 -0.40011408936E+03  0.41603449515E+03  0.00000000000E+00 0. -1.
         21    1    1    2  502  501  0.84036135531E+02  0.11532516892E+02  0.97930933686E+02  0.12955901664E+03  0.00000000000E+00 0.  1.
<scales pt_clust_5="13000.00000" pt_clust_6="13000.00000" pt_clust_7="13000.00000" pt_clust_8="13000.00000" pt_clust_9="84.82376"></scales>
<clustering>
<clus scale="   84.824">  1  9  2 -1</clus>
<clus scale="   98.721">  5  6 -1 -1</clus>
<clus scale="  110.472">  7  8 -1 -1</clus>
<clus scale="  160.949">  1  5  2 -1</clus>
<clus scale="  168.412">  2  5  1 -1</clus>
</clustering>
</event>
<event>
 9    1  0.2802611E-005  0.1198693E+03  0.7546771E-02  0.1246997E+00
          1   -1    0    0  502    0  0.00000000000E+00  0.00000000000E+00  0.20067442620E+03  0.20067442620E+03  0.00000000000E+00 0. -1.
         -2   -1    0    0    0  501 -0.00000000000E+00 -0.00000000000E+00 -0.18976054048E+03  0.18976054048E+03  0.00000000000E+00 0.  1.
        -24    2    1    2    0    0  0.23957779401E+02  0.73343414267E+02 -0.14455923266E+03  0.18354767797E+03  0.82699133792E+02 0.  0.
         23    2    1    2    0    0 -0.56393494003E+01 -0.54089164264E+02  0.13570956541E+03  0.17376797339E+03  0.93919020869E+02 0.  0.
         11    1    3    3    0    0  0.18515888545E+02  0.57778081349E+02 -0.29774278073E+02  0.67584409798E+02  0.00000000000E+00 0. -1.
        -12    1    3    3    0    0  0.54418908565E+01  0.15565332918E+02 -0.11478495459E+03  0.11596326817E+03  0.00000000000E+00 0.  1.
        -11    1    4    4    0    0  0.10383267279E+02  0.18897779438E+02  0.73310382760E+02  0.76415643212E+02  0.00000000000E+00 0.  1.
         11    1    4    4    0    0 -0.16022616680E+02 -0.72986943702E+02  0.62399182646E+02  0.97352330178E+02  0.00000000000E+00 0. -1.
         21    1    1    2  502  501 -0.18318430001E+02 -0.19254250004E+02  0.19763552972E+02  0.33119315316E+02  0.00000000000E+00 0.  1.
<scales pt_clust_5="13000.00000" pt_clust_6="13000.00000" pt_clust_7="13000.00000" pt_clust_8="13000.00000" pt_clust_9="26.57614"></scales>
<clustering>
<clus scale="   26.576">  1  9  2 -1</clus>
<clus scale="   82.699">  5  6 -1 -1</clus>
<clus scale="   93.919">  7  8 -1 -1</clus>
<clus scale="  111.297">  2  5  1 -1</clus>
<clus scale="   26.576">  1  5  2 -1</clus>
</clustering>
</event>
<event>
 9    1  0.2802611E-005  0.1135152E+03  0.7546771E-02  0.1258298E+00
          1   -1    0    0  502    0  0.00000000000E+00  0.00000000000E+00  0.41737102084E+03  0.41737102084E+03  0.00000000000E+00 0. -1.
         -2   -1    0    0    0  501 -0.00000000000E+00 -0.00000000000E+00 -0.76334735381E+02  0.76334735381E+02  0.00000000000E+00 0.  1.
         23    2    1    2    0    0  0.30715133793E+02  0.36469223747E+02  0.11544563296E+02  0.10304565518E+03  0.90618466024E+02 0.  0.
        -24    2    1    2    0    0 -0.10832276315E+02 -0.72626010735E+02  0.33218028334E+03  0.34930953118E+03  0.79256118320E+02 0.  0.
         11    1    4    4    0    0  0.11780745656E+02 -0.82514853143E+02  0.25838804268E+03  0.27149929568E+03  0.00000000000E+00 0. -1.
        -12    1    4    4    0    0 -0.22613021972E+02  0.98888424082E+01  0.73792240658E+02  0.77810235498E+02  0.00000000000E+00 0.  1.
        -11    1    3    3    0    0 -0.10704117804E+02 -0.23515671436E+02  0.15346264334E+02  0.30051169196E+02  0.00000000000E+00 0. -1.
         11    1    3    3    0    0  0.41419251597E+02  0.59984895183E+02 -0.38017010378E+01  0.72994485982E+02  0.00000000000E+00 0.  1.
         21    1    1    2  502  501 -0.19882857478E+02  0.36156786988E+02 -0.26885611728E+01  0.41350569863E+02  0.00000000000E+00 0. -1.
<scales pt_clust_5="13000.00000" pt_clust_6="13000.00000" pt_clust_7="13000.00000" pt_clust_8="13000.00000" pt_clust_9="41.26307"></scales>
<clustering>
<clus scale="   41.263">  2  9  1 -1</clus>
<clus scale="   79.256">  5  6 -1 -1</clus>
<clus scale="   90.618">  7  8 -1 -1</clus>
<clus scale="  104.669">  1  5  2 -1</clus>
<clus scale="  104.669">  1  5  2 -1</clus>
</clustering>
</event>
<event>
 9    1  0.2802611E-005  0.1051084E+03  0.7546771E-02  0.1275750E+00
          3   -1    0    0  502    0  0.00000000000E+00  0.00000000000E+00  0.53934769691E+02  0.53934769691E+02  0.00000000000E+00 0. -1.
         -4   -1    0    0    0  501 -0.00000000000E+00 -0.00000000000E+00 -0.39709661071E+03  0.39709661071E+03  0.00000000000E+00 0.  1.
        -24    2    1    2    0    0  0.29347420804E+02  0.61307408688E+02 -0.22826443487E+03  0.25079332438E+03  0.78566976894E+02 0.  0.
         23    2    1    2    0    0  0.63711684949E+01 -0.48557987495E+02 -0.31430587064E+02  0.10855885854E+03  0.91644279841E+02 0.  0.
         13    1    3    3    0    0  0.36096444174E+02 -0.23565358248E+01 -0.11655370648E+03  0.12203799833E+03  0.00000000000E+00 0. -1.
        -14    1    3    3    0    0 -0.67490233697E+01  0.63663944512E+02 -0.11171072839E+03  0.12875532604E+03  0.00000000000E+00 0.  1.
        -11    1    4    4    0    0  0.47586539478E+02 -0.29225938430E+02 -0.53676580717E+01  0.56102103078E+02  0.00000000000E+00 0.  1.
         11    1    4    4    0    0 -0.41215370983E+02 -0.19332049065E+02 -0.26062928993E+02  0.52456755466E+02  0.00000000000E+00 0. -1.
         21    1    1    2  502  501 -0.35718589299E+02 -0.12749421193E+02 -0.83466819081E+02  0.91679197475E+02  0.00000000000E+00 0.  1.
<scales pt_clust_5="13000.00000" pt_clust_6="13000.00000" pt_clust_7="13000.00000" pt_clust_8="13000.00000" pt_clust_9="37.92579"></scales>
<clustering>
<clus scale="   37.926">  2  9  1 -1</clus>
<clus scale="   78.567">  5  6 -1 -1</clus>
<clus scale="   91.644">  7  8 -1 -1</clus>
<clus scale="   93.925">  2  5  1 -1</clus>
<clus scale="  105.108">  1  5  2 -1</clus>
</clustering>
</event>
<event>
 9    1  0.2802611E-005  0.1754332E+03  0.7546771E-02  0.1180136E+00
         -2   -1    0    0    0  501 -0.00000000000E+00  0.00000000000E+00  0.28559124091E+03  0.28559124091E+03  0.00000000000E+00 0.  1.
          1   -1    0    0  502    0  0.00000000000E+00 -0.00000000000E+00 -0.32784745305E+03  0.32784745305E+03  0.00000000000E+00 0. -1.
        -24    2    1    2    0    0 -0.82861995337E+02 -0.83927475522E+02  0.18556692030E+03  0.23408214814E+03  0.80308397750E+02 0.  0.
         23    2    1    2    0    0  0.14882138638E+03  0.10329500030E+03 -0.21818586377E+03  0.30994027085E+03  0.12506093801E+03 0.  0.
         13    1    3    3    0    0 -0.52959524646E+02 -0.39591096713E+02  0.36097308489E+02  0.75333802969E+02  0.00000000000E+00 0. -1.
        -14    1    3    3    0    0 -0.29902470692E+02 -0.44336378809E+02  0.14946961181E+03  0.15874834517E+03  0.00000000000E+00 0.  1.
        -11    1    4    4    0    0  0.16344765802E+02  0.47069930211E+02 -0.13456960392E+03  0.14349811148E+03  0.00000000000E+00 0. -1.
         11    1    4    4    0    0  0.13247662057E+03  0.56225070088E+02 -0.83616259853E+02  0.16644215937E+03  0.00000000000E+00 0.  1.
         21    1    1    2  502  501 -0.65959391038E+02 -0.19367524777E+02 -0.96372686691E+01  0.69416274962E+02  0.00000000000E+00 0. -1.
<scales pt_clust_5="13000.00000" pt_clust_6="13000.00000" pt_clust_7="13000.00000" pt_clust_8="13000.00000" pt_clust_9="68.74403"></scales>
<clustering>
<clus scale="   68.744">  2  9  1 -1</clus>
<clus scale="   80.308">  5  6 -1 -1</clus>
<clus scale="  125.061">  7  8 -1 -1</clus>
<clus scale="  146.922">  1  5  2 -1</clus>
<clus scale="   68.744">  2  5  1 -1</clus>
</clustering>
</event>
<event>
 9    1  0.2802611E-005  0.9332804E+02  0.7546771E-02  0.1298191E+00
          3   -1    0    0  502    0  0.00000000000E+00  0.00000000000E+00  0.27042385612E+03  0.27042385612E+03  0.00000000000E+00 0. -1.
         -4   -1    0    0    0  501 -0.00000000000E+00 -0.00000000000E+00 -0.14384303271E+03  0.14384303271E+03  0.00000000000E+00 0.  1.
         23    2    1    2    0    0 -0.12316006734E+02  0.63000999377E+01 -0.86512001608E+02  0.12597699324E+03  0.90523483820E+02 0.  0.
        -24    2    1    2    0    0  0.39743739792E+02 -0.45753766624E+02  0.45333430084E+02  0.11378463222E+03  0.84963819550E+02 0.  0.
         13    1    4    4    0    0  0.28748872528E+02 -0.17884535408E+02  0.68169170865E+02  0.76114322797E+02  0.00000000000E+00 0. -1.
        -14    1    4    4    0    0  0.10994867264E+02 -0.27869231216E+02 -0.22835740781E+02  0.37670309419E+02  0.00000000000E+00 0.  1.
        -13    1    3    3    0    0 -0.34432628411E+02 -0.31404802938E+02 -0.34201464338E+02  0.57806640706E+02  0.00000000000E+00 0. -1.
         13    1    3    3    0    0  0.22116621677E+02  0.37704902876E+02 -0.52310537270E+02  0.68170352535E+02  0.00000000000E+00 0.  1.
         21    1    1    2  502  501 -0.27427733058E+02  0.39453666686E+02  0.16775939494E+03  0.17450526337E+03  0.00000000000E+00 0.  1.
<scales pt_clust_5="13000.00000" pt_clust_6="13000.00000" pt_clust_7="13000.00000" pt_clust_8="13000.00000" pt_clust_9="48.05073"></scales>
<clustering>
<clus scale="   48.051">  1  9  2 -1</clus>
<clus scale="   84.964">  5  6 -1 -1</clus>
<clus scale="   87.946">  1  5  2 -1</clus>
<clus scale="   90.523">  7  8 -1 -1</clus>
<clus scale="   48.051">  1  5  2 -1</clus>
</clustering>
</event>
<event>
 9    1  0.2802611E-005  0.9918722E+02  0.7546771E-02  0.1288903E+00
          1   -1    0    0  502    0  0.00000000000E+00  0.00000000000E+00  0.13422128223E+03  0.13422128223E+03  0.00000000000E+00 0. -1.
         -2   -1    0    0    0  501 -0.00000000000E+00 -0.00000000000E+00 -0.22660239967E+03  0.22660239967E+03  0.00000000000E+00 0.  1.
        -24    2    1    2    0    0 -0.29248157529E+02 -0.18598283885E+02 -0.10243735617E+03  0.13341340508E+03  0.78130492341E+02 0.  0.
         23    2    1    2    0    0 -0.10173215999E+02  0.42103007118E+02  0.89889719251E+02  0.13532389718E+03  0.91412460789E+02 0.  0.
         11    1    3    3    0    0 -0.55389744365E+02 -0.20173452424E+02 -0.76225998750E+02  0.96360753676E+02  0.00000000000E+00 0. -1.
        -12    1    3    3    0    0  0.26141586836E+02  0.15751685395E+01 -0.26211357417E+02  0.37052651401E+02  0.00000000000E+00 0.  1.
        -13    1    4    4    0    0  0.40099546965E+02  0.96947738074E+01  0.33947357829E+02  0.53426448596E+02  0.00000000000E+00 0.  1.
         13    1    4    4    0    0 -0.50272762964E+02  0.32408233311E+02  0.55942361422E+02  0.81897448580E+02  0.00000000000E+00 0. -1.
         21    1    1    2  502  501  0.39421373528E+02 -0.23504723234E+02 -0.79833480519E+02  0.92086379649E+02  0.00000000000E+00 0.  1.
<scales pt_clust_5="13000.00000" pt_clust_6="13000.00000" pt_clust_7="13000.00000" pt_clust_8="13000.00000" pt_clust_9="45.89680"></scales>
<clustering>
<clus scale="   45.897">  2  9  1 -1</clus>
<clus scale="   78.130">  5  6 -1 -1</clus>
<clus scale="   87.099">  2  5  1 -1</clus>
<clus scale="   91.412">  7  8 -1 -1</clus>
<clus scale="   99.187">  1  5  2 -1</clus>
</clustering>
</event>
<event>
 9    1  0.2802611E-005  0.1188084E+03  0.7546771E-02  0.1248276E+00
          1   -1    0    0  502    0  0.00000000000E+00  0.00000000000E+00  0.47593058772E+03  0.47593058772E+03  0.00000000000E+00 0. -1.
         -2   -1    0    0    0  501 -0.00000000000E+00 -0.00000000000E+00 -0.44439469018E+02  0.44439469018E+02  0.00000000000E+00 0.  1.
        -24    2    1    2    0    0  0.46786299633E+02  0.61969341573E+02  0.79692800131E+02  0.13684377784E+03  0.79662538323E+02 0.  0.
         23    2    1    2    0    0 -0.22155058429E+02 -0.79748346733E+02  0.29090134389E+03  0.31547311885E+03  0.89716505830E+02 0.  0.
         13    1    3    3    0    0 -0.12657775147E+02  0.27396753961E+02  0.56882337414E+02  0.64392559422E+02  0.00000000000E+00 0. -1.
        -14    1    3    3    0    0  0.59444074779E+02  0.34572587611E+02  0.22810462716E+02  0.72451218415E+02  0.00000000000E+00 0.  1.
        -11    1    4    4    0    0 -0.17603404660E+02 -0.12579146843E+02  0.56176806583E+01  0.22353369475E+02  0.00000000000E+00 0.  1.
         11    1    4    4    0    0 -0.45516537696E+01 -0.67169199890E+02  0.28528366323E+03  0.29311974937E+03  0.00000000000E+00 0. -1.
         21    1    1    2  502  501 -0.24631241203E+02  0.17779005160E+02  0.60896974684E+02  0.68053160054E+02  0.00000000000E+00 0. -1.
<scales pt_clust_5="13000.00000" pt_clust_6="13000.00000" pt_clust_7="13000.00000" pt_clust_8="13000.00000" pt_clust_9="30.37748"></scales>
<clustering>
<clus scale="   30.377">  1  9  2 -1</clus>
<clus scale="   79.663">  5  6 -1 -1</clus>
<clus scale="   89.717">  7  8 -1 -1</clus>
<clus scale="  111.411">  2  5  1 -1</clus>
<clus scale="   30.377">  1  5  2 -1</clus>
</clustering>
</event>
<event>
 9    1  0.2802611E-005  0.1221091E+03  0.7546771E-02  0.1245861E+00
          1   -1    0    0  502    0  0.00000000000E+00  0.00000000000E+00  0.43591174413E+03  0.43591174413E+03  0.00000000000E+00 0. -1.
         -2   -1    0    0    0  501 -0.00000000000E+00 -0.00000000000E+00 -0.12369419555E+03  0.12369419555E+03  0.00000000000E+00 0.  1.
         23    2    1    2    0    0 -0.25185658287E+02 -0.69849080444E+02 -0.54751887981E+02  0.13484240419E+03  0.98343750739E+02 0.  0.
        -24    2    1    2    0    0 -0.24320254392E+02  0.69396330649E+02  0.35847358685E+03  0.37453187381E+03  0.79771464500E+02 0.  0.
         13    1    4    4    0    0 -0.19251783093E+01  0.73188993848E+02  0.33042794124E+03  0.33844195881E+03  0.00000000000E+00 0. -1.
        -14    1    4    4    0    0 -0.22395076082E+02 -0.37926631988E+01  0.28045645612E+02  0.36089914999E+02  0.00000000000E+00 0.  1.
        -11    1    3    3    0    0 -0.62863902107E+01  0.25200326229E+02 -0.75467961159E+01  0.27046797880E+02  0.00000000000E+00 0. -1.
         11    1    3    3    0    0 -0.18899268076E+02 -0.95049406673E+02 -0.47205091865E+02  0.10779560631E+03  0.00000000000E+00 0.  1.
         21    1    1    2  502  501  0.49505912679E+02  0.45274979500E+00  0.84958497156E+01  0.50231661678E+02  0.00000000000E+00 0.  1.
<scales pt_clust_5="13000.00000" pt_clust_6="13000.00000" pt_clust_7="13000.00000" pt_clust_8="13000.00000" pt_clust_9="49.50798"></scales>
<clustering>
<clus scale="   49.508">  2  9  1 -1</clus>
<clus scale="   79.771">  5  6 -1 -1</clus>
<clus scale="   98.344">  7  8 -1 -1</clus>
<clus scale="  107.716">  1  5  2 -1</clus>
<clus scale="  107.716">  1  5  2 -1</clus>
</clustering>
</event>
<event>
 9    1  0.2802611E-005  0.1133642E+03  0.7546771E-02  0.1259696E+00
         -4   -1    0    0    0  501 -0.00000000000E+00  0.00000000000E+00  0.86570339540E+02  0.86570339540E+02  0.00000000000E+00 0.  1.
          3   -1    0    0  502    0  0.00000000000E+00 -0.00000000000E+00 -0.17804581501E+03  0.17804581501E+03  0.00000000000E+00 0. -1.
        -24    2    1    2    0    0  0.10945122901E+02  0.52831077102E+02 -0.31059119406E+02  0.10221433811E+03  0.81069005138E+02 0.  0.
         23    2    1    2    0    0  0.63164372269E+01 -0.71457647630E+02 -0.66674918532E+02  0.13624688972E+03  0.94718411163E+02 0.  0.
         11    1    3    3    0    0  0.22438316716E-01  0.37403507889E+02 -0.58173951755E+02  0.69160910698E+02  0.00000000000E+00 0. -1.
        -12    1    3    3    0    0  0.10922684584E+02  0.15427569213E+02  0.27114832349E+02  0.33053427412E+02  0.00000000000E+00 0.  1.
        -13    1    4    4    0    0 -0.31614513036E+02 -0.72083480457E+02 -0.56742607773E+02  0.97032103585E+02  0.00000000000E+00 0. -1.
         13    1    4    4    0    0  0.37930950263E+02  0.62583282691E+00 -0.99323107589E+01  0.39214786135E+02  0.00000000000E+00 0.  1.
         21    1    1    2  502  501 -0.17261560128E+02  0.18626570528E+02  0.62585624658E+01  0.26154926722E+02  0.00000000000E+00 0. -1.
<scales pt_clust_5="13000.00000" pt_clust_6="13000.00000" pt_clust_7="13000.00000" pt_clust_8="13000.00000" pt_clust_9="25.39509"></scales>
<clustering>
<clus scale="   25.395">  1  9  2 -1</clus>
<clus scale="   81.069">  5  6 -1 -1</clus>
<clus scale="   94.718">  7  8 -1 -1</clus>
<clus scale="  102.235">  1  5  2 -1</clus>
<clus scale="  113.364">  2  5  1 -1</clus>
</clustering>
</event>
<event>
 9    1  0.2802611E-005  0.1490961E+03  0.7546771E-02  0.1219577E+00
         -2   -1    0    0    0  501 -0.00000000000E+00  0.00000000000E+00  0.12573497580E+03  0.12573497580E+03  0.00000000000E+00 0.  1.
          1   -1    0    0  502    0  0.00000000000E+00 -0.00000000000E+00 -0.12968340446E+04  0.12968340446E+04  0.00000000000E+00 0. -1.
         23    2    1    2    0    0 -0.10843397143E+02 -0.22606347098E+02 -0.58229282286E+02  0.11708348214E+03  0.98434070742E+02 0.  0.
        -24    2    1    2    0    0  0.10292144555E+02 -0.12401829911E+03 -0.11456875191E+04  0.11552321045E+04  0.80466496772E+02 0.  0.
         13    1    4    4    0    0  0.77909974879E+00 -0.61055790616E+02 -0.25251893053E+03  0.25979651044E+03  0.00000000000E+00 0. -1.
        -14    1    4    4    0    0  0.95130448060E+01 -0.62962508496E+02 -0.89316858861E+03  0.89543559410E+03  0.00000000000E+00 0.  1.
        -13    1    3    3    0    0 -0.54756947193E+02 -0.16231940511E+02 -0.35221468901E+02  0.67099560581E+02  0.00000000000E+00 0.  1.
         13    1    3    3    0    0  0.43913550049E+02 -0.63744065876E+01 -0.23007813385E+02  0.49983921555E+02  0.00000000000E+00 0. -1.
         21    1    1    2  502  501  0.55125258866E+00  0.14662464621E+03  0.32817732672E+02  0.15025343368E+03  0.00000000000E+00 0.  1.
<scales pt_clust_5="13000.00000" pt_clust_6="13000.00000" pt_clust_7="13000.00000" pt_clust_8="13000.00000" pt_clust_9="125.51813"></scales>
<clustering>
<clus scale="   80.466">  5  6 -1 -1</clus>
<clus scale="   98.434">  7  8 -1 -1</clus>
<clus scale="  101.577">  1  7  2 -1</clus>
<clus scale="  125.518">  1  9  2 -1</clus>
<clus scale="  149.096">  2  5  1 -1</clus>
</clustering>
</event>
<event>
 9    1  0.2802611E-005  0.9128414E+02  0.7546771E-02  0.1303598E+00
         -2   -1    0    0    0  501 -0.00000000000E+00  0.00000000000E+00  0.21965743691E+03  0.21965743691E+03  0.00000000000E+00 0.  1.
          1   -1    0    0  502    0  0.00000000000E+00 -0.00000000000E+00 -0.16029347461E+03  0.16029347461E+03  0.00000000000E+00 0. -1.
         23    2    1    2    0    0  0.16269652248E+02 -0.35037142613E+02  0.63025697386E+02  0.11689033367E+03  0.90547272885E+02 0.  0.
        -24    2    1    2    0    0  0.90890986603E+00  0.79191979150E+01 -0.11747541682E+03  0.14480644443E+03  0.84290527205E+02 0.  0.
         13    1    4    4    0    0 -0.28090109244E+01  0.41583116222E+02 -0.96120976753E+02  0.10476778259E+03  0.00000000000E+00 0. -1.
        -14    1    4    4    0    0  0.37179207904E+01 -0.33663918307E+02 -0.21354440071E+02  0.40038661835E+02  0.00000000000E+00 0.  1.
        -13    1    3    3    0    0  0.39508118406E+02 -0.46437731161E+02  0.67127194604E+02  0.90683044450E+02  0.00000000000E+00 0.  1.
         13    1    3    3    0    0 -0.23238466158E+02  0.11400588548E+02 -0.41014972176E+01  0.26207289216E+02  0.00000000000E+00 0. -1.
         21    1    1    2  502  501 -0.17178562114E+02  0.27117944698E+02  0.11381368174E+03  0.11825413343E+03  0.00000000000E+00 0. -1.
<scales pt_clust_5="13000.00000" pt_clust_6="13000.00000" pt_clust_7="13000.00000" pt_clust_8="13000.00000" pt_clust_9="32.10118"></scales>
<clustering>
<clus scale="   32.101">  1  9  2 -1</clus>
<clus scale="   84.291">  5  6 -1 -1</clus>
<clus scale="   85.082">  2  5  1 -1</clus>
<clus scale="   90.547">  7  8 -1 -1</clus>
<clus scale="   85.082">  2  5  1 -1</clus>
</clustering>
</event>
<event>
 9    1  0.2802611E-005  0.1207413E+03  0.7546771E-02  0.1243793E+00
         -2   -1    0    0    0  501 -0.00000000000E+00  0.00000000000E+00  0.43525013949E+03  0.43525013949E+03  0.00000000000E+00 0.  1.
          1   -1    0    0  502    0  0.00000000000E+00 -0.00000000000E+00 -0.16884179445E+03  0.16884179445E+03  0.00000000000E+00 0. -1.
         23    2    1    2    0    0 -0.13525952046E+02 -0.45674253259E+02  0.31734857445E+03  0.33245112047E+03  0.86859317305E+02 0.  0.
        -24    2    1    2    0    0  0.10639039624E+02  0.85730027388E+02 -0.13450714927E+03  0.17892496046E+03  0.80368784435E+02 0.  0.
         11    1    4    4    0    0  0.40424147285E+02  0.51837721290E+02 -0.48127545321E+02  0.81470986559E+02  0.00000000000E+00 0. -1.
        -12    1    4    4    0    0 -0.29785107661E+02  0.33892306098E+02 -0.86379603952E+02  0.97453973905E+02  0.00000000000E+00 0.  1.
        -13    1    3    3    0    0 -0.10866874444E+01 -0.64264564062E+02  0.29040516325E+03  0.29743280573E+03  0.00000000000E+00 0.  1.
         13    1    3    3    0    0 -0.12439264601E+02  0.18590310804E+02  0.26943411205E+02  0.35018314736E+02  0.00000000000E+00 0. -1.
         21    1    1    2  502  501  0.28869124215E+01 -0.40055774129E+02  0.83566919857E+02  0.92715853007E+02  0.00000000000E+00 0.  1.
<scales pt_clust_5="13000.00000" pt_clust_6="13000.00000" pt_clust_7="13000.00000" pt_clust_8="13000.00000" pt_clust_9="40.15967"></scales>
<clustering>
<clus scale="   40.160">  1  9  2 -1</clus>
<clus scale="   80.369">  5  6 -1 -1</clus>
<clus scale="   86.859">  7  8 -1 -1</clus>
<clus scale="  116.160">  2  5  1 -1</clus>
<clus scale="  116.160">  2  5  1 -1</clus>
</clustering>
</event>
<event>
 9    1  0.2802611E-005  0.2621947E+03  0.7546771E-02  0.1148157E+00
         -2   -1    0    0    0  501 -0.00000000000E+00  0.00000000000E+00  0.35813981744E+03  0.35813981744E+03  0.00000000000E+00 0.  1.
          1   -1    0    0  502    0  0.00000000000E+00 -0.00000000000E+00 -0.41797126921E+03  0.41797126921E+03  0.00000000000E+00 0. -1.
         23    2    1    2    0    0  0.24105156401E+03 -0.52568149370E+01 -0.46406109382E+02  0.26341273142E+03  0.95389986212E+02 0.  0.
        -24    2    1    2    0    0  0.36468789830E+00 -0.45686867132E+02 -0.18872825087E+03  0.21002993080E+03  0.80042465810E+02 0.  0.
         11    1    4    4    0    0  0.10431425697E+02 -0.46694168591E+02 -0.19315087064E+03  0.19898848924E+03  0.00000000000E+00 0. -1.
        -12    1    4    4    0    0 -0.10066737799E+02  0.10073014589E+01  0.44226197716E+01  0.11041441563E+02  0.00000000000E+00 0.  1.
        -11    1    3    3    0    0  0.17915292504E+02 -0.91050450197E+01 -0.34499515432E+02  0.39925882775E+02  0.00000000000E+00 0.  1.
         11    1    3    3    0    0  0.22313627151E+03  0.38482300827E+01 -0.11906593950E+02  0.22348684864E+03  0.00000000000E+00 0. -1.
         21    1    1    2  502  501 -0.24141625191E+03  0.50943682069E+02  0.17530290848E+03  0.30266842443E+03  0.00000000000E+00 0.  1.
<scales pt_clust_5="13000.00000" pt_clust_6="13000.00000" pt_clust_7="13000.00000" pt_clust_8="13000.00000" pt_clust_9="244.22697"></scales>
<clustering>
<clus scale="   80.042">  5  6 -1 -1</clus>
<clus scale="   92.164">  2  5  1 -1</clus>
<clus scale="   95.390">  7  8 -1 -1</clus>
<clus scale="  244.227">  1  9  2 -1</clus>
<clus scale="   92.164">  2  5  1 -1</clus>
</clustering>
</event>
<event>
 9    1  0.2802611E-005  0.1045084E+03  0.7546771E-02  0.1278893E+00
          1   -1    0    0  502    0  0.00000000000E+00  0.00000000000E+00  0.33739427478E+03  0.33739427478E+03  0.00000000000E+00 0. -1.
         -2   -1    0    0    0  501 -0.00000000000E+00 -0.00000000000E+00 -0.72202360596E+02  0.72202360596E+02  0.00000000000E+00 0.  1.
        -24    2    1    2    0    0 -0.48694414952E+02 -0.74727348632E+02  0.10520933012E+03  0.15710968292E+03  0.75227166904E+02 0.  0.
         23    2    1    2    0    0 -0.60706932340E+01  0.32696876075E+02  0.15490538017E+03  0.18326588849E+03  0.92112811582E+02 0.  0.
         11    1    3    3    0    0 -0.59367547317E+02 -0.30313431208E+02  0.40823212548E+02  0.78166133771E+02  0.00000000000E+00 0. -1.
        -12    1    3    3    0    0  0.10673132365E+02 -0.44413917425E+02  0.64386117573E+02  0.78943549145E+02  0.00000000000E+00 0.  1.
        -13    1    4    4    0    0 -0.38132048170E+02  0.13086123520E+01  0.24464944592E+02  0.45324376199E+02  0.00000000000E+00 0.  1.
         13    1    4    4    0    0  0.32061354936E+02  0.31388263724E+02  0.13044043558E+03  0.13794151229E+03  0.00000000000E+00 0. -1.
         21    1    1    2  502  501  0.54765108186E+02  0.42030472557E+02  0.50772038955E+01  0.69221063972E+02  0.00000000000E+00 0.  1.
<scales pt_clust_5="13000.00000" pt_clust_6="13000.00000" pt_clust_7="13000.00000" pt_clust_8="13000.00000" pt_clust_9="69.03461"></scales>
<clustering>
<clus scale="   69.035">  2  9  1 -1</clus>
<clus scale="   75.227">  5  6 -1 -1</clus>
<clus scale="   89.980">  2  5  1 -1</clus>
<clus scale="   92.113">  7  8 -1 -1</clus>
<clus scale="  104.508">  1  5  2 -1</clus>
</clustering>
</event>
<event>
 9    1  0.2802611E-005  0.1035512E+03  0.7546771E-02  0.1277921E+00
          1   -1    0    0  502    0  0.00000000000E+00  0.00000000000E+00  0.13330963701E+03  0.13330963701E+03  0.00000000000E+00 0. -1.
         -2   -1    0    0    0  501 -0.00000000000E+00 -0.00000000000E+00 -0.10797052675E+03  0.10797052675E+03  0.00000000000E+00 0.  1.
         23    2    1    2    0    0 -0.98205013539E+01  0.57593636289E+02 -0.25383330731E+02  0.11128141750E+03  0.91245664084E+02 0.  0.
        -24    2    1    2    0    0 -0.90292550352E+01 -0.45381663691E+02  0.53812898214E+02  0.10732725499E+03  0.80512662379E+02 0.  0.
         11    1    4    4    0    0 -0.32233168143E+02 -0.52212037783E+02  0.55957464091E+02  0.83044035339E+02  0.00000000000E+00 0. -1.
        -12    1    4    4    0    0  0.23203913108E+02  0.68303740918E+01 -0.21445658769E+01  0.24283219649E+02  0.00000000000E+00 0.  1.
        -11    1    3    3    0    0 -0.26003146400E+02 -0.14268537570E+02  0.75290663522E+01  0.30601333749E+02  0.00000000000E+00 0. -1.
         11    1    3    3    0    0  0.16182645046E+02  0.71862173859E+02 -0.32912397083E+02  0.80680083752E+02  0.00000000000E+00 0.  1.
         21    1    1    2  502  501  0.18849756389E+02 -0.12211972598E+02 -0.30904572267E+01  0.22671491273E+02  0.00000000000E+00 0.  1.
<scales pt_clust_5="13000.00000" pt_clust_6="13000.00000" pt_clust_7="13000.00000" pt_clust_8="13000.00000" pt_clust_9="22.45987"></scales>
<clustering>
<clus scale="   22.460">  2  9  1 -1</clus>
<clus scale="   80.513">  5  6 -1 -1</clus>
<clus scale="   91.246">  7  8 -1 -1</clus>
<clus scale="   94.230">  1  5  2 -1</clus>
<clus scale="   94.230">  1  5  2 -1</clus>
</clustering>
</event>
<event>
 9    1  0.2802611E-005  0.1102393E+03  0.7546771E-02  0.1264955E+00
         -4   -1    0    0    0  501 -0.00000000000E+00  0.00000000000E+00  0.51122195309E+03  0.51122195309E+03  0.00000000000E+00 0.  1.
          3   -1    0    0  502    0  0.00000000000E+00 -0.00000000000E+00 -0.40232732170E+02  0.40232732170E+02  0.00000000000E+00 0. -1.
         23    2    1    2    0    0  0.26536846248E+01 -0.36471222022E+02  0.25936405165E+03  0.27771750619E+03  0.92304441270E+02 0.  0.
        -24    2    1    2    0    0 -0.57604359004E+02  0.48834107501E+02  0.10025562452E+03  0.14893496335E+03  0.80171072260E+02 0.  0.
         13    1    4    4    0    0 -0.23275115986E+02  0.55253985948E+02  0.23116384891E+02  0.64258083054E+02  0.00000000000E+00 0. -1.
        -14    1    4    4    0    0 -0.34329243018E+02 -0.64198784466E+01  0.77139239630E+02  0.84676880293E+02  0.00000000000E+00 0.  1.
        -11    1    3    3    0    0  0.46324627666E+02 -0.91634004203E+01  0.13877551822E+03  0.14658984785E+03  0.00000000000E+00 0.  1.
         11    1    3    3    0    0 -0.43670943041E+02 -0.27307821602E+02  0.12058853343E+03  0.13112765834E+03  0.00000000000E+00 0. -1.
         21    1    1    2  502  501  0.54950674379E+02 -0.12362885479E+02  0.11136954475E+03  0.12480221573E+03  0.00000000000E+00 0. -1.
<scales pt_clust_5="13000.00000" pt_clust_6="13000.00000" pt_clust_7="13000.00000" pt_clust_8="13000.00000" pt_clust_9="56.32422"></scales>
<clustering>
<clus scale="   56.324">  1  9  2 -1</clus>
<clus scale="   80.171">  5  6 -1 -1</clus>
<clus scale="   92.304">  7  8 -1 -1</clus>
<clus scale="  100.300">  2  5  1 -1</clus>
<clus scale="  100.300">  2  5  1 -1</clus>
</clustering>
</event>
<event>
 9    1  0.2802611E-005  0.1619963E+03  0.7546771E-02  0.1186692E+00
         -2   -1    0    0    0  501 -0.00000000000E+00  0.00000000000E+00  0.11202569501E+03  0.11202569501E+03  0.00000000000E+00 0.  1.
          1   -1    0    0  502    0  0.00000000000E+00 -0.00000000000E+00 -0.59017128225E+03  0.59017128225E+03  0.00000000000E+00 0. -1.
        -24    2    1    2    0    0  0.34001089842E+02 -0.86991254001E+02 -0.32767404970E+02  0.13365876881E+03  0.89818769013E+02 0.  0.
         23    2    1    2    0    0  0.78860097340E+01  0.14990801193E+03 -0.45971861313E+03  0.49160514991E+03  0.88316583804E+02 0.  0.
         13    1    3    3    0    0 -0.14729551013E+02 -0.14062333285E+02 -0.40780089040E+02  0.45582063935E+02  0.00000000000E+00 0. -1.
        -14    1    3    3    0    0  0.48730640854E+02 -0.72928920715E+02  0.80126840704E+01  0.88076704870E+02  0.00000000000E+00 0.  1.
        -13    1    4    4    0    0  0.32361853252E+02  0.84878506488E+02 -0.16048282274E+03  0.18440820698E+03  0.00000000000E+00 0.  1.
         13    1    4    4    0    0 -0.24475843518E+02  0.65029505441E+02 -0.29923579039E+03  0.30719694293E+03  0.00000000000E+00 0. -1.
         21    1    1    2  502  501 -0.41887099576E+02 -0.62916757928E+02  0.14340430865E+02  0.76933058541E+02  0.00000000000E+00 0.  1.
<scales pt_clust_5="13000.00000" pt_clust_6="13000.00000" pt_clust_7="13000.00000" pt_clust_8="13000.00000" pt_clust_9="75.58470"></scales>
<clustering>
<clus scale="   75.585">  1  9  2 -1</clus>
<clus scale="   88.317">  7  8 -1 -1</clus>
<clus scale="   89.819">  5  6 -1 -1</clus>
<clus scale="  161.168">  2  7  1 -1</clus>
<clus scale="  161.168">  2  5  1 -1</clus>
</clustering>
</event>
<event>
 9    1  0.2802611E-005  0.1070955E+03  0.7546771E-02  0.1270587E+00
          1   -1    0    0  502    0  0.00000000000E+00  0.00000000000E+00  0.57582284163E+02  0.57582284163E+02  0.00000000000E+00 0. -1.
         -2   -1    0    0    0  501 -0.00000000000E+00 -0.00000000000E+00 -0.32688771220E+03  0.32688771220E+03  0.00000000000E+00 0.  1.
        -24    2    1    2    0    0  0.27078042127E+01  0.65702783935E+01 -0.13760400952E+03  0.17162662904E+03  0.10232465782E+03 0.  0.
         23    2    1    2    0    0 -0.45520632304E+02  0.99456743611E+01 -0.41910303556E+02  0.11200607625E+03  0.92832339028E+02 0.  0.
         11    1    3    3    0    0 -0.40138224182E+01 -0.44249478407E+02 -0.33701832392E+02  0.55766841549E+02  0.00000000000E+00 0. -1.
        -12    1    3    3    0    0  0.67216266309E+01  0.50819756801E+02 -0.10390217713E+03  0.11585978749E+03  0.00000000000E+00 0.  1.
        -13    1    4    4    0    0 -0.56693763046E+02 -0.27397020015E+02 -0.15264050900E+02  0.64790205462E+02  0.00000000000E+00 0. -1.
         13    1    4    4    0    0  0.11173130742E+02  0.37342694376E+02 -0.26646252656E+02  0.47215870790E+02  0.00000000000E+00 0.  1.
         21    1    1    2  502  501  0.42812828091E+02 -0.16515952755E+02 -0.89791114956E+02  0.10083729107E+03  0.00000000000E+00 0. -1.
<scales pt_clust_5="13000.00000" pt_clust_6="13000.00000" pt_clust_7="13000.00000" pt_clust_8="13000.00000" pt_clust_9="45.88807"></scales>
<clustering>
<clus scale="   45.888">  2  9  1 -1</clus>
<clus scale="   92.832">  7  8 -1 -1</clus>
<clus scale="   98.066">  1  7  2 -1</clus>
<clus scale="  102.325">  5  6 -1 -1</clus>
<clus scale="   98.066">  1  5  2 -1</clus>
</clustering>
</event>
<event>
 9    1  0.2802611E-005  0.1341547E+03  0.7546771E-02  0.1224465E+00
          1   -1    0    0  502    0  0.00000000000E+00  0.00000000000E+00  0.33529907471E+03  0.33529907471E+03  0.00000000000E+00 0. -1.
         -2   -1    0    0    0  501 -0.00000000000E+00 -0.00000000000E+00 -0.21177814425E+03  0.21177814425E+03  0.00000000000E+00 0.  1.
         23    2    1    2    0    0  0.20242436051E+02 -0.75381644581E+01 -0.12808563089E+03  0.15953765764E+03  0.92626968125E+02 0.  0.
        -24    2    1    2    0    0 -0.44841150874E+02  0.81771882888E+02  0.27294600826E+03  0.30647715501E+03  0.10359224619E+03 0.  0.
         11    1    4    4    0    0 -0.71366580344E+02  0.57102866704E+02  0.24251719631E+03  0.25916889606E+03  0.00000000000E+00 0. -1.
        -12    1    4    4    0    0  0.26525429470E+02  0.24669016185E+02  0.30428811951E+02  0.47308258949E+02  0.00000000000E+00 0.  1.
        -13    1    3    3    0    0 -0.22476387006E+02  0.30911535621E+01  0.14420965306E+01  0.22733738047E+02  0.00000000000E+00 0. -1.
         13    1    3    3    0    0  0.42718823058E+02 -0.10629318020E+02 -0.12952772742E+03  0.13680391960E+03  0.00000000000E+00 0.  1.
         21    1    1    2  502  501  0.24598714823E+02 -0.74233718430E+02 -0.21339446913E+02  0.81062406314E+02  0.00000000000E+00 0.  1.
<scales pt_clust_5="13000.00000" pt_clust_6="13000.00000" pt_clust_7="13000.00000" pt_clust_8="13000.00000" pt_clust_9="78.20321"></scales>
<clustering>
<clus scale="   78.203">  2  9  1 -1</clus>
<clus scale="   92.627">  7  8 -1 -1</clus>
<clus scale="  103.592">  5  6 -1 -1</clus>
<clus scale="  125.880">  2  7  1 -1</clus>
<clus scale="  134.155">  1  5  2 -1</clus>
</clustering>
</event>
<event>
 9    1  0.2802611E-005  0.9854845E+02  0.7546771E-02  0.1288019E+00
          3   -1    0    0  502    0  0.00000000000E+00  0.00000000000E+00  0.38865696154E+02  0.38865696154E+02  0.00000000000E+00 0. -1.
         -4   -1    0    0    0  501 -0.00000000000E+00 -0.00000000000E+00 -0.36195697321E+03  0.36195697321E+03  0.00000000000E+00 0.  1.
        -24    2    1    2    0    0 -0.18585677021E+02 -0.29821898217E+02 -0.20409882283E+03  0.22299961705E+03  0.82690547951E+02 0.  0.
         23    2    1    2    0    0  0.35728926469E+02  0.15021651633E+02 -0.63875069990E+02  0.11823392289E+03  0.91635308430E+02 0.  0.
         11    1    3    3    0    0 -0.11018514626E+02  0.24243515613E+02 -0.28037261329E+02  0.38668381614E+02  0.00000000000E+00 0. -1.
        -12    1    3    3    0    0 -0.75671623945E+01 -0.54065413830E+02 -0.17606156150E+03  0.18433123543E+03  0.00000000000E+00 0.  1.
        -13    1    4    4    0    0  0.14683086724E+02  0.31619251548E+02  0.12700083807E+02  0.37103399209E+02  0.00000000000E+00 0. -1.
         13    1    4    4    0    0  0.21045839745E+02 -0.16597599915E+02 -0.76575153797E+02  0.81130523680E+02  0.00000000000E+00 0.  1.
         21    1    1    2  502  501 -0.17143249449E+02  0.14800246584E+02 -0.55117384243E+02  0.59589129431E+02  0.00000000000E+00 0. -1.
<scales pt_clust_5="13000.00000" pt_clust_6="13000.00000" pt_clust_7="13000.00000" pt_clust_8="13000.00000" pt_clust_9="22.64814"></scales>
<clustering>
<clus scale="   22.648">  2  9  1 -1</clus>
<clus scale="   82.691">  5  6 -1 -1</clus>
<clus scale="   90.291">  2  5  1 -1</clus>
<clus scale="   91.635">  7  8 -1 -1</clus>
<clus scale="   98.548">  1  5  2 -1</clus>
</clustering>
</event>
<event>
 9    1  0.2802611E-005  0.1269926E+03  0.7546771E-02  0.1244817E+00
          3   -1    0    0  502    0  0.00000000000E+00  0.00000000000E+00  0.24439801376E+03  0.24439801376E+03  0.00000000000E+00 0. -1.
         -4   -1    0    0    0  501 -0.00000000000E+00 -0.00000000000E+00 -0.27464691690E+03  0.27464691690E+03  0.00000000000E+00 0.  1.
         23    2    1    2    0    0 -0.27733362804E+02 -0.23794218328E+02 -0.12508914172E+03  0.15878011284E+03  0.90711226528E+02 0.  0.
        -24    2    1    2    0    0 -0.91759301880E+02 -0.18181309125E+02  0.17223788385E+03  0.21183693194E+03  0.80365836130E+02 0.  0.
         11    1    4    4    0    0 -0.27709530598E+02 -0.34818735791E+02  0.11853572827E+03  0.12661311671E+03  0.00000000000E+00 0. -1.
        -12    1    4    4    0    0 -0.64049771281E+02  0.16637426665E+02  0.53702155582E+02  0.85223815224E+02  0.00000000000E+00 0.  1.
        -11    1    3    3    0    0 -0.17512120276E+02  0.33145689736E+02 -0.67146491381E+02  0.76902291314E+02  0.00000000000E+00 0.  1.
         11    1    3    3    0    0 -0.10221242528E+02 -0.56939908064E+02 -0.57942650343E+02  0.81877821526E+02  0.00000000000E+00 0. -1.
         21    1    1    2  502  501  0.11949266468E+03  0.41975527453E+02 -0.77397645261E+02  0.14842788589E+03  0.00000000000E+00 0.  1.
<scales pt_clust_5="13000.00000" pt_clust_6="13000.00000" pt_clust_7="13000.00000" pt_clust_8="13000.00000" pt_clust_9="98.32831"></scales>
<clustering>
<clus scale="   80.366">  5  6 -1 -1</clus>
<clus scale="   90.711">  7  8 -1 -1</clus>
<clus scale="   97.795">  2  7  1 -1</clus>
<clus scale="   98.328">  2  9  1 -1</clus>
<clus scale="  126.993">  1  5  2 -1</clus>
</clustering>
</event>
<event>
 9    1  0.2802611E-005  0.9396579E+02  0.7546771E-02  0.1301308E+00
          1   -1    0    0  502    0  0.00000000000E+00  0.00000000000E+00  0.25339487815E+03  0.25339487815E+03  0.00000000000E+00 0. -1.
         -2   -1    0    0    0  501 -0.00000000000E+00 -0.00000000000E+00 -0.11145408399E+03  0.11145408399E+03  0.00000000000E+00 0.  1.
        -24    2    1    2    0    0 -0.17772541279E+02  0.18259015780E+02 -0.58016390403E+02  0.10196494146E+03  0.79885498372E+02 0.  0.
         23    2    1    2    0    0 -0.18275757088E+02 -0.45605004511E+01  0.20324688925E+03  0.22418064494E+03  0.92697692081E+02 0.  0.
         13    1    3    3    0    0  0.28313581034E+02  0.52323818349E+01 -0.28854068792E+01  0.28937212435E+02  0.00000000000E+00 0. -1.
        -14    1    3    3    0    0 -0.46086122313E+02  0.13026633945E+02 -0.55130983523E+02  0.73027729022E+02  0.00000000000E+00 0.  1.
        -11    1    4    4    0    0  0.24576666962E+02 -0.17147581439E+02  0.15720317207E+03  0.16003402581E+03  0.00000000000E+00 0. -1.
         11    1    4    4    0    0 -0.42852424051E+02  0.12587080988E+02  0.46043717179E+02  0.64146619135E+02  0.00000000000E+00 0.  1.
         21    1    1    2  502  501  0.36048298367E+02 -0.13698515329E+02 -0.32897046843E+01  0.38703375748E+02  0.00000000000E+00 0. -1.
<scales pt_clust_5="13000.00000" pt_clust_6="13000.00000" pt_clust_7="13000.00000" pt_clust_8="13000.00000" pt_clust_9="38.56331"></scales>
<clustering>
<clus scale="   38.563">  2  9  1 -1</clus>
<clus scale="   79.885">  5  6 -1 -1</clus>
<clus scale="   81.354">  2  5  1 -1</clus>
<clus scale="   92.698">  7  8 -1 -1</clus>
<clus scale="   93.966">  1  5  2 -1</clus>
</clustering>
</event>
<event>
 9    1  0.2802611E-005  0.1003831E+03  0.7546771E-02  0.1280789E+00
         -2   -1    0    0    0  501 -0.00000000000E+00  0.00000000000E+00  0.29299810448E+03  0.29299810448E+03  0.00000000000E+00 0.  1.
          1   -1    0    0  502    0  0.00000000000E+00 -0.00000000000E+00 -0.62435198644E+02  0.62435198644E+02  0.00000000000E+00 0. -1.
        -24    2    1    2    0    0 -0.28395650513E+01  0.59856240432E+02  0.14626674024E+03  0.18439825397E+03  0.94962751220E+02 0.  0.
         23    2    1    2    0    0  0.48219134709E+01 -0.22365244224E+02  0.21017413740E+02  0.97457165666E+02  0.92372682437E+02 0.  0.
         13    1    3    3    0    0  0.32883035230E+02 -0.31055445876E+01  0.19327540335E+02  0.38268684698E+02  0.00000000000E+00 0. -1.
        -14    1    3    3    0    0 -0.35722600281E+02  0.62961785020E+02  0.12693919991E+03  0.14612956928E+03  0.00000000000E+00 0.  1.
        -11    1    4    4    0    0 -0.77947237794E+01  0.33055544009E+02  0.22256077700E+02  0.40604922154E+02  0.00000000000E+00 0.  1.
         11    1    4    4    0    0  0.12616637250E+02 -0.55420788234E+02 -0.12386639607E+01  0.56852243512E+02  0.00000000000E+00 0. -1.
         21    1    1    2  502  501 -0.19823484197E+01 -0.37490996208E+02  0.63278751858E+02  0.73577883488E+02  0.00000000000E+00 0. -1.
<scales pt_clust_5="13000.00000" pt_clust_6="13000.00000" pt_clust_7="13000.00000" pt_clust_8="13000.00000" pt_clust_9="37.54337"></scales>
<clustering>
<clus scale="   37.543">  1  9  2 -1</clus>
<clus scale="   92.373">  7  8 -1 -1</clus>
<clus scale="   94.963">  5  6 -1 -1</clus>
<clus scale="   97.936">  2  7  1 -1</clus>
<clus scale="   97.936">  2  5  1 -1</clus>
</clustering>
</event>
<event>
 9    1  0.2802611E-005  0.1172788E+03  0.7546771E-02  0.1251834E+00
          3   -1    0    0  502    0  0.00000000000E+00  0.00000000000E+00  0.30891631972E+03  0.30891631972E+03  0.00000000000E+00 0. -1.
         -4   -1    0    0    0  501 -0.00000000000E+00 -0.00000000000E+00 -0.54952878768E+02  0.54952878768E+02  0.00000000000E+00 0.  1.
        -24    2    1    2    0    0 -0.38348837293E+02  0.65014086222E+02  0.63759287399E+02  0.12685179776E+03  0.79552920352E+02 0.  0.
         23    2    1    2    0    0  0.16117264490E+02 -0.70845984287E+02  0.16975727462E+03  0.20625494435E+03  0.91894777211E+02 0.  0.
         11    1    3    3    0    0  0.14419617357E+02  0.42256407502E+02  0.51375466675E+02  0.68065908616E+02  0.00000000000E+00 0. -1.
        -12    1    3    3    0    0 -0.52768454649E+02  0.22757678720E+02  0.12383820724E+02  0.58785889144E+02  0.00000000000E+00 0.  1.
        -13    1    4    4    0    0 -0.36353179921E+01 -0.28233113040E+02  0.15415762933E+03  0.15676383158E+03  0.00000000000E+00 0. -1.
         13    1    4    4    0    0  0.19752582483E+02 -0.42612871247E+02  0.15599645289E+02  0.49491112776E+02  0.00000000000E+00 0.  1.
         21    1    1    2  502  501  0.22231572802E+02  0.58318980655E+01  0.20446878935E+02  0.30762456379E+02  0.00000000000E+00 0. -1.
<scales pt_clust_5="13000.00000" pt_clust_6="13000.00000" pt_clust_7="13000.00000" pt_clust_8="13000.00000" pt_clust_9="22.98377"></scales>
<clustering>
<clus scale="   22.984">  2  9  1 -1</clus>
<clus scale="   79.553">  5  6 -1 -1</clus>
<clus scale="   91.895">  7  8 -1 -1</clus>
<clus scale="  107.881">  2  5  1 -1</clus>
<clus scale="  117.279">  1  5  2 -1</clus>
</clustering>
</event>
<event>
 9    1  0.2802611E-005  0.1832655E+03  0.7546771E-02  0.1166474E+00
         -4   -1    0    0    0  501 -0.00000000000E+00  0.00000000000E+00  0.69738592503E+02  0.69738592503E+02  0.00000000000E+00 0.  1.
          3   -1    0    0  502    0  0.00000000000E+00 -0.00000000000E+00 -0.67853340359E+03  0.67853340359E+03  0.00000000000E+00 0. -1.
         23    2    1    2    0    0  0.10356197978E+02 -0.15052885396E+03 -0.13008168877E+03  0.21867941406E+03  0.90184553373E+02 0.  0.
        -24    2    1    2    0    0 -0.40848170577E+02  0.14628042074E+03 -0.45476098136E+03  0.49058598472E+03  0.10392556813E+03 0.  0.
         13    1    4    4    0    0 -0.34548287208E+02  0.13683394217E+03 -0.45761136496E+03  0.47887918437E+03  0.00000000000E+00 0. -1.
        -14    1    4    4    0    0 -0.62998833690E+01  0.94464785702E+01  0.28503836053E+01  0.11706800354E+02  0.00000000000E+00 0.  1.
        -13    1    3    3    0    0  0.17357828964E+01 -0.28536074168E+02  0.12180866759E+02  0.31075617229E+02  0.00000000000E+00 0.  1.
         13    1    3    3    0    0  0.86204150817E+01 -0.12199277979E+03 -0.14226255553E+03  0.18760379683E+03  0.00000000000E+00 0. -1.
         21    1    1    2  502  501  0.30491972599E+02  0.42484332211E+01 -0.23952140958E+02  0.39006597317E+02  0.00000000000E+00 0. -1.
<scales pt_clust_5="13000.00000" pt_clust_6="13000.00000" pt_clust_7="13000.00000" pt_clust_8="13000.00000" pt_clust_9="30.78652"></scales>
<clustering>
<clus scale="   30.787">  1  9  2 -1</clus>
<clus scale="   90.185">  7  8 -1 -1</clus>
<clus scale="  103.926">  5  6 -1 -1</clus>
<clus scale="  175.838">  1  7  2 -1</clus>
<clus scale="  183.266">  2  5  1 -1</clus>
</clustering>
</event>
<event>
 9    1  0.2802611E-005  0.1547165E+03  0.7546771E-02  0.1196774E+00
         -4   -1    0    0    0  501 -0.00000000000E+00  0.00000000000E+00  0.48226039175E+03  0.48226039175E+03  0.00000000000E+00 0.  1.
          3   -1    0    0  502    0  0.00000000000E+00 -0.00000000000E+00 -0.16475784591E+03  0.16475784591E+03  0.00000000000E+00 0. -1.
        -24    2    1    2    0    0  0.39825765866E+02  0.72953175068E+02  0.56676241296E+02  0.12913936583E+03  0.80972353921E+02 0.  0.
         23    2    1    2    0    0 -0.14921321209E+03 -0.74107746813E+02 -0.42691568906E+02  0.19524898183E+03  0.92428643001E+02 0.  0.
         13    1    3    3    0    0  0.29946926265E+02  0.27028989657E+01 -0.10094111799E+02  0.31717741858E+02  0.00000000000E+00 0. -1.
        -14    1    3    3    0    0  0.98788396011E+01  0.70250276102E+02  0.66770353096E+02  0.97421623969E+02  0.00000000000E+00 0.  1.
        -11    1    4    4    0    0 -0.16690589063E+02 -0.12324436878E+02 -0.44414729178E+02  0.49021787764E+02  0.00000000000E+00 0.  1.
         11    1    4    4    0    0 -0.13252262303E+03 -0.61783309935E+02  0.17231602718E+01  0.14622719406E+03  0.00000000000E+00 0. -1.
         21    1    1    2  502  501  0.10938744623E+03  0.11545717454E+01  0.30351787345E+03  0.32262989001E+03  0.00000000000E+00 0.  1.
<scales pt_clust_5="13000.00000" pt_clust_6="13000.00000" pt_clust_7="13000.00000" pt_clust_8="13000.00000" pt_clust_9="109.39354"></scales>
<clustering>
<clus scale="   80.972">  5  6 -1 -1</clus>
<clus scale="   92.429">  7  8 -1 -1</clus>
<clus scale="  109.394">  1  9  2 -1</clus>
<clus scale="  148.158">  1  5  2 -1</clus>
<clus scale="  154.716">  2  5  1 -1</clus>
</clustering>
</event>
<event>
 9    1  0.2802611E-005  0.1476448E+03  0.7546771E-02  0.1204982E+00
         -2   -1    0    0    0  501 -0.00000000000E+00  0.00000000000E+00  0.31973685044E+03  0.31973685044E+03  0.00000000000E+00 0.  1.
          1   -1    0    0  502    0  0.00000000000E+00 -0.00000000000E+00 -0.14395394701E+03  0.14395394701E+03  0.00000000000E+00 0. -1.
        -24    2    1    2    0    0 -0.90303714089E+02  0.57312846434E+02  0.36009257635E+02  0.15088897879E+03  0.10015634847E+03 0.  0.
         23    2    1    2    0    0  0.43101430656E+02 -0.11152893766E+03 -0.47778869337E+01  0.15136271025E+03  0.92689830026E+02 0.  0.
         11    1    3    3    0    0  0.70501608315E+01  0.33496044937E+02 -0.16212364662E+02  0.37875197189E+02  0.00000000000E+00 0. -1.
        -12    1    3    3    0    0 -0.97353874921E+02  0.23816801497E+02  0.52221622296E+02  0.11301378160E+03  0.00000000000E+00 0.  1.
        -13    1    4    4    0    0 -0.12137652555E+02 -0.60125049620E+02 -0.34369750835E+02  0.70310909351E+02  0.00000000000E+00 0. -1.
         13    1    4    4    0    0  0.55239083211E+02 -0.51403888042E+02  0.29591863902E+02  0.81051800899E+02  0.00000000000E+00 0.  1.
         21    1    1    2  502  501  0.47202283434E+02  0.54216091228E+02  0.14455153273E+03  0.16143910841E+03  0.00000000000E+00 0.  1.
<scales pt_clust_5="13000.00000" pt_clust_6="13000.00000" pt_clust_7="13000.00000" pt_clust_8="13000.00000" pt_clust_9="71.88491"></scales>
<clustering>
<clus scale="   71.885">  1  9  2 -1</clus>
<clus scale="   92.690">  7  8 -1 -1</clus>
<clus scale="  100.156">  5  6 -1 -1</clus>
<clus scale="  142.685">  2  7  1 -1</clus>
<clus scale="  142.685">  2  5  1 -1</clus>
</clustering>
</event>
<event>
 9    1  0.2802611E-005  0.1777471E+03  0.7546771E-02  0.1171736E+00
         -2   -1    0    0    0  501 -0.00000000000E+00  0.00000000000E+00  0.90111760199E+02  0.90111760199E+02  0.00000000000E+00 0.  1.
          1   -1    0    0  502    0  0.00000000000E+00 -0.00000000000E+00 -0.64960197569E+03  0.64960197569E+03  0.00000000000E+00 0. -1.
         23    2    1    2    0    0  0.17489281935E+01 -0.10199716353E+03 -0.37353585757E+02  0.14049495987E+03  0.89090197337E+02 0.  0.
        -24    2    1    2    0    0  0.12989289655E+02  0.17089705619E+03 -0.48463996424E+03  0.51940392654E+03  0.74364094236E+02 0.  0.
         13    1    4    4    0    0 -0.26020041415E+02  0.11655480321E+03 -0.32866337157E+03  0.34968797022E+03  0.00000000000E+00 0. -1.
        -14    1    4    4    0    0  0.39009331070E+02  0.54342252979E+02 -0.15597659267E+03  0.16971595632E+03  0.00000000000E+00 0.  1.
        -11    1    3    3    0    0  0.36667109542E+02 -0.88557893274E+02 -0.37915690825E+02  0.10307558874E+03  0.00000000000E+00 0. -1.
         11    1    3    3    0    0 -0.34918181348E+02 -0.13439270261E+02  0.56210506789E+00  0.37419371132E+02  0.00000000000E+00 0.  1.
         21    1    1    2  502  501 -0.14738217849E+02 -0.68899892657E+02 -0.37496665499E+02  0.79814849477E+02  0.00000000000E+00 0. -1.
<scales pt_clust_5="13000.00000" pt_clust_6="13000.00000" pt_clust_7="13000.00000" pt_clust_8="13000.00000" pt_clust_9="70.45857"></scales>
<clustering>
<clus scale="   70.459">  1  9  2 -1</clus>
<clus scale="   74.364">  5  6 -1 -1</clus>
<clus scale="   89.090">  7  8 -1 -1</clus>
<clus scale="  170.842">  2  5  1 -1</clus>
<clus scale="  170.842">  2  5  1 -1</clus>
</clustering>
</event>
<event>
 9    1  0.2802611E-005  0.1553618E+03  0.7546771E-02  0.1213518E+00
          1   -1    0    0  502    0  0.00000000000E+00  0.00000000000E+00  0.98501905558E+02  0.98501905558E+02  0.00000000000E+00 0. -1.
         -2   -1    0    0    0  501 -0.00000000000E+00 -0.00000000000E+00 -0.50165686244E+03  0.50165686244E+03  0.00000000000E+00 0.  1.
         23    2    1    2    0    0 -0.10947828537E+03 -0.22278276578E+02 -0.25757042293E+03  0.29527983217E+03  0.91464965679E+02 0.  0.
        -24    2    1    2    0    0 -0.29321658345E+02 -0.55851532595E+02 -0.24853054381E+02  0.10501452774E+03  0.80194908716E+02 0.  0.
         13    1    4    4    0    0 -0.44838404442E+02 -0.14588974338E+02  0.10735088675E+02  0.48358689126E+02  0.00000000000E+00 0. -1.
        -14    1    4    4    0    0  0.15516746097E+02 -0.41262558258E+02 -0.35588143056E+02  0.56655838619E+02  0.00000000000E+00 0.  1.
        -13    1    3    3    0    0 -0.57484539549E+02 -0.56272503936E+02 -0.16812381196E+03  0.18637779679E+03  0.00000000000E+00 0. -1.
         13    1    3    3    0    0 -0.51993745820E+02  0.33994227359E+02 -0.89446610965E+02  0.10890203539E+03  0.00000000000E+00 0.  1.
         21    1    1    2  502  501  0.13879994371E+03  0.78129809173E+02 -0.12073147957E+03  0.19986440808E+03  0.00000000000E+00 0.  1.
<scales pt_clust_5="13000.00000" pt_clust_6="13000.00000" pt_clust_7="13000.00000" pt_clust_8="13000.00000" pt_clust_9="125.58448"></scales>
<clustering>
<clus scale="   80.195">  5  6 -1 -1</clus>
<clus scale="   91.465">  7  8 -1 -1</clus>
<clus scale="  102.031">  1  5  2 -1</clus>
<clus scale="  125.584">  1  9  2 -1</clus>
<clus scale="  102.031">  1  5  2 -1</clus>
</clustering>
</event>
<event>
 9    1  0.2802611E-005  0.1488942E+03  0.7546771E-02  0.1203696E+00
         -2   -1    0    0    0  501 -0.00000000000E+00  0.00000000000E+00  0.86626288252E+03  0.86626288252E+03  0.00000000000E+00 0.  1.
          1   -1    0    0  502    0  0.00000000000E+00 -0.00000000000E+00 -0.42547295669E+02  0.42547295669E+02  0.00000000000E+00 0. -1.
        -24    2    1    2    0    0 -0.42217009181E+02 -0.67797426464E+02  0.33066347432E+03  0.34991796632E+03  0.82009042212E+02 0.  0.
         23    2    1    2    0    0  0.71534221635E+02  0.12628440770E+03  0.22553582271E+03  0.28349215515E+03  0.91850412152E+02 0.  0.
         11    1    3    3    0    0  0.24310637788E+02 -0.27448554696E+02  0.10615886319E+03  0.11231266401E+03  0.00000000000E+00 0. -1.
        -12    1    3    3    0    0 -0.66527646969E+02 -0.40348871768E+02  0.22450461113E+03  0.23760530231E+03  0.00000000000E+00 0.  1.
        -13    1    4    4    0    0  0.57641680285E+02  0.90666160023E+02  0.82567394505E+02  0.13550014950E+03  0.00000000000E+00 0. -1.
         13    1    4    4    0    0  0.13892541350E+02  0.35618247680E+02  0.14296842820E+03  0.14799200565E+03  0.00000000000E+00 0.  1.
         21    1    1    2  502  501 -0.29317212453E+02 -0.58486981240E+02  0.26751628983E+03  0.27540005673E+03  0.00000000000E+00 0.  1.
<scales pt_clust_5="13000.00000" pt_clust_6="13000.00000" pt_clust_7="13000.00000" pt_clust_8="13000.00000" pt_clust_9="65.42344"></scales>
<clustering>
<clus scale="   65.423">  1  9  2 -1</clus>
<clus scale="   82.009">  5  6 -1 -1</clus>
<clus scale="   91.850">  7  8 -1 -1</clus>
<clus scale="  143.033">  1  5  2 -1</clus>
<clus scale="  148.894">  2  5  1 -1</clus>
</clustering>
</event>
<event>
 9    1  0.2802611E-005  0.9341085E+02  0.7546771E-02  0.1300380E+00
          1   -1    0    0  502    0  0.00000000000E+00  0.00000000000E+00  0.48703732090E+03  0.48703732090E+03  0.00000000000E+00 0. -1.
         -2   -1    0    0    0  501 -0.00000000000E+00 -0.00000000000E+00 -0.24114973536E+02  0.24114973536E+02  0.00000000000E+00 0.  1.
        -24    2    1    2    0    0  0.10179711517E+02 -0.28364001011E+02  0.14476889468E+03  0.16815126735E+03  0.80054186421E+02 0.  0.
         23    2    1    2    0    0 -0.27363908477E+02  0.83406497233E+01  0.28773155595E+03  0.30273040476E+03  0.89654334817E+02 0.  0.
         11    1    3    3    0    0  0.40485369175E+02 -0.26411277766E+02  0.11856553242E+03  0.12804064272E+03  0.00000000000E+00 0. -1.
        -12    1    3    3    0    0 -0.30305657658E+02 -0.19527232449E+01  0.26203362265E+02  0.40110624629E+02  0.00000000000E+00 0.  1.
        -11    1    4    4    0    0 -0.54305682198E+02 -0.15197557398E+02  0.14490194074E+03  0.15548840890E+03  0.00000000000E+00 0.  1.
         11    1    4    4    0    0  0.26941773721E+02  0.23538207122E+02  0.14282961520E+03  0.14724199586E+03  0.00000000000E+00 0. -1.
         21    1    1    2  502  501  0.17184196960E+02  0.20023351288E+02  0.30421896731E+02  0.40270622328E+02  0.00000000000E+00 0.  1.
<scales pt_clust_5="13000.00000" pt_clust_6="13000.00000" pt_clust_7="13000.00000" pt_clust_8="13000.00000" pt_clust_9="26.38619"></scales>
<clustering>
<clus scale="   26.386">  2  9  1 -1</clus>
<clus scale="   80.054">  5  6 -1 -1</clus>
<clus scale="   84.240">  2  5  1 -1</clus>
<clus scale="   89.654">  7  8 -1 -1</clus>
<clus scale="   93.411">  1  5  2 -1</clus>
</clustering>
</event>
<event>
 9    1  0.2802611E-005  0.2379392E+03  0.7546771E-02  0.1122121E+00
          1   -1    0    0  502    0  0.00000000000E+00  0.00000000000E+00  0.14066676154E+03  0.14066676154E+03  0.00000000000E+00 0. -1.
         -2   -1    0    0    0  501 -0.00000000000E+00 -0.00000000000E+00 -0.61910385104E+03  0.61910385104E+03  0.00000000000E+00 0.  1.
        -24    2    1    2    0    0  0.13764703651E+03 -0.14721452183E+03 -0.39247627784E+03  0.44917654153E+03  0.84279978040E+02 0.  0.
         23    2    1    2    0    0 -0.15947175441E+03  0.15354599637E+03 -0.22719792106E+02  0.24339412734E+03  0.98574331416E+02 0.  0.
         13    1    3    3    0    0  0.83839460236E+02 -0.29881499100E+02 -0.17306477962E+03  0.19461083481E+03  0.00000000000E+00 0. -1.
        -14    1    3    3    0    0  0.53807576272E+02 -0.11733302273E+03 -0.21941149821E+03  0.25456570671E+03  0.00000000000E+00 0.  1.
        -13    1    4    4    0    0 -0.12776515775E+03  0.12249072297E+03  0.24391863780E+02  0.17866973937E+03  0.00000000000E+00 0. -1.
         13    1    4    4    0    0 -0.31706596661E+02  0.31055273407E+02 -0.47111655885E+02  0.64724387973E+02  0.00000000000E+00 0.  1.
         21    1    1    2  502  501  0.21824717900E+02 -0.63314745467E+01 -0.63241019550E+02  0.67199943713E+02  0.00000000000E+00 0. -1.
<scales pt_clust_5="13000.00000" pt_clust_6="13000.00000" pt_clust_7="13000.00000" pt_clust_8="13000.00000" pt_clust_9="22.72457"></scales>
<clustering>
<clus scale="   22.725">  2  9  1 -1</clus>
<clus scale="   84.280">  5  6 -1 -1</clus>
<clus scale="   98.574">  7  8 -1 -1</clus>
<clus scale="  232.382">  2  5  1 -1</clus>
<clus scale="  237.939">  1  5  2 -1</clus>
</clustering>
</event>
<event>
 9    1  0.2802611E-005  0.1279582E+03  0.7546771E-02  0.1232645E+00
          1   -1    0    0  502    0  0.00000000000E+00  0.00000000000E+00  0.21537372915E+03  0.21537372915E+03  0.00000000000E+00 0. -1.
         -2   -1    0    0    0  501 -0.00000000000E+00 -0.00000000000E+00 -0.11541624633E+03  0.11541624633E+03  0.00000000000E+00 0.  1.
        -24    2    1    2    0    0  0.70484862838E+02 -0.28930299946E+02 -0.20545963620E+02  0.11242085812E+03  0.80070185314E+02 0.  0.
         23    2    1    2    0    0 -0.98253922742E+02  0.19045803162E+02  0.13109320981E+03  0.18704872379E+03  0.88233890671E+02 0.  0.
         13    1    3    3    0    0  0.53838653507E+01 -0.34938780778E+02  0.14538625723E+02  0.38224024465E+02  0.00000000000E+00 0. -1.
        -14    1    3    3    0    0  0.65100997487E+02  0.60084808320E+01 -0.35084589344E+02  0.74196833660E+02  0.00000000000E+00 0.  1.
        -11    1    4    4    0    0 -0.41678533881E+02 -0.69568106915E+01  0.37292467011E+00  0.42256792049E+02  0.00000000000E+00 0.  1.
         11    1    4    4    0    0 -0.56575388861E+02  0.26002613853E+02  0.13072028514E+03  0.14479193174E+03  0.00000000000E+00 0. -1.
         21    1    1    2  502  501  0.27769059904E+02  0.98844967842E+01 -0.10589763362E+02  0.31320393559E+02  0.00000000000E+00 0. -1.
<scales pt_clust_5="13000.00000" pt_clust_6="13000.00000" pt_clust_7="13000.00000" pt_clust_8="13000.00000" pt_clust_9="29.47582"></scales>
<clustering>
<clus scale="   29.476">  2  9  1 -1</clus>
<clus scale="   80.070">  5  6 -1 -1</clus>
<clus scale="   88.234">  7  8 -1 -1</clus>
<clus scale="  122.472">  2  5  1 -1</clus>
<clus scale="  127.958">  1  5  2 -1</clus>
</clustering>
</event>
<event>
 9    1  0.2802611E-005  0.1580146E+03  0.7546771E-02  0.1218000E+00
          1   -1    0    0  502    0  0.00000000000E+00  0.00000000000E+00  0.34378841861E+03  0.34378841861E+03  0.00000000000E+00 0. -1.
         -2   -1    0    0    0  501 -0.00000000000E+00 -0.00000000000E+00 -0.15054080586E+03  0.15054080586E+03  0.00000000000E+00 0.  1.
         23    2    1    2    0    0  0.28111742787E+02  0.11999128426E+03 -0.40080502160E+02  0.15795270081E+03  0.90301886242E+02 0.  0.
        -24    2    1    2    0    0 -0.17113330200E+02  0.25726848945E+02  0.13119155373E+03  0.15808850793E+03  0.82619705528E+02 0.  0.
         13    1    4    4    0    0  0.24220463705E+02  0.24604023373E+02  0.10142338961E+03  0.10713866150E+03  0.00000000000E+00 0. -1.
        -14    1    4    4    0    0 -0.41333793905E+02  0.11228255725E+01  0.29768164120E+02  0.50949846426E+02  0.00000000000E+00 0.  1.
        -11    1    3    3    0    0 -0.26676741882E+02  0.79475275247E+02 -0.30156008158E+02  0.89091822077E+02  0.00000000000E+00 0.  1.
         11    1    3    3    0    0  0.54788484668E+02  0.40516009011E+02 -0.99244940025E+01  0.68860878731E+02  0.00000000000E+00 0. -1.
         21    1    1    2  502  501 -0.10998412587E+02 -0.14571813320E+03  0.10213656118E+03  0.17828801573E+03  0.00000000000E+00 0. -1.
<scales pt_clust_5="13000.00000" pt_clust_6="13000.00000" pt_clust_7="13000.00000" pt_clust_8="13000.00000" pt_clust_9="129.66952"></scales>
<clustering>
<clus scale="   82.620">  5  6 -1 -1</clus>
<clus scale="   88.209">  1  5  2 -1</clus>
<clus scale="   90.302">  7  8 -1 -1</clus>
<clus scale="  129.670">  1  9  2 -1</clus>
<clus scale="   88.209">  1  5  2 -1</clus>
</clustering>
</event>
<event>
 9    1  0.2802611E-005  0.2631693E+03  0.7546771E-02  0.1149889E+00
         -2   -1    0    0    0  501 -0.00000000000E+00  0.00000000000E+00  0.32514895037E+03  0.32514895037E+03  0.00000000000E+00 0.  1.
          1   -1    0    0  502    0  0.00000000000E+00 -0.00000000000E+00 -0.31421574721E+03  0.31421574721E+03  0.00000000000E+00 0. -1.
         23    2    1    2    0    0 -0.10118410343E+02  0.22858992556E+03 -0.10581130942E+03  0.26970669890E+03  0.95864143116E+02 0.  0.
        -24    2    1    2    0    0 -0.35970776196E+02  0.19724229601E+02 -0.82572491322E+01  0.87860956117E+02  0.77255572441E+02 0.  0.
         13    1    4    4    0    0  0.15424189011E+02 -0.17931538670E+02 -0.41626377761E+01  0.24016103742E+02  0.00000000000E+00 0. -1.
        -14    1    4    4    0    0 -0.51394965206E+02  0.37655768271E+02 -0.40946113561E+01  0.63844852375E+02  0.00000000000E+00 0.  1.
        -11    1    3    3    0    0  0.36661053722E+01  0.17814468858E+03 -0.34851287952E+02  0.18155875817E+03  0.00000000000E+00 0.  1.
         11    1    3    3    0    0 -0.13784515715E+02  0.50445236982E+02 -0.70960021472E+02  0.88147940730E+02  0.00000000000E+00 0. -1.
         21    1    1    2  502  501  0.46089186539E+02 -0.24831415516E+03  0.12500176172E+03  0.28179704257E+03  0.00000000000E+00 0. -1.
<scales pt_clust_5="13000.00000" pt_clust_6="13000.00000" pt_clust_7="13000.00000" pt_clust_8="13000.00000" pt_clust_9="245.08803"></scales>
<clustering>
<clus scale="   77.256">  5  6 -1 -1</clus>
<clus scale="   87.472">  2  5  1 -1</clus>
<clus scale="   95.864">  7  8 -1 -1</clus>
<clus scale="  245.088">  1  9  2 -1</clus>
<clus scale="   87.472">  2  5  1 -1</clus>
</clustering>
</event>
<event>
 9    1  0.2802611E-005  0.1120249E+03  0.7546771E-02  0.1261680E+00
          1   -1    0    0  502    0  0.00000000000E+00  0.00000000000E+00  0.58428454485E+03  0.58428454485E+03  0.00000000000E+00 0. -1.
         -2   -1    0    0    0  501 -0.00000000000E+00 -0.00000000000E+00 -0.94074638088E+02  0.94074638088E+02  0.00000000000E+00 0.  1.
        -24    2    1    2    0    0 -0.75293234652E+02  0.82239900565E+02  0.49945673959E+02  0.14396292878E+03  0.76146451570E+02 0.  0.
         23    2    1    2    0    0  0.64909738599E+02 -0.42957873133E+01  0.44215755505E+03  0.45574076198E+03  0.89244667552E+02 0.  0.
         13    1    3    3    0    0 -0.25605264698E+02 -0.12107138938E+02  0.86557471699E+01  0.29616454085E+02  0.00000000000E+00 0. -1.
        -14    1    3    3    0    0 -0.49687969954E+02  0.94347039503E+02  0.41289926789E+02  0.11434647470E+03  0.00000000000E+00 0.  1.
        -13    1    4    4    0    0  0.71836270168E+01  0.37911823244E+02  0.17242349786E+03  0.17668835121E+03  0.00000000000E+00 0.  1.
         13    1    4    4    0    0  0.57726111583E+02 -0.42207610557E+02  0.26973405718E+03  0.27905241076E+03  0.00000000000E+00 0. -1.
         21    1    1    2  502  501  0.10383496052E+02 -0.77944113252E+02 -0.18933222460E+01  0.78655492180E+02  0.00000000000E+00 0. -1.
<scales pt_clust_5="13000.00000" pt_clust_6="13000.00000" pt_clust_7="13000.00000" pt_clust_8="13000.00000" pt_clust_9="78.63270"></scales>
<clustering>
<clus scale="   76.146">  5  6 -1 -1</clus>
<clus scale="   78.633">  2  9  1 -1</clus>
<clus scale="   89.245">  7  8 -1 -1</clus>
<clus scale="  101.898">  2  5  1 -1</clus>
<clus scale="  112.025">  1  5  2 -1</clus>
</clustering>
</event>
<event>
 9    1  0.2802611E-005  0.1333593E+03  0.7546771E-02  0.1224684E+00
          1   -1    0    0  502    0  0.00000000000E+00  0.00000000000E+00  0.66399523594E+03  0.66399523594E+03  0.00000000000E+00 0. -1.
         -2   -1    0    0    0  501 -0.00000000000E+00 -0.00000000000E+00 -0.52895936869E+02  0.52895936869E+02  0.00000000000E+00 0.  1.
         23    2    1    2    0    0  0.57139061660E+02 -0.86292528293E+02  0.10271295428E+03  0.17081962366E+03  0.88983818995E+02 0.  0.
        -24    2    1    2    0    0 -0.77070214088E+02  0.62537556378E+02  0.49691106816E+03  0.51300749765E+03  0.80033237664E+02 0.  0.
         13    1    4    4    0    0 -0.13991022835E+02  0.61979397469E+02  0.21927702459E+03  0.22829719215E+03  0.00000000000E+00 0. -1.
        -14    1    4    4    0    0 -0.63079191253E+02  0.55815890936E+00  0.27763404357E+03  0.28471030550E+03  0.00000000000E+00 0.  1.
        -13    1    3    3    0    0 -0.88949826720E+01 -0.24317505418E+02  0.69824654660E+02  0.74471096305E+02  0.00000000000E+00 0.  1.
         13    1    3    3    0    0  0.66034044332E+02 -0.61975022875E+02  0.32888299622E+02  0.96348527354E+02  0.00000000000E+00 0. -1.
         21    1    1    2  502  501  0.19931152427E+02  0.23754971915E+02  0.11475276629E+02  0.33064051498E+02  0.00000000000E+00 0.  1.
<scales pt_clust_5="13000.00000" pt_clust_6="13000.00000" pt_clust_7="13000.00000" pt_clust_8="13000.00000" pt_clust_9="31.00886"></scales>
<clustering>
<clus scale="   31.009">  2  9  1 -1</clus>
<clus scale="   80.033">  5  6 -1 -1</clus>
<clus scale="   88.984">  7  8 -1 -1</clus>
<clus scale="  127.561">  1  5  2 -1</clus>
<clus scale="  127.561">  1  5  2 -1</clus>
</clustering>
</event>
<event>
 9    1  0.2802611E-005  0.1956310E+03  0.7546771E-02  0.1154514E+00
          1   -1    0    0  502    0  0.00000000000E+00  0.00000000000E+00  0.74965749148E+03  0.74965749148E+03  0.00000000000E+00 0. -1.
         -2   -1    0    0    0  501 -0.00000000000E+00 -0.00000000000E+00 -0.19498873572E+03  0.19498873572E+03  0.00000000000E+00 0.  1.
        -24    2    1    2    0    0  0.11735712277E+03 -0.83281836746E+02 -0.63375689114E+01  0.16604266983E+03  0.82592038526E+02 0.  0.
         23    2    1    2    0    0 -0.12910762340E+03  0.12147145670E+03  0.65049727998E+03  0.68059767784E+03  0.92964480344E+02 0.  0.
         13    1    3    3    0    0  0.22807573115E+02  0.13499259978E+02 -0.15021117450E+02  0.30463902915E+02  0.00000000000E+00 0. -1.
        -14    1    3    3    0    0  0.94549549659E+02 -0.96781096724E+02  0.86835485389E+01  0.13557876692E+03  0.00000000000E+00 0.  1.
        -13    1    4    4    0    0 -0.75680940950E+02  0.62810124366E+02  0.50861374111E+03  0.51803537929E+03  0.00000000000E+00 0. -1.
         13    1    4    4    0    0 -0.53426682454E+02  0.58661332329E+02  0.14188353887E+03  0.16256229856E+03  0.00000000000E+00 0.  1.
         21    1    1    2  502  501  0.11750500630E+02 -0.38189619949E+02 -0.89490955315E+02  0.98005879518E+02  0.00000000000E+00 0.  1.
<scales pt_clust_5="13000.00000" pt_clust_6="13000.00000" pt_clust_7="13000.00000" pt_clust_8="13000.00000" pt_clust_9="39.95649"></scales>
<clustering>
<clus scale="   39.956">  2  9  1 -1</clus>
<clus scale="   82.592">  5  6 -1 -1</clus>
<clus scale="   92.964">  7  8 -1 -1</clus>
<clus scale="  190.920">  2  5  1 -1</clus>
<clus scale="  195.631">  1  5  2 -1</clus>
</clustering>
</event>
<event>
 9    1  0.2802611E-005  0.1256778E+03  0.7546771E-02  0.1237349E+00
          3   -1    0    0  502    0  0.00000000000E+00  0.00000000000E+00  0.23267756122E+03  0.23267756122E+03  0.00000000000E+00 0. -1.
         -4   -1    0    0    0  501 -0.00000000000E+00 -0.00000000000E+00 -0.53347137117E+03  0.53347137117E+03  0.00000000000E+00 0.  1.
         23    2    1    2    0    0 -0.48494296323E+02  0.23105102186E+02 -0.41248887090E+03  0.42606216036E+03  0.92175665737E+02 0.  0.
        -24    2    1    2    0    0  0.70172746077E+02 -0.50836432331E+02  0.20704400647E+03  0.23844818060E+03  0.80509360153E+02 0.  0.
         13    1    4    4    0    0  0.67564668718E+02 -0.59087174232E+02  0.21072523996E+03  0.22904454888E+03  0.00000000000E+00 0. -1.
        -14    1    4    4    0    0  0.26080773598E+01  0.82507419013E+01 -0.36812334900E+01  0.94036317157E+01  0.00000000000E+00 0.  1.
        -11    1    3    3    0    0  0.27775931455E+02  0.66779806594E+01 -0.10259011525E+03  0.10649333097E+03  0.00000000000E+00 0.  1.
         11    1    3    3    0    0 -0.76270227778E+02  0.16427121527E+02 -0.30989875564E+03  0.31956882939E+03  0.00000000000E+00 0. -1.
         21    1    1    2  502  501 -0.21678449754E+02  0.27731330145E+02 -0.95348945525E+02  0.10163859143E+03  0.00000000000E+00 0. -1.
<scales pt_clust_5="13000.00000" pt_clust_6="13000.00000" pt_clust_7="13000.00000" pt_clust_8="13000.00000" pt_clust_9="35.19917"></scales>
<clustering>
<clus scale="   35.199">  2  9  1 -1</clus>
<clus scale="   80.509">  5  6 -1 -1</clus>
<clus scale="   92.176">  7  8 -1 -1</clus>
<clus scale="  117.390">  1  5  2 -1</clus>
<clus scale="  117.390">  1  5  2 -1</clus>
</clustering>
</event>
<event>
 9    1  0.2802611E-005  0.9178829E+02  0.7546771E-02  0.1303835E+00
          1   -1    0    0  502    0  0.00000000000E+00  0.00000000000E+00  0.14728712277E+03  0.14728712277E+03  0.00000000000E+00 0. -1.
         -2   -1    0    0    0  501 -0.00000000000E+00 -0.00000000000E+00 -0.10573470166E+03  0.10573470166E+03  0.00000000000E+00 0.  1.
        -24    2    1    2    0    0 -0.16090450916E+02 -0.17022044430E+01 -0.30300146162E+02  0.89880685393E+02  0.83058043792E+02 0.  0.
         23    2    1    2    0    0 -0.43073564566E+01  0.81787733333E+01  0.94559672126E+02  0.13193810871E+03  0.91546093777E+02 0.  0.
         13    1    3    3    0    0 -0.35210270506E+02 -0.32040242597E+02 -0.99026766151E+01  0.48625130323E+02  0.00000000000E+00 0. -1.
        -14    1    3    3    0    0  0.19119819591E+02  0.30338038154E+02 -0.20397469547E+02  0.41255555070E+02  0.00000000000E+00 0.  1.
        -11    1    4    4    0    0 -0.22931299388E+02  0.24223026511E+02  0.10113367539E+03  0.10649234621E+03  0.00000000000E+00 0. -1.
         11    1    4    4    0    0  0.18623942931E+02 -0.16044253178E+02 -0.65740032609E+01  0.25445762500E+02  0.00000000000E+00 0.  1.
         21    1    1    2  502  501  0.20397807372E+02 -0.64765688903E+01 -0.22707104854E+02  0.31203030318E+02  0.00000000000E+00 0.  1.
<scales pt_clust_5="13000.00000" pt_clust_6="13000.00000" pt_clust_7="13000.00000" pt_clust_8="13000.00000" pt_clust_9="21.40132"></scales>
<clustering>
<clus scale="   21.401">  2  9  1 -1</clus>
<clus scale="   83.058">  5  6 -1 -1</clus>
<clus scale="   83.325">  2  5  1 -1</clus>
<clus scale="   91.546">  7  8 -1 -1</clus>
<clus scale="   91.788">  1  5  2 -1</clus>
</clustering>
</event>
<event>
 9    1  0.2802611E-005  0.1444012E+03  0.7546771E-02  0.1207810E+00
         -2   -1    0    0    0  501 -0.00000000000E+00  0.00000000000E+00  0.18311466410E+03  0.18311466410E+03  0.00000000000E+00 0.  1.
          1   -1    0    0  502    0  0.00000000000E+00 -0.00000000000E+00 -0.22110795262E+03  0.22110795262E+03  0.00000000000E+00 0. -1.
         23    2    1    2    0    0  0.89082230482E+02  0.88793578990E+02  0.32757147156E+02  0.15844614379E+03  0.90621224531E+02 0.  0.
        -24    2    1    2    0    0 -0.68197303333E+02 -0.83996053210E+02 -0.12474206879E+03  0.18768780896E+03  0.89218388063E+02 0.  0.
         13    1    4    4    0    0 -0.59033243499E+02 -0.41067430585E+01 -0.44069783825E+02  0.73783026659E+02  0.00000000000E+00 0. -1.
        -14    1    4    4    0    0 -0.91640598340E+01 -0.79889310151E+02 -0.80672284963E+02  0.11390478230E+03  0.00000000000E+00 0.  1.
        -13    1    3    3    0    0  0.54810741983E+01  0.47846067340E+02 -0.19191012623E+02  0.51841906791E+02  0.00000000000E+00 0. -1.
         13    1    3    3    0    0  0.83601156283E+02  0.40947511650E+02  0.51948159779E+02  0.10660423700E+03  0.00000000000E+00 0.  1.
         21    1    1    2  502  501 -0.20884927149E+02 -0.47975257797E+01  0.53991633113E+02  0.58088663970E+02  0.00000000000E+00 0.  1.
<scales pt_clust_5="13000.00000" pt_clust_6="13000.00000" pt_clust_7="13000.00000" pt_clust_8="13000.00000" pt_clust_9="21.42887"></scales>
<clustering>
<clus scale="   21.429">  1  9  2 -1</clus>
<clus scale="   89.218">  5  6 -1 -1</clus>
<clus scale="   90.621">  7  8 -1 -1</clus>
<clus scale="  143.525">  2  5  1 -1</clus>
<clus scale="  143.525">  2  5  1 -1</clus>
</clustering>
</event>
<event>
 9    1  0.2802611E-005  0.1010749E+03  0.7546771E-02  0.1280311E+00
         -2   -1    0    0    0  501 -0.00000000000E+00  0.00000000000E+00  0.40653165729E+03  0.40653165729E+03  0.00000000000E+00 0.  1.
          1   -1    0    0  502    0  0.00000000000E+00 -0.00000000000E+00 -0.31722562662E+02  0.31722562662E+02  0.00000000000E+00 0. -1.
        -24    2    1    2    0    0 -0.32356416116E+02  0.53052033169E+02  0.23320368311E+03  0.25433264418E+03  0.80247617989E+02 0.  0.
         23    2    1    2    0    0  0.27496261631E+02 -0.31164152828E+02  0.11299394967E+03  0.14757166302E+03  0.85337648440E+02 0.  0.
         11    1    3    3    0    0 -0.15805129957E+02  0.30063342097E+02  0.20333762797E+02  0.39586217051E+02  0.00000000000E+00 0. -1.
        -12    1    3    3    0    0 -0.16551286159E+02  0.22988691072E+02  0.21286992031E+03  0.21474642713E+03  0.00000000000E+00 0.  1.
        -11    1    4    4    0    0 -0.28478225790E+02 -0.28914746462E+01  0.18227032523E+02  0.33935154108E+02  0.00000000000E+00 0.  1.
         11    1    4    4    0    0  0.55974487421E+02 -0.28272678182E+02  0.94766917143E+02  0.11363650891E+03  0.00000000000E+00 0. -1.
         21    1    1    2  502  501  0.48601544847E+01 -0.21887880341E+02  0.28611461850E+02  0.36349912745E+02  0.00000000000E+00 0. -1.
<scales pt_clust_5="13000.00000" pt_clust_6="13000.00000" pt_clust_7="13000.00000" pt_clust_8="13000.00000" pt_clust_9="22.42098"></scales>
<clustering>
<clus scale="   22.421">  2  9  1 -1</clus>
<clus scale="   80.248">  5  6 -1 -1</clus>
<clus scale="   85.338">  7  8 -1 -1</clus>
<clus scale="   96.816">  1  5  2 -1</clus>
<clus scale="   22.421">  2  5  1 -1</clus>
</clustering>
</event>
<event>
 9    1  0.2802611E-005  0.1428820E+03  0.7546771E-02  0.1213787E+00
          1   -1    0    0  502    0  0.00000000000E+00  0.00000000000E+00  0.19282506529E+03  0.19282506529E+03  0.00000000000E+00 0. -1.
         -2   -1    0    0    0  501 -0.00000000000E+00 -0.00000000000E+00 -0.19163830050E+03  0.19163830050E+03  0.00000000000E+00 0.  1.
        -24    2    1    2    0    0  0.47665150862E+02 -0.12511295576E+03 -0.66122733074E+02  0.18241716539E+03  0.10477875784E+03 0.  0.
         23    2    1    2    0    0 -0.38733245827E+02  0.78740431097E+02  0.86730820377E+02  0.15098371182E+03  0.87026008811E+02 0.  0.
         13    1    3    3    0    0  0.51391854157E+02 -0.94237471805E+02 -0.92454460745E+02  0.14166739596E+03  0.00000000000E+00 0. -1.
        -14    1    3    3    0    0 -0.37267032952E+01 -0.30875483957E+02  0.26331727671E+02  0.40749769437E+02  0.00000000000E+00 0.  1.
        -11    1    4    4    0    0 -0.63160549099E+02  0.34611002115E+02  0.40857325877E+02  0.82803970362E+02  0.00000000000E+00 0.  1.
         11    1    4    4    0    0  0.24427303272E+02  0.44129428982E+02  0.45873494500E+02  0.68179741456E+02  0.00000000000E+00 0. -1.
         21    1    1    2  502  501 -0.89319050347E+01  0.46372524664E+02 -0.19421322508E+02  0.51062488573E+02  0.00000000000E+00 0.  1.
<scales pt_clust_5="13000.00000" pt_clust_6="13000.00000" pt_clust_7="13000.00000" pt_clust_8="13000.00000" pt_clust_9="47.22489"></scales>
<clustering>
<clus scale="   47.225">  2  9  1 -1</clus>
<clus scale="   87.026">  7  8 -1 -1</clus>
<clus scale="  104.779">  5  6 -1 -1</clus>
<clus scale="  130.423">  1  7  2 -1</clus>
<clus scale="  130.423">  1  5  2 -1</clus>
</clustering>
</event>
<event>
 9    1  0.2802611E-005  0.8844986E+02  0.7546771E-02  0.1310180E+00
          1   -1    0    0  502    0  0.00000000000E+00  0.00000000000E+00  0.56964996595E+03  0.56964996595E+03  0.00000000000E+00 0. -1.
         -2   -1    0    0    0  501 -0.00000000000E+00 -0.00000000000E+00 -0.29496629805E+02  0.29496629805E+02  0.00000000000E+00 0.  1.
        -24    2    1    2    0    0  0.25146953592E+02 -0.36035479276E+02  0.13637398884E+03  0.16409989207E+03  0.79999904401E+02 0.  0.
         23    2    1    2    0    0  0.35362911076E+02  0.66978573154E+01  0.26515064340E+03  0.28096861527E+03  0.85691903327E+02 0.  0.
         11    1    3    3    0    0  0.20363979589E+02 -0.60383168197E+02  0.11442163983E+03  0.13096995964E+03  0.00000000000E+00 0. -1.
        -12    1    3    3    0    0  0.47829740034E+01  0.24347688921E+02  0.21952349016E+02  0.33129932439E+02  0.00000000000E+00 0.  1.
        -13    1    4    4    0    0 -0.26165830408E+02  0.75054537495E+01  0.47084457477E+02  0.54386842644E+02  0.00000000000E+00 0.  1.
         13    1    4    4    0    0  0.61528741484E+02 -0.80759643409E+00  0.21806618592E+03  0.22658177262E+03  0.00000000000E+00 0. -1.
         21    1    1    2  502  501 -0.60509864668E+02  0.29337621961E+02  0.13862870390E+03  0.15407808841E+03  0.00000000000E+00 0.  1.
<scales pt_clust_5="13000.00000" pt_clust_6="13000.00000" pt_clust_7="13000.00000" pt_clust_8="13000.00000" pt_clust_9="67.24686"></scales>
<clustering>
<clus scale="   67.247">  2  9  1 -1</clus>
<clus scale="   80.000">  5  6 -1 -1</clus>
<clus scale="   82.947">  2  5  1 -1</clus>
<clus scale="   85.692">  7  8 -1 -1</clus>
<clus scale="   88.450">  1  5  2 -1</clus>
</clustering>
</event>
<event>
 9    1  0.2802611E-005  0.1658704E+03  0.7546771E-02  0.1183504E+00
         -2   -1    0    0    0  501 -0.00000000000E+00  0.00000000000E+00  0.40532974670E+03  0.40532974670E+03  0.00000000000E+00 0.  1.
          1   -1    0    0  502    0  0.00000000000E+00 -0.00000000000E+00 -0.93784788552E+02  0.93784788552E+02  0.00000000000E+00 0. -1.
         23    2    1    2    0    0  0.98597632180E+02 -0.76295688282E+02  0.14755101936E+03  0.21258907031E+03  0.88770965862E+02 0.  0.
        -24    2    1    2    0    0 -0.11102209360E+03  0.11351334101E+03  0.17110142938E+03  0.24665019267E+03  0.79683339256E+02 0.  0.
         11    1    4    4    0    0 -0.78237767938E+02  0.30232965651E+02  0.56025466361E+02  0.10086641376E+03  0.00000000000E+00 0. -1.
        -12    1    4    4    0    0 -0.32784325661E+02  0.83280375360E+02  0.11507596302E+03  0.14578377891E+03  0.00000000000E+00 0.  1.
        -11    1    3    3    0    0  0.63498094700E+02 -0.54394742024E+02  0.14936828841E+03  0.17117733954E+03  0.00000000000E+00 0.  1.
         11    1    3    3    0    0  0.35099537480E+02 -0.21900946259E+02 -0.18172690530E+01  0.41411730768E+02  0.00000000000E+00 0. -1.
         21    1    1    2  502  501  0.12424461419E+02 -0.37217652729E+02 -0.71074905877E+01  0.39875272270E+02  0.00000000000E+00 0.  1.
<scales pt_clust_5="13000.00000" pt_clust_6="13000.00000" pt_clust_7="13000.00000" pt_clust_8="13000.00000" pt_clust_9="39.23673"></scales>
<clustering>
<clus scale="   39.237">  2  9  1 -1</clus>
<clus scale="   79.683">  5  6 -1 -1</clus>
<clus scale="   88.771">  7  8 -1 -1</clus>
<clus scale="  161.190">  2  5  1 -1</clus>
<clus scale="   39.237">  2  5  1 -1</clus>
</clustering>
</event>
<event>
 9    1  0.2802611E-005  0.1029033E+03  0.7546771E-02  0.1279716E+00
         -2   -1    0    0    0  501 -0.00000000000E+00  0.00000000000E+00  0.15429472930E+02  0.15429472930E+02  0.00000000000E+00 0.  1.
          1   -1    0    0  502    0  0.00000000000E+00 -0.00000000000E+00 -0.11951059360E+04  0.11951059360E+04  0.00000000000E+00 0. -1.
         23    2    1    2    0    0 -0.27092301242E+02 -0.11165192012E+02 -0.26314005678E+03  0.28021564103E+03  0.91757624738E+02 0.  0.
        -24    2    1    2    0    0  0.48462197085E+02 -0.28750263388E+02 -0.78727401835E+03  0.79335743379E+03  0.80252573746E+02 0.  0.
         11    1    4    4    0    0  0.35136328594E+02 -0.39617401773E+02 -0.23823456651E+03  0.24404878363E+03  0.00000000000E+00 0. -1.
        -12    1    4    4    0    0  0.13325868491E+02  0.10867138385E+02 -0.54903945184E+03  0.54930865016E+03  0.00000000000E+00 0.  1.
        -11    1    3    3    0    0 -0.39371463627E+02  0.30818609754E+02 -0.17203736624E+03  0.17915567041E+03  0.00000000000E+00 0.  1.
         11    1    3    3    0    0  0.12279162384E+02 -0.41983801766E+02 -0.91102690538E+02  0.10105997063E+03  0.00000000000E+00 0. -1.
         21    1    1    2  502  501 -0.21369895843E+02  0.39915455400E+02 -0.12926238795E+03  0.13696233412E+03  0.00000000000E+00 0.  1.
<scales pt_clust_5="13000.00000" pt_clust_6="13000.00000" pt_clust_7="13000.00000" pt_clust_8="13000.00000" pt_clust_9="45.27600"></scales>
<clustering>
<clus scale="   45.276">  1  9  2 -1</clus>
<clus scale="   80.253">  5  6 -1 -1</clus>
<clus scale="   91.758">  7  8 -1 -1</clus>
<clus scale="   92.791">  2  5  1 -1</clus>
<clus scale="   92.791">  2  5  1 -1</clus>
</clustering>
</event>
<event>
 9    1  0.2802611E-005  0.2116927E+03  0.7546771E-02  0.1166865E+00
          1   -1    0    0  502    0  0.00000000000E+00  0.00000000000E+00  0.60098125182E+03  0.60098125182E+03  0.00000000000E+00 0. -1.
         -2   -1    0    0    0  501 -0.00000000000E+00 -0.00000000000E+00 -0.20652602133E+03  0.20652602133E+03  0.00000000000E+00 0.  1.
         23    2    1    2    0    0 -0.17086708554E+03 -0.49075151413E+02  0.26587295196E+03  0.33227556263E+03  0.90081582615E+02 0.  0.
        -24    2    1    2    0    0 -0.24217469990E+02  0.76749775446E+02  0.22802764569E+03  0.25452092765E+03  0.79418395421E+02 0.  0.
         11    1    4    4    0    0 -0.23480744191E+02  0.80657446008E+02  0.23327336213E+03  0.24793836013E+03  0.00000000000E+00 0. -1.
        -12    1    4    4    0    0 -0.73672579914E+00 -0.39076705617E+01 -0.52457164456E+01  0.65825675196E+01  0.00000000000E+00 0.  1.
        -13    1    3    3    0    0 -0.15142996368E+03 -0.34522860201E+02  0.26596546858E+03  0.30799430556E+03  0.00000000000E+00 0.  1.
         13    1    3    3    0    0 -0.19437121861E+02 -0.14552291211E+02 -0.92516617331E-01  0.24281257073E+02  0.00000000000E+00 0. -1.
         21    1    1    2  502  501  0.19508455553E+03 -0.27674624033E+02 -0.99445367162E+02  0.22071078286E+03  0.00000000000E+00 0.  1.
<scales pt_clust_5="13000.00000" pt_clust_6="13000.00000" pt_clust_7="13000.00000" pt_clust_8="13000.00000" pt_clust_9="191.57015"></scales>
<clustering>
<clus scale="   79.418">  5  6 -1 -1</clus>
<clus scale="   90.082">  7  8 -1 -1</clus>
<clus scale="  113.068">  1  5  2 -1</clus>
<clus scale="  191.570">  2  9  1 -1</clus>
<clus scale="  113.068">  1  5  2 -1</clus>
</clustering>
</event>
<event>
 9    1  0.2802611E-005  0.1192350E+03  0.7546771E-02  0.1247614E+00
          1   -1    0    0  502    0  0.00000000000E+00  0.00000000000E+00  0.19256714367E+03  0.19256714367E+03  0.00000000000E+00 0. -1.
         -2   -1    0    0    0  501 -0.00000000000E+00 -0.00000000000E+00 -0.11850376126E+03  0.11850376126E+03  0.00000000000E+00 0.  1.
        -24    2    1    2    0    0  0.30883395793E+02  0.66132094073E+02  0.15158298226E+02  0.11179168733E+03  0.83308879174E+02 0.  0.
         23    2    1    2    0    0 -0.12581607386E+02 -0.75197136498E+02  0.97955159099E+02  0.15521064825E+03  0.93178462934E+02 0.  0.
         13    1    3    3    0    0  0.38839518780E+00  0.73079826570E+02  0.27617260806E+02  0.78125059979E+02  0.00000000000E+00 0. -1.
        -14    1    3    3    0    0  0.30495000605E+02 -0.69477324964E+01 -0.12458962581E+02  0.33666627353E+02  0.00000000000E+00 0.  1.
        -11    1    4    4    0    0 -0.45662449276E+02 -0.63984131292E+02  0.41671738399E+02  0.88969444824E+02  0.00000000000E+00 0. -1.
         11    1    4    4    0    0  0.33080841890E+02 -0.11213005205E+02  0.56283420700E+02  0.66241203427E+02  0.00000000000E+00 0.  1.
         21    1    1    2  502  501 -0.18301788408E+02  0.90650424242E+01 -0.39050074912E+02  0.44068569340E+02  0.00000000000E+00 0. -1.
<scales pt_clust_5="13000.00000" pt_clust_6="13000.00000" pt_clust_7="13000.00000" pt_clust_8="13000.00000" pt_clust_9="20.42377"></scales>
<clustering>
<clus scale="   20.424">  2  9  1 -1</clus>
<clus scale="   83.309">  5  6 -1 -1</clus>
<clus scale="   93.178">  7  8 -1 -1</clus>
<clus scale="  111.692">  2  5  1 -1</clus>
<clus scale="  119.235">  1  5  2 -1</clus>
</clustering>
</event>
<event>
 9    1  0.2802611E-005  0.1290279E+03  0.7546771E-02  0.1232180E+00
         -2   -1    0    0    0  501 -0.00000000000E+00  0.00000000000E+00  0.17266223885E+03  0.17266223885E+03  0.00000000000E+00 0.  1.
          1   -1    0    0  502    0  0.00000000000E+00 -0.00000000000E+00 -0.24914388097E+03  0.24914388097E+03  0.00000000000E+00 0. -1.
        -24    2    1    2    0    0  0.53937598044E+02 -0.51256459096E+02  0.63941190533E+02  0.12575257644E+03  0.78668580467E+02 0.  0.
         23    2    1    2    0    0 -0.91827495076E+02  0.29832309723E+02 -0.18892463146E+03  0.23088404929E+03  0.91064110870E+02 0.  0.
         11    1    3    3    0    0  0.24679571097E+02 -0.66892091601E+02  0.58304034629E+02  0.92103168253E+02  0.00000000000E+00 0. -1.
        -12    1    3    3    0    0  0.29258026946E+02  0.15635632505E+02  0.56371559049E+01  0.33649408187E+02  0.00000000000E+00 0.  1.
        -11    1    4    4    0    0 -0.78060254733E+02  0.48618288192E+02 -0.18589354648E+03  0.20739708759E+03  0.00000000000E+00 0. -1.
         11    1    4    4    0    0 -0.13767240343E+02 -0.18785978468E+02 -0.30310849716E+01  0.23486961697E+02  0.00000000000E+00 0.  1.
         21    1    1    2  502  501  0.37889897032E+02  0.21424149373E+02  0.48501798799E+02  0.65169494092E+02  0.00000000000E+00 0.  1.
<scales pt_clust_5="13000.00000" pt_clust_6="13000.00000" pt_clust_7="13000.00000" pt_clust_8="13000.00000" pt_clust_9="43.52745"></scales>
<clustering>
<clus scale="   43.527">  1  9  2 -1</clus>
<clus scale="   78.669">  5  6 -1 -1</clus>
<clus scale="   91.064">  7  8 -1 -1</clus>
<clus scale="  120.600">  1  5  2 -1</clus>
<clus scale="  129.028">  2  5  1 -1</clus>
</clustering>
</event>
<event>
 9    1  0.2802611E-005  0.3502377E+03  0.7546771E-02  0.1062792E+00
          1   -1    0    0  502    0  0.00000000000E+00  0.00000000000E+00  0.34317676813E+03  0.34317676813E+03  0.00000000000E+00 0. -1.
         -2   -1    0    0    0  501 -0.00000000000E+00 -0.00000000000E+00 -0.56751095551E+03  0.56751095551E+03  0.00000000000E+00 0.  1.
        -24    2    1    2    0    0 -0.37439959819E+03 -0.11180076862E+03 -0.73169683499E+02  0.40566379102E+03  0.80838343459E+02 0.  0.
         23    2    1    2    0    0  0.29623196206E+03  0.71166828312E+02  0.13329474492E+02  0.31842391826E+03  0.91640733474E+02 0.  0.
         13    1    3    3    0    0 -0.33916778239E+03 -0.73774830060E+02 -0.66261369731E+02  0.35336677727E+03  0.00000000000E+00 0. -1.
        -14    1    3    3    0    0 -0.35231815798E+02 -0.38025938557E+02 -0.69083137671E+01  0.52297013746E+02  0.00000000000E+00 0.  1.
        -11    1    4    4    0    0  0.19559568651E+03  0.48853445421E+02  0.52209329527E+02  0.20825500187E+03  0.00000000000E+00 0. -1.
         11    1    4    4    0    0  0.10063627555E+03  0.22313382892E+02 -0.38879855035E+02  0.11016891639E+03  0.00000000000E+00 0.  1.
         21    1    1    2  502  501  0.78167636126E+02  0.40633940305E+02 -0.16449397837E+03  0.18660001437E+03  0.00000000000E+00 0. -1.
<scales pt_clust_5="13000.00000" pt_clust_6="13000.00000" pt_clust_7="13000.00000" pt_clust_8="13000.00000" pt_clust_9="88.09822"></scales>
<clustering>
<clus scale="   80.838">  5  6 -1 -1</clus>
<clus scale="   88.098">  2  9  1 -1</clus>
<clus scale="   91.641">  7  8 -1 -1</clus>
<clus scale="  347.568">  2  5  1 -1</clus>
<clus scale="  350.238">  1  5  2 -1</clus>
</clustering>
</event>
<event>
 9    1  0.2802611E-005  0.1031007E+03  0.7546771E-02  0.1279993E+00
          1   -1    0    0  502    0  0.00000000000E+00  0.00000000000E+00  0.24945396255E+03  0.24945396255E+03  0.00000000000E+00 0. -1.
         -2   -1    0    0    0  501 -0.00000000000E+00 -0.00000000000E+00 -0.15310240388E+03  0.15310240388E+03  0.00000000000E+00 0.  1.
        -24    2    1    2    0    0 -0.10874468477E+03  0.59256438661E+01 -0.39446708663E+02  0.13950286007E+03  0.77746288798E+02 0.  0.
         23    2    1    2    0    0  0.36465226976E+02 -0.16392785460E+02  0.15811797350E+03  0.18668564430E+03  0.90839419041E+02 0.  0.
         13    1    3    3    0    0 -0.26724224737E+02 -0.31514622495E+02 -0.58943523447E+00  0.41324363912E+02  0.00000000000E+00 0. -1.
        -14    1    3    3    0    0 -0.82020460030E+02  0.37440266361E+02 -0.38857273428E+02  0.98178496154E+02  0.00000000000E+00 0.  1.
        -11    1    4    4    0    0  0.67057761132E+02 -0.11128608762E+02  0.10249871964E+03  0.12299014915E+03  0.00000000000E+00 0. -1.
         11    1    4    4    0    0 -0.30592534156E+02 -0.52641766980E+01  0.55619253865E+02  0.63695495154E+02  0.00000000000E+00 0.  1.
         21    1    1    2  502  501  0.72279457791E+02  0.10467141594E+02 -0.22319706168E+02  0.76367862057E+02  0.00000000000E+00 0. -1.
<scales pt_clust_5="13000.00000" pt_clust_6="13000.00000" pt_clust_7="13000.00000" pt_clust_8="13000.00000" pt_clust_9="73.03342"></scales>
<clustering>
<clus scale="   73.033">  2  9  1 -1</clus>
<clus scale="   77.746">  5  6 -1 -1</clus>
<clus scale="   90.839">  7  8 -1 -1</clus>
<clus scale="   91.774">  2  5  1 -1</clus>
<clus scale="  103.101">  1  5  2 -1</clus>
</clustering>
</event>
<event>
 9    1  0.2802611E-005  0.1067954E+03  0.7546771E-02  0.1269852E+00
          3   -1    0    0  502    0  0.00000000000E+00  0.00000000000E+00  0.33559411654E+03  0.33559411654E+03  0.00000000000E+00 0. -1.
         -4   -1    0    0    0  501 -0.00000000000E+00 -0.00000000000E+00 -0.29251112256E+03  0.29251112256E+03  0.00000000000E+00 0.  1.
         23    2    1    2    0    0 -0.34669140445E+02  0.93563128920E+01 -0.44577092504E+02  0.10688742753E+03  0.90268018137E+02 0.  0.
        -24    2    1    2    0    0  0.39470721705E+02  0.47657875351E+02  0.29165584625E+03  0.30935006309E+03  0.82493138658E+02 0.  0.
         11    1    4    4    0    0  0.40471476002E+02  0.69524239529E+02  0.24370745652E+03  0.25664154889E+03  0.00000000000E+00 0. -1.
        -12    1    4    4    0    0 -0.10007542973E+01 -0.21866364177E+02  0.47948389728E+02  0.52708514198E+02  0.00000000000E+00 0.  1.
        -11    1    3    3    0    0  0.30632359427E+02 -0.24331530973E+01 -0.12338898771E+02  0.33113593900E+02  0.00000000000E+00 0.  1.
         11    1    3    3    0    0 -0.65301499872E+02  0.11789465989E+02 -0.32238193733E+02  0.73773833634E+02  0.00000000000E+00 0. -1.
         21    1    1    2  502  501 -0.48015812598E+01 -0.57014188243E+02 -0.20399575976E+03  0.21186774848E+03  0.00000000000E+00 0.  1.
<scales pt_clust_5="13000.00000" pt_clust_6="13000.00000" pt_clust_7="13000.00000" pt_clust_8="13000.00000" pt_clust_9="57.21602"></scales>
<clustering>
<clus scale="   57.216">  2  9  1 -1</clus>
<clus scale="   82.493">  5  6 -1 -1</clus>
<clus scale="   90.268">  7  8 -1 -1</clus>
<clus scale="  100.310">  1  5  2 -1</clus>
<clus scale="  100.310">  1  5  2 -1</clus>
</clustering>
</event>
<event>
 9    1  0.2802611E-005  0.1147867E+03  0.7546771E-02  0.1255183E+00
          1   -1    0    0  502    0  0.00000000000E+00  0.00000000000E+00  0.17274712092E+03  0.17274712092E+03  0.00000000000E+00 0. -1.
         -2   -1    0    0    0  501 -0.00000000000E+00 -0.00000000000E+00 -0.21763534879E+03  0.21763534879E+03  0.00000000000E+00 0.  1.
        -24    2    1    2    0    0  0.66480940409E+02  0.43918500566E+02 -0.13043518966E+03  0.17252098263E+03  0.80010003227E+02 0.  0.
         23    2    1    2    0    0 -0.52662814087E+02  0.31344610970E+02  0.90489629977E+02  0.14118093842E+03  0.89374647503E+02 0.  0.
         11    1    3    3    0    0  0.26362381655E+02  0.33593208963E+02 -0.82337064452E+01  0.43488766098E+02  0.00000000000E+00 0. -1.
        -12    1    3    3    0    0  0.40118558754E+02  0.10325291603E+02 -0.12220148322E+03  0.12903221653E+03  0.00000000000E+00 0.  1.
        -11    1    4    4    0    0 -0.74818991740E+02  0.84930800597E+01  0.72939389522E+02  0.10483400440E+03  0.00000000000E+00 0. -1.
         11    1    4    4    0    0  0.22156177653E+02  0.22851530911E+02  0.17550240455E+02  0.36346934027E+02  0.00000000000E+00 0.  1.
         21    1    1    2  502  501 -0.13818126322E+02 -0.75263111536E+02 -0.49426681872E+01  0.76680548654E+02  0.00000000000E+00 0.  1.
<scales pt_clust_5="13000.00000" pt_clust_6="13000.00000" pt_clust_7="13000.00000" pt_clust_8="13000.00000" pt_clust_9="76.52109"></scales>
<clustering>
<clus scale="   76.521">  1  9  2 -1</clus>
<clus scale="   80.010">  5  6 -1 -1</clus>
<clus scale="   89.375">  7  8 -1 -1</clus>
<clus scale="  107.656">  2  5  1 -1</clus>
<clus scale="   76.521">  1  5  2 -1</clus>
</clustering>
</event>
<event>
 9    1  0.2802611E-005  0.8954348E+02  0.7546771E-02  0.1306443E+00
         -2   -1    0    0    0  501 -0.00000000000E+00  0.00000000000E+00  0.14388005342E+03  0.14388005342E+03  0.00000000000E+00 0.  1.
          1   -1    0    0  502    0  0.00000000000E+00 -0.00000000000E+00 -0.17228316807E+03  0.17228316807E+03  0.00000000000E+00 0. -1.
        -24    2    1    2    0    0  0.43782238811E+02  0.36502716161E+02  0.12693295347E+02  0.99664193972E+02  0.80761990384E+02 0.  0.
         23    2    1    2    0    0  0.30372415967E+02  0.61998087903E+01 -0.79044571735E+02  0.12289090052E+03  0.88843727005E+02 0.  0.
         11    1    3    3    0    0 -0.15540219326E+02  0.22348652979E+02  0.25553369384E+02  0.37335444199E+02  0.00000000000E+00 0. -1.
        -12    1    3    3    0    0  0.59322458137E+02  0.14154063182E+02 -0.12860074037E+02  0.62328749772E+02  0.00000000000E+00 0.  1.
        -11    1    4    4    0    0 -0.15336408372E+02  0.16503402749E+02 -0.72081919699E+02  0.75520665196E+02  0.00000000000E+00 0.  1.
         11    1    4    4    0    0  0.45708824339E+02 -0.10303593958E+02 -0.69626520354E+01  0.47370235320E+02  0.00000000000E+00 0. -1.
         21    1    1    2  502  501 -0.74154654778E+02 -0.42702524951E+02  0.37948161731E+02  0.93608127004E+02  0.00000000000E+00 0. -1.
<scales pt_clust_5="13000.00000" pt_clust_6="13000.00000" pt_clust_7="13000.00000" pt_clust_8="13000.00000" pt_clust_9="85.57113"></scales>
<clustering>
<clus scale="   80.762">  5  6 -1 -1</clus>
<clus scale="   85.571">  1  9  2 -1</clus>
<clus scale="   85.571">  1  5  2 -1</clus>
<clus scale="   88.844">  7  8 -1 -1</clus>
<clus scale="   89.543">  2  5  1 -1</clus>
</clustering>
</event>
<event>
 9    1  0.2802611E-005  0.1240785E+03  0.7546771E-02  0.1240263E+00
          3   -1    0    0  502    0  0.00000000000E+00  0.00000000000E+00  0.76235419063E+02  0.76235419063E+02  0.00000000000E+00 0. -1.
         -4   -1    0    0    0  501 -0.00000000000E+00 -0.00000000000E+00 -0.61996443742E+03  0.61996443742E+03  0.00000000000E+00 0.  1.
        -24    2    1    2    0    0 -0.80163637305E+02 -0.37079232308E+01 -0.50906663575E+03  0.52169368551E+03  0.81089484078E+02 0.  0.
         23    2    1    2    0    0  0.94489465467E+02 -0.23886400718E+02 -0.11224271369E+02  0.13557005502E+03  0.93565144835E+02 0.  0.
         11    1    3    3    0    0 -0.14590728936E+02  0.34913415976E+02 -0.15691732085E+03  0.16141524577E+03  0.00000000000E+00 0. -1.
        -12    1    3    3    0    0 -0.65572908369E+02 -0.38621339207E+02 -0.35214931490E+03  0.36027843974E+03  0.00000000000E+00 0.  1.
        -11    1    4    4    0    0  0.85565957006E+02 -0.55608566862E+02 -0.10754025006E+02  0.10261332643E+03  0.00000000000E+00 0.  1.
         11    1    4    4    0    0  0.89235084606E+01  0.31722166144E+02 -0.47024636262E+00  0.32956728596E+02  0.00000000000E+00 0. -1.
         21    1    1    2  502  501 -0.14325828162E+02  0.27594323949E+02 -0.23438111239E+02  0.38936115949E+02  0.00000000000E+00 0. -1.
<scales pt_clust_5="13000.00000" pt_clust_6="13000.00000" pt_clust_7="13000.00000" pt_clust_8="13000.00000" pt_clust_9="31.09141"></scales>
<clustering>
<clus scale="   31.091">  1  9  2 -1</clus>
<clus scale="   81.089">  5  6 -1 -1</clus>
<clus scale="   93.565">  7  8 -1 -1</clus>
<clus scale="  114.963">  2  5  1 -1</clus>
<clus scale="   31.091">  1  5  2 -1</clus>
</clustering>
</event>
<event>
 9    1  0.2802611E-005  0.1444375E+03  0.7546771E-02  0.1209516E+00
          1   -1    0    0  502    0  0.00000000000E+00  0.00000000000E+00  0.39644257917E+03  0.39644257917E+03  0.00000000000E+00 0. -1.
         -2   -1    0    0    0  501 -0.00000000000E+00 -0.00000000000E+00 -0.24576529329E+03  0.24576529329E+03  0.00000000000E+00 0.  1.
        -24    2    1    2    0    0 -0.43496376712E+02 -0.76633896513E+02  0.54360157274E+02  0.13185062970E+03  0.81638673255E+02 0.  0.
         23    2    1    2    0    0  0.71675737775E+02  0.10080392952E+03  0.28184152002E+03  0.32115479378E+03  0.91689233668E+02 0.  0.
         13    1    3    3    0    0 -0.31777375292E+01 -0.47369000460E+02  0.65406882200E+02  0.80820668517E+02  0.00000000000E+00 0. -1.
        -14    1    3    3    0    0 -0.40318639182E+02 -0.29264896053E+02 -0.11046724926E+02  0.51029961181E+02  0.00000000000E+00 0.  1.
        -13    1    4    4    0    0  0.22777717851E+02  0.82051865861E+02  0.97177774224E+02  0.12920856367E+03  0.00000000000E+00 0.  1.
         13    1    4    4    0    0  0.48898019924E+02  0.18752063655E+02  0.18466374580E+03  0.19194623012E+03  0.00000000000E+00 0. -1.
         21    1    1    2  502  501 -0.28179361063E+02 -0.24170033003E+02 -0.18552439143E+03  0.18920244898E+03  0.00000000000E+00 0.  1.
<scales pt_clust_5="13000.00000" pt_clust_6="13000.00000" pt_clust_7="13000.00000" pt_clust_8="13000.00000" pt_clust_9="37.12502"></scales>
<clustering>
<clus scale="   37.125">  2  9  1 -1</clus>
<clus scale="   81.639">  5  6 -1 -1</clus>
<clus scale="   91.689">  7  8 -1 -1</clus>
<clus scale="  138.276">  2  5  1 -1</clus>
<clus scale="  144.437">  1  5  2 -1</clus>
</clustering>
</event>
<event>
 9    1  0.2802611E-005  0.1306024E+03  0.7546771E-02  0.1234401E+00
         -2   -1    0    0    0  501 -0.00000000000E+00  0.00000000000E+00  0.14698124738E+03  0.14698124738E+03  0.00000000000E+00 0.  1.
          1   -1    0    0  502    0  0.00000000000E+00 -0.00000000000E+00 -0.17704530418E+03  0.17704530418E+03  0.00000000000E+00 0. -1.
        -24    2    1    2    0    0 -0.10988713273E+02  0.60611307112E+02  0.98078590262E+01  0.99368434234E+02  0.77352499986E+02 0.  0.
         23    2    1    2    0    0  0.31728385514E+02 -0.87223407168E+02 -0.89029027957E+02  0.16503631304E+03  0.10342245209E+03 0.  0.
         11    1    3    3    0    0 -0.42884196047E+02  0.48522928427E+02  0.55641889454E+01  0.64996069514E+02  0.00000000000E+00 0. -1.
        -12    1    3    3    0    0  0.31895482774E+02  0.12088378685E+02  0.42436700808E+01  0.34372364719E+02  0.00000000000E+00 0.  1.
        -13    1    4    4    0    0  0.47435069580E+02 -0.10915369651E+02 -0.26981992909E+01  0.48749475895E+02  0.00000000000E+00 0.  1.
         13    1    4    4    0    0 -0.15706684066E+02 -0.76308037517E+02 -0.86330828666E+02  0.11628683714E+03  0.00000000000E+00 0. -1.
         21    1    1    2  502  501 -0.20739672242E+02  0.26612100055E+02  0.49157112131E+02  0.59621804292E+02  0.00000000000E+00 0. -1.
<scales pt_clust_5="13000.00000" pt_clust_6="13000.00000" pt_clust_7="13000.00000" pt_clust_8="13000.00000" pt_clust_9="33.73926"></scales>
<clustering>
<clus scale="   33.739">  1  9  2 -1</clus>
<clus scale="   77.352">  5  6 -1 -1</clus>
<clus scale="  103.422">  7  8 -1 -1</clus>
<clus scale="  111.104">  1  5  2 -1</clus>
<clus scale="  130.602">  2  5  1 -1</clus>
</clustering>
</event>
<event>
 9    1  0.2802611E-005  0.1150943E+03  0.7546771E-02  0.1251473E+00
          1   -1    0    0  502    0  0.00000000000E+00  0.00000000000E+00  0.23681941125E+03  0.23681941125E+03  0.00000000000E+00 0. -1.
         -2   -1    0    0    0  501 -0.00000000000E+00 -0.00000000000E+00 -0.14479932793E+03  0.14479932793E+03  0.00000000000E+00 0.  1.
         23    2    1    2    0    0  0.33852173635E+02  0.56141465234E+02 -0.91979195598E+02  0.13792401084E+03  0.79151920787E+02 0.  0.
        -24    2    1    2    0    0 -0.29636718490E+02 -0.80919592422E+02  0.18451361321E+03  0.21855531329E+03  0.79340002447E+02 0.  0.
         11    1    4    4    0    0  0.44515242342E+01 -0.56058934696E+02  0.16037199835E+03  0.16994586809E+03  0.00000000000E+00 0. -1.
        -12    1    4    4    0    0 -0.34088242725E+02 -0.24860657726E+02  0.24141614861E+02  0.48609445201E+02  0.00000000000E+00 0.  1.
        -11    1    3    3    0    0 -0.13640569525E+02  0.43777687853E+02 -0.71072973690E+02  0.84580841092E+02  0.00000000000E+00 0.  1.
         11    1    3    3    0    0  0.47492743160E+02  0.12363777381E+02 -0.20906221908E+02  0.53343169745E+02  0.00000000000E+00 0. -1.
         21    1    1    2  502  501 -0.42154551447E+01  0.24778127188E+02 -0.51433428808E+00  0.25139415045E+02  0.00000000000E+00 0.  1.
<scales pt_clust_5="13000.00000" pt_clust_6="13000.00000" pt_clust_7="13000.00000" pt_clust_8="13000.00000" pt_clust_9="25.13415"></scales>
<clustering>
<clus scale="   25.134">  2  9  1 -1</clus>
<clus scale="   79.152">  7  8 -1 -1</clus>
<clus scale="   79.340">  5  6 -1 -1</clus>
<clus scale="  114.965">  2  7  1 -1</clus>
<clus scale="  115.094">  1  5  2 -1</clus>
</clustering>
</event>
<event>
 9    1  0.2802611E-005  0.1194442E+03  0.7546771E-02  0.1248174E+00
          1   -1    0    0  502    0  0.00000000000E+00  0.00000000000E+00  0.71957892167E+03  0.71957892167E+03  0.00000000000E+00 0. -1.
         -2   -1    0    0    0  501 -0.00000000000E+00 -0.00000000000E+00 -0.50489481377E+02  0.50489481377E+02  0.00000000000E+00 0.  1.
         23    2    1    2    0    0  0.21753039949E+02  0.48617259443E+02  0.63823693360E+02  0.12396708716E+03  0.91964896574E+02 0.  0.
        -24    2    1    2    0    0 -0.42028928709E+02 -0.68359921138E+02  0.60735713347E+03  0.61772424322E+03  0.79126755366E+02 0.  0.
         13    1    4    4    0    0 -0.46043615926E+02 -0.82229415609E+02  0.45336719203E+03  0.46305885390E+03  0.00000000000E+00 0. -1.
        -14    1    4    4    0    0  0.40146872165E+01  0.13869494471E+02  0.15398994144E+03  0.15466538932E+03  0.00000000000E+00 0.  1.
        -11    1    3    3    0    0 -0.71322467419E+01  0.58605084647E+02  0.70073837320E+01  0.59451899186E+02  0.00000000000E+00 0.  1.
         11    1    3    3    0    0  0.28885286691E+02 -0.99878252037E+01  0.56816309628E+02  0.64515187974E+02  0.00000000000E+00 0. -1.
         21    1    1    2  502  501  0.20275888760E+02  0.19742661695E+02 -0.20913865352E+01  0.28377072672E+02  0.00000000000E+00 0.  1.
<scales pt_clust_5="13000.00000" pt_clust_6="13000.00000" pt_clust_7="13000.00000" pt_clust_8="13000.00000" pt_clust_9="28.29990"></scales>
<clustering>
<clus scale="   28.300">  2  9  1 -1</clus>
<clus scale="   79.127">  5  6 -1 -1</clus>
<clus scale="   91.965">  7  8 -1 -1</clus>
<clus scale="  109.865">  1  5  2 -1</clus>
<clus scale="  109.865">  1  5  2 -1</clus>
</clustering>
</event>
<event>
 9    1  0.2802611E-005  0.1947284E+03  0.7546771E-02  0.1154663E+00
         -2   -1    0    0    0  501 -0.00000000000E+00  0.00000000000E+00  0.97720310731E+02  0.97720310731E+02  0.00000000000E+00 0.  1.
          1   -1    0    0  502    0  0.00000000000E+00 -0.00000000000E+00 -0.91274589990E+03  0.91274589990E+03  0.00000000000E+00 0. -1.
        -24    2    1    2    0    0 -0.14489171447E+03 -0.47302160798E+02 -0.69876955847E+02  0.18821677707E+03  0.85508262010E+02 0.  0.
         23    2    1    2    0    0  0.17454416215E+03  0.32778405750E+02 -0.76032755489E+03  0.78590927982E+03  0.89528302604E+02 0.  0.
         11    1    3    3    0    0 -0.33544491579E+02 -0.34455515619E+02 -0.58242316232E+02  0.75528689065E+02  0.00000000000E+00 0. -1.
        -12    1    3    3    0    0 -0.11134722289E+03 -0.12846645179E+02 -0.11634639615E+02  0.11268808800E+03  0.00000000000E+00 0.  1.
        -13    1    4    4    0    0  0.10379831820E+03 -0.35117035259E+01 -0.57409374949E+03  0.58341242370E+03  0.00000000000E+00 0.  1.
         13    1    4    4    0    0  0.70745843949E+02  0.36290109276E+02 -0.18623380539E+03  0.20249685612E+03  0.00000000000E+00 0. -1.
         21    1    1    2  502  501 -0.29652447680E+02  0.14523755049E+02  0.15178921564E+02  0.36340153742E+02  0.00000000000E+00 0.  1.
<scales pt_clust_5="13000.00000" pt_clust_6="13000.00000" pt_clust_7="13000.00000" pt_clust_8="13000.00000" pt_clust_9="33.01828"></scales>
<clustering>
<clus scale="   33.018">  1  9  2 -1</clus>
<clus scale="   85.508">  5  6 -1 -1</clus>
<clus scale="   89.528">  7  8 -1 -1</clus>
<clus scale="  192.913">  1  5  2 -1</clus>
<clus scale="  194.728">  2  5  1 -1</clus>
</clustering>
</event>
<event>
 9    1  0.2802611E-005  0.1242071E+03  0.7546771E-02  0.1239775E+00
          1   -1    0    0  502    0  0.00000000000E+00  0.00000000000E+00  0.42681398637E+03  0.42681398637E+03  0.00000000000E+00 0. -1.
         -2   -1    0    0    0  501 -0.00000000000E+00 -0.00000000000E+00 -0.19188835263E+03  0.19188835263E+03  0.00000000000E+00 0.  1.
         23    2    1    2    0    0 -0.19930437064E+01 -0.27418341769E+02 -0.64014780584E+02  0.11551516408E+03  0.92141865139E+02 0.  0.
        -24    2    1    2    0    0  0.39278913860E+02  0.80130417359E+02  0.38059217891E+03  0.39909197961E+03  0.80375896134E+02 0.  0.
         13    1    4    4    0    0  0.31510505834E+02  0.92810891170E+02  0.26496307038E+03  0.28251053461E+03  0.00000000000E+00 0. -1.
        -14    1    4    4    0    0  0.77684080255E+01 -0.12680473811E+02  0.11562910853E+03  0.11658144500E+03  0.00000000000E+00 0.  1.
        -13    1    3    3    0    0 -0.33353733774E+02 -0.48759173214E+01  0.72302899105E+01  0.34474965099E+02  0.00000000000E+00 0. -1.
         13    1    3    3    0    0  0.31360690068E+02 -0.22542424448E+02 -0.71245070494E+02  0.81040198983E+02  0.00000000000E+00 0.  1.
         21    1    1    2  502  501 -0.37285870153E+02 -0.52712075590E+02 -0.81651764586E+02  0.10409519531E+03  0.00000000000E+00 0.  1.
<scales pt_clust_5="13000.00000" pt_clust_6="13000.00000" pt_clust_7="13000.00000" pt_clust_8="13000.00000" pt_clust_9="64.56624"></scales>
<clustering>
<clus scale="   64.566">  2  9  1 -1</clus>
<clus scale="   80.376">  5  6 -1 -1</clus>
<clus scale="   92.142">  7  8 -1 -1</clus>
<clus scale="  115.748">  1  5  2 -1</clus>
<clus scale="  115.748">  1  5  2 -1</clus>
</clustering>
</event>
