<event>
 9    1  0.4516508E-005  0.2330413E+03  0.7546771E-02  0.1140039E+00
         -4   -1    0    0    0  501 -0.00000000000E+00  0.00000000000E+00  0.46496557366E+03  0.46496557366E+03  0.00000000000E+00 0.  1.
         21   -1    0    0  501  502  0.00000000000E+00 -0.00000000000E+00 -0.90861254437E+02  0.90861254437E+02  0.00000000000E+00 0.  1.
         23    2    1    2    0    0  0.11947728137E+03 -0.40477374176E+02  0.23642712625E+03  0.28515495581E+03  0.97479865666E+02 0.  0.
        -24    2    1    2    0    0 -0.69785623823E+01 -0.44330487224E+02  0.68971146467E+02  0.11392731590E+03  0.78794173856E+02 0.  0.
         13    1    4    4    0    0 -0.24735581688E+02 -0.23372574274E+02  0.77928175637E+02  0.85034856311E+02  0.00000000000E+00 0. -1.
        -14    1    4    4    0    0  0.17757019305E+02 -0.20957912950E+02 -0.89570291700E+01  0.28892459594E+02  0.00000000000E+00 0.  1.
        -11    1    3    3    0    0  0.23599887585E+02 -0.50722188949E+02  0.48953586403E+02  0.74338070781E+02  0.00000000000E+00 0. -1.
         11    1    3    3    0    0  0.95877393789E+02  0.10244814773E+02  0.18747353985E+03  0.21081688503E+03  0.00000000000E+00 0.  1.
         -3    1    1    2    0  502 -0.11249871899E+03  0.84807861400E+02  0.68706046508E+02  0.15674455639E+03  0.00000000000E+00 0.  1.
<scales pt_clust_5="13000.00000" pt_clust_6="13000.00000" pt_clust_7="13000.00000" pt_clust_8="13000.00000" pt_clust_9="13000.00000"></scales>
<clustering>
<clus scale="   78.794">  5  6 -1 -1</clus>
<clus scale="   97.480">  7  8 -1 -1</clus>
<clus scale="  140.884">  5  9 -1 -1</clus>
<clus scale="  159.423">  1  7  2 -1</clus>
<clus scale="  233.041">  2  5  1 -1</clus>
</clustering>
</event>
<event>
 9    1  0.4516508E-005  0.2325836E+03  0.7546771E-02  0.1159671E+00
         21   -1    0    0  501  502  0.00000000000E+00  0.00000000000E+00  0.89808422584E+02  0.89808422584E+02  0.00000000000E+00 0. -1.
          1   -1    0    0  502    0 -0.00000000000E+00 -0.00000000000E+00 -0.33292945658E+03  0.33292945658E+03  0.00000000000E+00 0. -1.
         23    2    1    2    0    0  0.43238753054E+02 -0.69770230855E+01 -0.24725545991E+02  0.10368974255E+03  0.90674921935E+02 0.  0.
        -24    2    1    2    0    0 -0.74583030749E+00 -0.88794784058E+02 -0.67770230731E+02  0.13556556073E+03  0.76812415292E+02 0.  0.
         13    1    4    4    0    0  0.24246568289E+02 -0.63088894237E+02 -0.72827841681E+02  0.99357934629E+02  0.00000000000E+00 0. -1.
        -14    1    4    4    0    0 -0.24992398597E+02 -0.25705889822E+02  0.50576109498E+01  0.36207626098E+02  0.00000000000E+00 0.  1.
        -13    1    3    3    0    0 -0.18667462176E+02 -0.27679714740E+02  0.13124449890E+01  0.33412022747E+02  0.00000000000E+00 0.  1.
         13    1    3    3    0    0  0.61906215230E+02  0.20702691655E+02 -0.26037990980E+02  0.70277719799E+02  0.00000000000E+00 0. -1.
          2    1    1    2  501    0 -0.42492922747E+02  0.95771807144E+02 -0.15062525728E+03  0.18348257589E+03  0.00000000000E+00 0. -1.
<scales pt_clust_5="13000.00000" pt_clust_6="13000.00000" pt_clust_7="13000.00000" pt_clust_8="13000.00000" pt_clust_9="13000.00000"></scales>
<clustering>
<clus scale="   76.812">  5  6 -1 -1</clus>
<clus scale="   90.675">  7  8 -1 -1</clus>
<clus scale="  100.699">  2  7  1 -1</clus>
<clus scale="   92.758">  5  9 -1 -1</clus>
<clus scale="  232.584">  1  5  2 -1</clus>
</clustering>
</event>
<event>
 9    1  0.4516508E-005  0.1188801E+03  0.7546771E-02  0.1256916E+00
          1   -1    0    0  502    0 -0.00000000000E+00  0.00000000000E+00  0.11878021104E+03  0.11878021104E+03  0.00000000000E+00 0. -1.
         21   -1    0    0  501  502  0.00000000000E+00 -0.00000000000E+00 -0.17291773874E+03  0.17291773874E+03  0.00000000000E+00 0.  1.
         23    2    1    2    0    0 -0.23610264300E+02  0.35807668890E+01  0.72180273265E+02  0.11823713472E+03  0.90552535618E+02 0.  0.
        -24    2    1    2    0    0  0.15074180608E+02  0.17321778222E+02 -0.81577573604E+02  0.12334625568E+03  0.89622114194E+02 0.  0.
         11    1    4    4    0    0  0.40123770610E+02  0.35565844079E+02 -0.74106502391E+02  0.91469229414E+02  0.00000000000E+00 0. -1.
        -12    1    4    4    0    0 -0.25049590002E+02 -0.18244065857E+02 -0.74710712134E+01  0.31877026263E+02  0.00000000000E+00 0.  1.
        -13    1    3    3    0    0 -0.53318096885E+02 -0.86170345639E+01  0.21276549090E+02  0.58049670811E+02  0.00000000000E+00 0.  1.
         13    1    3    3    0    0  0.29707832585E+02  0.12197801453E+02  0.50903724175E+02  0.60187463911E+02  0.00000000000E+00 0. -1.
          2    1    1    2  501    0  0.85360836924E+01 -0.20902545111E+02 -0.44740227363E+02  0.50114559376E+02  0.00000000000E+00 0. -1.
<scales pt_clust_5="13000.00000" pt_clust_6="13000.00000" pt_clust_7="13000.00000" pt_clust_8="13000.00000" pt_clust_9="13000.00000"></scales>
<clustering>
<clus scale="   89.622">  5  6 -1 -1</clus>
<clus scale="   22.578">  5  9 -1 -1</clus>
<clus scale="   90.553">  7  8 -1 -1</clus>
<clus scale="   93.648">  1  7  2 -1</clus>
<clus scale="  118.880">  2  5  1 -1</clus>
</clustering>
</event>
<event>
 9    1  0.4516508E-005  0.1736846E+03  0.7546771E-02  0.1199974E+00
         21   -1    0    0  501  502  0.00000000000E+00  0.00000000000E+00  0.71471819299E+02  0.71471819299E+02  0.00000000000E+00 0. -1.
          1   -1    0    0  502    0 -0.00000000000E+00 -0.00000000000E+00 -0.26218112912E+03  0.26218112912E+03  0.00000000000E+00 0. -1.
         23    2    1    2    0    0  0.22437523605E+02  0.30359284499E+02 -0.90366842822E+02  0.13306644030E+03  0.90085418527E+02 0.  0.
        -24    2    1    2    0    0 -0.25880580088E+02  0.44732409773E+02 -0.78044616157E+02  0.12217852805E+03  0.78522848242E+02 0.  0.
         13    1    4    4    0    0  0.20210952238E+02  0.38817438099E+02 -0.20824399893E+02  0.48465778874E+02  0.00000000000E+00 0. -1.
        -14    1    4    4    0    0 -0.46091532326E+02  0.59149716735E+01 -0.57220216264E+02  0.73712749178E+02  0.00000000000E+00 0.  1.
        -11    1    3    3    0    0 -0.20621113390E+02  0.45849028299E+02 -0.59373550481E+02  0.77798343235E+02  0.00000000000E+00 0. -1.
         11    1    3    3    0    0  0.43058636995E+02 -0.15489743800E+02 -0.30993292341E+02  0.55268097063E+02  0.00000000000E+00 0.  1.
          2    1    1    2  501    0  0.34430564836E+01 -0.75091694272E+02 -0.22297850843E+02  0.78407980071E+02  0.00000000000E+00 0. -1.
<scales pt_clust_5="13000.00000" pt_clust_6="13000.00000" pt_clust_7="13000.00000" pt_clust_8="13000.00000" pt_clust_9="13000.00000"></scales>
<clustering>
<clus scale="   78.523">  5  6 -1 -1</clus>
<clus scale="   75.171">  5  9 -1 -1</clus>
<clus scale="   90.085">  7  8 -1 -1</clus>
<clus scale="   97.676">  2  7  1 -1</clus>
<clus scale="  173.685">  1  5  2 -1</clus>
</clustering>
</event>
<event>
 9    1  0.4516508E-005  0.4376109E+03  0.7546771E-02  0.1081879E+00
         -2   -1    0    0    0  501 -0.00000000000E+00  0.00000000000E+00  0.43460689931E+03  0.43460689931E+03  0.00000000000E+00 0.  1.
         21   -1    0    0  501  502  0.00000000000E+00 -0.00000000000E+00 -0.17478059901E+03  0.17478059901E+03  0.00000000000E+00 0.  1.
         23    2    1    2    0    0  0.11993890572E+02 -0.17971896262E+02  0.93745971524E+02  0.14132132996E+03  0.10352086098E+03 0.  0.
        -24    2    1    2    0    0 -0.17156855441E+02  0.11119205469E+03  0.28488357926E+03  0.31696730514E+03  0.81557268693E+02 0.  0.
         11    1    4    4    0    0 -0.31579659371E+02  0.86176838248E+02  0.12832937844E+03  0.15777246816E+03  0.00000000000E+00 0. -1.
        -12    1    4    4    0    0  0.14422803931E+02  0.25015216444E+02  0.15655420082E+03  0.15919483698E+03  0.00000000000E+00 0.  1.
        -13    1    3    3    0    0  0.45803305356E+02  0.23506692788E+02  0.37545287529E+02  0.63719353441E+02  0.00000000000E+00 0.  1.
         13    1    3    3    0    0 -0.33809414784E+02 -0.41478589050E+02  0.56200683996E+02  0.77601976516E+02  0.00000000000E+00 0. -1.
         -1    1    1    2    0  502  0.51629648689E+01 -0.93220158430E+02 -0.11880325048E+03  0.15109886323E+03  0.00000000000E+00 0.  1.
<scales pt_clust_5="13000.00000" pt_clust_6="13000.00000" pt_clust_7="13000.00000" pt_clust_8="13000.00000" pt_clust_9="13000.00000"></scales>
<clustering>
<clus scale="   81.557">  5  6 -1 -1</clus>
<clus scale="   93.363">  5  9 -1 -1</clus>
<clus scale="  103.521">  7  8 -1 -1</clus>
<clus scale="  105.752">  1  7  2 -1</clus>
<clus scale="  437.611">  2  5  1 -1</clus>
</clustering>
</event>
<event>
 9    1  0.4516508E-005  0.2066648E+03  0.7546771E-02  0.1149919E+00
         21   -1    0    0  501  502  0.00000000000E+00  0.00000000000E+00  0.33624794772E+02  0.33624794772E+02  0.00000000000E+00 0.  1.
          1   -1    0    0  502    0 -0.00000000000E+00 -0.00000000000E+00 -0.11258622522E+04  0.11258622522E+04  0.00000000000E+00 0. -1.
         23    2    1    2    0    0  0.14783816467E+03 -0.54999125347E+02 -0.56780749768E+03  0.59580528862E+03  0.87735744146E+02 0.  0.
        -24    2    1    2    0    0 -0.86462223274E+02  0.73866943174E+02 -0.40480986187E+03  0.42791737220E+03  0.79436841696E+02 0.  0.
         13    1    4    4    0    0 -0.88927442424E+02  0.76024873206E+02 -0.40732041766E+03  0.42378979932E+03  0.00000000000E+00 0. -1.
        -14    1    4    4    0    0  0.24652191498E+01 -0.21579300313E+01  0.25105557965E+01  0.41275728806E+01  0.00000000000E+00 0.  1.
        -13    1    3    3    0    0  0.58906693192E+02 -0.48771727830E+02 -0.14750005820E+03  0.16614736563E+03  0.00000000000E+00 0. -1.
         13    1    3    3    0    0  0.88931471474E+02 -0.62273975170E+01 -0.42030743948E+03  0.42965792299E+03  0.00000000000E+00 0.  1.
          2    1    1    2  501    0 -0.61375941392E+02 -0.18867817827E+02 -0.11962009788E+03  0.13576438616E+03  0.00000000000E+00 0. -1.
<scales pt_clust_5="13000.00000" pt_clust_6="13000.00000" pt_clust_7="13000.00000" pt_clust_8="13000.00000" pt_clust_9="13000.00000"></scales>
<clustering>
<clus scale="   79.437">  5  6 -1 -1</clus>
<clus scale="   64.211">  5  9 -1 -1</clus>
<clus scale="   87.736">  7  8 -1 -1</clus>
<clus scale="  180.495">  2  7  1 -1</clus>
<clus scale="  206.665">  1  5  2 -1</clus>
</clustering>
</event>
<event>
 9    1  0.4516508E-005  0.1758590E+03  0.7546771E-02  0.1178380E+00
         21   -1    0    0  501  502  0.00000000000E+00  0.00000000000E+00  0.15565671986E+03  0.15565671986E+03  0.00000000000E+00 0. -1.
          3   -1    0    0  502    0 -0.00000000000E+00 -0.00000000000E+00 -0.28832380608E+03  0.28832380608E+03  0.00000000000E+00 0. -1.
         23    2    1    2    0    0 -0.11936282326E+03 -0.27362835465E+02 -0.20396682647E+03  0.25421744287E+03  0.89598178662E+02 0.  0.
        -24    2    1    2    0    0  0.67828828287E+02 -0.17413126489E+02  0.31027828282E+02  0.11050107262E+03  0.79647937833E+02 0.  0.
         13    1    4    4    0    0  0.64453695419E+02 -0.44288248039E+02  0.17129153880E+02  0.80057077639E+02  0.00000000000E+00 0. -1.
        -14    1    4    4    0    0  0.33751328686E+01  0.26875121549E+02  0.13898674402E+02  0.30443994979E+02  0.00000000000E+00 0.  1.
        -13    1    3    3    0    0 -0.92631049178E+02 -0.41555411572E+02 -0.87965360727E+02  0.13433267730E+03  0.00000000000E+00 0. -1.
         13    1    3    3    0    0 -0.26731774081E+02  0.14192576107E+02 -0.11600146574E+03  0.11988476557E+03  0.00000000000E+00 0.  1.
          4    1    1    2  501    0  0.51533994972E+02  0.44775961955E+02  0.40271911965E+02  0.79262010447E+02  0.00000000000E+00 0. -1.
<scales pt_clust_5="13000.00000" pt_clust_6="13000.00000" pt_clust_7="13000.00000" pt_clust_8="13000.00000" pt_clust_9="13000.00000"></scales>
<clustering>
<clus scale="   79.648">  5  6 -1 -1</clus>
<clus scale="   68.269">  5  9 -1 -1</clus>
<clus scale="   89.598">  7  8 -1 -1</clus>
<clus scale="  151.737">  2  7  1 -1</clus>
<clus scale="  175.859">  1  5  2 -1</clus>
</clustering>
</event>
<event>
 9    1  0.4516508E-005  0.2217018E+03  0.7546771E-02  0.1158784E+00
         21   -1    0    0  501  502  0.00000000000E+00  0.00000000000E+00  0.12518629801E+03  0.12518629801E+03  0.00000000000E+00 0.  1.
          1   -1    0    0  502    0 -0.00000000000E+00 -0.00000000000E+00 -0.32645646729E+03  0.32645646729E+03  0.00000000000E+00 0. -1.
         23    2    1    2    0    0 -0.63084104746E+02 -0.43067373532E+02  0.38786012141E+02  0.12487270024E+03  0.90853913477E+02 0.  0.
        -24    2    1    2    0    0 -0.21263836680E+02 -0.15034136839E+01 -0.46561008514E+02  0.11103524581E+03  0.98521506764E+02 0.  0.
         11    1    4    4    0    0 -0.38605234381E+02  0.13337617056E+02 -0.68256916365E+02  0.79544093319E+02  0.00000000000E+00 0. -1.
        -12    1    4    4    0    0  0.17341397701E+02 -0.14841030740E+02  0.21695907851E+02  0.31491152490E+02  0.00000000000E+00 0.  1.
        -13    1    3    3    0    0 -0.34087294853E+01  0.21961762746E+02  0.28311395850E+02  0.35992688071E+02  0.00000000000E+00 0. -1.
         13    1    3    3    0    0 -0.59675375261E+02 -0.65029136278E+02  0.10474616291E+02  0.88880012174E+02  0.00000000000E+00 0.  1.
          2    1    1    2  501    0  0.84347941426E+02  0.44570787216E+02 -0.19349517291E+03  0.21573481924E+03  0.00000000000E+00 0. -1.
<scales pt_clust_5="13000.00000" pt_clust_6="13000.00000" pt_clust_7="13000.00000" pt_clust_8="13000.00000" pt_clust_9="13000.00000"></scales>
<clustering>
<clus scale="   90.854">  7  8 -1 -1</clus>
<clus scale="   98.522">  5  6 -1 -1</clus>
<clus scale="   95.400">  5  9 -1 -1</clus>
<clus scale="  118.696">  2  7  1 -1</clus>
<clus scale="  221.702">  1  5  2 -1</clus>
</clustering>
</event>
<event>
 9    1  0.4516508E-005  0.2468937E+03  0.7546771E-02  0.1137113E+00
          1   -1    0    0  502    0 -0.00000000000E+00  0.00000000000E+00  0.36298012906E+03  0.36298012906E+03  0.00000000000E+00 0. -1.
         21   -1    0    0  501  502  0.00000000000E+00 -0.00000000000E+00 -0.12162497551E+03  0.12162497551E+03  0.00000000000E+00 0. -1.
         23    2    1    2    0    0  0.10183569076E+03  0.72809219631E-01  0.68009224279E+01  0.14405824766E+03  0.10166618395E+03 0.  0.
        -24    2    1    2    0    0  0.27447142315E+02 -0.22021789443E+02  0.19314747138E+02  0.88507486725E+02  0.78880992120E+02 0.  0.
         11    1    4    4    0    0  0.30702135629E+02  0.22395197544E+02  0.21963650000E+02  0.43892686481E+02  0.00000000000E+00 0. -1.
        -12    1    4    4    0    0 -0.32549933133E+01 -0.44416986986E+02 -0.26489028623E+01  0.44614800244E+02  0.00000000000E+00 0.  1.
        -13    1    3    3    0    0 -0.17562057184E+02  0.11968494365E+02  0.11131465472E+02  0.23991253270E+02  0.00000000000E+00 0.  1.
         13    1    3    3    0    0  0.11939774794E+03 -0.11895685145E+02 -0.43305430446E+01  0.12006699439E+03  0.00000000000E+00 0. -1.
          2    1    1    2  501    0 -0.12928283307E+03  0.21948980223E+02  0.21523948398E+03  0.25203937019E+03  0.00000000000E+00 0. -1.
<scales pt_clust_5="13000.00000" pt_clust_6="13000.00000" pt_clust_7="13000.00000" pt_clust_8="13000.00000" pt_clust_9="13000.00000"></scales>
<clustering>
<clus scale="   78.881">  5  6 -1 -1</clus>
<clus scale="  101.666">  7  8 -1 -1</clus>
<clus scale="  131.133">  5  9 -1 -1</clus>
<clus scale="  143.898">  1  7  2 -1</clus>
<clus scale="  246.894">  2  5  1 -1</clus>
</clustering>
</event>
<event>
 9    1  0.9716485E-005  0.4056012E+03  0.7546771E-02  0.1050948E+00
         21   -1    0    0  501  502  0.00000000000E+00  0.00000000000E+00  0.18996030141E+03  0.18996030141E+03  0.00000000000E+00 0.  1.
         -4   -1    0    0    0  501 -0.00000000000E+00 -0.00000000000E+00 -0.79354041138E+03  0.79354041138E+03  0.00000000000E+00 0.  1.
         23    2    1    2    0    0 -0.23238274372E+03 -0.18773362759E+03 -0.82328919877E+02  0.32303486558E+03  0.91256883725E+02 0.  0.
        -24    2    1    2    0    0 -0.26098572732E+02  0.34160480108E+02 -0.58777533280E+02  0.10885077687E+03  0.80905001744E+02 0.  0.
         13    1    4    4    0    0  0.77197309426E+00 -0.20521104141E+02 -0.40221618708E+02  0.45160715994E+02  0.00000000000E+00 0. -1.
        -14    1    4    4    0    0 -0.26870545826E+02  0.54681584249E+02 -0.18555914572E+02  0.63690060878E+02  0.00000000000E+00 0.  1.
        -11    1    3    3    0    0 -0.19420720369E+02 -0.22228438131E+02  0.18789521852E+02  0.34990198239E+02  0.00000000000E+00 0. -1.
         11    1    3    3    0    0 -0.21296202336E+03 -0.16550518946E+03 -0.10111844173E+03  0.28804466735E+03  0.00000000000E+00 0.  1.
         -3    1    1    2    0  502  0.25848131646E+03  0.15357314748E+03 -0.46247365681E+03  0.55161507034E+03  0.00000000000E+00 0.  1.
<scales pt_clust_5="13000.00000" pt_clust_6="13000.00000" pt_clust_7="13000.00000" pt_clust_8="13000.00000" pt_clust_9="13000.00000"></scales>
<clustering>
<clus scale="   80.905">  5  6 -1 -1</clus>
<clus scale="   91.257">  7  8 -1 -1</clus>
<clus scale="  300.662">  5  9 -1 -1</clus>
<clus scale="  312.368">  2  7  1 -1</clus>
<clus scale="  405.601">  1  5  2 -1</clus>
</clustering>
</event>
<event>
 9    1  0.4516508E-005  0.3620490E+03  0.7546771E-02  0.1088806E+00
         21   -1    0    0  501  502  0.00000000000E+00  0.00000000000E+00  0.36041167348E+02  0.36041167348E+02  0.00000000000E+00 0. -1.
          1   -1    0    0  502    0 -0.00000000000E+00 -0.00000000000E+00 -0.20031388918E+04  0.20031388918E+04  0.00000000000E+00 0. -1.
         23    2    1    2    0    0 -0.11849632881E+03  0.20732784304E+02 -0.87409865783E+03  0.88777812158E+03  0.98134098351E+02 0.  0.
        -24    2    1    2    0    0 -0.53805332879E+02 -0.22848266968E+02 -0.83807209774E+03  0.84370062565E+03  0.77774337380E+02 0.  0.
         11    1    4    4    0    0 -0.36681721795E+02 -0.21476445764E+02 -0.16429415615E+03  0.16970373060E+03  0.00000000000E+00 0. -1.
        -12    1    4    4    0    0 -0.17123611084E+02 -0.13718212045E+01 -0.67377794159E+03  0.67399689504E+03  0.00000000000E+00 0.  1.
        -13    1    3    3    0    0 -0.91545481334E+02  0.58030805041E+02 -0.65395677264E+03  0.66287827689E+03  0.00000000000E+00 0. -1.
         13    1    3    3    0    0 -0.26950847481E+02 -0.37298020737E+02 -0.22014188518E+03  0.22489984469E+03  0.00000000000E+00 0.  1.
          2    1    1    2  501    0  0.17230166169E+03  0.21154826644E+01 -0.25492696886E+03  0.30770131190E+03  0.00000000000E+00 0. -1.
<scales pt_clust_5="13000.00000" pt_clust_6="13000.00000" pt_clust_7="13000.00000" pt_clust_8="13000.00000" pt_clust_9="13000.00000"></scales>
<clustering>
<clus scale="   77.774">  5  6 -1 -1</clus>
<clus scale="   98.134">  7  8 -1 -1</clus>
<clus scale="  155.247">  2  7  1 -1</clus>
<clus scale="  142.784">  5  9 -1 -1</clus>
<clus scale="  362.049">  1  5  2 -1</clus>
</clustering>
</event>
<event>
 9    1  0.4516508E-005  0.1784049E+03  0.7546771E-02  0.1196102E+00
         21   -1    0    0  501  502  0.00000000000E+00  0.00000000000E+00  0.76374220327E+03  0.76374220327E+03  0.00000000000E+00 0.  1.
         -2   -1    0    0    0  501 -0.00000000000E+00 -0.00000000000E+00 -0.11423635485E+03  0.11423635485E+03  0.00000000000E+00 0.  1.
         23    2    1    2    0    0 -0.15144058712E+02 -0.34797923466E+02 -0.80262247883E+02  0.12671975651E+03  0.90419191902E+02 0.  0.
        -24    2    1    2    0    0  0.35741748120E+02 -0.38449448517E+02  0.30158016641E+03  0.31636301454E+03  0.79869440599E+02 0.  0.
         13    1    4    4    0    0  0.14380161811E+02  0.14209387709E+02  0.17758576768E+02  0.26908415070E+02  0.00000000000E+00 0. -1.
        -14    1    4    4    0    0  0.21361586309E+02 -0.52658836226E+02  0.28382158965E+03  0.28945459947E+03  0.00000000000E+00 0.  1.
        -11    1    3    3    0    0 -0.47210741626E+02 -0.41727858777E+02 -0.65033111919E+02  0.90550394637E+02  0.00000000000E+00 0.  1.
         11    1    3    3    0    0  0.32066682914E+02  0.69299353102E+01 -0.15229135964E+02  0.36169361878E+02  0.00000000000E+00 0. -1.
         -1    1    1    2    0  502 -0.20597689408E+02  0.73247371984E+02  0.42818792989E+03  0.43489578707E+03  0.00000000000E+00 0.  1.
<scales pt_clust_5="13000.00000" pt_clust_6="13000.00000" pt_clust_7="13000.00000" pt_clust_8="13000.00000" pt_clust_9="13000.00000"></scales>
<clustering>
<clus scale="   79.869">  5  6 -1 -1</clus>
<clus scale="   76.088">  5  9 -1 -1</clus>
<clus scale="   90.419">  7  8 -1 -1</clus>
<clus scale="   98.061">  2  7  1 -1</clus>
<clus scale="  178.405">  1  5  2 -1</clus>
</clustering>
</event>
<event>
 9    1  0.4516508E-005  0.2775590E+03  0.7546771E-02  0.1101843E+00
          1   -1    0    0  502    0 -0.00000000000E+00  0.00000000000E+00  0.18020997137E+04  0.18020997137E+04  0.00000000000E+00 0. -1.
         21   -1    0    0  501  502  0.00000000000E+00 -0.00000000000E+00 -0.38746787813E+02  0.38746787813E+02  0.00000000000E+00 0. -1.
         23    2    1    2    0    0  0.19639777271E+03  0.11656388469E+03  0.68993512115E+03  0.73212436026E+03  0.88523348028E+02 0.  0.
        -24    2    1    2    0    0 -0.58491798531E+02 -0.16857375189E+02  0.46711921136E+03  0.47899408083E+03  0.86772750669E+02 0.  0.
         11    1    4    4    0    0 -0.79069247100E+02 -0.13344408359E+02  0.29832556261E+03  0.30891448716E+03  0.00000000000E+00 0. -1.
        -12    1    4    4    0    0  0.20577448570E+02 -0.35129668292E+01  0.16879364874E+03  0.17007959367E+03  0.00000000000E+00 0.  1.
        -13    1    3    3    0    0  0.16937339834E+03  0.12226085001E+03  0.65551636490E+03  0.68799474428E+03  0.00000000000E+00 0. -1.
         13    1    3    3    0    0  0.27024374376E+02 -0.56969653225E+01  0.34418756253E+02  0.44129615977E+02  0.00000000000E+00 0.  1.
          2    1    1    2  501    0 -0.13790597418E+03 -0.99706509503E+02  0.60629859341E+03  0.62972806046E+03  0.00000000000E+00 0. -1.
<scales pt_clust_5="13000.00000" pt_clust_6="13000.00000" pt_clust_7="13000.00000" pt_clust_8="13000.00000" pt_clust_9="13000.00000"></scales>
<clustering>
<clus scale="   86.773">  5  6 -1 -1</clus>
<clus scale="   88.523">  7  8 -1 -1</clus>
<clus scale="  170.175">  5  9 -1 -1</clus>
<clus scale="  244.940">  1  7  2 -1</clus>
<clus scale="  277.559">  2  5  1 -1</clus>
</clustering>
</event>
<event>
 9    1  0.4516508E-005  0.3741604E+03  0.7546771E-02  0.1098753E+00
         21   -1    0    0  501  502  0.00000000000E+00  0.00000000000E+00  0.15179974857E+03  0.15179974857E+03  0.00000000000E+00 0. -1.
          1   -1    0    0  502    0 -0.00000000000E+00 -0.00000000000E+00 -0.55344277084E+03  0.55344277084E+03  0.00000000000E+00 0. -1.
         23    2    1    2    0    0  0.56014727406E+02 -0.11208785159E+02 -0.29787006589E+03  0.31695806573E+03  0.92046470485E+02 0.  0.
        -24    2    1    2    0    0  0.57548823276E+02 -0.47850410472E+02 -0.19805570375E+03  0.22930676630E+03  0.88056813710E+02 0.  0.
         13    1    4    4    0    0  0.66091925616E+02 -0.99050330260E+01 -0.76002238698E+02  0.10120569449E+03  0.00000000000E+00 0. -1.
        -14    1    4    4    0    0 -0.85431023394E+01 -0.37945377446E+02 -0.12205346505E+03  0.12810107180E+03  0.00000000000E+00 0.  1.
        -13    1    3    3    0    0  0.66876798451E+01  0.30186762782E+02 -0.36805726293E+02  0.48068983731E+02  0.00000000000E+00 0.  1.
         13    1    3    3    0    0  0.49327047561E+02 -0.41395547942E+02 -0.26106433960E+03  0.26888908200E+03  0.00000000000E+00 0. -1.
          2    1    1    2  501    0 -0.11356355068E+03  0.59059195631E+02  0.94282747374E+02  0.15897768738E+03  0.00000000000E+00 0. -1.
<scales pt_clust_5="13000.00000" pt_clust_6="13000.00000" pt_clust_7="13000.00000" pt_clust_8="13000.00000" pt_clust_9="13000.00000"></scales>
<clustering>
<clus scale="   88.057">  5  6 -1 -1</clus>
<clus scale="   92.046">  7  8 -1 -1</clus>
<clus scale="  108.332">  2  7  1 -1</clus>
<clus scale="  120.807">  5  9 -1 -1</clus>
<clus scale="  374.160">  1  5  2 -1</clus>
</clustering>
</event>
<event>
 9    1  0.4516508E-005  0.3526846E+03  0.7546771E-02  0.1068554E+00
         21   -1    0    0  501  502  0.00000000000E+00  0.00000000000E+00  0.18215235698E+03  0.18215235698E+03  0.00000000000E+00 0. -1.
          1   -1    0    0  502    0 -0.00000000000E+00 -0.00000000000E+00 -0.66227660494E+03  0.66227660494E+03  0.00000000000E+00 0. -1.
         23    2    1    2    0    0  0.26485173902E+03 -0.77698503401E+02 -0.60799261529E+02  0.29650571119E+03  0.89641427214E+02 0.  0.
        -24    2    1    2    0    0 -0.26006977734E+02  0.12376514113E+02 -0.19991816970E+03  0.21708623117E+03  0.79558885082E+02 0.  0.
         13    1    4    4    0    0  0.17848137455E+02 -0.19967689784E+02 -0.97034178102E+02  0.10066228870E+03  0.00000000000E+00 0. -1.
        -14    1    4    4    0    0 -0.43855115189E+02  0.32344203897E+02 -0.10288399160E+03  0.11642394247E+03  0.00000000000E+00 0.  1.
        -13    1    3    3    0    0  0.94518863132E+02 -0.73546474270E+02 -0.22131389653E+02  0.12178956348E+03  0.00000000000E+00 0.  1.
         13    1    3    3    0    0  0.17033287589E+03 -0.41520291307E+01 -0.38667871876E+02  0.17471614771E+03  0.00000000000E+00 0. -1.
          2    1    1    2  501    0 -0.23884476129E+03  0.65321989287E+02 -0.21940681674E+03  0.33083701956E+03  0.00000000000E+00 0. -1.
<scales pt_clust_5="13000.00000" pt_clust_6="13000.00000" pt_clust_7="13000.00000" pt_clust_8="13000.00000" pt_clust_9="13000.00000"></scales>
<clustering>
<clus scale="   79.559">  5  6 -1 -1</clus>
<clus scale="   89.641">  7  8 -1 -1</clus>
<clus scale="  247.616">  5  9 -1 -1</clus>
<clus scale="  290.205">  2  7  1 -1</clus>
<clus scale="  352.685">  1  5  2 -1</clus>
</clustering>
</event>
<event>
 9    1  0.4516508E-005  0.1282880E+03  0.7546771E-02  0.1239299E+00
         -2   -1    0    0    0  501 -0.00000000000E+00  0.00000000000E+00  0.20498433787E+03  0.20498433787E+03  0.00000000000E+00 0.  1.
         21   -1    0    0  501  502  0.00000000000E+00 -0.00000000000E+00 -0.10685089205E+03  0.10685089205E+03  0.00000000000E+00 0. -1.
         23    2    1    2    0    0 -0.51888652167E+02 -0.16152807455E+02 -0.48815440706E+02  0.11676659194E+03  0.91094150904E+02 0.  0.
        -24    2    1    2    0    0  0.61277588491E+01  0.34947102727E+01  0.93271006680E+02  0.12340552636E+03  0.80496464650E+02 0.  0.
         13    1    4    4    0    0 -0.20659581869E+02 -0.30922036228E+02  0.43509764445E+02  0.57237140473E+02  0.00000000000E+00 0. -1.
        -14    1    4    4    0    0  0.26787340718E+02  0.34416746500E+02  0.49761242235E+02  0.66168385889E+02  0.00000000000E+00 0.  1.
        -13    1    3    3    0    0 -0.61679548843E+02  0.11448794912E+02 -0.35249997138E+01  0.62832056097E+02  0.00000000000E+00 0.  1.
         13    1    3    3    0    0  0.97908966765E+01 -0.27601602367E+02 -0.45290440992E+02  0.53934535839E+02  0.00000000000E+00 0. -1.
         -1    1    1    2    0  502  0.45760893318E+02  0.12658097182E+02  0.53677879851E+02  0.71663111618E+02  0.00000000000E+00 0.  1.
<scales pt_clust_5="13000.00000" pt_clust_6="13000.00000" pt_clust_7="13000.00000" pt_clust_8="13000.00000" pt_clust_9="13000.00000"></scales>
<clustering>
<clus scale="   80.496">  5  6 -1 -1</clus>
<clus scale="   47.479">  5  9 -1 -1</clus>
<clus scale="   91.094">  7  8 -1 -1</clus>
<clus scale="  106.073">  1  7  2 -1</clus>
<clus scale="  128.288">  2  5  1 -1</clus>
</clustering>
</event>
<event>
 9    1  0.4516508E-005  0.1202329E+03  0.7546771E-02  0.1255759E+00
          1   -1    0    0  502    0 -0.00000000000E+00  0.00000000000E+00  0.28721182680E+03  0.28721182680E+03  0.00000000000E+00 0. -1.
         21   -1    0    0  501  502  0.00000000000E+00 -0.00000000000E+00 -0.10286421158E+03  0.10286421158E+03  0.00000000000E+00 0. -1.
         23    2    1    2    0    0  0.24289702732E-01  0.26367258157E+02  0.24024933211E+03  0.25748285594E+03  0.88783143830E+02 0.  0.
        -24    2    1    2    0    0  0.32426846024E+02 -0.21616471633E+02 -0.41916419666E+02  0.96938803741E+02  0.78239205288E+02 0.  0.
         11    1    4    4    0    0  0.37190107712E+02 -0.13507447281E+02 -0.62691897804E+02  0.74133860644E+02  0.00000000000E+00 0. -1.
        -12    1    4    4    0    0 -0.47632616879E+01 -0.81090243516E+01  0.20775478137E+02  0.22804943097E+02  0.00000000000E+00 0.  1.
        -13    1    3    3    0    0  0.22617134365E+02 -0.26665254993E+02  0.89287642559E+02  0.95889799794E+02  0.00000000000E+00 0.  1.
         13    1    3    3    0    0 -0.22592844662E+02  0.53032513149E+02  0.15096168955E+03  0.16159305614E+03  0.00000000000E+00 0. -1.
          2    1    1    2  501    0 -0.32451135727E+02 -0.47507865241E+01 -0.13985297228E+02  0.35654378709E+02  0.00000000000E+00 0. -1.
<scales pt_clust_5="13000.00000" pt_clust_6="13000.00000" pt_clust_7="13000.00000" pt_clust_8="13000.00000" pt_clust_9="13000.00000"></scales>
<clustering>
<clus scale="   78.239">  5  6 -1 -1</clus>
<clus scale="   32.797">  5  9 -1 -1</clus>
<clus scale="   88.783">  7  8 -1 -1</clus>
<clus scale="   92.616">  1  7  2 -1</clus>
<clus scale="  120.233">  2  5  1 -1</clus>
</clustering>
</event>
<event>
 9    1  0.4516508E-005  0.2751264E+03  0.7546771E-02  0.1132862E+00
         21   -1    0    0  501  502  0.00000000000E+00  0.00000000000E+00  0.26684258898E+03  0.26684258898E+03  0.00000000000E+00 0.  1.
         -2   -1    0    0    0  501 -0.00000000000E+00 -0.00000000000E+00 -0.14282998837E+03  0.14282998837E+03  0.00000000000E+00 0.  1.
         23    2    1    2    0    0  0.27378707218E+02  0.64179082431E+02  0.36400419356E+02  0.12093323985E+03  0.91822163664E+02 0.  0.
        -24    2    1    2    0    0 -0.12617348296E+01  0.60030423283E+02 -0.40226384144E+02  0.10859274064E+03  0.81049229756E+02 0.  0.
         13    1    4    4    0    0  0.27609722634E+02  0.40940732588E+02 -0.52306533666E+02  0.71933398592E+02  0.00000000000E+00 0. -1.
        -14    1    4    4    0    0 -0.28871457464E+02  0.19089690695E+02  0.12080149522E+02  0.36659342048E+02  0.00000000000E+00 0.  1.
        -13    1    3    3    0    0 -0.30252806368E+02  0.26173078519E+02  0.32925497027E+02  0.51810719806E+02  0.00000000000E+00 0. -1.
         13    1    3    3    0    0  0.57631513586E+02  0.38006003912E+02  0.34749223286E+01  0.69122520041E+02  0.00000000000E+00 0.  1.
         -1    1    1    2    0  502 -0.26116972389E+02 -0.12420950571E+03  0.12783856540E+03  0.18014659686E+03  0.00000000000E+00 0.  1.
<scales pt_clust_5="13000.00000" pt_clust_6="13000.00000" pt_clust_7="13000.00000" pt_clust_8="13000.00000" pt_clust_9="13000.00000"></scales>
<clustering>
<clus scale="   81.049">  5  6 -1 -1</clus>
<clus scale="   91.822">  7  8 -1 -1</clus>
<clus scale="  115.325">  2  7  1 -1</clus>
<clus scale="  109.183">  5  9 -1 -1</clus>
<clus scale="  275.126">  1  5  2 -1</clus>
</clustering>
</event>
<event>
 9    1  0.4516508E-005  0.2184039E+03  0.7546771E-02  0.1158542E+00
         21   -1    0    0  501  502  0.00000000000E+00  0.00000000000E+00  0.20417893389E+02  0.20417893389E+02  0.00000000000E+00 0. -1.
          1   -1    0    0  502    0 -0.00000000000E+00 -0.00000000000E+00 -0.14500062285E+04  0.14500062285E+04  0.00000000000E+00 0. -1.
         23    2    1    2    0    0  0.77724272563E+02  0.35455738723E+02 -0.57116187507E+03  0.58464974680E+03  0.91056394299E+02 0.  0.
        -24    2    1    2    0    0  0.41818114407E+02 -0.13907897721E+02 -0.47418985597E+03  0.48279489715E+03  0.79326596409E+02 0.  0.
         11    1    4    4    0    0  0.49686445153E+02 -0.14652235259E+02 -0.15345255375E+03  0.16196023303E+03  0.00000000000E+00 0. -1.
        -12    1    4    4    0    0 -0.78683307460E+01  0.74433753813E+00 -0.32073730222E+03  0.32083466412E+03  0.00000000000E+00 0.  1.
        -11    1    3    3    0    0  0.62341507691E+02  0.64387069590E+02 -0.46455123287E+03  0.47311732823E+03  0.00000000000E+00 0. -1.
         11    1    3    3    0    0  0.15382764873E+02 -0.28931330867E+02 -0.10661064220E+03  0.11153241857E+03  0.00000000000E+00 0.  1.
          2    1    1    2  501    0 -0.11954238697E+03 -0.21547841002E+02 -0.38423660408E+03  0.40297947795E+03  0.00000000000E+00 0. -1.
<scales pt_clust_5="13000.00000" pt_clust_6="13000.00000" pt_clust_7="13000.00000" pt_clust_8="13000.00000" pt_clust_9="13000.00000"></scales>
<clustering>
<clus scale="   79.327">  5  6 -1 -1</clus>
<clus scale="   91.056">  7  8 -1 -1</clus>
<clus scale="  121.469">  5  9 -1 -1</clus>
<clus scale="  124.858">  2  7  1 -1</clus>
<clus scale="  218.404">  1  5  2 -1</clus>
</clustering>
</event>
<event>
 9    1  0.4516508E-005  0.3516499E+03  0.7546771E-02  0.1077834E+00
          1   -1    0    0  502    0 -0.00000000000E+00  0.00000000000E+00  0.27486092065E+04  0.27486092065E+04  0.00000000000E+00 0. -1.
         21   -1    0    0  501  502  0.00000000000E+00 -0.00000000000E+00 -0.34522598395E+02  0.34522598395E+02  0.00000000000E+00 0. -1.
         23    2    1    2    0    0 -0.12735803004E+03 -0.16360409307E+03  0.63343081843E+03  0.67296921438E+03  0.93094547036E+02 0.  0.
        -24    2    1    2    0    0  0.44089749783E+02 -0.45029747169E+02  0.75635401824E+03  0.76694374475E+03  0.11027113191E+03 0.  0.
         11    1    4    4    0    0  0.18057953905E+02 -0.43842583200E+02  0.10662726100E+03  0.11669462108E+03  0.00000000000E+00 0. -1.
        -12    1    4    4    0    0  0.26031795878E+02 -0.11871639690E+01  0.64972675725E+03  0.65024912367E+03  0.00000000000E+00 0.  1.
        -11    1    3    3    0    0 -0.29531382922E+02 -0.24659472895E+02  0.39226579489E+02  0.54944669616E+02  0.00000000000E+00 0.  1.
         11    1    3    3    0    0 -0.97826647116E+02 -0.13894462017E+03  0.59420423894E+03  0.61802454477E+03  0.00000000000E+00 0. -1.
          2    1    1    2  501    0  0.83268280255E+02  0.20863384024E+03  0.13243017715E+04  0.13432188458E+04  0.00000000000E+00 0. -1.
<scales pt_clust_5="13000.00000" pt_clust_6="13000.00000" pt_clust_7="13000.00000" pt_clust_8="13000.00000" pt_clust_9="13000.00000"></scales>
<clustering>
<clus scale="   93.095">  7  8 -1 -1</clus>
<clus scale="  110.271">  5  6 -1 -1</clus>
<clus scale="  224.637">  5  9 -1 -1</clus>
<clus scale="  227.273">  1  7  2 -1</clus>
<clus scale="  351.650">  2  5  1 -1</clus>
</clustering>
</event>
<event>
 9    1  0.4516508E-005  0.2016816E+03  0.7546771E-02  0.1177796E+00
         21   -1    0    0  501  502  0.00000000000E+00  0.00000000000E+00  0.14792792416E+03  0.14792792416E+03  0.00000000000E+00 0.  1.
         -4   -1    0    0    0  501 -0.00000000000E+00 -0.00000000000E+00 -0.15692430995E+03  0.15692430995E+03  0.00000000000E+00 0.  1.
         23    2    1    2    0    0 -0.35559217805E+02  0.18579381654E+01  0.92329985262E+01  0.10234849909E+03  0.95509460779E+02 0.  0.
        -24    2    1    2    0    0  0.28195683064E+02 -0.46872391174E+02  0.58812986536E+02  0.11297134127E+03  0.79445194733E+02 0.  0.
         13    1    4    4    0    0 -0.48677901659E+01 -0.58793462312E+02  0.24587471326E+02  0.63913303293E+02  0.00000000000E+00 0. -1.
        -14    1    4    4    0    0  0.33063473230E+02  0.11921071138E+02  0.34225515211E+02  0.49058037981E+02  0.00000000000E+00 0.  1.
        -11    1    3    3    0    0  0.28713000159E+02  0.18732433117E+02  0.10598146909E+02  0.35883995688E+02  0.00000000000E+00 0. -1.
         11    1    3    3    0    0 -0.64272217964E+02 -0.16874494951E+02 -0.13651483827E+01  0.66464503398E+02  0.00000000000E+00 0.  1.
         -3    1    1    2    0  502  0.73635347408E+01  0.45014453008E+02 -0.77042370853E+02  0.89532393747E+02  0.00000000000E+00 0.  1.
<scales pt_clust_5="13000.00000" pt_clust_6="13000.00000" pt_clust_7="13000.00000" pt_clust_8="13000.00000" pt_clust_9="13000.00000"></scales>
<clustering>
<clus scale="   79.445">  5  6 -1 -1</clus>
<clus scale="   45.613">  5  9 -1 -1</clus>
<clus scale="   95.509">  7  8 -1 -1</clus>
<clus scale="  101.931">  2  7  1 -1</clus>
<clus scale="  201.682">  1  5  2 -1</clus>
</clustering>
</event>
<event>
 9    1  0.4516508E-005  0.1420779E+03  0.7546771E-02  0.1231360E+00
         21   -1    0    0  501  502  0.00000000000E+00  0.00000000000E+00  0.21199912438E+03  0.21199912438E+03  0.00000000000E+00 0.  1.
         -2   -1    0    0    0  501 -0.00000000000E+00 -0.00000000000E+00 -0.68292543117E+02  0.68292543117E+02  0.00000000000E+00 0.  1.
         23    2    1    2    0    0 -0.10167958467E+02  0.34298028530E+01  0.89410268711E+02  0.12819233359E+03  0.91235559485E+02 0.  0.
        -24    2    1    2    0    0 -0.92581135807E+01  0.28508195208E+02  0.46579876924E+02  0.11392930150E+03  0.99557877359E+02 0.  0.
         11    1    4    4    0    0 -0.30600779876E+01 -0.36479073878E+02  0.27900133237E+02  0.46027213070E+02  0.00000000000E+00 0. -1.
        -12    1    4    4    0    0 -0.61980355931E+01  0.64987269086E+02  0.18679743686E+02  0.67902088427E+02  0.00000000000E+00 0.  1.
        -11    1    3    3    0    0 -0.45037459826E+02  0.21250583109E+02  0.65605034775E+02  0.82364923710E+02  0.00000000000E+00 0.  1.
         11    1    3    3    0    0  0.34869501359E+02 -0.17820780256E+02  0.23805233936E+02  0.45827409884E+02  0.00000000000E+00 0. -1.
         -1    1    1    2    0  502  0.19426072047E+02 -0.31937998061E+02  0.77164356332E+01  0.38170032410E+02  0.00000000000E+00 0.  1.
<scales pt_clust_5="13000.00000" pt_clust_6="13000.00000" pt_clust_7="13000.00000" pt_clust_8="13000.00000" pt_clust_9="13000.00000"></scales>
<clustering>
<clus scale="   91.236">  7  8 -1 -1</clus>
<clus scale="   91.865">  2  7  1 -1</clus>
<clus scale="   99.558">  5  6 -1 -1</clus>
<clus scale="   34.891">  5  9 -1 -1</clus>
<clus scale="  142.078">  1  5  2 -1</clus>
</clustering>
</event>
<event>
 9    1  0.4516508E-005  0.7150399E+03  0.7546771E-02  0.1032740E+00
         21   -1    0    0  501  502  0.00000000000E+00  0.00000000000E+00  0.45994345429E+03  0.45994345429E+03  0.00000000000E+00 0. -1.
          1   -1    0    0  502    0 -0.00000000000E+00 -0.00000000000E+00 -0.35892054164E+03  0.35892054164E+03  0.00000000000E+00 0. -1.
         23    2    1    2    0    0  0.18264231416E+02  0.25444029790E+02 -0.47538594998E+00  0.96656320421E+02  0.91439802517E+02 0.  0.
        -24    2    1    2    0    0  0.19901817694E+03  0.24794612165E+03  0.16664337015E+03  0.36696451901E+03  0.76206504995E+02 0.  0.
         11    1    4    4    0    0  0.15210134419E+03  0.14690008775E+03  0.13601172561E+03  0.25142323717E+03  0.00000000000E+00 0. -1.
        -12    1    4    4    0    0  0.46916832754E+02  0.10104603390E+03  0.30631644541E+02  0.11554128185E+03  0.00000000000E+00 0.  1.
        -11    1    3    3    0    0  0.34822035296E+02 -0.11477291052E+02 -0.29334351784E+02  0.46955367602E+02  0.00000000000E+00 0.  1.
         11    1    3    3    0    0 -0.16557803880E+02  0.36921320842E+02  0.28858965834E+02  0.49700952819E+02  0.00000000000E+00 0. -1.
          2    1    1    2  501    0 -0.21728240836E+03 -0.27339015144E+03 -0.65145071553E+02  0.35524315650E+03  0.00000000000E+00 0. -1.
<scales pt_clust_5="13000.00000" pt_clust_6="13000.00000" pt_clust_7="13000.00000" pt_clust_8="13000.00000" pt_clust_9="13000.00000"></scales>
<clustering>
<clus scale="   76.207">  5  6 -1 -1</clus>
<clus scale="   91.440">  7  8 -1 -1</clus>
<clus scale="   96.655">  2  7  1 -1</clus>
<clus scale="  328.034">  5  9 -1 -1</clus>
<clus scale="  715.040">  1  5  2 -1</clus>
</clustering>
</event>
<event>
 9    1  0.4516508E-005  0.2731753E+03  0.7546771E-02  0.1138343E+00
         21   -1    0    0  501  502  0.00000000000E+00  0.00000000000E+00  0.20243938004E+03  0.20243938004E+03  0.00000000000E+00 0. -1.
          1   -1    0    0  502    0 -0.00000000000E+00 -0.00000000000E+00 -0.35451424197E+03  0.35451424197E+03  0.00000000000E+00 0. -1.
         23    2    1    2    0    0 -0.42754919915E+02  0.16311141823E+02 -0.24707664915E+03  0.26773042249E+03  0.92404935193E+02 0.  0.
        -24    2    1    2    0    0  0.88176769743E+02  0.74350008418E+02 -0.11702778617E+02  0.14202111742E+03  0.82036432708E+02 0.  0.
         13    1    4    4    0    0  0.39764970896E+02  0.83235550738E+02 -0.97746874384E+01  0.92762893074E+02  0.00000000000E+00 0. -1.
        -14    1    4    4    0    0  0.48411798847E+02 -0.88855423201E+01 -0.19280911786E+01  0.49258224344E+02  0.00000000000E+00 0.  1.
        -13    1    3    3    0    0 -0.21791947377E+02 -0.28186322450E+02 -0.34706392757E+02  0.49738229180E+02  0.00000000000E+00 0.  1.
         13    1    3    3    0    0 -0.20962972538E+02  0.44497464274E+02 -0.21237025639E+03  0.21799219331E+03  0.00000000000E+00 0. -1.
          2    1    1    2  501    0 -0.45421849828E+02 -0.90661150241E+02  0.10670456583E+03  0.14720208210E+03  0.00000000000E+00 0. -1.
<scales pt_clust_5="13000.00000" pt_clust_6="13000.00000" pt_clust_7="13000.00000" pt_clust_8="13000.00000" pt_clust_9="13000.00000"></scales>
<clustering>
<clus scale="   82.036">  5  6 -1 -1</clus>
<clus scale="   92.405">  7  8 -1 -1</clus>
<clus scale="  101.403">  5  9 -1 -1</clus>
<clus scale="  103.115">  2  7  1 -1</clus>
<clus scale="  273.175">  1  5  2 -1</clus>
</clustering>
</event>
<event>
 9    1  0.4516508E-005  0.2336485E+03  0.7546771E-02  0.1145668E+00
         21   -1    0    0  501  502  0.00000000000E+00  0.00000000000E+00  0.14375950147E+03  0.14375950147E+03  0.00000000000E+00 0. -1.
          1   -1    0    0  502    0 -0.00000000000E+00 -0.00000000000E+00 -0.24623004774E+03  0.24623004774E+03  0.00000000000E+00 0. -1.
         23    2    1    2    0    0  0.35714705501E+02  0.98053410502E+02 -0.94904351443E+01  0.13852005752E+03  0.90596503662E+02 0.  0.
        -24    2    1    2    0    0  0.46646932850E+02 -0.10059959785E+02  0.92469760099E+01  0.93429420245E+02  0.79789791746E+02 0.  0.
         13    1    4    4    0    0  0.32051934912E+02 -0.25030111650E+02  0.39475001588E+02  0.56675468866E+02  0.00000000000E+00 0. -1.
        -14    1    4    4    0    0  0.14594997938E+02  0.14970151865E+02 -0.30228025578E+02  0.36753951379E+02  0.00000000000E+00 0.  1.
        -11    1    3    3    0    0  0.67607590354E+01  0.10085742834E+03 -0.26922202621E+02  0.10460752224E+03  0.00000000000E+00 0. -1.
         11    1    3    3    0    0  0.28953946466E+02 -0.28040178389E+01  0.17431767477E+02  0.33912535284E+02  0.00000000000E+00 0.  1.
          2    1    1    2  501    0 -0.82361638351E+02 -0.87993450716E+02 -0.10222708713E+03  0.15804007145E+03  0.00000000000E+00 0. -1.
<scales pt_clust_5="13000.00000" pt_clust_6="13000.00000" pt_clust_7="13000.00000" pt_clust_8="13000.00000" pt_clust_9="13000.00000"></scales>
<clustering>
<clus scale="   79.790">  5  6 -1 -1</clus>
<clus scale="   90.597">  7  8 -1 -1</clus>
<clus scale="  120.525">  5  9 -1 -1</clus>
<clus scale="  138.195">  2  7  1 -1</clus>
<clus scale="  233.648">  1  5  2 -1</clus>
</clustering>
</event>
<event>
 9    1  0.4516508E-005  0.4046657E+03  0.7546771E-02  0.1057017E+00
         21   -1    0    0  501  502  0.00000000000E+00  0.00000000000E+00  0.16512732446E+03  0.16512732446E+03  0.00000000000E+00 0. -1.
          1   -1    0    0  502    0 -0.00000000000E+00 -0.00000000000E+00 -0.92560604397E+03  0.92560604397E+03  0.00000000000E+00 0. -1.
         23    2    1    2    0    0  0.24878671366E+03  0.12090294502E+01 -0.59916058064E+03  0.65509831486E+03  0.90907150969E+02 0.  0.
        -24    2    1    2    0    0  0.24346582412E+02  0.27504161332E+02 -0.13279518105E+03  0.15951949104E+03  0.80390751614E+02 0.  0.
         11    1    4    4    0    0  0.43897688626E+02  0.43964307207E+02 -0.84534053178E+02  0.10490888200E+03  0.00000000000E+00 0. -1.
        -12    1    4    4    0    0 -0.19551106214E+02 -0.16460145876E+02 -0.48261127872E+02  0.54610609041E+02  0.00000000000E+00 0.  1.
        -13    1    3    3    0    0  0.85011535487E+02  0.36365551252E+02 -0.27647536441E+03  0.29152708555E+03  0.00000000000E+00 0.  1.
         13    1    3    3    0    0  0.16377517817E+03 -0.35156521802E+02 -0.32268521623E+03  0.36357122931E+03  0.00000000000E+00 0. -1.
          2    1    1    2  501    0 -0.27313329607E+03 -0.28713190782E+02 -0.28522957822E+02  0.27611556253E+03  0.00000000000E+00 0. -1.
<scales pt_clust_5="13000.00000" pt_clust_6="13000.00000" pt_clust_7="13000.00000" pt_clust_8="13000.00000" pt_clust_9="13000.00000"></scales>
<clustering>
<clus scale="   80.391">  5  6 -1 -1</clus>
<clus scale="   90.907">  7  8 -1 -1</clus>
<clus scale="  264.878">  2  7  1 -1</clus>
<clus scale="  148.848">  5  9 -1 -1</clus>
<clus scale="  404.666">  1  5  2 -1</clus>
</clustering>
</event>
<event>
 9    1  0.4516508E-005  0.3130703E+03  0.7546771E-02  0.1103715E+00
         21   -1    0    0  501  502  0.00000000000E+00  0.00000000000E+00  0.24683120781E+03  0.24683120781E+03  0.00000000000E+00 0.  1.
          1   -1    0    0  502    0 -0.00000000000E+00 -0.00000000000E+00 -0.22943204376E+03  0.22943204376E+03  0.00000000000E+00 0. -1.
         23    2    1    2    0    0 -0.13892920786E+03 -0.43728882951E+01 -0.12146139355E+01  0.16264009254E+03  0.84438601741E+02 0.  0.
        -24    2    1    2    0    0 -0.36628333049E+02 -0.25425101078E+02  0.82516917892E+02  0.12443547014E+03  0.81774531143E+02 0.  0.
         13    1    4    4    0    0 -0.27624607312E+02  0.27117526237E+02  0.25361489974E+02  0.46278335450E+02  0.00000000000E+00 0. -1.
        -14    1    4    4    0    0 -0.90037257372E+01 -0.52542627315E+02  0.57155427918E+02  0.78157134689E+02  0.00000000000E+00 0.  1.
        -13    1    3    3    0    0 -0.12027944118E+03 -0.35399914648E+02 -0.86687103048E+01  0.12567992865E+03  0.00000000000E+00 0.  1.
         13    1    3    3    0    0 -0.18649766680E+02  0.31027026353E+02  0.74540963693E+01  0.36960163883E+02  0.00000000000E+00 0. -1.
          2    1    1    2  501    0  0.17555754091E+03  0.29797989373E+02 -0.63903139897E+02  0.18918768890E+03  0.00000000000E+00 0. -1.
<scales pt_clust_5="13000.00000" pt_clust_6="13000.00000" pt_clust_7="13000.00000" pt_clust_8="13000.00000" pt_clust_9="13000.00000"></scales>
<clustering>
<clus scale="   81.775">  5  6 -1 -1</clus>
<clus scale="   84.439">  7  8 -1 -1</clus>
<clus scale="  162.636">  2  7  1 -1</clus>
<clus scale="   62.096">  5  9 -1 -1</clus>
<clus scale="  313.070">  1  5  2 -1</clus>
</clustering>
</event>
<event>
 9    1  0.4516508E-005  0.1843606E+03  0.7546771E-02  0.1184746E+00
          1   -1    0    0  502    0 -0.00000000000E+00  0.00000000000E+00  0.31549699408E+03  0.31549699408E+03  0.00000000000E+00 0. -1.
         21   -1    0    0  501  502  0.00000000000E+00 -0.00000000000E+00 -0.88982250204E+02  0.88982250204E+02  0.00000000000E+00 0.  1.
         23    2    1    2    0    0 -0.28233666436E+02  0.63883164126E+02  0.23063180107E+01  0.11420652083E+03  0.90330569119E+02 0.  0.
        -24    2    1    2    0    0  0.37319080650E+02  0.20824306789E+02  0.75301580399E+02  0.11871763316E+03  0.81223044012E+02 0.  0.
         13    1    4    4    0    0  0.60223824567E+02  0.29330827883E+02  0.59692173591E+02  0.89723810094E+02  0.00000000000E+00 0. -1.
        -14    1    4    4    0    0 -0.22904743917E+02 -0.85065210941E+01  0.15609406808E+02  0.28993823065E+02  0.00000000000E+00 0.  1.
        -11    1    3    3    0    0 -0.19549865711E+01  0.39930498800E+02  0.43973526163E+02  0.59430107775E+02  0.00000000000E+00 0.  1.
         11    1    3    3    0    0 -0.26278679865E+02  0.23952665326E+02 -0.41667208152E+02  0.54776413052E+02  0.00000000000E+00 0. -1.
          2    1    1    2  501    0 -0.90854142138E+01 -0.84707470915E+02  0.14890684547E+03  0.17155509030E+03  0.00000000000E+00 0. -1.
<scales pt_clust_5="13000.00000" pt_clust_6="13000.00000" pt_clust_7="13000.00000" pt_clust_8="13000.00000" pt_clust_9="13000.00000"></scales>
<clustering>
<clus scale="   81.223">  5  6 -1 -1</clus>
<clus scale="   85.193">  5  9 -1 -1</clus>
<clus scale="   90.331">  7  8 -1 -1</clus>
<clus scale="  114.183">  1  7  2 -1</clus>
<clus scale="  184.361">  2  5  1 -1</clus>
</clustering>
</event>
<event>
 9    1  0.4516508E-005  0.2432641E+03  0.7546771E-02  0.1149592E+00
          3   -1    0    0  502    0 -0.00000000000E+00  0.00000000000E+00  0.27423865440E+03  0.27423865440E+03  0.00000000000E+00 0. -1.
         21   -1    0    0  501  502  0.00000000000E+00 -0.00000000000E+00 -0.11478300822E+03  0.11478300822E+03  0.00000000000E+00 0. -1.
         23    2    1    2    0    0  0.41203335655E+02 -0.33787585721E+02  0.47277257855E+02  0.12113844667E+03  0.97979938428E+02 0.  0.
        -24    2    1    2    0    0  0.69768839603E+02 -0.30260441723E+02  0.27894687692E+02  0.11451856653E+03  0.80950621772E+02 0.  0.
         11    1    4    4    0    0  0.63321320750E+02 -0.56000678550E+02  0.20951796305E+02  0.87089858354E+02  0.00000000000E+00 0. -1.
        -12    1    4    4    0    0  0.64475188520E+01  0.25740236827E+02  0.69428913861E+01  0.27428708174E+02  0.00000000000E+00 0.  1.
        -11    1    3    3    0    0 -0.16940889801E+02 -0.27581524401E+02 -0.15031597278E+02  0.35688697822E+02  0.00000000000E+00 0. -1.
         11    1    3    3    0    0  0.58144225456E+02 -0.62060613208E+01  0.62308855133E+02  0.85449748852E+02  0.00000000000E+00 0.  1.
          4    1    1    2  501    0 -0.11097217526E+03  0.64048027444E+02  0.84283700630E+02  0.15336464942E+03  0.00000000000E+00 0. -1.
<scales pt_clust_5="13000.00000" pt_clust_6="13000.00000" pt_clust_7="13000.00000" pt_clust_8="13000.00000" pt_clust_9="13000.00000"></scales>
<clustering>
<clus scale="   80.951">  5  6 -1 -1</clus>
<clus scale="   97.980">  7  8 -1 -1</clus>
<clus scale="  111.532">  1  7  2 -1</clus>
<clus scale="   95.408">  5  9 -1 -1</clus>
<clus scale="  243.264">  2  5  1 -1</clus>
</clustering>
</event>
<event>
 9    1  0.4516508E-005  0.3204474E+03  0.7546771E-02  0.1117110E+00
         21   -1    0    0  501  502  0.00000000000E+00  0.00000000000E+00  0.62166015824E+03  0.62166015824E+03  0.00000000000E+00 0. -1.
          1   -1    0    0  502    0 -0.00000000000E+00 -0.00000000000E+00 -0.11387631349E+03  0.11387631349E+03  0.00000000000E+00 0. -1.
         23    2    1    2    0    0 -0.40229687350E+02 -0.32127642117E+02 -0.27834897445E+02  0.11137785616E+03  0.94760921241E+02 0.  0.
        -24    2    1    2    0    0  0.50237102037E+02 -0.12860217998E+03  0.28328600005E+03  0.32481594099E+03  0.78690219126E+02 0.  0.
         11    1    4    4    0    0  0.59636174096E+02 -0.13457846647E+03  0.26962634241E+03  0.30719082248E+03  0.00000000000E+00 0. -1.
        -12    1    4    4    0    0 -0.93990720588E+01  0.59762864895E+01  0.13659657639E+02  0.17625118513E+02  0.00000000000E+00 0.  1.
        -11    1    3    3    0    0  0.10617037284E+01 -0.24282928975E+02  0.30799755400E+02  0.39235351242E+02  0.00000000000E+00 0.  1.
         11    1    3    3    0    0 -0.41291391079E+02 -0.78447131420E+01 -0.58634652844E+02  0.72142504917E+02  0.00000000000E+00 0. -1.
          2    1    1    2  501    0 -0.10007414686E+02  0.16072982209E+03  0.25233274215E+03  0.29934267457E+03  0.00000000000E+00 0. -1.
<scales pt_clust_5="13000.00000" pt_clust_6="13000.00000" pt_clust_7="13000.00000" pt_clust_8="13000.00000" pt_clust_9="13000.00000"></scales>
<clustering>
<clus scale="   78.690">  5  6 -1 -1</clus>
<clus scale="   94.761">  7  8 -1 -1</clus>
<clus scale="  107.844">  2  7  1 -1</clus>
<clus scale="  147.056">  5  9 -1 -1</clus>
<clus scale="  320.447">  1  5  2 -1</clus>
</clustering>
</event>
<event>
 9    1  0.4516508E-005  0.2569664E+03  0.7546771E-02  0.1129783E+00
          1   -1    0    0  502    0 -0.00000000000E+00  0.00000000000E+00  0.67626174234E+03  0.67626174234E+03  0.00000000000E+00 0. -1.
         21   -1    0    0  501  502  0.00000000000E+00 -0.00000000000E+00 -0.87662325113E+02  0.87662325113E+02  0.00000000000E+00 0. -1.
         23    2    1    2    0    0 -0.11547341445E+03  0.45984909519E+02  0.44304129401E+03  0.46859564160E+03  0.88586487541E+02 0.  0.
        -24    2    1    2    0    0  0.19660159563E+02 -0.10700310150E+03  0.11901431870E+03  0.17867520848E+03  0.76969061751E+02 0.  0.
         13    1    4    4    0    0  0.87511647633E+01 -0.11476292898E+03  0.87962038113E+02  0.14486004591E+03  0.00000000000E+00 0. -1.
        -14    1    4    4    0    0  0.10908994799E+02  0.77598274813E+01  0.31052280589E+02  0.33815162573E+02  0.00000000000E+00 0.  1.
        -11    1    3    3    0    0 -0.13517499161E+02 -0.18826603326E+02  0.28101677863E+02  0.36426200394E+02  0.00000000000E+00 0.  1.
         11    1    3    3    0    0 -0.10195591529E+03  0.64811512846E+02  0.41493961615E+03  0.43216944120E+03  0.00000000000E+00 0. -1.
          2    1    1    2  501    0  0.95813254889E+02  0.61018191977E+02  0.26543804507E+02  0.11665321737E+03  0.00000000000E+00 0. -1.
<scales pt_clust_5="13000.00000" pt_clust_6="13000.00000" pt_clust_7="13000.00000" pt_clust_8="13000.00000" pt_clust_9="13000.00000"></scales>
<clustering>
<clus scale="   76.969">  5  6 -1 -1</clus>
<clus scale="   88.586">  7  8 -1 -1</clus>
<clus scale="  113.593">  5  9 -1 -1</clus>
<clus scale="  152.631">  1  7  2 -1</clus>
<clus scale="  256.966">  2  5  1 -1</clus>
</clustering>
</event>
<event>
 9    1  0.4516508E-005  0.1840737E+03  0.7546771E-02  0.1184205E+00
         21   -1    0    0  501  502  0.00000000000E+00  0.00000000000E+00  0.27665897529E+03  0.27665897529E+03  0.00000000000E+00 0. -1.
         -2   -1    0    0    0  501 -0.00000000000E+00 -0.00000000000E+00 -0.98424455130E+02  0.98424455130E+02  0.00000000000E+00 0.  1.
         23    2    1    2    0    0  0.62675824225E+02 -0.38297568143E+02  0.14869039827E+03  0.18865389889E+03  0.89924948492E+02 0.  0.
        -24    2    1    2    0    0 -0.29274353235E+02  0.31912142674E+01  0.80629055773E+02  0.11601799259E+03  0.78050998481E+02 0.  0.
         13    1    4    4    0    0 -0.13594510438E+02 -0.27025086292E+02  0.19786296282E+01  0.30316348367E+02  0.00000000000E+00 0. -1.
        -14    1    4    4    0    0 -0.15679842797E+02  0.30216300559E+02  0.78650426145E+02  0.85701644222E+02  0.00000000000E+00 0.  1.
        -11    1    3    3    0    0  0.53325990022E+01  0.27892588237E+02  0.40438572525E+02  0.49413674611E+02  0.00000000000E+00 0. -1.
         11    1    3    3    0    0  0.57343225222E+02 -0.66190156380E+02  0.10825182574E+03  0.13924022428E+03  0.00000000000E+00 0.  1.
         -1    1    1    2    0  502 -0.33401470990E+02  0.35106353875E+02 -0.51084933879E+02  0.70411538942E+02  0.00000000000E+00 0.  1.
<scales pt_clust_5="13000.00000" pt_clust_6="13000.00000" pt_clust_7="13000.00000" pt_clust_8="13000.00000" pt_clust_9="13000.00000"></scales>
<clustering>
<clus scale="   78.051">  5  6 -1 -1</clus>
<clus scale="   48.457">  5  9 -1 -1</clus>
<clus scale="   89.925">  7  8 -1 -1</clus>
<clus scale="  116.110">  2  7  1 -1</clus>
<clus scale="  184.074">  1  5  2 -1</clus>
</clustering>
</event>
<event>
 9    1  0.4516508E-005  0.2016348E+03  0.7546771E-02  0.1177696E+00
         21   -1    0    0  501  502  0.00000000000E+00  0.00000000000E+00  0.57891623745E+02  0.57891623745E+02  0.00000000000E+00 0. -1.
          1   -1    0    0  502    0 -0.00000000000E+00 -0.00000000000E+00 -0.40257697946E+03  0.40257697946E+03  0.00000000000E+00 0. -1.
         23    2    1    2    0    0  0.51958571857E+02 -0.12233469299E+02 -0.95245570339E+02  0.13972445826E+03  0.87188615124E+02 0.  0.
        -24    2    1    2    0    0 -0.66135125895E+02 -0.65647676542E+02 -0.14305964917E+03  0.18814255769E+03  0.79044838425E+02 0.  0.
         11    1    4    4    0    0 -0.16926604343E+02  0.17133195705E+02 -0.16875161733E+02  0.29407948129E+02  0.00000000000E+00 0. -1.
        -12    1    4    4    0    0 -0.49208521552E+02 -0.82780872247E+02 -0.12618448743E+03  0.15873460956E+03  0.00000000000E+00 0.  1.
        -11    1    3    3    0    0  0.20276980065E+02  0.22086826449E+02  0.37953892926E+01  0.30222322926E+02  0.00000000000E+00 0. -1.
         11    1    3    3    0    0  0.31681591792E+02 -0.34320295748E+02 -0.99040959631E+02  0.10950213534E+03  0.00000000000E+00 0.  1.
          2    1    1    2  501    0  0.14176554038E+02  0.77881145841E+02 -0.10638013621E+03  0.13260158725E+03  0.00000000000E+00 0. -1.
<scales pt_clust_5="13000.00000" pt_clust_6="13000.00000" pt_clust_7="13000.00000" pt_clust_8="13000.00000" pt_clust_9="13000.00000"></scales>
<clustering>
<clus scale="   79.045">  5  6 -1 -1</clus>
<clus scale="   79.161">  5  9 -1 -1</clus>
<clus scale="   87.189">  7  8 -1 -1</clus>
<clus scale="  102.231">  2  7  1 -1</clus>
<clus scale="  201.635">  1  5  2 -1</clus>
</clustering>
</event>
<event>
 9    1  0.4516508E-005  0.3277676E+03  0.7546771E-02  0.1085182E+00
         21   -1    0    0  501  502  0.00000000000E+00  0.00000000000E+00  0.74850995488E+03  0.74850995488E+03  0.00000000000E+00 0. -1.
          1   -1    0    0  502    0 -0.00000000000E+00 -0.00000000000E+00 -0.15143243410E+03  0.15143243410E+03  0.00000000000E+00 0. -1.
         23    2    1    2    0    0  0.13992464582E+03  0.13853677413E+03  0.13706773358E+02  0.23079887676E+03  0.11961982102E+03 0.  0.
        -24    2    1    2    0    0 -0.79613450356E+02  0.71400355663E+01  0.74028888509E+02  0.13595658212E+03  0.81330402085E+02 0.  0.
         11    1    4    4    0    0 -0.35472422229E+02 -0.11952941284E+02 -0.10347758009E+02  0.38836086826E+02  0.00000000000E+00 0. -1.
        -12    1    4    4    0    0 -0.44141028128E+02  0.19092976851E+02  0.84376646518E+02  0.97120495297E+02  0.00000000000E+00 0.  1.
        -11    1    3    3    0    0  0.13954606699E+02  0.92287512658E+02  0.23502143733E+02  0.96250022342E+02  0.00000000000E+00 0. -1.
         11    1    3    3    0    0  0.12597003913E+03  0.46249261467E+02 -0.97953703749E+01  0.13454885441E+03  0.00000000000E+00 0.  1.
          2    1    1    2  501    0 -0.60311195468E+02 -0.14567680969E+03  0.50934185891E+03  0.53318693009E+03  0.00000000000E+00 0. -1.
<scales pt_clust_5="13000.00000" pt_clust_6="13000.00000" pt_clust_7="13000.00000" pt_clust_8="13000.00000" pt_clust_9="13000.00000"></scales>
<clustering>
<clus scale="   81.330">  5  6 -1 -1</clus>
<clus scale="  119.620">  7  8 -1 -1</clus>
<clus scale="  157.668">  5  9 -1 -1</clus>
<clus scale="  230.392">  2  7  1 -1</clus>
<clus scale="  327.768">  1  5  2 -1</clus>
</clustering>
</event>
<event>
 9    1  0.4516508E-005  0.2685825E+03  0.7546771E-02  0.1138221E+00
          1   -1    0    0  502    0 -0.00000000000E+00  0.00000000000E+00  0.61830653916E+03  0.61830653916E+03  0.00000000000E+00 0. -1.
         21   -1    0    0  501  502  0.00000000000E+00 -0.00000000000E+00 -0.10548420728E+03  0.10548420728E+03  0.00000000000E+00 0.  1.
         23    2    1    2    0    0 -0.45466809662E+02  0.38501047907E+02 -0.34471092010E+02  0.11414604042E+03  0.91057678906E+02 0.  0.
        -24    2    1    2    0    0 -0.54668154266E+02  0.59117651178E+02  0.34756990061E+03  0.36582939239E+03  0.80887605686E+02 0.  0.
         11    1    4    4    0    0 -0.64423488752E+02  0.14672798242E+02  0.16653604601E+03  0.17916453760E+03  0.00000000000E+00 0. -1.
        -12    1    4    4    0    0  0.97553344865E+01  0.44444852936E+02  0.18103385460E+03  0.18666485479E+03  0.00000000000E+00 0.  1.
        -11    1    3    3    0    0 -0.52018400590E+02 -0.14029577415E+02 -0.28278438666E+02  0.60847457923E+02  0.00000000000E+00 0.  1.
         11    1    3    3    0    0  0.65515909280E+01  0.52530625322E+02 -0.61926533446E+01  0.53298582493E+02  0.00000000000E+00 0. -1.
          2    1    1    2  501    0  0.10013496393E+03 -0.97618699084E+02  0.19972352328E+03  0.24381531364E+03  0.00000000000E+00 0. -1.
<scales pt_clust_5="13000.00000" pt_clust_6="13000.00000" pt_clust_7="13000.00000" pt_clust_8="13000.00000" pt_clust_9="13000.00000"></scales>
<clustering>
<clus scale="   80.888">  5  6 -1 -1</clus>
<clus scale="   91.058">  7  8 -1 -1</clus>
<clus scale="  108.817">  1  7  2 -1</clus>
<clus scale="  117.071">  5  9 -1 -1</clus>
<clus scale="  268.583">  2  5  1 -1</clus>
</clustering>
</event>
<event>
 9    1  0.4516508E-005  0.2150783E+03  0.7546771E-02  0.1172776E+00
          1   -1    0    0  502    0 -0.00000000000E+00  0.00000000000E+00  0.56932920731E+02  0.56932920731E+02  0.00000000000E+00 0. -1.
         21   -1    0    0  501  502  0.00000000000E+00 -0.00000000000E+00 -0.42380978406E+03  0.42380978406E+03  0.00000000000E+00 0. -1.
         23    2    1    2    0    0 -0.13189576829E+02 -0.67813492455E+01 -0.91240983895E+02  0.13112320302E+03  0.92996911740E+02 0.  0.
        -24    2    1    2    0    0  0.76002794151E+02 -0.54538468070E+02 -0.19275071824E+03  0.22889017554E+03  0.80541938506E+02 0.  0.
         11    1    4    4    0    0  0.74787110716E+02 -0.69681116099E+02 -0.18606217716E+03  0.21229155339E+03  0.00000000000E+00 0. -1.
        -12    1    4    4    0    0  0.12156834347E+01  0.15142648030E+02 -0.66885410794E+01  0.16598622152E+02  0.00000000000E+00 0.  1.
        -11    1    3    3    0    0 -0.25037171730E+02  0.18067732832E+02 -0.98023410428E+02  0.10277106563E+03  0.00000000000E+00 0. -1.
         11    1    3    3    0    0  0.11847594901E+02 -0.24849082078E+02  0.67824265332E+01  0.28352137392E+02  0.00000000000E+00 0.  1.
          2    1    1    2  501    0 -0.62813217322E+02  0.61319817315E+02 -0.82885161186E+02  0.12072932623E+03  0.00000000000E+00 0. -1.
<scales pt_clust_5="13000.00000" pt_clust_6="13000.00000" pt_clust_7="13000.00000" pt_clust_8="13000.00000" pt_clust_9="13000.00000"></scales>
<clustering>
<clus scale="   80.542">  5  6 -1 -1</clus>
<clus scale="   87.782">  5  9 -1 -1</clus>
<clus scale="   92.997">  7  8 -1 -1</clus>
<clus scale="   94.172">  1  7  2 -1</clus>
<clus scale="  215.078">  2  5  1 -1</clus>
</clustering>
</event>
<event>
 9    1  0.4516508E-005  0.3647522E+03  0.7546771E-02  0.1076409E+00
          1   -1    0    0  502    0 -0.00000000000E+00  0.00000000000E+00  0.23703288719E+03  0.23703288719E+03  0.00000000000E+00 0. -1.
         21   -1    0    0  501  502  0.00000000000E+00 -0.00000000000E+00 -0.43827231642E+03  0.43827231642E+03  0.00000000000E+00 0. -1.
         23    2    1    2    0    0 -0.92980454000E+02  0.16598796058E+03  0.67581062167E+02  0.22219525699E+03  0.92769415118E+02 0.  0.
        -24    2    1    2    0    0 -0.38627888184E+02 -0.62244590561E+02  0.29477431692E+02  0.11096218106E+03  0.77956294468E+02 0.  0.
         11    1    4    4    0    0 -0.30128541539E+02 -0.56184538866E+02 -0.14818917685E+02  0.65452515186E+02  0.00000000000E+00 0. -1.
        -12    1    4    4    0    0 -0.84993466451E+01 -0.60600516941E+01  0.44296349377E+02  0.45509665875E+02  0.00000000000E+00 0.  1.
        -13    1    3    3    0    0  0.47373410575E+01  0.24754725006E+02 -0.17351241955E+02  0.30599091617E+02  0.00000000000E+00 0.  1.
         13    1    3    3    0    0 -0.97717795058E+02  0.14123323557E+03  0.84932304122E+02  0.19159616537E+03  0.00000000000E+00 0. -1.
          2    1    1    2  501    0  0.13160834218E+03 -0.10374337002E+03 -0.29829792309E+03  0.34214776555E+03  0.00000000000E+00 0. -1.
<scales pt_clust_5="13000.00000" pt_clust_6="13000.00000" pt_clust_7="13000.00000" pt_clust_8="13000.00000" pt_clust_9="13000.00000"></scales>
<clustering>
<clus scale="   77.956">  5  6 -1 -1</clus>
<clus scale="   92.769">  7  8 -1 -1</clus>
<clus scale="  167.581">  5  9 -1 -1</clus>
<clus scale="  211.668">  1  7  2 -1</clus>
<clus scale="  364.752">  2  5  1 -1</clus>
</clustering>
</event>
<event>
 9    1  0.4516508E-005  0.4604109E+03  0.7546771E-02  0.1058521E+00
          1   -1    0    0  502    0 -0.00000000000E+00  0.00000000000E+00  0.72232398665E+03  0.72232398665E+03  0.00000000000E+00 0. -1.
         21   -1    0    0  501  502  0.00000000000E+00 -0.00000000000E+00 -0.14346287827E+03  0.14346287827E+03  0.00000000000E+00 0. -1.
         23    2    1    2    0    0  0.11740412693E+03 -0.88250290356E+02  0.23346677718E+03  0.29022156423E+03  0.90277225959E+02 0.  0.
        -24    2    1    2    0    0  0.12064314259E+03 -0.24047758313E+02  0.26129820676E+03  0.29925114541E+03  0.78367293184E+02 0.  0.
         13    1    4    4    0    0  0.20961119093E+02  0.20099466827E+02  0.10319941186E+03  0.10720762887E+03  0.00000000000E+00 0. -1.
        -14    1    4    4    0    0  0.99682023496E+02 -0.44147225140E+02  0.15809879490E+03  0.19204351654E+03  0.00000000000E+00 0.  1.
        -11    1    3    3    0    0 -0.62965442435E+01 -0.28255153120E+02  0.16376081673E+02  0.33259227264E+02  0.00000000000E+00 0.  1.
         11    1    3    3    0    0  0.12370067118E+03 -0.59995137236E+02  0.21709069551E+03  0.25696233697E+03  0.00000000000E+00 0. -1.
          2    1    1    2  501    0 -0.23804726952E+03  0.11229804867E+03  0.84096124428E+02  0.27631415528E+03  0.00000000000E+00 0. -1.
<scales pt_clust_5="13000.00000" pt_clust_6="13000.00000" pt_clust_7="13000.00000" pt_clust_8="13000.00000" pt_clust_9="13000.00000"></scales>
<clustering>
<clus scale="   78.367">  5  6 -1 -1</clus>
<clus scale="   90.277">  7  8 -1 -1</clus>
<clus scale="  172.400">  1  7  2 -1</clus>
<clus scale="  207.244">  5  9 -1 -1</clus>
<clus scale="  460.411">  2  5  1 -1</clus>
</clustering>
</event>
<event>
 9    1  0.4516508E-005  0.4022034E+03  0.7546771E-02  0.1047090E+00
          1   -1    0    0  502    0 -0.00000000000E+00  0.00000000000E+00  0.41449842955E+03  0.41449842955E+03  0.00000000000E+00 0. -1.
         21   -1    0    0  501  502  0.00000000000E+00 -0.00000000000E+00 -0.61908187677E+03  0.61908187677E+03  0.00000000000E+00 0. -1.
         23    2    1    2    0    0 -0.24551362197E+03 -0.24306956930E+03  0.24254503842E+03  0.43217242191E+03  0.92656098050E+02 0.  0.
        -24    2    1    2    0    0  0.13160923960E+03  0.38891641228E+02 -0.12275380165E+03  0.20155569892E+03  0.81991781553E+02 0.  0.
         13    1    4    4    0    0  0.14233063742E+03  0.31311168438E+02 -0.10568857244E+03  0.18002353724E+03  0.00000000000E+00 0. -1.
        -14    1    4    4    0    0 -0.10721397811E+02  0.75804727900E+01 -0.17065229211E+02  0.21532161683E+02  0.00000000000E+00 0.  1.
        -11    1    3    3    0    0 -0.27159540575E+02 -0.46294758767E+02  0.43679904420E+01  0.53850948683E+02  0.00000000000E+00 0.  1.
         11    1    3    3    0    0 -0.21835408139E+03 -0.19677481053E+03  0.23817704797E+03  0.37832147322E+03  0.00000000000E+00 0. -1.
          2    1    1    2  501    0  0.11390438236E+03  0.20417792807E+03 -0.32437468398E+03  0.39985218549E+03  0.00000000000E+00 0. -1.
<scales pt_clust_5="13000.00000" pt_clust_6="13000.00000" pt_clust_7="13000.00000" pt_clust_8="13000.00000" pt_clust_9="13000.00000"></scales>
<clustering>
<clus scale="   81.992">  5  6 -1 -1</clus>
<clus scale="   92.656">  7  8 -1 -1</clus>
<clus scale="  233.801">  5  9 -1 -1</clus>
<clus scale="  357.694">  1  7  2 -1</clus>
<clus scale="  402.203">  2  5  1 -1</clus>
</clustering>
</event>
<event>
 9    1  0.4516508E-005  0.3452536E+03  0.7546771E-02  0.1092704E+00
          1   -1    0    0  502    0 -0.00000000000E+00  0.00000000000E+00  0.88405596314E+03  0.88405596314E+03  0.00000000000E+00 0. -1.
         21   -1    0    0  501  502  0.00000000000E+00 -0.00000000000E+00 -0.11376183745E+03  0.11376183745E+03  0.00000000000E+00 0. -1.
         23    2    1    2    0    0  0.11942529085E+03 -0.63158640472E+02  0.58315196551E+03  0.60510641878E+03  0.88522026717E+02 0.  0.
        -24    2    1    2    0    0  0.84572631698E+02  0.62671477531E+00  0.12348563518E+03  0.17005122077E+03  0.80720460764E+02 0.  0.
         11    1    4    4    0    0  0.42109342108E+02 -0.38474437756E+02  0.45156270884E+02  0.72750036794E+02  0.00000000000E+00 0. -1.
        -12    1    4    4    0    0  0.42463289591E+02  0.39101152532E+02  0.78329364296E+02  0.97301183976E+02  0.00000000000E+00 0.  1.
        -11    1    3    3    0    0  0.26585047165E+02 -0.55387453530E+02  0.15088235924E+03  0.16291108333E+03  0.00000000000E+00 0.  1.
         11    1    3    3    0    0  0.92840243688E+02 -0.77711869419E+01  0.43226960626E+03  0.44219533545E+03  0.00000000000E+00 0. -1.
          2    1    1    2  501    0 -0.20399792255E+03  0.62531925697E+02  0.63656525011E+02  0.22266016104E+03  0.00000000000E+00 0. -1.
<scales pt_clust_5="13000.00000" pt_clust_6="13000.00000" pt_clust_7="13000.00000" pt_clust_8="13000.00000" pt_clust_9="13000.00000"></scales>
<clustering>
<clus scale="   80.720">  5  6 -1 -1</clus>
<clus scale="   88.522">  7  8 -1 -1</clus>
<clus scale="  161.516">  1  7  2 -1</clus>
<clus scale="  148.378">  5  9 -1 -1</clus>
<clus scale="  345.254">  2  5  1 -1</clus>
</clustering>
</event>
<event>
 9    1  0.4516508E-005  0.1851044E+03  0.7546771E-02  0.1183402E+00
          3   -1    0    0  502    0 -0.00000000000E+00  0.00000000000E+00  0.42701955981E+03  0.42701955981E+03  0.00000000000E+00 0. -1.
         21   -1    0    0  501  502  0.00000000000E+00 -0.00000000000E+00 -0.82136414509E+02  0.82136414509E+02  0.00000000000E+00 0. -1.
         23    2    1    2    0    0  0.62630545365E+01  0.71864643528E+02 -0.16771013345E+01  0.11625948595E+03  0.91157569966E+02 0.  0.
        -24    2    1    2    0    0  0.21358447109E+02  0.15885580547E+02  0.10594297243E+03  0.13529268051E+03  0.79822685125E+02 0.  0.
         13    1    4    4    0    0  0.44905830292E+02 -0.10625823688E+02  0.75855301208E+02  0.88788898205E+02  0.00000000000E+00 0. -1.
        -14    1    4    4    0    0 -0.23547383182E+02  0.26511404235E+02  0.30087671224E+02  0.46503782308E+02  0.00000000000E+00 0.  1.
        -11    1    3    3    0    0  0.27758110432E+02 -0.76416844571E+01  0.14638068635E+02  0.32298314035E+02  0.00000000000E+00 0.  1.
         11    1    3    3    0    0 -0.21495055896E+02  0.79506327985E+02 -0.16315169970E+02  0.83961171912E+02  0.00000000000E+00 0. -1.
          4    1    1    2  501    0 -0.27621501646E+02 -0.87750224075E+02  0.24061727420E+03  0.25760380785E+03  0.00000000000E+00 0. -1.
<scales pt_clust_5="13000.00000" pt_clust_6="13000.00000" pt_clust_7="13000.00000" pt_clust_8="13000.00000" pt_clust_9="13000.00000"></scales>
<clustering>
<clus scale="   79.823">  5  6 -1 -1</clus>
<clus scale="   91.158">  7  8 -1 -1</clus>
<clus scale="   91.995">  5  9 -1 -1</clus>
<clus scale="  116.247">  1  7  2 -1</clus>
<clus scale="  185.104">  2  5  1 -1</clus>
</clustering>
</event>
<event>
 9    1  0.4516508E-005  0.3109672E+03  0.7546771E-02  0.1087006E+00
         21   -1    0    0  501  502  0.00000000000E+00  0.00000000000E+00  0.20754983967E+03  0.20754983967E+03  0.00000000000E+00 0. -1.
          1   -1    0    0  502    0 -0.00000000000E+00 -0.00000000000E+00 -0.39291641801E+03  0.39291641801E+03  0.00000000000E+00 0. -1.
         23    2    1    2    0    0 -0.24770371273E+03 -0.23649675062E+02 -0.11546285493E+03  0.28173889525E+03  0.64254943787E+02 0.  0.
        -24    2    1    2    0    0  0.28582682953E+02  0.31719339087E+02 -0.33408974281E+02  0.96441483693E+02  0.79760353419E+02 0.  0.
         11    1    4    4    0    0  0.75547352111E+01  0.44013530404E+02  0.10819444897E+02  0.45949159629E+02  0.00000000000E+00 0. -1.
        -12    1    4    4    0    0  0.21027947742E+02 -0.12294191316E+02 -0.44228419179E+02  0.50492324064E+02  0.00000000000E+00 0.  1.
        -11    1    3    3    0    0 -0.10332978794E+03  0.20514920558E+02 -0.37518920108E+02  0.11182833455E+03  0.00000000000E+00 0.  1.
         11    1    3    3    0    0 -0.14437392479E+03 -0.44164595620E+02 -0.77943934818E+02  0.16991056071E+03  0.00000000000E+00 0. -1.
          2    1    1    2  501    0  0.21912102978E+03 -0.80696640254E+01 -0.36494749131E+02  0.22228587873E+03  0.00000000000E+00 0. -1.
<scales pt_clust_5="13000.00000" pt_clust_6="13000.00000" pt_clust_7="13000.00000" pt_clust_8="13000.00000" pt_clust_9="13000.00000"></scales>
<clustering>
<clus scale="   64.255">  7  8 -1 -1</clus>
<clus scale="   79.760">  5  6 -1 -1</clus>
<clus scale="  219.270">  5  9 -1 -1</clus>
<clus scale="  256.992">  2  7  1 -1</clus>
<clus scale="  310.967">  1  5  2 -1</clus>
</clustering>
</event>
<event>
 9    1  0.4516508E-005  0.2768497E+03  0.7546771E-02  0.1131855E+00
         21   -1    0    0  501  502  0.00000000000E+00  0.00000000000E+00  0.70431181208E+03  0.70431181208E+03  0.00000000000E+00 0. -1.
          1   -1    0    0  502    0 -0.00000000000E+00 -0.00000000000E+00 -0.55326028320E+02  0.55326028320E+02  0.00000000000E+00 0. -1.
         23    2    1    2    0    0 -0.15218619385E+02  0.69033251654E+02  0.22733471317E+03  0.25522193539E+03  0.91978085894E+02 0.  0.
        -24    2    1    2    0    0 -0.76982909893E+02  0.47662704535E+01  0.34765865694E+03  0.36505174626E+03  0.80294146452E+02 0.  0.
         11    1    4    4    0    0 -0.43254501310E+02 -0.25936517684E+02  0.27256647786E+03  0.27719332547E+03  0.00000000000E+00 0. -1.
        -12    1    4    4    0    0 -0.33728408583E+02  0.30702788137E+02  0.75092179083E+02  0.87858420793E+02  0.00000000000E+00 0.  1.
        -13    1    3    3    0    0 -0.39088999367E+01 -0.22320639167E+02  0.61660901023E+02  0.65692900275E+02  0.00000000000E+00 0. -1.
         13    1    3    3    0    0 -0.11309719448E+02  0.91353890821E+02  0.16567381214E+03  0.18952903512E+03  0.00000000000E+00 0.  1.
          2    1    1    2  501    0  0.92201529277E+02 -0.73799522108E+02  0.73992413650E+02  0.13936415874E+03  0.00000000000E+00 0. -1.
<scales pt_clust_5="13000.00000" pt_clust_6="13000.00000" pt_clust_7="13000.00000" pt_clust_8="13000.00000" pt_clust_9="13000.00000"></scales>
<clustering>
<clus scale="   80.294">  5  6 -1 -1</clus>
<clus scale="   91.978">  7  8 -1 -1</clus>
<clus scale="  116.005">  2  7  1 -1</clus>
<clus scale="   82.465">  5  9 -1 -1</clus>
<clus scale="  276.850">  1  5  2 -1</clus>
</clustering>
</event>
<event>
 9    1  0.4516508E-005  0.6043375E+03  0.7546771E-02  0.1039941E+00
         21   -1    0    0  501  502  0.00000000000E+00  0.00000000000E+00  0.16649771223E+03  0.16649771223E+03  0.00000000000E+00 0. -1.
          1   -1    0    0  502    0 -0.00000000000E+00 -0.00000000000E+00 -0.88254481312E+03  0.88254481312E+03  0.00000000000E+00 0. -1.
         23    2    1    2    0    0  0.58567804708E+02 -0.68991593067E+02 -0.26477447807E+03  0.29480729158E+03  0.92821265187E+02 0.  0.
        -24    2    1    2    0    0 -0.21283799306E+03 -0.54108043578E+02  0.27769986856E+02  0.23612845574E+03  0.82205740481E+02 0.  0.
         11    1    4    4    0    0 -0.15221204050E+03 -0.23109038452E+01  0.34549224912E+02  0.15610091125E+03  0.00000000000E+00 0. -1.
        -12    1    4    4    0    0 -0.60625952561E+02 -0.51797139733E+02 -0.67792380555E+01  0.80027544490E+02  0.00000000000E+00 0.  1.
        -13    1    3    3    0    0  0.30119112984E+02 -0.86956910928E+02 -0.22248411198E+03  0.24076512499E+03  0.00000000000E+00 0.  1.
         13    1    3    3    0    0  0.28448691724E+02  0.17965317861E+02 -0.42290366089E+02  0.54042166598E+02  0.00000000000E+00 0. -1.
          2    1    1    2  501    0  0.15427018835E+03  0.12309963664E+03 -0.47904260967E+03  0.51810677803E+03  0.00000000000E+00 0. -1.
<scales pt_clust_5="13000.00000" pt_clust_6="13000.00000" pt_clust_7="13000.00000" pt_clust_8="13000.00000" pt_clust_9="13000.00000"></scales>
<clustering>
<clus scale="   82.206">  5  6 -1 -1</clus>
<clus scale="   92.821">  7  8 -1 -1</clus>
<clus scale="  129.637">  2  7  1 -1</clus>
<clus scale="  213.199">  5  9 -1 -1</clus>
<clus scale="  604.337">  1  5  2 -1</clus>
</clustering>
</event>
<event>
 9    1  0.4516508E-005  0.2884641E+03  0.7546771E-02  0.1097110E+00
         21   -1    0    0  501  502  0.00000000000E+00  0.00000000000E+00  0.19049359970E+03  0.19049359970E+03  0.00000000000E+00 0.  1.
          1   -1    0    0  502    0 -0.00000000000E+00 -0.00000000000E+00 -0.49980222278E+03  0.49980222278E+03  0.00000000000E+00 0. -1.
         23    2    1    2    0    0  0.18397872442E+03  0.13609826337E+03  0.25855910145E+02  0.24808911121E+03  0.92242997989E+02 0.  0.
        -24    2    1    2    0    0 -0.47587405380E+02 -0.11500315044E+03 -0.14900139584E+03  0.21046480866E+03  0.81263361743E+02 0.  0.
         13    1    4    4    0    0  0.84223201993E+01 -0.28471174563E+02 -0.82793319994E+02  0.87956108908E+02  0.00000000000E+00 0. -1.
        -14    1    4    4    0    0 -0.56009725579E+02 -0.86531975880E+02 -0.66208075845E+02  0.12250869976E+03  0.00000000000E+00 0.  1.
        -11    1    3    3    0    0  0.11397997176E+03  0.13103343737E+03  0.35460962333E+02  0.17725313967E+03  0.00000000000E+00 0.  1.
         11    1    3    3    0    0  0.69998752662E+02  0.50648259974E+01 -0.96050521876E+01  0.70835971541E+02  0.00000000000E+00 0. -1.
          2    1    1    2  501    0 -0.13639131904E+03 -0.21095112928E+02 -0.18616313739E+03  0.23174190260E+03  0.00000000000E+00 0. -1.
<scales pt_clust_5="13000.00000" pt_clust_6="13000.00000" pt_clust_7="13000.00000" pt_clust_8="13000.00000" pt_clust_9="13000.00000"></scales>
<clustering>
<clus scale="   81.263">  5  6 -1 -1</clus>
<clus scale="   92.243">  7  8 -1 -1</clus>
<clus scale="  138.013">  5  9 -1 -1</clus>
<clus scale="  246.738">  2  7  1 -1</clus>
<clus scale="  288.464">  1  5  2 -1</clus>
</clustering>
</event>
<event>
 9    1  0.4516508E-005  0.1792791E+03  0.7546771E-02  0.1195302E+00
         21   -1    0    0  501  502  0.00000000000E+00  0.00000000000E+00  0.10347033057E+03  0.10347033057E+03  0.00000000000E+00 0. -1.
          1   -1    0    0  502    0 -0.00000000000E+00 -0.00000000000E+00 -0.19014688545E+03  0.19014688545E+03  0.00000000000E+00 0. -1.
         23    2    1    2    0    0  0.31302123492E+01 -0.39674650963E+02 -0.51172604335E+02  0.11085632777E+03  0.89925601548E+02 0.  0.
        -24    2    1    2    0    0  0.66378340303E+02  0.26363509304E+02 -0.23577140704E+02  0.11099129736E+03  0.81621491297E+02 0.  0.
         11    1    4    4    0    0  0.47147959744E+02 -0.12225942193E+00  0.24263824594E+02  0.53025260389E+02  0.00000000000E+00 0. -1.
        -12    1    4    4    0    0  0.19230380558E+02  0.26485768726E+02 -0.47840965297E+02  0.57966036970E+02  0.00000000000E+00 0.  1.
        -11    1    3    3    0    0 -0.61689570649E+01 -0.19479597916E+02  0.24547934212E+02  0.31939189725E+02  0.00000000000E+00 0.  1.
         11    1    3    3    0    0  0.92991694141E+01 -0.20195053047E+02 -0.75720538546E+02  0.78917138044E+02  0.00000000000E+00 0. -1.
          2    1    1    2  501    0 -0.69508552652E+02  0.13311141659E+02 -0.11926809835E+02  0.71769590892E+02  0.00000000000E+00 0. -1.
<scales pt_clust_5="13000.00000" pt_clust_6="13000.00000" pt_clust_7="13000.00000" pt_clust_8="13000.00000" pt_clust_9="13000.00000"></scales>
<clustering>
<clus scale="   81.621">  5  6 -1 -1</clus>
<clus scale="   70.772">  5  9 -1 -1</clus>
<clus scale="   89.926">  7  8 -1 -1</clus>
<clus scale="   98.339">  2  7  1 -1</clus>
<clus scale="  179.279">  1  5  2 -1</clus>
</clustering>
</event>
<event>
 9    1  0.4516508E-005  0.1989160E+03  0.7546771E-02  0.1172660E+00
          1   -1    0    0  502    0 -0.00000000000E+00  0.00000000000E+00  0.26238332515E+03  0.26238332515E+03  0.00000000000E+00 0. -1.
         21   -1    0    0  501  502  0.00000000000E+00 -0.00000000000E+00 -0.39972856160E+03  0.39972856160E+03  0.00000000000E+00 0. -1.
         23    2    1    2    0    0 -0.77674464974E+02 -0.23106988304E+02  0.22161950503E+03  0.25171783426E+03  0.87632229570E+02 0.  0.
        -24    2    1    2    0    0  0.50543154469E+02 -0.24550946837E+02 -0.10093755788E+03  0.14660357831E+03  0.90259953076E+02 0.  0.
         13    1    4    4    0    0  0.17210941898E+02 -0.56102271997E+02 -0.69555738368E+02  0.91003748187E+02  0.00000000000E+00 0. -1.
        -14    1    4    4    0    0  0.33332212571E+02  0.31551325159E+02 -0.31381819514E+02  0.55599830128E+02  0.00000000000E+00 0.  1.
        -11    1    3    3    0    0 -0.85808020575E+02 -0.14608589009E+01  0.12018321185E+03  0.14767922980E+03  0.00000000000E+00 0. -1.
         11    1    3    3    0    0  0.81335556013E+01 -0.21646129403E+02  0.10143629317E+03  0.10403860446E+03  0.00000000000E+00 0.  1.
          2    1    1    2  501    0  0.27131310505E+02  0.47657935141E+02 -0.25802718360E+03  0.26379047418E+03  0.00000000000E+00 0. -1.
<scales pt_clust_5="13000.00000" pt_clust_6="13000.00000" pt_clust_7="13000.00000" pt_clust_8="13000.00000" pt_clust_9="13000.00000"></scales>
<clustering>
<clus scale="   87.632">  7  8 -1 -1</clus>
<clus scale="   90.260">  5  6 -1 -1</clus>
<clus scale="   54.840">  5  9 -1 -1</clus>
<clus scale="  119.359">  1  7  2 -1</clus>
<clus scale="  198.916">  2  5  1 -1</clus>
</clustering>
</event>
<event>
 9    1  0.4516508E-005  0.3118115E+03  0.7546771E-02  0.1084071E+00
          1   -1    0    0  502    0 -0.00000000000E+00  0.00000000000E+00  0.76377907758E+03  0.76377907758E+03  0.00000000000E+00 0. -1.
         21   -1    0    0  501  502  0.00000000000E+00 -0.00000000000E+00 -0.11343470277E+03  0.11343470277E+03  0.00000000000E+00 0. -1.
         23    2    1    2    0    0  0.95807313499E+02 -0.23937446375E+03  0.33342226487E+03  0.43261730849E+03  0.97509761973E+02 0.  0.
        -24    2    1    2    0    0 -0.61754076996E+02  0.51369916856E+02  0.16461878954E+03  0.20025729371E+03  0.80939504769E+02 0.  0.
         13    1    4    4    0    0 -0.61572160611E+02  0.21014486554E+02  0.51037821542E+02  0.82689774671E+02  0.00000000000E+00 0. -1.
        -14    1    4    4    0    0 -0.18191638527E+00  0.30355430303E+02  0.11358096800E+03  0.11756751904E+03  0.00000000000E+00 0.  1.
        -11    1    3    3    0    0  0.48030601906E+02 -0.10537611799E+03  0.22741570068E+03  0.25520377325E+03  0.00000000000E+00 0. -1.
         11    1    3    3    0    0  0.47776711593E+02 -0.13399834576E+03  0.10600656419E+03  0.17741353525E+03  0.00000000000E+00 0.  1.
          2    1    1    2  501    0 -0.34053236503E+02  0.18800454690E+03  0.15230332040E+03  0.24433917814E+03  0.00000000000E+00 0. -1.
<scales pt_clust_5="13000.00000" pt_clust_6="13000.00000" pt_clust_7="13000.00000" pt_clust_8="13000.00000" pt_clust_9="13000.00000"></scales>
<clustering>
<clus scale="   80.940">  5  6 -1 -1</clus>
<clus scale="   97.510">  7  8 -1 -1</clus>
<clus scale="  191.064">  5  9 -1 -1</clus>
<clus scale="  275.658">  1  7  2 -1</clus>
<clus scale="  311.811">  2  5  1 -1</clus>
</clustering>
</event>
<event>
 9    1  0.4516508E-005  0.4857039E+03  0.7546771E-02  0.1059213E+00
         21   -1    0    0  501  502  0.00000000000E+00  0.00000000000E+00  0.13264215009E+03  0.13264215009E+03  0.00000000000E+00 0. -1.
          1   -1    0    0  502    0 -0.00000000000E+00 -0.00000000000E+00 -0.89493257491E+03  0.89493257491E+03  0.00000000000E+00 0. -1.
         23    2    1    2    0    0 -0.51393326806E+02 -0.10233713929E+03 -0.38957367583E+03  0.41534433382E+03  0.87344734346E+02 0.  0.
        -24    2    1    2    0    0 -0.12277846236E+02 -0.17640843456E+03 -0.10618687844E+03  0.22134513294E+03  0.80295288967E+02 0.  0.
         13    1    4    4    0    0 -0.24947376527E+02 -0.17430077240E+03 -0.82601523472E+02  0.19448944068E+03  0.00000000000E+00 0. -1.
        -14    1    4    4    0    0  0.12669530290E+02 -0.21076621548E+01 -0.23585354972E+02  0.26855692258E+02  0.00000000000E+00 0.  1.
        -13    1    3    3    0    0 -0.68749826030E+02 -0.88980278354E+02 -0.36721881915E+03  0.38404907193E+03  0.00000000000E+00 0. -1.
         13    1    3    3    0    0  0.17356499224E+02 -0.13356860938E+02 -0.22354856685E+02  0.31295261891E+02  0.00000000000E+00 0.  1.
          2    1    1    2  501    0  0.63671173042E+02  0.27874557385E+03 -0.26652987055E+03  0.39088525824E+03  0.00000000000E+00 0. -1.
<scales pt_clust_5="13000.00000" pt_clust_6="13000.00000" pt_clust_7="13000.00000" pt_clust_8="13000.00000" pt_clust_9="13000.00000"></scales>
<clustering>
<clus scale="   80.295">  5  6 -1 -1</clus>
<clus scale="   87.345">  7  8 -1 -1</clus>
<clus scale="  144.025">  2  7  1 -1</clus>
<clus scale="  212.479">  5  9 -1 -1</clus>
<clus scale="  485.704">  1  5  2 -1</clus>
</clustering>
</event>
<event>
 9    1  0.4516508E-005  0.1891664E+03  0.7546771E-02  0.1187422E+00
         21   -1    0    0  501  502  0.00000000000E+00  0.00000000000E+00  0.75441085423E+03  0.75441085423E+03  0.00000000000E+00 0.  1.
          1   -1    0    0  502    0 -0.00000000000E+00 -0.00000000000E+00 -0.27633545597E+02  0.27633545597E+02  0.00000000000E+00 0. -1.
         23    2    1    2    0    0  0.39540570781E+02  0.40121837516E+01  0.24722639960E+03  0.26653202832E+03  0.91317441430E+02 0.  0.
        -24    2    1    2    0    0 -0.23312110553E+02  0.69724976706E+02  0.21841926482E+03  0.24368472875E+03  0.79184878014E+02 0.  0.
         11    1    4    4    0    0 -0.33366679570E+02 -0.11029254428E-01  0.41488203911E+02  0.53241022632E+02  0.00000000000E+00 0. -1.
        -12    1    4    4    0    0  0.10054569017E+02  0.69736005960E+02  0.17693106091E+03  0.19044370611E+03  0.00000000000E+00 0.  1.
        -13    1    3    3    0    0 -0.16650696445E+02  0.23539522424E+02  0.14846192116E+03  0.15123589799E+03  0.00000000000E+00 0.  1.
         13    1    3    3    0    0  0.56191267227E+02 -0.19527338672E+02  0.98764478441E+02  0.11529613033E+03  0.00000000000E+00 0. -1.
          2    1    1    2  501    0 -0.16228460229E+02 -0.73737160457E+02  0.26113164422E+03  0.27182764275E+03  0.00000000000E+00 0. -1.
<scales pt_clust_5="13000.00000" pt_clust_6="13000.00000" pt_clust_7="13000.00000" pt_clust_8="13000.00000" pt_clust_9="13000.00000"></scales>
<clustering>
<clus scale="   79.185">  5  6 -1 -1</clus>
<clus scale="   75.502">  5  9 -1 -1</clus>
<clus scale="   91.317">  7  8 -1 -1</clus>
<clus scale="   99.591">  2  7  1 -1</clus>
<clus scale="  189.166">  1  5  2 -1</clus>
</clustering>
</event>
<event>
 9    1  0.4516508E-005  0.1669257E+03  0.7546771E-02  0.1201465E+00
         -2   -1    0    0    0  501 -0.00000000000E+00  0.00000000000E+00  0.11298567276E+03  0.11298567276E+03  0.00000000000E+00 0.  1.
         21   -1    0    0  501  502  0.00000000000E+00 -0.00000000000E+00 -0.17919602073E+03  0.17919602073E+03  0.00000000000E+00 0.  1.
         23    2    1    2    0    0 -0.44930668667E+02  0.33327488280E+02  0.13183106755E+02  0.10733713514E+03  0.90653073943E+02 0.  0.
        -24    2    1    2    0    0 -0.18695507078E+02 -0.14459935115E+02 -0.85146055384E+02  0.11823099203E+03  0.78550016049E+02 0.  0.
         13    1    4    4    0    0 -0.39589384064E+02 -0.19440566741E+02 -0.17832705755E+02  0.47573736035E+02  0.00000000000E+00 0. -1.
        -14    1    4    4    0    0  0.20893876986E+02  0.49806316262E+01 -0.67313349629E+02  0.70657255998E+02  0.00000000000E+00 0.  1.
        -11    1    3    3    0    0 -0.71049768286E+02  0.15639653364E+02 -0.98350690874E+00  0.72757374999E+02  0.00000000000E+00 0.  1.
         11    1    3    3    0    0  0.26119099620E+02  0.17687834916E+02  0.14166613663E+02  0.34579760145E+02  0.00000000000E+00 0. -1.
         -1    1    1    2    0  502  0.63626175745E+02 -0.18867553165E+02  0.57526006651E+01  0.66613566312E+02  0.00000000000E+00 0.  1.
<scales pt_clust_5="13000.00000" pt_clust_6="13000.00000" pt_clust_7="13000.00000" pt_clust_8="13000.00000" pt_clust_9="13000.00000"></scales>
<clustering>
<clus scale="   78.550">  5  6 -1 -1</clus>
<clus scale="   66.365">  5  9 -1 -1</clus>
<clus scale="   90.653">  7  8 -1 -1</clus>
<clus scale="  106.524">  1  7  2 -1</clus>
<clus scale="  166.926">  2  5  1 -1</clus>
</clustering>
</event>
<event>
 9    1  0.4516508E-005  0.1265151E+03  0.7546771E-02  0.1243804E+00
         21   -1    0    0  501  502  0.00000000000E+00  0.00000000000E+00  0.24049379560E+02  0.24049379560E+02  0.00000000000E+00 0.  1.
          1   -1    0    0  502    0 -0.00000000000E+00 -0.00000000000E+00 -0.57112700729E+03  0.57112700729E+03  0.00000000000E+00 0. -1.
         23    2    1    2    0    0 -0.36677194336E+02 -0.18147463481E+02 -0.17317801028E+03  0.20045243086E+03  0.92282212699E+02 0.  0.
        -24    2    1    2    0    0  0.59540824963E+02  0.11620604600E+02 -0.32376928917E+03  0.33924066745E+03  0.81101970128E+02 0.  0.
         11    1    4    4    0    0  0.63788348574E+02  0.38078766282E+02 -0.24691102149E+03  0.25784491150E+03  0.00000000000E+00 0. -1.
        -12    1    4    4    0    0 -0.42475236110E+01 -0.26458161682E+02 -0.76858267676E+02  0.81395755950E+02  0.00000000000E+00 0.  1.
        -13    1    3    3    0    0 -0.51539612158E+02  0.31844486859E+01 -0.41542663458E+02  0.66274167079E+02  0.00000000000E+00 0.  1.
         13    1    3    3    0    0  0.14862417822E+02 -0.21331912167E+02 -0.13163534682E+03  0.13417826379E+03  0.00000000000E+00 0. -1.
          2    1    1    2  501    0 -0.22863630627E+02  0.65268588809E+01 -0.50130328281E+02  0.55483288527E+02  0.00000000000E+00 0. -1.
<scales pt_clust_5="13000.00000" pt_clust_6="13000.00000" pt_clust_7="13000.00000" pt_clust_8="13000.00000" pt_clust_9="13000.00000"></scales>
<clustering>
<clus scale="   81.102">  5  6 -1 -1</clus>
<clus scale="   23.777">  5  9 -1 -1</clus>
<clus scale="   92.282">  7  8 -1 -1</clus>
<clus scale="  100.948">  2  7  1 -1</clus>
<clus scale="  126.515">  1  5  2 -1</clus>
</clustering>
</event>
<event>
 9    1  0.4516508E-005  0.1832418E+03  0.7546771E-02  0.1195883E+00
          1   -1    0    0  502    0 -0.00000000000E+00  0.00000000000E+00  0.70433134671E+03  0.70433134671E+03  0.00000000000E+00 0. -1.
         21   -1    0    0  501  502  0.00000000000E+00 -0.00000000000E+00 -0.26897208117E+02  0.26897208117E+02  0.00000000000E+00 0. -1.
         23    2    1    2    0    0  0.62491279282E+01  0.95399236703E+01  0.19476852311E+03  0.21494988063E+03  0.90214255226E+02 0.  0.
        -24    2    1    2    0    0 -0.57745543536E+02 -0.40096150298E+02  0.39861647152E+03  0.41308069744E+03  0.82451938482E+02 0.  0.
         13    1    4    4    0    0 -0.67455812398E+02 -0.34266822984E+02  0.19521673321E+03  0.20936588717E+03  0.00000000000E+00 0. -1.
        -14    1    4    4    0    0  0.97102688618E+01 -0.58293273144E+01  0.20339973831E+03  0.20371481027E+03  0.00000000000E+00 0.  1.
        -11    1    3    3    0    0  0.67654694841E+01  0.31707004220E+02  0.18937510920E+03  0.19213026227E+03  0.00000000000E+00 0.  1.
         11    1    3    3    0    0 -0.51634155586E+00 -0.22167080550E+02  0.53934139076E+01  0.22819618364E+02  0.00000000000E+00 0. -1.
          2    1    1    2  501    0  0.51496415608E+02  0.30556226628E+02  0.84049143958E+02  0.10319797675E+03  0.00000000000E+00 0. -1.
<scales pt_clust_5="13000.00000" pt_clust_6="13000.00000" pt_clust_7="13000.00000" pt_clust_8="13000.00000" pt_clust_9="13000.00000"></scales>
<clustering>
<clus scale="   82.452">  5  6 -1 -1</clus>
<clus scale="   59.880">  5  9 -1 -1</clus>
<clus scale="   90.214">  7  8 -1 -1</clus>
<clus scale="   90.932">  1  7  2 -1</clus>
<clus scale="  183.242">  2  5  1 -1</clus>
</clustering>
</event>
<event>
 9    1  0.4516508E-005  0.2009128E+03  0.7546771E-02  0.1171560E+00
          1   -1    0    0  502    0 -0.00000000000E+00  0.00000000000E+00  0.14008678458E+04  0.14008678458E+04  0.00000000000E+00 0. -1.
         21   -1    0    0  501  502  0.00000000000E+00 -0.00000000000E+00 -0.18279890972E+02  0.18279890972E+02  0.00000000000E+00 0.  1.
         23    2    1    2    0    0  0.58318007415E+02  0.44723231025E+02  0.48154671072E+03  0.49597858912E+03  0.93307925078E+02 0.  0.
        -24    2    1    2    0    0  0.26228334291E+02 -0.94744240759E+01  0.22279345487E+03  0.23876383945E+03  0.81200722061E+02 0.  0.
         13    1    4    4    0    0  0.38755391943E+02  0.55382577901E+01  0.21359930876E+03  0.21715735633E+03  0.00000000000E+00 0. -1.
        -14    1    4    4    0    0 -0.12527057652E+02 -0.15012681866E+02  0.91941461142E+01  0.21606483124E+02  0.00000000000E+00 0.  1.
        -13    1    3    3    0    0 -0.35465189716E+01  0.51554782769E+02  0.29015415479E+03  0.29472004846E+03  0.00000000000E+00 0. -1.
         13    1    3    3    0    0  0.61864526387E+02 -0.68315517446E+01  0.19139255593E+03  0.20125854066E+03  0.00000000000E+00 0.  1.
          2    1    1    2  501    0 -0.84546341707E+02 -0.35248806949E+02  0.67824778925E+03  0.68440530821E+03  0.00000000000E+00 0. -1.
<scales pt_clust_5="13000.00000" pt_clust_6="13000.00000" pt_clust_7="13000.00000" pt_clust_8="13000.00000" pt_clust_9="13000.00000"></scales>
<clustering>
<clus scale="   81.201">  5  6 -1 -1</clus>
<clus scale="   91.600">  5  9 -1 -1</clus>
<clus scale="   93.308">  7  8 -1 -1</clus>
<clus scale="  118.775">  1  7  2 -1</clus>
<clus scale="  200.913">  2  5  1 -1</clus>
</clustering>
</event>
<event>
 9    1  0.4516508E-005  0.2209497E+03  0.7546771E-02  0.1147646E+00
         21   -1    0    0  501  502  0.00000000000E+00  0.00000000000E+00  0.29956569400E+02  0.29956569400E+02  0.00000000000E+00 0. -1.
          1   -1    0    0  502    0 -0.00000000000E+00 -0.00000000000E+00 -0.12643533847E+04  0.12643533847E+04  0.00000000000E+00 0. -1.
         23    2    1    2    0    0  0.22421112340E+02 -0.12511152719E+03 -0.35760889122E+03  0.39011095197E+03  0.90259820819E+02 0.  0.
        -24    2    1    2    0    0  0.49579038160E+02  0.57632337997E+02 -0.32779018468E+03  0.34640335809E+03  0.82275840396E+02 0.  0.
         11    1    4    4    0    0  0.42635834604E+02  0.74856264173E+02 -0.30538139209E+03  0.31729965224E+03  0.00000000000E+00 0. -1.
        -12    1    4    4    0    0  0.69432035552E+01 -0.17223926176E+02 -0.22408792593E+02  0.29103705847E+02  0.00000000000E+00 0.  1.
        -11    1    3    3    0    0  0.33867657430E+02 -0.14159490547E+02 -0.44260500753E+02  0.57502185343E+02  0.00000000000E+00 0.  1.
         11    1    3    3    0    0 -0.11446545090E+02 -0.11095203664E+03 -0.31334839047E+03  0.33260876663E+03  0.00000000000E+00 0. -1.
          2    1    1    2  501    0 -0.72000150499E+02  0.67479189191E+02 -0.54899773938E+03  0.55779564402E+03  0.00000000000E+00 0. -1.
<scales pt_clust_5="13000.00000" pt_clust_6="13000.00000" pt_clust_7="13000.00000" pt_clust_8="13000.00000" pt_clust_9="13000.00000"></scales>
<clustering>
<clus scale="   82.276">  5  6 -1 -1</clus>
<clus scale="   90.260">  7  8 -1 -1</clus>
<clus scale="   98.679">  5  9 -1 -1</clus>
<clus scale="  155.892">  2  7  1 -1</clus>
<clus scale="  220.950">  1  5  2 -1</clus>
</clustering>
</event>
<event>
 9    1  0.4516508E-005  0.1807728E+03  0.7546771E-02  0.1195396E+00
         21   -1    0    0  501  502  0.00000000000E+00  0.00000000000E+00  0.16192567758E+03  0.16192567758E+03  0.00000000000E+00 0. -1.
          1   -1    0    0  502    0 -0.00000000000E+00 -0.00000000000E+00 -0.14425586852E+03  0.14425586852E+03  0.00000000000E+00 0. -1.
         23    2    1    2    0    0  0.20083544448E+02  0.19570411992E+02 -0.56082459227E+02  0.11094270683E+03  0.91524271008E+02 0.  0.
        -24    2    1    2    0    0 -0.64999694194E+02  0.26617227247E+02  0.16250733258E+02  0.10888384486E+03  0.81597599899E+02 0.  0.
         11    1    4    4    0    0 -0.44652047841E+02 -0.12959240051E+02  0.37346011479E+02  0.59636162288E+02  0.00000000000E+00 0. -1.
        -12    1    4    4    0    0 -0.20347646353E+02  0.39576467298E+02 -0.21095278220E+02  0.49247682576E+02  0.00000000000E+00 0.  1.
        -13    1    3    3    0    0  0.54401442015E+02  0.23833560765E+02 -0.45371024807E+02  0.74740119106E+02  0.00000000000E+00 0.  1.
         13    1    3    3    0    0 -0.34317897566E+02 -0.42631487727E+01 -0.10711434420E+02  0.36202587727E+02  0.00000000000E+00 0. -1.
          2    1    1    2  501    0  0.44916149745E+02 -0.46187639239E+02  0.57501535033E+02  0.86354994399E+02  0.00000000000E+00 0. -1.
<scales pt_clust_5="13000.00000" pt_clust_6="13000.00000" pt_clust_7="13000.00000" pt_clust_8="13000.00000" pt_clust_9="13000.00000"></scales>
<clustering>
<clus scale="   81.598">  5  6 -1 -1</clus>
<clus scale="   64.426">  5  9 -1 -1</clus>
<clus scale="   91.524">  7  8 -1 -1</clus>
<clus scale="   95.724">  2  7  1 -1</clus>
<clus scale="  180.773">  1  5  2 -1</clus>
</clustering>
</event>
<event>
 9    1  0.4516508E-005  0.2169980E+03  0.7546771E-02  0.1151660E+00
         21   -1    0    0  501  502  0.00000000000E+00  0.00000000000E+00  0.17974150633E+03  0.17974150633E+03  0.00000000000E+00 0. -1.
          1   -1    0    0  502    0 -0.00000000000E+00 -0.00000000000E+00 -0.18720242524E+03  0.18720242524E+03  0.00000000000E+00 0. -1.
         23    2    1    2    0    0  0.40038782486E+02 -0.11569916395E+03  0.35014209199E+01  0.14966917691E+03  0.86018613851E+02 0.  0.
        -24    2    1    2    0    0 -0.23477056089E+02  0.10045274813E+03  0.59050172212E+02  0.14373227836E+03  0.80809146984E+02 0.  0.
         11    1    4    4    0    0 -0.34457778356E+02  0.10316028845E+03  0.68887092998E+02  0.12874321413E+03  0.00000000000E+00 0. -1.
        -12    1    4    4    0    0  0.10980722266E+02 -0.27075403241E+01 -0.98369207853E+01  0.14989064235E+02  0.00000000000E+00 0.  1.
        -13    1    3    3    0    0  0.29795910989E+02 -0.22449750912E+01 -0.16312663919E+02  0.34043196515E+02  0.00000000000E+00 0.  1.
         13    1    3    3    0    0  0.10242871497E+02 -0.11345418886E+03  0.19814084838E+02  0.11562598040E+03  0.00000000000E+00 0. -1.
          2    1    1    2  501    0 -0.16561726396E+02  0.15246415822E+02 -0.70012512047E+02  0.73542476296E+02  0.00000000000E+00 0. -1.
<scales pt_clust_5="13000.00000" pt_clust_6="13000.00000" pt_clust_7="13000.00000" pt_clust_8="13000.00000" pt_clust_9="13000.00000"></scales>
<clustering>
<clus scale="   80.809">  5  6 -1 -1</clus>
<clus scale="   22.511">  5  9 -1 -1</clus>
<clus scale="   86.019">  7  8 -1 -1</clus>
<clus scale="  149.628">  2  7  1 -1</clus>
<clus scale="  216.998">  1  5  2 -1</clus>
</clustering>
</event>
<event>
 9    1  0.4516508E-005  0.2006914E+03  0.7546771E-02  0.1183149E+00
         21   -1    0    0  501  502  0.00000000000E+00  0.00000000000E+00  0.30215576782E+03  0.30215576782E+03  0.00000000000E+00 0. -1.
          3   -1    0    0  502    0 -0.00000000000E+00 -0.00000000000E+00 -0.76048111767E+02  0.76048111767E+02  0.00000000000E+00 0. -1.
         23    2    1    2    0    0 -0.17557844417E+02  0.32573305926E-02  0.12044325225E+03  0.15139562215E+03  0.90032102510E+02 0.  0.
        -24    2    1    2    0    0 -0.64633339682E+02  0.14338675032E+02  0.10050367029E+03  0.14321570431E+03  0.77631720447E+02 0.  0.
         11    1    4    4    0    0 -0.62066209244E+02  0.41010162639E+02  0.81622640429E+02  0.11043687428E+03  0.00000000000E+00 0. -1.
        -12    1    4    4    0    0 -0.25671304383E+01 -0.26671487607E+02  0.18881029866E+02  0.32778830037E+02  0.00000000000E+00 0.  1.
        -13    1    3    3    0    0  0.32105925964E+02  0.10425718089E+02  0.78886402585E+02  0.85805306319E+02  0.00000000000E+00 0.  1.
         13    1    3    3    0    0 -0.49663770380E+02 -0.10422460758E+02  0.41556849662E+02  0.65590315829E+02  0.00000000000E+00 0. -1.
          4    1    1    2  501    0  0.82191184099E+02 -0.14341932363E+02  0.51607335114E+01  0.83592553124E+02  0.00000000000E+00 0. -1.
<scales pt_clust_5="13000.00000" pt_clust_6="13000.00000" pt_clust_7="13000.00000" pt_clust_8="13000.00000" pt_clust_9="13000.00000"></scales>
<clustering>
<clus scale="   77.632">  5  6 -1 -1</clus>
<clus scale="   83.433">  5  9 -1 -1</clus>
<clus scale="   90.032">  7  8 -1 -1</clus>
<clus scale="   91.728">  2  7  1 -1</clus>
<clus scale="  200.691">  1  5  2 -1</clus>
</clustering>
</event>
<event>
 9    1  0.4516508E-005  0.2191149E+03  0.7546771E-02  0.1157901E+00
          1   -1    0    0  502    0 -0.00000000000E+00  0.00000000000E+00  0.25245249874E+03  0.25245249874E+03  0.00000000000E+00 0. -1.
         21   -1    0    0  501  502  0.00000000000E+00 -0.00000000000E+00 -0.12397611947E+03  0.12397611947E+03  0.00000000000E+00 0.  1.
         23    2    1    2    0    0 -0.39332226896E+02  0.76924464272E+02  0.88804316477E+02  0.15375123070E+03  0.91043050481E+02 0.  0.
        -24    2    1    2    0    0  0.69860564813E+02 -0.10513388122E+03  0.76053279255E+02  0.16743841999E+03  0.79485166594E+02 0.  0.
         11    1    4    4    0    0  0.39543650975E+02 -0.20725506272E+01  0.83884459458E+01  0.40476682472E+02  0.00000000000E+00 0. -1.
        -12    1    4    4    0    0  0.30316913838E+02 -0.10306133059E+03  0.67664833309E+02  0.12696173752E+03  0.00000000000E+00 0.  1.
        -13    1    3    3    0    0 -0.49955963497E+02  0.51102966031E+02  0.10063375550E+03  0.12342716141E+03  0.00000000000E+00 0. -1.
         13    1    3    3    0    0  0.10623736602E+02  0.25821498241E+02 -0.11829439027E+02  0.30324069293E+02  0.00000000000E+00 0.  1.
          2    1    1    2  501    0 -0.30528337917E+02  0.28209416945E+02 -0.36381216460E+02  0.55238967510E+02  0.00000000000E+00 0. -1.
<scales pt_clust_5="13000.00000" pt_clust_6="13000.00000" pt_clust_7="13000.00000" pt_clust_8="13000.00000" pt_clust_9="13000.00000"></scales>
<clustering>
<clus scale="   79.485">  5  6 -1 -1</clus>
<clus scale="   41.566">  5  9 -1 -1</clus>
<clus scale="   91.043">  7  8 -1 -1</clus>
<clus scale="  125.512">  1  7  2 -1</clus>
<clus scale="  219.115">  2  5  1 -1</clus>
</clustering>
</event>
<event>
 9    1  0.4516508E-005  0.1611656E+03  0.7546771E-02  0.1207116E+00
         -2   -1    0    0    0  501 -0.00000000000E+00  0.00000000000E+00  0.13951011794E+03  0.13951011794E+03  0.00000000000E+00 0.  1.
         21   -1    0    0  501  502  0.00000000000E+00 -0.00000000000E+00 -0.14564821727E+03  0.14564821727E+03  0.00000000000E+00 0.  1.
         23    2    1    2    0    0  0.38600183054E+02  0.41961262302E+02 -0.52855623288E+02  0.11735819498E+03  0.87911929515E+02 0.  0.
        -24    2    1    2    0    0 -0.28451882480E+01  0.18938583784E+02  0.50104690606E+02  0.97098769626E+02  0.80937790866E+02 0.  0.
         13    1    4    4    0    0  0.46780535717E+01 -0.26513180911E+02 -0.26576691536E+01  0.27053579293E+02  0.00000000000E+00 0. -1.
        -14    1    4    4    0    0 -0.75232418197E+01  0.45451764695E+02  0.52762359760E+02  0.70045190333E+02  0.00000000000E+00 0.  1.
        -11    1    3    3    0    0  0.26012087826E+02  0.14536207096E+01  0.20141967189E+02  0.32930845243E+02  0.00000000000E+00 0. -1.
         11    1    3    3    0    0  0.12588095228E+02  0.40507641592E+02 -0.72997590477E+02  0.84427349741E+02  0.00000000000E+00 0.  1.
         -1    1    1    2    0  502 -0.35754994806E+02 -0.60899846086E+02 -0.33871666421E+01  0.70701370600E+02  0.00000000000E+00 0.  1.
<scales pt_clust_5="13000.00000" pt_clust_6="13000.00000" pt_clust_7="13000.00000" pt_clust_8="13000.00000" pt_clust_9="13000.00000"></scales>
<clustering>
<clus scale="   80.938">  5  6 -1 -1</clus>
<clus scale="   70.620">  5  9 -1 -1</clus>
<clus scale="   87.912">  7  8 -1 -1</clus>
<clus scale="  104.782">  1  7  2 -1</clus>
<clus scale="  161.166">  2  5  1 -1</clus>
</clustering>
</event>
<event>
 9    1  0.4516508E-005  0.2152606E+03  0.7546771E-02  0.1168912E+00
         21   -1    0    0  501  502  0.00000000000E+00  0.00000000000E+00  0.10704587412E+03  0.10704587412E+03  0.00000000000E+00 0. -1.
          1   -1    0    0  502    0 -0.00000000000E+00 -0.00000000000E+00 -0.40620238864E+03  0.40620238864E+03  0.00000000000E+00 0. -1.
         23    2    1    2    0    0  0.13607982539E+02  0.47721094897E+02 -0.27873853230E+03  0.29702144754E+03  0.89800282977E+02 0.  0.
        -24    2    1    2    0    0 -0.72515211259E+02  0.33434902016E+02 -0.26213891993E+02  0.11577807207E+03  0.79630680665E+02 0.  0.
         13    1    4    4    0    0 -0.42847729465E+02  0.18947676366E+01  0.24260307822E+02  0.49275557839E+02  0.00000000000E+00 0. -1.
        -14    1    4    4    0    0 -0.29667481794E+02  0.31540134380E+02 -0.50474199815E+02  0.66502514236E+02  0.00000000000E+00 0.  1.
        -11    1    3    3    0    0 -0.27647610131E+02 -0.83890588964E+01 -0.12417461061E+03  0.12749157060E+03  0.00000000000E+00 0. -1.
         11    1    3    3    0    0  0.41255592671E+02  0.56110153793E+02 -0.15456392169E+03  0.16952987693E+03  0.00000000000E+00 0.  1.
          2    1    1    2  501    0  0.58907228719E+02 -0.81155996913E+02  0.57959097642E+01  0.10044874315E+03  0.00000000000E+00 0. -1.
<scales pt_clust_5="13000.00000" pt_clust_6="13000.00000" pt_clust_7="13000.00000" pt_clust_8="13000.00000" pt_clust_9="13000.00000"></scales>
<clustering>
<clus scale="   79.631">  5  6 -1 -1</clus>
<clus scale="   89.800">  7  8 -1 -1</clus>
<clus scale="  100.281">  5  9 -1 -1</clus>
<clus scale="  102.599">  2  7  1 -1</clus>
<clus scale="  215.261">  1  5  2 -1</clus>
</clustering>
</event>
<event>
 9    1  0.5636025E-005  0.2432314E+03  0.7546771E-02  0.1149395E+00
         21   -1    0    0  501  502  0.00000000000E+00  0.00000000000E+00  0.11393472419E+03  0.11393472419E+03  0.00000000000E+00 0.  1.
         -2   -1    0    0    0  501 -0.00000000000E+00 -0.00000000000E+00 -0.37306385916E+03  0.37306385916E+03  0.00000000000E+00 0.  1.
         23    2    1    2    0    0  0.58165897121E+02  0.24497690897E+02 -0.21117718638E+03  0.23908550342E+03  0.92642676200E+02 0.  0.
        -24    2    1    2    0    0 -0.11181581881E+02  0.71418159467E+02 -0.82278360196E+02  0.13572716832E+03  0.80165793133E+02 0.  0.
         11    1    4    4    0    0  0.24446240221E+02  0.11216795912E+02 -0.53896190329E+02  0.60234827993E+02  0.00000000000E+00 0. -1.
        -12    1    4    4    0    0 -0.35627822101E+02  0.60201363555E+02 -0.28382169868E+02  0.75492340327E+02  0.00000000000E+00 0.  1.
        -11    1    3    3    0    0  0.21317469500E+02  0.43838818238E+02 -0.18160226317E+03  0.18803100404E+03  0.00000000000E+00 0.  1.
         11    1    3    3    0    0  0.36848427621E+02 -0.19341127341E+02 -0.29574923208E+02  0.51054499387E+02  0.00000000000E+00 0. -1.
         -1    1    1    2    0  502 -0.46984315240E+02 -0.95915850364E+02  0.34326411605E+02  0.11218591161E+03  0.00000000000E+00 0.  1.
<scales pt_clust_5="13000.00000" pt_clust_6="13000.00000" pt_clust_7="13000.00000" pt_clust_8="13000.00000" pt_clust_9="13000.00000"></scales>
<clustering>
<clus scale="   80.166">  5  6 -1 -1</clus>
<clus scale="   92.643">  7  8 -1 -1</clus>
<clus scale="  106.805">  5  9 -1 -1</clus>
<clus scale="  112.099">  2  7  1 -1</clus>
<clus scale="  243.231">  1  5  2 -1</clus>
</clustering>
</event>
<event>
 9    1  0.4516508E-005  0.2618905E+03  0.7546771E-02  0.1144788E+00
          1   -1    0    0  502    0 -0.00000000000E+00  0.00000000000E+00  0.54295318500E+02  0.54295318500E+02  0.00000000000E+00 0. -1.
         21   -1    0    0  501  502  0.00000000000E+00 -0.00000000000E+00 -0.66047882399E+03  0.66047882399E+03  0.00000000000E+00 0.  1.
         23    2    1    2    0    0  0.11765485460E+02  0.35960218446E+02 -0.27410774657E+03  0.29185456849E+03  0.92803386040E+02 0.  0.
        -24    2    1    2    0    0 -0.10163144563E+03 -0.61852298844E+02 -0.11159437577E+03  0.18342358042E+03  0.83882343422E+02 0.  0.
         13    1    4    4    0    0 -0.21709647432E+02 -0.57827001627E+02 -0.69581703810E+02  0.93042379666E+02  0.00000000000E+00 0. -1.
        -14    1    4    4    0    0 -0.79921798196E+02 -0.40252972167E+01 -0.42012671959E+02  0.90381200754E+02  0.00000000000E+00 0.  1.
        -11    1    3    3    0    0  0.47425869558E+02  0.20808018833E+02 -0.21521794874E+03  0.22136158703E+03  0.00000000000E+00 0.  1.
         11    1    3    3    0    0 -0.35660384099E+02  0.15152199613E+02 -0.58889797827E+02  0.70492981461E+02  0.00000000000E+00 0. -1.
          2    1    1    2  501    0  0.89865960168E+02  0.25892080398E+02 -0.22048138315E+03  0.23949599358E+03  0.00000000000E+00 0. -1.
<scales pt_clust_5="13000.00000" pt_clust_6="13000.00000" pt_clust_7="13000.00000" pt_clust_8="13000.00000" pt_clust_9="13000.00000"></scales>
<clustering>
<clus scale="   83.882">  5  6 -1 -1</clus>
<clus scale="   92.803">  7  8 -1 -1</clus>
<clus scale="   93.522">  5  9 -1 -1</clus>
<clus scale="  100.220">  1  7  2 -1</clus>
<clus scale="  261.891">  2  5  1 -1</clus>
</clustering>
</event>
<event>
 9    1  0.4516508E-005  0.2905051E+03  0.7546771E-02  0.1118805E+00
         21   -1    0    0  501  502  0.00000000000E+00  0.00000000000E+00  0.13790836415E+03  0.13790836415E+03  0.00000000000E+00 0.  1.
         -2   -1    0    0    0  501 -0.00000000000E+00 -0.00000000000E+00 -0.37687874140E+03  0.37687874140E+03  0.00000000000E+00 0.  1.
         23    2    1    2    0    0 -0.10622153812E+02 -0.10187543155E+03 -0.16393358584E+03  0.21474756947E+03  0.93546054565E+02 0.  0.
        -24    2    1    2    0    0  0.22006703789E+02 -0.68408968639E+02  0.12669709880E+02  0.10815724066E+03  0.79833483933E+02 0.  0.
         11    1    4    4    0    0 -0.22799522630E+02 -0.20657162510E+02 -0.18219301474E+02  0.35755832270E+02  0.00000000000E+00 0. -1.
        -12    1    4    4    0    0  0.44806226419E+02 -0.47751806129E+02  0.30889011354E+02  0.72401408390E+02  0.00000000000E+00 0.  1.
        -11    1    3    3    0    0  0.11764722119E+02 -0.11305372850E+03 -0.13604731175E+03  0.17728063980E+03  0.00000000000E+00 0.  1.
         11    1    3    3    0    0 -0.22386875931E+02  0.11178296950E+02 -0.27886274091E+02  0.37466929676E+02  0.00000000000E+00 0. -1.
         -1    1    1    2    0  502 -0.11384549976E+02  0.17028440019E+03 -0.87706501298E+02  0.19188229542E+03  0.00000000000E+00 0.  1.
<scales pt_clust_5="13000.00000" pt_clust_6="13000.00000" pt_clust_7="13000.00000" pt_clust_8="13000.00000" pt_clust_9="13000.00000"></scales>
<clustering>
<clus scale="   79.833">  5  6 -1 -1</clus>
<clus scale="   93.546">  7  8 -1 -1</clus>
<clus scale="  138.717">  2  7  1 -1</clus>
<clus scale="   96.299">  5  9 -1 -1</clus>
<clus scale="  290.505">  1  5  2 -1</clus>
</clustering>
</event>
<event>
 9    1  0.4516508E-005  0.3011581E+03  0.7546771E-02  0.1126853E+00
          1   -1    0    0  502    0 -0.00000000000E+00  0.00000000000E+00  0.46073392922E+03  0.46073392922E+03  0.00000000000E+00 0. -1.
         21   -1    0    0  501  502  0.00000000000E+00 -0.00000000000E+00 -0.90667419972E+02  0.90667419972E+02  0.00000000000E+00 0. -1.
         23    2    1    2    0    0 -0.40111310171E+02  0.15549539115E+02  0.13615418542E+03  0.17007316345E+03  0.92391630298E+02 0.  0.
        -24    2    1    2    0    0 -0.31299068003E+02  0.97806925629E+02  0.20665338785E+03  0.24460883890E+03  0.81129741775E+02 0.  0.
         11    1    4    4    0    0 -0.19417136358E+02  0.78713988440E+02  0.73060483120E+02  0.10913638877E+03  0.00000000000E+00 0. -1.
        -12    1    4    4    0    0 -0.11881931645E+02  0.19092937188E+02  0.13359290473E+03  0.13547245013E+03  0.00000000000E+00 0.  1.
        -11    1    3    3    0    0  0.29183150090E+02 -0.48248588612E+01  0.43194723784E+02  0.52351883204E+02  0.00000000000E+00 0. -1.
         11    1    3    3    0    0 -0.69294460262E+02  0.20374397976E+02  0.92959461631E+02  0.11772128025E+03  0.00000000000E+00 0.  1.
          2    1    1    2  501    0  0.71410378174E+02 -0.11335646474E+03  0.27258935985E+02  0.13671934684E+03  0.00000000000E+00 0. -1.
<scales pt_clust_5="13000.00000" pt_clust_6="13000.00000" pt_clust_7="13000.00000" pt_clust_8="13000.00000" pt_clust_9="13000.00000"></scales>
<clustering>
<clus scale="   81.130">  5  6 -1 -1</clus>
<clus scale="   92.392">  7  8 -1 -1</clus>
<clus scale="  101.916">  1  7  2 -1</clus>
<clus scale="  124.957">  5  9 -1 -1</clus>
<clus scale="  301.158">  2  5  1 -1</clus>
</clustering>
</event>
<event>
 9    1  0.4516508E-005  0.1613951E+03  0.7546771E-02  0.1191627E+00
          1   -1    0    0  502    0 -0.00000000000E+00  0.00000000000E+00  0.46182158791E+03  0.46182158791E+03  0.00000000000E+00 0. -1.
         21   -1    0    0  501  502  0.00000000000E+00 -0.00000000000E+00 -0.15697590890E+03  0.15697590890E+03  0.00000000000E+00 0. -1.
         23    2    1    2    0    0  0.72144905152E+00  0.11097983595E+03  0.40383971036E+03  0.42946126505E+03  0.95044316191E+02 0.  0.
        -24    2    1    2    0    0  0.79678009651E+01 -0.44037615699E+02 -0.65300114669E+02  0.11389059610E+03  0.81878968340E+02 0.  0.
         13    1    4    4    0    0  0.18512066048E+02 -0.13904453297E+02 -0.76602010484E+02  0.80024361422E+02  0.00000000000E+00 0. -1.
        -14    1    4    4    0    0 -0.10544265083E+02 -0.30133162402E+02  0.11301895815E+02  0.33866234682E+02  0.00000000000E+00 0.  1.
        -13    1    3    3    0    0  0.29492904080E+02  0.47926270370E+02  0.77104333461E+02  0.95455942828E+02  0.00000000000E+00 0.  1.
         13    1    3    3    0    0 -0.28771455028E+02  0.63053565578E+02  0.32673537690E+03  0.33400532222E+03  0.00000000000E+00 0. -1.
          2    1    1    2  501    0 -0.86892500166E+01 -0.66942220250E+02 -0.33693916678E+02  0.75445635652E+02  0.00000000000E+00 0. -1.
<scales pt_clust_5="13000.00000" pt_clust_6="13000.00000" pt_clust_7="13000.00000" pt_clust_8="13000.00000" pt_clust_9="13000.00000"></scales>
<clustering>
<clus scale="   81.879">  5  6 -1 -1</clus>
<clus scale="   67.504">  5  9 -1 -1</clus>
<clus scale="   95.044">  7  8 -1 -1</clus>
<clus scale="  146.118">  1  7  2 -1</clus>
<clus scale="  161.395">  2  5  1 -1</clus>
</clustering>
</event>
<event>
 9    1  0.4516508E-005  0.4238075E+03  0.7546771E-02  0.1052844E+00
         21   -1    0    0  501  502  0.00000000000E+00  0.00000000000E+00  0.13522984367E+03  0.13522984367E+03  0.00000000000E+00 0.  1.
          1   -1    0    0  502    0 -0.00000000000E+00 -0.00000000000E+00 -0.10018460103E+04  0.10018460103E+04  0.00000000000E+00 0. -1.
         23    2    1    2    0    0 -0.16290537310E+03  0.18003089398E+03 -0.13723850809E+03  0.29350929609E+03  0.91454991198E+02 0.  0.
        -24    2    1    2    0    0  0.79506627146E+02 -0.60708933743E+01 -0.28631816731E+02  0.11675009724E+03  0.80328355950E+02 0.  0.
         11    1    4    4    0    0  0.12801185773E+02 -0.33239719771E+02  0.71430822807E+01  0.36328679471E+02  0.00000000000E+00 0. -1.
        -12    1    4    4    0    0  0.66705441373E+02  0.27168826397E+02 -0.35774899012E+02  0.80421417768E+02  0.00000000000E+00 0.  1.
        -13    1    3    3    0    0 -0.17224956612E+02  0.74218635200E+02 -0.62558652234E+02  0.98583416002E+02  0.00000000000E+00 0. -1.
         13    1    3    3    0    0 -0.14568041649E+03  0.10581225878E+03 -0.74679855855E+02  0.19492588008E+03  0.00000000000E+00 0.  1.
          2    1    1    2  501    0  0.83398745956E+02 -0.17396000060E+03 -0.70074584178E+03  0.72681646060E+03  0.00000000000E+00 0. -1.
<scales pt_clust_5="13000.00000" pt_clust_6="13000.00000" pt_clust_7="13000.00000" pt_clust_8="13000.00000" pt_clust_9="13000.00000"></scales>
<clustering>
<clus scale="   80.328">  5  6 -1 -1</clus>
<clus scale="   91.455">  7  8 -1 -1</clus>
<clus scale="  192.918">  5  9 -1 -1</clus>
<clus scale="  259.448">  2  7  1 -1</clus>
<clus scale="  423.807">  1  5  2 -1</clus>
</clustering>
</event>
<event>
 9    1  0.4516508E-005  0.2423481E+03  0.7546771E-02  0.1153933E+00
         21   -1    0    0  501  502  0.00000000000E+00  0.00000000000E+00  0.65842993124E+02  0.65842993124E+02  0.00000000000E+00 0. -1.
          1   -1    0    0  502    0 -0.00000000000E+00 -0.00000000000E+00 -0.57641035735E+03  0.57641035735E+03  0.00000000000E+00 0. -1.
         23    2    1    2    0    0  0.41047863792E+02  0.12860763071E+02 -0.31436441811E+03  0.33043895501E+03  0.92274532043E+02 0.  0.
        -24    2    1    2    0    0  0.39084319749E+02  0.43150134593E+02 -0.19005283473E+03  0.21385414146E+03  0.78892304215E+02 0.  0.
         13    1    4    4    0    0 -0.23117622067E+02  0.21929390769E+02 -0.52633974323E+02  0.61527700124E+02  0.00000000000E+00 0. -1.
        -14    1    4    4    0    0  0.62201941816E+02  0.21220743824E+02 -0.13741886041E+03  0.15232644133E+03  0.00000000000E+00 0.  1.
        -13    1    3    3    0    0  0.64903552232E+00 -0.31998712932E+02 -0.18415734987E+03  0.18691781186E+03  0.00000000000E+00 0.  1.
         13    1    3    3    0    0  0.40398828269E+02  0.44859476003E+02 -0.13020706824E+03  0.14352114315E+03  0.00000000000E+00 0. -1.
          2    1    1    2  501    0 -0.80132183541E+02 -0.56010897664E+02 -0.61501113896E+01  0.97960254012E+02  0.00000000000E+00 0. -1.
<scales pt_clust_5="13000.00000" pt_clust_6="13000.00000" pt_clust_7="13000.00000" pt_clust_8="13000.00000" pt_clust_9="13000.00000"></scales>
<clustering>
<clus scale="   78.892">  5  6 -1 -1</clus>
<clus scale="   92.275">  7  8 -1 -1</clus>
<clus scale="   97.767">  5  9 -1 -1</clus>
<clus scale="  101.808">  2  7  1 -1</clus>
<clus scale="  242.348">  1  5  2 -1</clus>
</clustering>
</event>
<event>
 9    1  0.4516508E-005  0.3157984E+03  0.7546771E-02  0.1114531E+00
          1   -1    0    0  502    0 -0.00000000000E+00  0.00000000000E+00  0.72350352058E+03  0.72350352058E+03  0.00000000000E+00 0. -1.
         21   -1    0    0  501  502  0.00000000000E+00 -0.00000000000E+00 -0.77819419782E+02  0.77819419782E+02  0.00000000000E+00 0. -1.
         23    2    1    2    0    0 -0.75845982128E+02  0.18778975218E+02  0.34468288578E+03  0.36505423617E+03  0.91394970774E+02 0.  0.
        -24    2    1    2    0    0 -0.10050675498E+03  0.28396587756E+02  0.10548580736E+03  0.16877646831E+03  0.80313552449E+02 0.  0.
         13    1    4    4    0    0 -0.10394377724E+03  0.35114977167E+02  0.64853674621E+02  0.12744947846E+03  0.00000000000E+00 0. -1.
        -14    1    4    4    0    0  0.34370222650E+01 -0.67183894107E+01  0.40632132742E+02  0.41326989843E+02  0.00000000000E+00 0.  1.
        -11    1    3    3    0    0 -0.53077717176E+02 -0.12452348809E+02  0.30434252631E+03  0.30918712517E+03  0.00000000000E+00 0. -1.
         11    1    3    3    0    0 -0.22768264952E+02  0.31231324027E+02  0.40340359470E+02  0.55867111001E+02  0.00000000000E+00 0.  1.
          2    1    1    2  501    0  0.17635273711E+03 -0.47175562974E+02  0.19551540766E+03  0.26749223588E+03  0.00000000000E+00 0. -1.
<scales pt_clust_5="13000.00000" pt_clust_6="13000.00000" pt_clust_7="13000.00000" pt_clust_8="13000.00000" pt_clust_9="13000.00000"></scales>
<clustering>
<clus scale="   80.314">  5  6 -1 -1</clus>
<clus scale="   91.395">  7  8 -1 -1</clus>
<clus scale="  120.243">  1  7  2 -1</clus>
<clus scale="  133.496">  5  9 -1 -1</clus>
<clus scale="  315.798">  2  5  1 -1</clus>
</clustering>
</event>
<event>
 9    1  0.4516508E-005  0.2866156E+03  0.7546771E-02  0.1132864E+00
          3   -1    0    0  502    0 -0.00000000000E+00  0.00000000000E+00  0.29990788311E+03  0.29990788311E+03  0.00000000000E+00 0. -1.
         21   -1    0    0  501  502  0.00000000000E+00 -0.00000000000E+00 -0.38242088143E+03  0.38242088143E+03  0.00000000000E+00 0. -1.
         23    2    1    2    0    0  0.37511982149E+02 -0.64500854956E+01 -0.30364831711E+03  0.32032137817E+03  0.94629447935E+02 0.  0.
        -24    2    1    2    0    0 -0.14574142265E+03  0.20799297205E+02  0.85007312044E+02  0.18750711162E+03  0.79117006817E+02 0.  0.
         13    1    4    4    0    0 -0.14310299148E+03  0.32761851817E+02  0.57992586185E+02  0.15784468682E+03  0.00000000000E+00 0. -1.
        -14    1    4    4    0    0 -0.26384311686E+01 -0.11962554611E+02  0.27014725858E+02  0.29662424801E+02  0.00000000000E+00 0.  1.
        -11    1    3    3    0    0  0.27439193919E+02  0.38547170537E+02 -0.89208183740E+02  0.10097967006E+03  0.00000000000E+00 0.  1.
         11    1    3    3    0    0  0.10072788229E+02 -0.44997256033E+02 -0.21444013337E+03  0.21934170811E+03  0.00000000000E+00 0. -1.
          4    1    1    2  501    0  0.10822944050E+03 -0.14349211710E+02  0.13612800675E+03  0.17450027475E+03  0.00000000000E+00 0. -1.
<scales pt_clust_5="13000.00000" pt_clust_6="13000.00000" pt_clust_7="13000.00000" pt_clust_8="13000.00000" pt_clust_9="13000.00000"></scales>
<clustering>
<clus scale="   79.117">  5  6 -1 -1</clus>
<clus scale="   94.629">  7  8 -1 -1</clus>
<clus scale="  101.998">  1  7  2 -1</clus>
<clus scale="  129.439">  5  9 -1 -1</clus>
<clus scale="  286.616">  2  5  1 -1</clus>
</clustering>
</event>
<event>
 9    1  0.4516508E-005  0.3768322E+03  0.7546771E-02  0.1078182E+00
          1   -1    0    0  502    0 -0.00000000000E+00  0.00000000000E+00  0.47684429555E+03  0.47684429555E+03  0.00000000000E+00 0. -1.
         21   -1    0    0  501  502  0.00000000000E+00 -0.00000000000E+00 -0.17223768352E+03  0.17223768352E+03  0.00000000000E+00 0. -1.
         23    2    1    2    0    0 -0.11120391502E+03  0.11409166460E+03  0.36393669441E+02  0.18654477407E+03  0.89951291880E+02 0.  0.
        -24    2    1    2    0    0 -0.87966338175E+02 -0.11359174840E+03  0.63084345120E+02  0.17662326486E+03  0.81086257359E+02 0.  0.
         13    1    4    4    0    0 -0.14907571835E+02 -0.46868698562E+02 -0.14069292795E+02  0.51155210904E+02  0.00000000000E+00 0. -1.
        -14    1    4    4    0    0 -0.73058766341E+02 -0.66723049839E+02  0.77153637914E+02  0.12546805395E+03  0.00000000000E+00 0.  1.
        -11    1    3    3    0    0 -0.72953684112E+02  0.29225895349E+02 -0.15302242581E+02  0.80065920419E+02  0.00000000000E+00 0.  1.
         11    1    3    3    0    0 -0.38250230904E+02  0.84865769249E+02  0.51695912023E+02  0.10647885365E+03  0.00000000000E+00 0. -1.
          2    1    1    2  501    0  0.19917025319E+03 -0.49991619728E+00  0.20512859746E+03  0.28591394014E+03  0.00000000000E+00 0. -1.
<scales pt_clust_5="13000.00000" pt_clust_6="13000.00000" pt_clust_7="13000.00000" pt_clust_8="13000.00000" pt_clust_9="13000.00000"></scales>
<clustering>
<clus scale="   81.086">  5  6 -1 -1</clus>
<clus scale="   89.951">  7  8 -1 -1</clus>
<clus scale="  182.960">  1  7  2 -1</clus>
<clus scale="  145.903">  5  9 -1 -1</clus>
<clus scale="  376.832">  2  5  1 -1</clus>
</clustering>
</event>
<event>
 9    1  0.4516508E-005  0.1451237E+03  0.7546771E-02  0.1223762E+00
          1   -1    0    0  502    0 -0.00000000000E+00  0.00000000000E+00  0.34806609320E+03  0.34806609320E+03  0.00000000000E+00 0. -1.
         21   -1    0    0  501  502  0.00000000000E+00 -0.00000000000E+00 -0.53334062958E+02  0.53334062958E+02  0.00000000000E+00 0. -1.
         23    2    1    2    0    0  0.24534432621E+02  0.40511379517E+02  0.21091490394E+03  0.23381074927E+03  0.89102522498E+02 0.  0.
        -24    2    1    2    0    0 -0.18245795567E+02 -0.72552778318E+02  0.49406323896E+02  0.12015206384E+03  0.79991992767E+02 0.  0.
         13    1    4    4    0    0 -0.13941874089E+02 -0.78755962592E+02  0.10672660328E+02  0.80689424185E+02  0.00000000000E+00 0. -1.
        -14    1    4    4    0    0 -0.43039214783E+01  0.62031842735E+01  0.38733663568E+02  0.39462639656E+02  0.00000000000E+00 0.  1.
        -13    1    3    3    0    0 -0.97340825693E+01  0.19212566303E+02  0.26811333429E+01  0.21703998328E+02  0.00000000000E+00 0.  1.
         13    1    3    3    0    0  0.34268515190E+02  0.21298813214E+02  0.20823377060E+03  0.21210675095E+03  0.00000000000E+00 0. -1.
          2    1    1    2  501    0 -0.62886370539E+01  0.32041398801E+02  0.34410802405E+02  0.47437343046E+02  0.00000000000E+00 0. -1.
<scales pt_clust_5="13000.00000" pt_clust_6="13000.00000" pt_clust_7="13000.00000" pt_clust_8="13000.00000" pt_clust_9="13000.00000"></scales>
<clustering>
<clus scale="   79.992">  5  6 -1 -1</clus>
<clus scale="   32.653">  5  9 -1 -1</clus>
<clus scale="   89.103">  7  8 -1 -1</clus>
<clus scale="  100.908">  1  7  2 -1</clus>
<clus scale="  145.124">  2  5  1 -1</clus>
</clustering>
</event>
<event>
 9    1  0.4516508E-005  0.1574891E+03  0.7546771E-02  0.1211521E+00
         -2   -1    0    0    0  501 -0.00000000000E+00  0.00000000000E+00  0.99220473186E+02  0.99220473186E+02  0.00000000000E+00 0.  1.
         21   -1    0    0  501  502  0.00000000000E+00 -0.00000000000E+00 -0.19933371682E+03  0.19933371682E+03  0.00000000000E+00 0.  1.
         23    2    1    2    0    0  0.26497832992E+02 -0.40284556329E+02 -0.97194229934E+02  0.14103808080E+03  0.90111271618E+02 0.  0.
        -24    2    1    2    0    0  0.41876822958E+01  0.65401867121E+02  0.27036906862E+02  0.10781865125E+03  0.81233775729E+02 0.  0.
         11    1    4    4    0    0  0.36393649135E+02  0.61418981800E+01  0.10557255704E+02  0.38388491226E+02  0.00000000000E+00 0. -1.
        -12    1    4    4    0    0 -0.32205966839E+02  0.59259968941E+02  0.16479651158E+02  0.69430160026E+02  0.00000000000E+00 0.  1.
        -13    1    3    3    0    0  0.25086062097E+01  0.28235750179E+02 -0.37747322798E+02  0.47206049101E+02  0.00000000000E+00 0. -1.
         13    1    3    3    0    0  0.23989226782E+02 -0.68520306508E+02 -0.59446907136E+02  0.93832031704E+02  0.00000000000E+00 0.  1.
         -1    1    1    2    0  502 -0.30685515288E+02 -0.25117310792E+02 -0.29955920563E+02  0.49697457950E+02  0.00000000000E+00 0.  1.
<scales pt_clust_5="13000.00000" pt_clust_6="13000.00000" pt_clust_7="13000.00000" pt_clust_8="13000.00000" pt_clust_9="13000.00000"></scales>
<clustering>
<clus scale="   81.234">  5  6 -1 -1</clus>
<clus scale="   39.655">  5  9 -1 -1</clus>
<clus scale="   90.111">  7  8 -1 -1</clus>
<clus scale="  102.201">  1  7  2 -1</clus>
<clus scale="  157.489">  2  5  1 -1</clus>
</clustering>
</event>
<event>
 9    1  0.4516508E-005  0.4519767E+03  0.7546771E-02  0.1058826E+00
         21   -1    0    0  501  502  0.00000000000E+00  0.00000000000E+00  0.32994013761E+03  0.32994013761E+03  0.00000000000E+00 0. -1.
          1   -1    0    0  502    0 -0.00000000000E+00 -0.00000000000E+00 -0.37896130199E+03  0.37896130199E+03  0.00000000000E+00 0. -1.
         23    2    1    2    0    0 -0.10723438389E+03 -0.99583874260E+02  0.13018110001E+03  0.22269528571E+03  0.10597127147E+03 0.  0.
        -24    2    1    2    0    0  0.24691281148E+03 -0.27142876176E+02 -0.12739978752E+03  0.29062182676E+03  0.80793985712E+02 0.  0.
         13    1    4    4    0    0  0.12105819725E+03  0.26711674298E+02 -0.53082789638E+02  0.13485689905E+03  0.00000000000E+00 0. -1.
        -14    1    4    4    0    0  0.12585461423E+03 -0.53854550474E+02 -0.74316997886E+02  0.15576492771E+03  0.00000000000E+00 0.  1.
        -13    1    3    3    0    0 -0.20504447379E+02 -0.77442537560E+02  0.23605000861E+02  0.83516316080E+02  0.00000000000E+00 0.  1.
         13    1    3    3    0    0 -0.86729936508E+02 -0.22141336701E+02  0.10657609915E+03  0.13917896963E+03  0.00000000000E+00 0. -1.
          2    1    1    2  501    0 -0.13967842759E+03  0.12672675044E+03 -0.51802476870E+02  0.19558432713E+03  0.00000000000E+00 0. -1.
<scales pt_clust_5="13000.00000" pt_clust_6="13000.00000" pt_clust_7="13000.00000" pt_clust_8="13000.00000" pt_clust_9="13000.00000"></scales>
<clustering>
<clus scale="   80.794">  5  6 -1 -1</clus>
<clus scale="  105.971">  7  8 -1 -1</clus>
<clus scale="  180.682">  2  7  1 -1</clus>
<clus scale="  200.708">  5  9 -1 -1</clus>
<clus scale="  451.977">  1  5  2 -1</clus>
</clustering>
</event>
<event>
 9    1  0.4516508E-005  0.4373958E+03  0.7546771E-02  0.1055738E+00
         21   -1    0    0  501  502  0.00000000000E+00  0.00000000000E+00  0.12174227148E+03  0.12174227148E+03  0.00000000000E+00 0.  1.
          1   -1    0    0  502    0 -0.00000000000E+00 -0.00000000000E+00 -0.92466239818E+03  0.92466239818E+03  0.00000000000E+00 0. -1.
         23    2    1    2    0    0  0.19279740743E+03  0.36244005982E+02 -0.38094111703E+03  0.43863716516E+03  0.93818760037E+02 0.  0.
        -24    2    1    2    0    0  0.82626453115E+02 -0.73708834897E+02 -0.23950938043E+03  0.27526625343E+03  0.78400534867E+02 0.  0.
         11    1    4    4    0    0  0.48951130081E+02 -0.86687171509E+02 -0.17825309315E+03  0.20416915550E+03  0.00000000000E+00 0. -1.
        -12    1    4    4    0    0  0.33675323034E+02  0.12978336612E+02 -0.61256287284E+02  0.71097097933E+02  0.00000000000E+00 0.  1.
        -11    1    3    3    0    0  0.98420472483E+02 -0.24862101195E+02 -0.14186175211E+03  0.17444044884E+03  0.00000000000E+00 0.  1.
         11    1    3    3    0    0  0.94376934947E+02  0.61106107176E+02 -0.23907936492E+03  0.26419671632E+03  0.00000000000E+00 0. -1.
          2    1    1    2  501    0 -0.27542386055E+03  0.37464828915E+02 -0.18246962924E+03  0.33250125106E+03  0.00000000000E+00 0. -1.
<scales pt_clust_5="13000.00000" pt_clust_6="13000.00000" pt_clust_7="13000.00000" pt_clust_8="13000.00000" pt_clust_9="13000.00000"></scales>
<clustering>
<clus scale="   78.401">  5  6 -1 -1</clus>
<clus scale="   93.819">  7  8 -1 -1</clus>
<clus scale="  217.454">  2  7  1 -1</clus>
<clus scale="  187.440">  5  9 -1 -1</clus>
<clus scale="  437.396">  1  5  2 -1</clus>
</clustering>
</event>
<event>
 9    1  0.4516508E-005  0.1779847E+03  0.7546771E-02  0.1184847E+00
          1   -1    0    0  502    0 -0.00000000000E+00  0.00000000000E+00  0.29311005452E+03  0.29311005452E+03  0.00000000000E+00 0. -1.
         21   -1    0    0  501  502  0.00000000000E+00 -0.00000000000E+00 -0.12229857288E+03  0.12229857288E+03  0.00000000000E+00 0. -1.
         23    2    1    2    0    0  0.31457783001E+02  0.86339106417E+02 -0.46169017013E+02  0.13476814624E+03  0.87102478151E+02 0.  0.
        -24    2    1    2    0    0 -0.71645627549E+02 -0.77455328056E+02  0.18904362976E+03  0.23089660705E+03  0.80270327050E+02 0.  0.
         13    1    4    4    0    0 -0.65783457127E+02 -0.94124285966E+02  0.16121186196E+03  0.19792955534E+03  0.00000000000E+00 0. -1.
        -14    1    4    4    0    0 -0.58621704225E+01  0.16668957910E+02  0.27831767799E+02  0.32967051714E+02  0.00000000000E+00 0.  1.
        -11    1    3    3    0    0 -0.77201801370E+01  0.29912234889E+02 -0.57377617560E+02  0.65165435426E+02  0.00000000000E+00 0. -1.
         11    1    3    3    0    0  0.39177963138E+02  0.56426871528E+02  0.11208600547E+02  0.69602710812E+02  0.00000000000E+00 0.  1.
          2    1    1    2  501    0  0.40187844548E+02 -0.88837783611E+01  0.27936868897E+02  0.49743874107E+02  0.00000000000E+00 0. -1.
<scales pt_clust_5="13000.00000" pt_clust_6="13000.00000" pt_clust_7="13000.00000" pt_clust_8="13000.00000" pt_clust_9="13000.00000"></scales>
<clustering>
<clus scale="   80.270">  5  6 -1 -1</clus>
<clus scale="   41.158">  5  9 -1 -1</clus>
<clus scale="   87.102">  7  8 -1 -1</clus>
<clus scale="  126.613">  1  7  2 -1</clus>
<clus scale="  177.985">  2  5  1 -1</clus>
</clustering>
</event>
<event>
 9    1  0.4516508E-005  0.2234853E+03  0.7546771E-02  0.1159067E+00
         21   -1    0    0  501  502  0.00000000000E+00  0.00000000000E+00  0.17689143107E+03  0.17689143107E+03  0.00000000000E+00 0. -1.
          1   -1    0    0  502    0 -0.00000000000E+00 -0.00000000000E+00 -0.17030228387E+03  0.17030228387E+03  0.00000000000E+00 0. -1.
         23    2    1    2    0    0  0.83952327762E+01 -0.68951093019E+02 -0.34046647242E+02  0.12004407408E+03  0.91796908288E+02 0.  0.
        -24    2    1    2    0    0  0.70862337739E+02 -0.66106253214E+01 -0.13719461147E+01  0.10986372513E+03  0.83683837070E+02 0.  0.
         13    1    4    4    0    0  0.75809688578E+02  0.22218039562E+02  0.73535260008E+01  0.79339930104E+02  0.00000000000E+00 0. -1.
        -14    1    4    4    0    0 -0.49473508387E+01 -0.28828664884E+02 -0.87254721155E+01  0.30523795028E+02  0.00000000000E+00 0.  1.
        -13    1    3    3    0    0 -0.15393587399E+02 -0.60924562000E+02  0.15302484665E+02  0.64675581365E+02  0.00000000000E+00 0.  1.
         13    1    3    3    0    0  0.23788820175E+02 -0.80265310185E+01 -0.49349131906E+02  0.55368492714E+02  0.00000000000E+00 0. -1.
          2    1    1    2  501    0 -0.79257570515E+02  0.75561718340E+02  0.42007740557E+02  0.11728591573E+03  0.00000000000E+00 0. -1.
<scales pt_clust_5="13000.00000" pt_clust_6="13000.00000" pt_clust_7="13000.00000" pt_clust_8="13000.00000" pt_clust_9="13000.00000"></scales>
<clustering>
<clus scale="   83.684">  5  6 -1 -1</clus>
<clus scale="   91.797">  7  8 -1 -1</clus>
<clus scale="  109.505">  5  9 -1 -1</clus>
<clus scale="  115.115">  2  7  1 -1</clus>
<clus scale="  223.485">  1  5  2 -1</clus>
</clustering>
</event>
<event>
 9    1  0.4516508E-005  0.1413324E+03  0.7546771E-02  0.1232028E+00
          1   -1    0    0  502    0 -0.00000000000E+00  0.00000000000E+00  0.89475889519E+02  0.89475889519E+02  0.00000000000E+00 0. -1.
         21   -1    0    0  501  502  0.00000000000E+00 -0.00000000000E+00 -0.20248930829E+03  0.20248930829E+03  0.00000000000E+00 0. -1.
         23    2    1    2    0    0  0.96790097493E+01 -0.99482151617E+01  0.23993054043E+02  0.95126097677E+02  0.90998118674E+02 0.  0.
        -24    2    1    2    0    0  0.38889114223E+02  0.14203716085E+02 -0.76244846498E+02  0.11893565228E+03  0.81352959447E+02 0.  0.
         13    1    4    4    0    0  0.43359819548E+02  0.34593226879E+02 -0.80374999370E+02  0.97657082800E+02  0.00000000000E+00 0. -1.
        -14    1    4    4    0    0 -0.44707053255E+01 -0.20389510794E+02  0.41301528716E+01  0.21278569484E+02  0.00000000000E+00 0.  1.
        -11    1    3    3    0    0 -0.40295067581E+02 -0.63507683458E+01  0.18269839870E+02  0.44696887797E+02  0.00000000000E+00 0. -1.
         11    1    3    3    0    0  0.49974077330E+02 -0.35974468159E+01  0.57232141737E+01  0.50429209879E+02  0.00000000000E+00 0.  1.
          2    1    1    2  501    0 -0.48568123972E+02 -0.42555009238E+01 -0.60761626317E+02  0.77903447851E+02  0.00000000000E+00 0. -1.
<scales pt_clust_5="13000.00000" pt_clust_6="13000.00000" pt_clust_7="13000.00000" pt_clust_8="13000.00000" pt_clust_9="13000.00000"></scales>
<clustering>
<clus scale="   81.353">  5  6 -1 -1</clus>
<clus scale="   48.754">  5  9 -1 -1</clus>
<clus scale="   90.998">  7  8 -1 -1</clus>
<clus scale="   92.051">  1  7  2 -1</clus>
<clus scale="  141.332">  2  5  1 -1</clus>
</clustering>
</event>
<event>
 9    1  0.4516508E-005  0.1411413E+03  0.7546771E-02  0.1230792E+00
         21   -1    0    0  501  502  0.00000000000E+00  0.00000000000E+00  0.31761584588E+02  0.31761584588E+02  0.00000000000E+00 0.  1.
          1   -1    0    0  502    0 -0.00000000000E+00 -0.00000000000E+00 -0.44654979027E+03  0.44654979027E+03  0.00000000000E+00 0. -1.
         23    2    1    2    0    0 -0.84416136936E+00 -0.25530187374E+02 -0.13536245522E+03  0.16526246136E+03  0.91302704093E+02 0.  0.
        -24    2    1    2    0    0 -0.24949626341E+02 -0.20940183745E+01 -0.10734473009E+03  0.13686635534E+03  0.81133466453E+02 0.  0.
         11    1    4    4    0    0 -0.41576781762E+02  0.22526089163E+02 -0.35525165343E+02  0.59144660344E+02  0.00000000000E+00 0. -1.
        -12    1    4    4    0    0  0.16627155420E+02 -0.24620107538E+02 -0.71819564751E+02  0.77721694999E+02  0.00000000000E+00 0.  1.
        -11    1    3    3    0    0  0.36435601621E+02 -0.92251514325E+01 -0.19252517440E+02  0.42229325263E+02  0.00000000000E+00 0.  1.
         11    1    3    3    0    0 -0.37279762990E+02 -0.16305035941E+02 -0.11610993778E+03  0.12303313609E+03  0.00000000000E+00 0. -1.
          2    1    1    2  501    0  0.25793787711E+02  0.27624205748E+02 -0.17208102036E+03  0.17618255815E+03  0.00000000000E+00 0. -1.
<scales pt_clust_5="13000.00000" pt_clust_6="13000.00000" pt_clust_7="13000.00000" pt_clust_8="13000.00000" pt_clust_9="13000.00000"></scales>
<clustering>
<clus scale="   81.133">  5  6 -1 -1</clus>
<clus scale="   37.794">  5  9 -1 -1</clus>
<clus scale="   91.303">  7  8 -1 -1</clus>
<clus scale="   94.809">  2  7  1 -1</clus>
<clus scale="  141.141">  1  5  2 -1</clus>
</clustering>
</event>
<event>
 9    1  0.4516508E-005  0.1559773E+03  0.7546771E-02  0.1212233E+00
         21   -1    0    0  501  502  0.00000000000E+00  0.00000000000E+00  0.50936351849E+03  0.50936351849E+03  0.00000000000E+00 0. -1.
          1   -1    0    0  502    0 -0.00000000000E+00 -0.00000000000E+00 -0.33876989949E+02  0.33876989949E+02  0.00000000000E+00 0. -1.
         23    2    1    2    0    0 -0.32619669224E+01 -0.31112616004E+02  0.14999709046E+03  0.18230799754E+03  0.98784834451E+02 0.  0.
        -24    2    1    2    0    0  0.44467517218E+02 -0.12432633440E+02  0.14614749246E+03  0.17183565851E+03  0.77694745779E+02 0.  0.
         11    1    4    4    0    0  0.49532327170E+02 -0.22074564754E+02  0.15060266798E+03  0.16006842739E+03  0.00000000000E+00 0. -1.
        -12    1    4    4    0    0 -0.50648099522E+01  0.96419313142E+01 -0.44551755219E+01  0.11767231121E+02  0.00000000000E+00 0.  1.
        -11    1    3    3    0    0 -0.17949189882E+02 -0.51968696342E+02  0.36533225626E+02  0.66012085194E+02  0.00000000000E+00 0. -1.
         11    1    3    3    0    0  0.14687222960E+02  0.20856080338E+02  0.11346386483E+03  0.11629591234E+03  0.00000000000E+00 0.  1.
          2    1    1    2  501    0 -0.41205550296E+02  0.43545249444E+02  0.17934194563E+03  0.18909685240E+03  0.00000000000E+00 0. -1.
<scales pt_clust_5="13000.00000" pt_clust_6="13000.00000" pt_clust_7="13000.00000" pt_clust_8="13000.00000" pt_clust_9="13000.00000"></scales>
<clustering>
<clus scale="   77.695">  5  6 -1 -1</clus>
<clus scale="   59.951">  5  9 -1 -1</clus>
<clus scale="   98.785">  7  8 -1 -1</clus>
<clus scale="  103.620">  2  7  1 -1</clus>
<clus scale="  155.977">  1  5  2 -1</clus>
</clustering>
</event>
<event>
 9    1  0.4516508E-005  0.2009234E+03  0.7546771E-02  0.1165065E+00
         21   -1    0    0  501  502  0.00000000000E+00  0.00000000000E+00  0.35777987933E+03  0.35777987933E+03  0.00000000000E+00 0. -1.
          1   -1    0    0  502    0 -0.00000000000E+00 -0.00000000000E+00 -0.85607752041E+02  0.85607752041E+02  0.00000000000E+00 0. -1.
         23    2    1    2    0    0 -0.50967430063E+02 -0.88268429569E+02  0.57478786872E+02  0.14934098315E+03  0.92789674648E+02 0.  0.
        -24    2    1    2    0    0 -0.36034149184E+02  0.17809378963E+02  0.59587189801E+02  0.10275715410E+03  0.73435452227E+02 0.  0.
         11    1    4    4    0    0 -0.42843223709E+02  0.34601417405E+02  0.63670490612E+02  0.84182725537E+02  0.00000000000E+00 0. -1.
        -12    1    4    4    0    0  0.68090745245E+01 -0.16792038442E+02 -0.40833008108E+01  0.18574428562E+02  0.00000000000E+00 0.  1.
        -13    1    3    3    0    0 -0.31959449243E+02  0.31998748359E+01  0.44708242235E+02  0.55049727689E+02  0.00000000000E+00 0.  1.
         13    1    3    3    0    0 -0.19007980820E+02 -0.91468304405E+02  0.12770544637E+02  0.94291255458E+02  0.00000000000E+00 0. -1.
          2    1    1    2  501    0  0.87001579247E+02  0.70459050606E+02  0.15510615062E+03  0.19128949413E+03  0.00000000000E+00 0. -1.
<scales pt_clust_5="13000.00000" pt_clust_6="13000.00000" pt_clust_7="13000.00000" pt_clust_8="13000.00000" pt_clust_9="13000.00000"></scales>
<clustering>
<clus scale="   73.435">  5  6 -1 -1</clus>
<clus scale="   92.790">  7  8 -1 -1</clus>
<clus scale="  111.954">  5  9 -1 -1</clus>
<clus scale="  137.837">  2  7  1 -1</clus>
<clus scale="  200.923">  1  5  2 -1</clus>
</clustering>
</event>
<event>
 9    1  0.4516508E-005  0.8290311E+03  0.7546771E-02  0.9958803E-01
          1   -1    0    0  502    0 -0.00000000000E+00  0.00000000000E+00  0.41625903831E+03  0.41625903831E+03  0.00000000000E+00 0. -1.
         21   -1    0    0  501  502  0.00000000000E+00 -0.00000000000E+00 -0.64427349823E+03  0.64427349823E+03  0.00000000000E+00 0. -1.
         23    2    1    2    0    0 -0.30469449908E+02  0.16647767560E+03 -0.11559129239E+03  0.22391338166E+03  0.90181216218E+02 0.  0.
        -24    2    1    2    0    0  0.63690416393E+02 -0.49141748613E+03 -0.74654204689E+02  0.50780916775E+03  0.82154036814E+02 0.  0.
         13    1    4    4    0    0  0.65144241917E+02 -0.48247567478E+03 -0.84825805358E+02  0.49418818912E+03  0.00000000000E+00 0. -1.
        -14    1    4    4    0    0 -0.14538255236E+01 -0.89418113489E+01  0.10171600669E+02  0.13620978637E+02  0.00000000000E+00 0.  1.
        -11    1    3    3    0    0 -0.25940654483E+02  0.54023880465E+02  0.35320941065E+01  0.60033098407E+02  0.00000000000E+00 0.  1.
         11    1    3    3    0    0 -0.45287954253E+01  0.11245379514E+03 -0.11912338650E+03  0.16388028325E+03  0.00000000000E+00 0. -1.
          2    1    1    2  501    0 -0.33220966485E+02  0.32493981053E+03 -0.37768962841E+02  0.32880998712E+03  0.00000000000E+00 0. -1.
<scales pt_clust_5="13000.00000" pt_clust_6="13000.00000" pt_clust_7="13000.00000" pt_clust_8="13000.00000" pt_clust_9="13000.00000"></scales>
<clustering>
<clus scale="   82.154">  5  6 -1 -1</clus>
<clus scale="   90.181">  7  8 -1 -1</clus>
<clus scale="  191.770">  1  7  2 -1</clus>
<clus scale="  394.473">  5  9 -1 -1</clus>
<clus scale="  829.031">  2  5  1 -1</clus>
</clustering>
</event>
<event>
 9    1  0.4516508E-005  0.2876748E+03  0.7546771E-02  0.1126335E+00
         21   -1    0    0  501  502  0.00000000000E+00  0.00000000000E+00  0.36722347151E+02  0.36722347151E+02  0.00000000000E+00 0. -1.
          1   -1    0    0  502    0 -0.00000000000E+00 -0.00000000000E+00 -0.11261726373E+04  0.11261726373E+04  0.00000000000E+00 0. -1.
         23    2    1    2    0    0  0.60383249099E+02  0.51347735396E+02 -0.34740265367E+03  0.36703601984E+03  0.88000621446E+02 0.  0.
        -24    2    1    2    0    0 -0.96329988171E+02 -0.14286392286E+03 -0.43139787491E+03  0.47002057680E+03  0.71593638392E+02 0.  0.
         13    1    4    4    0    0 -0.38948334240E+02 -0.10182404711E+03 -0.19600498540E+03  0.22428344480E+03  0.00000000000E+00 0. -1.
        -14    1    4    4    0    0 -0.57381653931E+02 -0.41039875750E+02 -0.23539288951E+03  0.24573713199E+03  0.00000000000E+00 0.  1.
        -13    1    3    3    0    0 -0.23992993434E+01  0.41928544567E+02 -0.63568698683E+02  0.76188837366E+02  0.00000000000E+00 0. -1.
         13    1    3    3    0    0  0.62782548442E+02  0.94191908282E+01 -0.28383395499E+03  0.29084718247E+03  0.00000000000E+00 0.  1.
          2    1    1    2  501    0  0.35946739072E+02  0.91516187462E+02 -0.31064976158E+03  0.32583838783E+03  0.00000000000E+00 0. -1.
<scales pt_clust_5="13000.00000" pt_clust_6="13000.00000" pt_clust_7="13000.00000" pt_clust_8="13000.00000" pt_clust_9="13000.00000"></scales>
<clustering>
<clus scale="   71.594">  5  6 -1 -1</clus>
<clus scale="   88.001">  7  8 -1 -1</clus>
<clus scale="   98.323">  5  9 -1 -1</clus>
<clus scale="  118.435">  2  7  1 -1</clus>
<clus scale="  287.675">  1  5  2 -1</clus>
</clustering>
</event>
<event>
 9    1  0.4516508E-005  0.2459045E+03  0.7546771E-02  0.1140733E+00
          1   -1    0    0  502    0 -0.00000000000E+00  0.00000000000E+00  0.91169912774E+02  0.91169912774E+02  0.00000000000E+00 0. -1.
         21   -1    0    0  501  502  0.00000000000E+00 -0.00000000000E+00 -0.78880331292E+03  0.78880331292E+03  0.00000000000E+00 0. -1.
         23    2    1    2    0    0  0.84625660170E+02 -0.51160796559E+02  0.70411901729E+01  0.13362526513E+03  0.89594663108E+02 0.  0.
        -24    2    1    2    0    0 -0.24727875589E+02 -0.67015793274E+02 -0.33130260316E+03  0.35016606827E+03  0.88047010927E+02 0.  0.
         13    1    4    4    0    0 -0.11022528140E+02 -0.84108640449E+02 -0.30131348534E+03  0.31302647807E+03  0.00000000000E+00 0. -1.
        -14    1    4    4    0    0 -0.13705347449E+02  0.17092847175E+02 -0.29989117820E+02  0.37139590208E+02  0.00000000000E+00 0.  1.
        -11    1    3    3    0    0  0.12177345705E+01  0.22236482710E+02 -0.39072744393E+00  0.22273228521E+02  0.00000000000E+00 0.  1.
         11    1    3    3    0    0  0.83407925600E+02 -0.73397279269E+02  0.74319176168E+01  0.11135203661E+03  0.00000000000E+00 0. -1.
          2    1    1    2  501    0 -0.59897784581E+02  0.11817658983E+03 -0.37337198716E+03  0.39618189229E+03  0.00000000000E+00 0. -1.
<scales pt_clust_5="13000.00000" pt_clust_6="13000.00000" pt_clust_7="13000.00000" pt_clust_8="13000.00000" pt_clust_9="13000.00000"></scales>
<clustering>
<clus scale="   88.047">  5  6 -1 -1</clus>
<clus scale="   89.595">  7  8 -1 -1</clus>
<clus scale="  132.490">  5  9 -1 -1</clus>
<clus scale="  133.440">  1  7  2 -1</clus>
<clus scale="  245.904">  2  5  1 -1</clus>
</clustering>
</event>
<event>
 9    1  0.4516508E-005  0.2385691E+03  0.7546771E-02  0.1124666E+00
         21   -1    0    0  501  502  0.00000000000E+00  0.00000000000E+00  0.14093683752E+03  0.14093683752E+03  0.00000000000E+00 0. -1.
          1   -1    0    0  502    0 -0.00000000000E+00 -0.00000000000E+00 -0.37252523418E+03  0.37252523418E+03  0.00000000000E+00 0. -1.
         23    2    1    2    0    0  0.12262753496E+03  0.15252699687E+03 -0.14088075123E+03  0.25823063064E+03  0.92377894726E+02 0.  0.
        -24    2    1    2    0    0 -0.55029195075E+02 -0.42315175948E+02 -0.61899482859E+02  0.12276978149E+03  0.80137923872E+02 0.  0.
         13    1    4    4    0    0 -0.60444150620E+02  0.17236320436E+01 -0.26555225658E+02  0.66042760855E+02  0.00000000000E+00 0. -1.
        -14    1    4    4    0    0  0.54149555452E+01 -0.44038807992E+02 -0.35344257200E+02  0.56727020633E+02  0.00000000000E+00 0.  1.
        -11    1    3    3    0    0 -0.27907953091E+01  0.47096313367E+02 -0.57534180745E+02  0.74404524226E+02  0.00000000000E+00 0.  1.
         11    1    3    3    0    0  0.12541833027E+03  0.10543068350E+03 -0.83346570482E+02  0.18382610642E+03  0.00000000000E+00 0. -1.
          2    1    1    2  501    0 -0.67598339883E+02 -0.11021182092E+03 -0.28808162569E+02  0.13246165957E+03  0.00000000000E+00 0. -1.
<scales pt_clust_5="13000.00000" pt_clust_6="13000.00000" pt_clust_7="13000.00000" pt_clust_8="13000.00000" pt_clust_9="13000.00000"></scales>
<clustering>
<clus scale="   80.138">  5  6 -1 -1</clus>
<clus scale="   92.378">  7  8 -1 -1</clus>
<clus scale="  129.291">  5  9 -1 -1</clus>
<clus scale="  216.416">  2  7  1 -1</clus>
<clus scale="  238.569">  1  5  2 -1</clus>
</clustering>
</event>
<event>
 9    1  0.4516508E-005  0.1068201E+03  0.7546771E-02  0.1271808E+00
         -2   -1    0    0    0  501 -0.00000000000E+00  0.00000000000E+00  0.20777268119E+02  0.20777268119E+02  0.00000000000E+00 0.  1.
         21   -1    0    0  501  502  0.00000000000E+00 -0.00000000000E+00 -0.55379537573E+03  0.55379537573E+03  0.00000000000E+00 0.  1.
         23    2    1    2    0    0 -0.88521812789E+01 -0.29356772009E+02 -0.16291884944E+03  0.18936620042E+03  0.91524997583E+02 0.  0.
        -24    2    1    2    0    0  0.14944408707E+02  0.61910962584E+01 -0.30645175827E+03  0.31720079651E+03  0.80262071622E+02 0.  0.
         11    1    4    4    0    0 -0.27988598815E+02 -0.17332486656E+02 -0.12338274997E+03  0.12769917676E+03  0.00000000000E+00 0. -1.
        -12    1    4    4    0    0  0.42933007522E+02  0.23523582915E+02 -0.18306900830E+03  0.18950161975E+03  0.00000000000E+00 0.  1.
        -11    1    3    3    0    0 -0.33934383395E+02 -0.45540612481E+02 -0.61797275199E+02  0.83930882180E+02  0.00000000000E+00 0.  1.
         11    1    3    3    0    0  0.25082202116E+02  0.16183840473E+02 -0.10112157424E+03  0.10543531824E+03  0.00000000000E+00 0. -1.
         -1    1    1    2    0  502 -0.60922274282E+01  0.23165675750E+02 -0.63647499905E+02  0.68005646914E+02  0.00000000000E+00 0.  1.
<scales pt_clust_5="13000.00000" pt_clust_6="13000.00000" pt_clust_7="13000.00000" pt_clust_8="13000.00000" pt_clust_9="13000.00000"></scales>
<clustering>
<clus scale="   80.262">  5  6 -1 -1</clus>
<clus scale="   23.953">  5  9 -1 -1</clus>
<clus scale="   91.525">  7  8 -1 -1</clus>
<clus scale="   96.525">  1  7  2 -1</clus>
<clus scale="  106.820">  2  5  1 -1</clus>
</clustering>
</event>
<event>
 9    1  0.4516508E-005  0.2489321E+03  0.7546771E-02  0.1146805E+00
          1   -1    0    0  502    0 -0.00000000000E+00  0.00000000000E+00  0.24306150881E+03  0.24306150881E+03  0.00000000000E+00 0. -1.
         21   -1    0    0  501  502  0.00000000000E+00 -0.00000000000E+00 -0.13387718397E+03  0.13387718397E+03  0.00000000000E+00 0.  1.
         23    2    1    2    0    0  0.62031661196E+02 -0.12791404731E+02  0.44095610736E+02  0.11963779930E+03  0.91417903655E+02 0.  0.
        -24    2    1    2    0    0  0.61089959464E+02 -0.47891105343E+02  0.25399347213E+02  0.11441441286E+03  0.80124839546E+02 0.  0.
         13    1    4    4    0    0  0.13628351561E+02  0.20761982039E+02 -0.54636094555E+01  0.25429174047E+02  0.00000000000E+00 0. -1.
        -14    1    4    4    0    0  0.47461607902E+02 -0.68653087381E+02  0.30862956668E+02  0.88985238809E+02  0.00000000000E+00 0.  1.
        -11    1    3    3    0    0  0.39469355100E+02  0.37214852950E+02  0.33517354860E+02  0.63766671145E+02  0.00000000000E+00 0.  1.
         11    1    3    3    0    0  0.22562306095E+02 -0.50006257681E+02  0.10578255876E+02  0.55871128152E+02  0.00000000000E+00 0. -1.
          2    1    1    2  501    0 -0.12312162066E+03  0.60682510074E+02  0.39689366888E+02  0.14288648063E+03  0.00000000000E+00 0. -1.
<scales pt_clust_5="13000.00000" pt_clust_6="13000.00000" pt_clust_7="13000.00000" pt_clust_8="13000.00000" pt_clust_9="13000.00000"></scales>
<clustering>
<clus scale="   80.125">  5  6 -1 -1</clus>
<clus scale="   91.418">  7  8 -1 -1</clus>
<clus scale="  111.215">  1  7  2 -1</clus>
<clus scale="  102.948">  5  9 -1 -1</clus>
<clus scale="  248.932">  2  5  1 -1</clus>
</clustering>
</event>
<event>
 9    1  0.4516508E-005  0.2057084E+04  0.7546771E-02  0.9366362E-01
          1   -1    0    0  502    0 -0.00000000000E+00  0.00000000000E+00  0.15178224177E+04  0.15178224177E+04  0.00000000000E+00 0. -1.
         21   -1    0    0  501  502  0.00000000000E+00 -0.00000000000E+00 -0.76203592777E+03  0.76203592777E+03  0.00000000000E+00 0. -1.
         23    2    1    2    0    0 -0.17839846695E+02 -0.47564800192E+01  0.44764459200E+02  0.10335961916E+03  0.91315222356E+02 0.  0.
        -24    2    1    2    0    0 -0.88418401465E+03  0.27494898854E+03  0.80595361626E+03  0.12301039651E+04  0.78842979274E+02 0.  0.
         13    1    4    4    0    0 -0.54223745651E+03  0.16357931265E+03  0.44183811060E+03  0.71833179434E+03  0.00000000000E+00 0. -1.
        -14    1    4    4    0    0 -0.34194655814E+03  0.11136967589E+03  0.36411550566E+03  0.51177217079E+03  0.00000000000E+00 0.  1.
        -11    1    3    3    0    0 -0.40882973919E+02 -0.23503502983E+02  0.54527302422E+02  0.72090629892E+02  0.00000000000E+00 0. -1.
         11    1    3    3    0    0  0.23043127224E+02  0.18747022964E+02 -0.97628432220E+01  0.31268989271E+02  0.00000000000E+00 0.  1.
          2    1    1    2  501    0  0.90202386135E+03 -0.27019250852E+03 -0.94931585517E+02  0.94639476120E+03  0.00000000000E+00 0. -1.
<scales pt_clust_5="13000.00000" pt_clust_6="13000.00000" pt_clust_7="13000.00000" pt_clust_8="13000.00000" pt_clust_9="13000.00000"></scales>
<clustering>
<clus scale="   78.843">  5  6 -1 -1</clus>
<clus scale="   91.315">  7  8 -1 -1</clus>
<clus scale="   93.163">  1  7  2 -1</clus>
<clus scale="  936.989">  5  9 -1 -1</clus>
<clus scale=" 2057.084">  2  5  1 -1</clus>
</clustering>
</event>
<event>
 9    1  0.4516508E-005  0.3090909E+03  0.7546771E-02  0.1110650E+00
          1   -1    0    0  502    0 -0.00000000000E+00  0.00000000000E+00  0.41636632895E+03  0.41636632895E+03  0.00000000000E+00 0. -1.
         21   -1    0    0  501  502  0.00000000000E+00 -0.00000000000E+00 -0.19801583017E+03  0.19801583017E+03  0.00000000000E+00 0. -1.
         23    2    1    2    0    0 -0.94996578726E+02  0.50123287636E+02  0.26633206877E+03  0.30158920635E+03  0.92122660601E+02 0.  0.
        -24    2    1    2    0    0 -0.43621947855E+02 -0.10505265073E+03 -0.79594214335E+02  0.16037349823E+03  0.80283785514E+02 0.  0.
         13    1    4    4    0    0 -0.12800253362E+01 -0.95886455119E+02 -0.55723418794E+02  0.11090964855E+03  0.00000000000E+00 0. -1.
        -14    1    4    4    0    0 -0.42341922518E+02 -0.91661956157E+01 -0.23870795541E+02  0.49463849672E+02  0.00000000000E+00 0.  1.
        -13    1    3    3    0    0 -0.41790278920E+02  0.48813520334E+02  0.57989825949E+02  0.86556381008E+02  0.00000000000E+00 0.  1.
         13    1    3    3    0    0 -0.53206299805E+02  0.13097673027E+01  0.20834224282E+03  0.21503282534E+03  0.00000000000E+00 0. -1.
          2    1    1    2  501    0  0.13861852658E+03  0.54929363098E+02  0.31612644343E+02  0.15241945455E+03  0.00000000000E+00 0. -1.
<scales pt_clust_5="13000.00000" pt_clust_6="13000.00000" pt_clust_7="13000.00000" pt_clust_8="13000.00000" pt_clust_9="13000.00000"></scales>
<clustering>
<clus scale="   80.284">  5  6 -1 -1</clus>
<clus scale="   92.123">  7  8 -1 -1</clus>
<clus scale="  141.504">  1  7  2 -1</clus>
<clus scale="  115.448">  5  9 -1 -1</clus>
<clus scale="  309.091">  2  5  1 -1</clus>
</clustering>
</event>
<event>
 9    1  0.4516508E-005  0.2515046E+03  0.7546771E-02  0.1143233E+00
          1   -1    0    0  502    0 -0.00000000000E+00  0.00000000000E+00  0.32510623974E+03  0.32510623974E+03  0.00000000000E+00 0. -1.
         21   -1    0    0  501  502  0.00000000000E+00 -0.00000000000E+00 -0.15101967479E+03  0.15101967479E+03  0.00000000000E+00 0. -1.
         23    2    1    2    0    0  0.67895075887E+02  0.24453448275E+02  0.19081677226E+03  0.22406545625E+03  0.92663777437E+02 0.  0.
        -24    2    1    2    0    0  0.53211675754E+02 -0.65089119832E+02  0.21802242895E+02  0.11863312669E+03  0.80810921266E+02 0.  0.
         13    1    4    4    0    0  0.38633050892E+02 -0.81816509740E+02  0.46690231627E+01  0.90599413158E+02  0.00000000000E+00 0. -1.
        -14    1    4    4    0    0  0.14578624862E+02  0.16727389908E+02  0.17133219733E+02  0.28033713532E+02  0.00000000000E+00 0.  1.
        -13    1    3    3    0    0 -0.17942954455E+02 -0.97574388862E+01  0.14650402834E+02  0.25135463619E+02  0.00000000000E+00 0.  1.
         13    1    3    3    0    0  0.85838030341E+02  0.34210887162E+02  0.17616636942E+03  0.19892999263E+03  0.00000000000E+00 0. -1.
          2    1    1    2  501    0 -0.12110675164E+03  0.40635671557E+02 -0.38532450197E+02  0.13342733159E+03  0.00000000000E+00 0. -1.
<scales pt_clust_5="13000.00000" pt_clust_6="13000.00000" pt_clust_7="13000.00000" pt_clust_8="13000.00000" pt_clust_9="13000.00000"></scales>
<clustering>
<clus scale="   80.811">  5  6 -1 -1</clus>
<clus scale="   92.664">  7  8 -1 -1</clus>
<clus scale="  117.449">  1  7  2 -1</clus>
<clus scale="  106.466">  5  9 -1 -1</clus>
<clus scale="  251.505">  2  5  1 -1</clus>
</clustering>
</event>
<event>
 9    1  0.4516508E-005  0.2429444E+03  0.7546771E-02  0.1133072E+00
          1   -1    0    0  502    0 -0.00000000000E+00  0.00000000000E+00  0.73268901276E+03  0.73268901276E+03  0.00000000000E+00 0. -1.
         21   -1    0    0  501  502  0.00000000000E+00 -0.00000000000E+00 -0.64622698256E+02  0.64622698256E+02  0.00000000000E+00 0. -1.
         23    2    1    2    0    0  0.13428146824E+03 -0.35861640793E+02  0.14624889568E+03  0.22171167010E+03  0.91922549890E+02 0.  0.
        -24    2    1    2    0    0 -0.12396126969E+03  0.89111061913E+02  0.47018436710E+03  0.50071359770E+03  0.79583855861E+02 0.  0.
         13    1    4    4    0    0 -0.13306879644E+03  0.87678847516E+02  0.46071744164E+03  0.48749917530E+03  0.00000000000E+00 0. -1.
        -14    1    4    4    0    0  0.91075267496E+01  0.14322143968E+01  0.94669254620E+01  0.13214422397E+02  0.00000000000E+00 0.  1.
        -13    1    3    3    0    0  0.18413308787E+02 -0.97288715113E+01  0.86078748336E+02  0.88562135229E+02  0.00000000000E+00 0.  1.
         13    1    3    3    0    0  0.11586815945E+03 -0.26132769282E+02  0.60170147344E+02  0.13314953487E+03  0.00000000000E+00 0. -1.
          2    1    1    2  501    0 -0.10320198544E+02 -0.53249421120E+02  0.51633051716E+02  0.74886443213E+02  0.00000000000E+00 0. -1.
<scales pt_clust_5="13000.00000" pt_clust_6="13000.00000" pt_clust_7="13000.00000" pt_clust_8="13000.00000" pt_clust_9="13000.00000"></scales>
<clustering>
<clus scale="   79.584">  5  6 -1 -1</clus>
<clus scale="   54.240">  5  9 -1 -1</clus>
<clus scale="   91.923">  7  8 -1 -1</clus>
<clus scale="  166.635">  1  7  2 -1</clus>
<clus scale="  242.944">  2  5  1 -1</clus>
</clustering>
</event>
<event>
 9    1  0.4516508E-005  0.3176407E+03  0.7546771E-02  0.1118773E+00
         -4   -1    0    0    0  501 -0.00000000000E+00  0.00000000000E+00  0.88868092436E+03  0.88868092436E+03  0.00000000000E+00 0.  1.
         21   -1    0    0  501  502  0.00000000000E+00 -0.00000000000E+00 -0.51071846623E+02  0.51071846623E+02  0.00000000000E+00 0. -1.
         23    2    1    2    0    0  0.29060666002E+02  0.42881156670E+02  0.17028582498E+03  0.20068856112E+03  0.92710951186E+02 0.  0.
        -24    2    1    2    0    0  0.81228601031E+02 -0.18199962169E+02  0.80933343517E+02  0.14188248757E+03  0.81554337327E+02 0.  0.
         13    1    4    4    0    0  0.47314052860E+02 -0.41501984892E+02  0.78566180613E+02  0.10066617646E+03  0.00000000000E+00 0. -1.
        -14    1    4    4    0    0  0.33914548171E+02  0.23302022723E+02  0.23671629040E+01  0.41216311102E+02  0.00000000000E+00 0.  1.
        -13    1    3    3    0    0 -0.23028695878E+02 -0.14450657548E+02  0.30368332015E+02  0.40760004008E+02  0.00000000000E+00 0.  1.
         13    1    3    3    0    0  0.52089361880E+02  0.57331814217E+02  0.13991749297E+03  0.15992855711E+03  0.00000000000E+00 0. -1.
         -3    1    1    2    0  502 -0.11028926703E+03 -0.24681194501E+02  0.58638990924E+03  0.59718172229E+03  0.00000000000E+00 0.  1.
<scales pt_clust_5="13000.00000" pt_clust_6="13000.00000" pt_clust_7="13000.00000" pt_clust_8="13000.00000" pt_clust_9="13000.00000"></scales>
<clustering>
<clus scale="   81.554">  5  6 -1 -1</clus>
<clus scale="   92.711">  7  8 -1 -1</clus>
<clus scale="  106.201">  1  7  2 -1</clus>
<clus scale="   86.587">  5  9 -1 -1</clus>
<clus scale="  317.641">  2  5  1 -1</clus>
</clustering>
</event>
<event>
 9    1  0.4516508E-005  0.3109515E+03  0.7546771E-02  0.1114241E+00
         21   -1    0    0  501  502  0.00000000000E+00  0.00000000000E+00  0.87564505213E+02  0.87564505213E+02  0.00000000000E+00 0. -1.
          1   -1    0    0  502    0 -0.00000000000E+00 -0.00000000000E+00 -0.77486290802E+03  0.77486290802E+03  0.00000000000E+00 0. -1.
         23    2    1    2    0    0  0.31656938993E+02 -0.82712657786E+02 -0.46021324429E+03  0.47738387151E+03  0.90860249907E+02 0.  0.
        -24    2    1    2    0    0  0.79811647451E+02 -0.25161985234E+02 -0.19476778112E+03  0.22659292717E+03  0.80042748037E+02 0.  0.
         11    1    4    4    0    0  0.68469758183E+02 -0.55587967131E+01 -0.64032405726E+02  0.93910366784E+02  0.00000000000E+00 0. -1.
        -12    1    4    4    0    0  0.11341889268E+02 -0.19603188521E+02 -0.13073537539E+03  0.13268256039E+03  0.00000000000E+00 0.  1.
        -13    1    3    3    0    0  0.64299340958E+01 -0.95746438497E+02 -0.39030975479E+03  0.40193336416E+03  0.00000000000E+00 0. -1.
         13    1    3    3    0    0  0.25227004897E+02  0.13033780710E+02 -0.69903489498E+02  0.75450507352E+02  0.00000000000E+00 0.  1.
          2    1    1    2  501    0 -0.11146858644E+03  0.10787464302E+03 -0.32317377403E+02  0.15845061455E+03  0.00000000000E+00 0. -1.
<scales pt_clust_5="13000.00000" pt_clust_6="13000.00000" pt_clust_7="13000.00000" pt_clust_8="13000.00000" pt_clust_9="13000.00000"></scales>
<clustering>
<clus scale="   80.043">  5  6 -1 -1</clus>
<clus scale="   90.860">  7  8 -1 -1</clus>
<clus scale="  126.882">  2  7  1 -1</clus>
<clus scale="  130.626">  5  9 -1 -1</clus>
<clus scale="  310.952">  1  5  2 -1</clus>
</clustering>
</event>
<event>
 9    1  0.4516508E-005  0.2097064E+03  0.7546771E-02  0.1154695E+00
          1   -1    0    0  502    0 -0.00000000000E+00  0.00000000000E+00  0.49593935405E+03  0.49593935405E+03  0.00000000000E+00 0. -1.
         21   -1    0    0  501  502  0.00000000000E+00 -0.00000000000E+00 -0.92159086932E+02  0.92159086932E+02  0.00000000000E+00 0. -1.
         23    2    1    2    0    0  0.29129883018E+02  0.12459575171E+03  0.33255710112E+03  0.36662717204E+03  0.86305308866E+02 0.  0.
        -24    2    1    2    0    0  0.18258436649E+02 -0.49708185233E+02 -0.95345375414E+01  0.10157294896E+03  0.86150347456E+02 0.  0.
         13    1    4    4    0    0  0.39111629343E+02 -0.52944851326E+02 -0.29853539293E+02  0.72278009381E+02  0.00000000000E+00 0. -1.
        -14    1    4    4    0    0 -0.20853192694E+02  0.32366660924E+01  0.20319001752E+02  0.29294939582E+02  0.00000000000E+00 0.  1.
        -13    1    3    3    0    0  0.33405548988E+02  0.18528694806E+02  0.39559886786E+02  0.54992980251E+02  0.00000000000E+00 0.  1.
         13    1    3    3    0    0 -0.42756659694E+01  0.10606705691E+03  0.29299721434E+03  0.31163419179E+03  0.00000000000E+00 0. -1.
          2    1    1    2  501    0 -0.47388319667E+02 -0.74887566478E+02  0.80757703531E+02  0.11989831998E+03  0.00000000000E+00 0. -1.
<scales pt_clust_5="13000.00000" pt_clust_6="13000.00000" pt_clust_7="13000.00000" pt_clust_8="13000.00000" pt_clust_9="13000.00000"></scales>
<clustering>
<clus scale="   86.150">  5  6 -1 -1</clus>
<clus scale="   86.305">  7  8 -1 -1</clus>
<clus scale="   88.622">  5  9 -1 -1</clus>
<clus scale="  154.341">  1  7  2 -1</clus>
<clus scale="  209.706">  2  5  1 -1</clus>
</clustering>
</event>
<event>
 9    1  0.4516508E-005  0.1858124E+03  0.7546771E-02  0.1180477E+00
          1   -1    0    0  502    0 -0.00000000000E+00  0.00000000000E+00  0.79707376330E+03  0.79707376330E+03  0.00000000000E+00 0. -1.
         21   -1    0    0  501  502  0.00000000000E+00 -0.00000000000E+00 -0.33023773194E+02  0.33023773194E+02  0.00000000000E+00 0. -1.
         23    2    1    2    0    0  0.52060452913E+02 -0.71174617942E+02  0.43751138117E+03  0.45439325356E+03  0.85328208928E+02 0.  0.
        -24    2    1    2    0    0  0.11886252721E+02  0.99825981803E+01  0.98279502283E+02  0.13088626028E+03  0.85037740385E+02 0.  0.
         11    1    4    4    0    0  0.36430553692E+02 -0.18642261327E+02  0.23634170278E+02  0.47257731160E+02  0.00000000000E+00 0. -1.
        -12    1    4    4    0    0 -0.24544300970E+02  0.28624859507E+02  0.74645332005E+02  0.83628529115E+02  0.00000000000E+00 0.  1.
        -13    1    3    3    0    0 -0.21711093176E+02 -0.30121540970E+02  0.10658084639E+03  0.11286343790E+03  0.00000000000E+00 0.  1.
         13    1    3    3    0    0  0.73771546089E+02 -0.41053076972E+02  0.33093053478E+03  0.34152981567E+03  0.00000000000E+00 0. -1.
          2    1    1    2  501    0 -0.63946705635E+02  0.61192019761E+02  0.22825910665E+03  0.24481802265E+03  0.00000000000E+00 0. -1.
<scales pt_clust_5="13000.00000" pt_clust_6="13000.00000" pt_clust_7="13000.00000" pt_clust_8="13000.00000" pt_clust_9="13000.00000"></scales>
<clustering>
<clus scale="   85.038">  5  6 -1 -1</clus>
<clus scale="   85.328">  7  8 -1 -1</clus>
<clus scale="   88.508">  5  9 -1 -1</clus>
<clus scale="  122.707">  1  7  2 -1</clus>
<clus scale="  185.812">  2  5  1 -1</clus>
</clustering>
</event>
<event>
 9    1  0.4516508E-005  0.2450893E+03  0.7546771E-02  0.1152011E+00
          1   -1    0    0  502    0 -0.00000000000E+00  0.00000000000E+00  0.38096902252E+03  0.38096902252E+03  0.00000000000E+00 0. -1.
         21   -1    0    0  501  502  0.00000000000E+00 -0.00000000000E+00 -0.11277788506E+03  0.11277788506E+03  0.00000000000E+00 0. -1.
         23    2    1    2    0    0  0.46723174754E+02 -0.15335699145E+00  0.22146662927E+03  0.24424350497E+03  0.91784221227E+02 0.  0.
        -24    2    1    2    0    0  0.63698615318E+02 -0.10601284045E+02  0.83317772415E+02  0.13268002732E+03  0.80574422946E+02 0.  0.
         13    1    4    4    0    0  0.74613658671E+02  0.12930355813E+02  0.71601566535E+02  0.10421696835E+03  0.00000000000E+00 0. -1.
        -14    1    4    4    0    0 -0.10915043353E+02 -0.23531639859E+02  0.11716205880E+02  0.28463058972E+02  0.00000000000E+00 0.  1.
        -13    1    3    3    0    0 -0.26361130789E+02  0.33420424113E+01  0.35064401515E+02  0.43995348817E+02  0.00000000000E+00 0.  1.
         13    1    3    3    0    0  0.73084305543E+02 -0.34953994028E+01  0.18640222775E+03  0.20024815616E+03  0.00000000000E+00 0. -1.
          2    1    1    2  501    0 -0.11042179007E+03  0.10754641037E+02 -0.36593264225E+02  0.11682337529E+03  0.00000000000E+00 0. -1.
<scales pt_clust_5="13000.00000" pt_clust_6="13000.00000" pt_clust_7="13000.00000" pt_clust_8="13000.00000" pt_clust_9="13000.00000"></scales>
<clustering>
<clus scale="   80.574">  5  6 -1 -1</clus>
<clus scale="   91.784">  7  8 -1 -1</clus>
<clus scale="  102.992">  1  7  2 -1</clus>
<clus scale="   98.353">  5  9 -1 -1</clus>
<clus scale="  245.089">  2  5  1 -1</clus>
</clustering>
</event>
<event>
 9    1  0.4516508E-005  0.1875408E+03  0.7546771E-02  0.1183595E+00
          3   -1    0    0  502    0 -0.00000000000E+00  0.00000000000E+00  0.23321246146E+03  0.23321246146E+03  0.00000000000E+00 0. -1.
         21   -1    0    0  501  502  0.00000000000E+00 -0.00000000000E+00 -0.10878349083E+03  0.10878349083E+03  0.00000000000E+00 0.  1.
         23    2    1    2    0    0  0.36588747315E+02  0.52164895327E+02  0.10575522535E+03  0.15352778359E+03  0.91250752935E+02 0.  0.
        -24    2    1    2    0    0 -0.92177007899E+02 -0.45505800349E+02  0.52622765131E+01  0.13089850868E+03  0.80866243691E+02 0.  0.
         11    1    4    4    0    0 -0.75263908919E+02  0.29669584024E+01  0.19142073288E+02  0.77716650710E+02  0.00000000000E+00 0. -1.
        -12    1    4    4    0    0 -0.16913098980E+02 -0.48472758751E+02 -0.13879796775E+02  0.53181857965E+02  0.00000000000E+00 0.  1.
        -13    1    3    3    0    0  0.34588851393E+01 -0.25267425169E+02  0.36287871164E+02  0.44353311654E+02  0.00000000000E+00 0.  1.
         13    1    3    3    0    0  0.33129862176E+02  0.77432320496E+02  0.69467354190E+02  0.10917447194E+03  0.00000000000E+00 0. -1.
          4    1    1    2  501    0  0.55588260584E+02 -0.66590949780E+01  0.13411468764E+02  0.57569660023E+02  0.00000000000E+00 0. -1.
<scales pt_clust_5="13000.00000" pt_clust_6="13000.00000" pt_clust_7="13000.00000" pt_clust_8="13000.00000" pt_clust_9="13000.00000"></scales>
<clustering>
<clus scale="   80.866">  5  6 -1 -1</clus>
<clus scale="   55.986">  5  9 -1 -1</clus>
<clus scale="   91.251">  7  8 -1 -1</clus>
<clus scale="  111.295">  1  7  2 -1</clus>
<clus scale="  187.541">  2  5  1 -1</clus>
</clustering>
</event>
<event>
 9    1  0.4516508E-005  0.4602822E+03  0.7546771E-02  0.1059168E+00
          1   -1    0    0  502    0 -0.00000000000E+00  0.00000000000E+00  0.71259249216E+03  0.71259249216E+03  0.00000000000E+00 0. -1.
         21   -1    0    0  501  502  0.00000000000E+00 -0.00000000000E+00 -0.14782301228E+03  0.14782301228E+03  0.00000000000E+00 0. -1.
         23    2    1    2    0    0  0.38477797103E+02 -0.13691313390E+03  0.66336192673E+02  0.18196472344E+03  0.92113641849E+02 0.  0.
        -24    2    1    2    0    0  0.17621399200E+03  0.31015972637E+01  0.13360485044E+03  0.23449371110E+03  0.77949044919E+02 0.  0.
         11    1    4    4    0    0  0.16952889896E+03  0.22451398973E+02  0.11040054629E+03  0.20354948667E+03  0.00000000000E+00 0. -1.
        -12    1    4    4    0    0  0.66850930337E+01 -0.19349801709E+02  0.23204304145E+02  0.30944224436E+02  0.00000000000E+00 0.  1.
        -13    1    3    3    0    0 -0.12756856943E+02 -0.24374627449E+02 -0.17468907232E+02  0.32588687949E+02  0.00000000000E+00 0. -1.
         13    1    3    3    0    0  0.51234654046E+02 -0.11253850645E+03  0.83805099905E+02  0.14937603549E+03  0.00000000000E+00 0.  1.
          2    1    1    2  501    0 -0.21469178910E+03  0.13381153663E+03  0.36482843676E+03  0.44395706990E+03  0.00000000000E+00 0. -1.
<scales pt_clust_5="13000.00000" pt_clust_6="13000.00000" pt_clust_7="13000.00000" pt_clust_8="13000.00000" pt_clust_9="13000.00000"></scales>
<clustering>
<clus scale="   77.949">  5  6 -1 -1</clus>
<clus scale="   92.114">  7  8 -1 -1</clus>
<clus scale="  169.442">  1  7  2 -1</clus>
<clus scale="  192.394">  5  9 -1 -1</clus>
<clus scale="  460.282">  2  5  1 -1</clus>
</clustering>
</event>
<event>
 9    1  0.4516508E-005  0.4156154E+03  0.7546771E-02  0.1080971E+00
          1   -1    0    0  502    0 -0.00000000000E+00  0.00000000000E+00  0.42672010146E+03  0.42672010146E+03  0.00000000000E+00 0. -1.
         21   -1    0    0  501  502  0.00000000000E+00 -0.00000000000E+00 -0.19357465677E+03  0.19357465677E+03  0.00000000000E+00 0. -1.
         23    2    1    2    0    0  0.70906979417E+02 -0.45838347473E+02 -0.27851880750E+02  0.12952416780E+03  0.94190386735E+02 0.  0.
        -24    2    1    2    0    0  0.12998639724E+03 -0.29048414856E+02  0.25896977581E+01  0.15500180391E+03  0.79237483606E+02 0.  0.
         11    1    4    4    0    0  0.77639561284E+02 -0.54144717807E+02 -0.11255555048E+02  0.95321768039E+02  0.00000000000E+00 0. -1.
        -12    1    4    4    0    0  0.52346835955E+02  0.25096302950E+02  0.13845252806E+02  0.59680035871E+02  0.00000000000E+00 0.  1.
        -11    1    3    3    0    0  0.11460167236E+02 -0.61036307332E+02  0.89512747750E-01  0.62102932768E+02  0.00000000000E+00 0.  1.
         11    1    3    3    0    0  0.59446812181E+02  0.15197959860E+02 -0.27941393497E+02  0.67421235030E+02  0.00000000000E+00 0. -1.
          2    1    1    2  501    0 -0.20089337666E+03  0.74886762329E+02  0.25840762768E+03  0.33576878652E+03  0.00000000000E+00 0. -1.
<scales pt_clust_5="13000.00000" pt_clust_6="13000.00000" pt_clust_7="13000.00000" pt_clust_8="13000.00000" pt_clust_9="13000.00000"></scales>
<clustering>
<clus scale="   79.237">  5  6 -1 -1</clus>
<clus scale="   94.190">  7  8 -1 -1</clus>
<clus scale="  126.494">  1  7  2 -1</clus>
<clus scale="  149.920">  5  9 -1 -1</clus>
<clus scale="  415.615">  2  5  1 -1</clus>
</clustering>
</event>
<event>
 9    1  0.4516508E-005  0.1379814E+03  0.7546771E-02  0.1229483E+00
         21   -1    0    0  501  502  0.00000000000E+00  0.00000000000E+00  0.20392002151E+02  0.20392002151E+02  0.00000000000E+00 0. -1.
          1   -1    0    0  502    0 -0.00000000000E+00 -0.00000000000E+00 -0.72836071803E+03  0.72836071803E+03  0.00000000000E+00 0. -1.
         23    2    1    2    0    0 -0.42008811659E+02 -0.22532680416E+02 -0.26408615952E+03  0.28391876764E+03  0.92714103701E+02 0.  0.
        -24    2    1    2    0    0  0.13021589459E+02 -0.99229485799E+01 -0.18011770027E+03  0.19750358350E+03  0.79355231984E+02 0.  0.
         11    1    4    4    0    0  0.45436073386E+02  0.26899361213E+01 -0.88782729391E+02  0.99769963211E+02  0.00000000000E+00 0. -1.
        -12    1    4    4    0    0 -0.32414483927E+02 -0.12612884701E+02 -0.91334970883E+02  0.97733620290E+02  0.00000000000E+00 0.  1.
        -11    1    3    3    0    0  0.24675633560E+02 -0.13570879436E+01 -0.13352162205E+03  0.13578936679E+03  0.00000000000E+00 0.  1.
         11    1    3    3    0    0 -0.66684445219E+02 -0.21175592473E+02 -0.13056453747E+03  0.14812940085E+03  0.00000000000E+00 0. -1.
          2    1    1    2  501    0  0.28987222200E+02  0.32455628996E+02 -0.26376485609E+03  0.26733036904E+03  0.00000000000E+00 0. -1.
<scales pt_clust_5="13000.00000" pt_clust_6="13000.00000" pt_clust_7="13000.00000" pt_clust_8="13000.00000" pt_clust_9="13000.00000"></scales>
<clustering>
<clus scale="   79.355">  5  6 -1 -1</clus>
<clus scale="   43.516">  5  9 -1 -1</clus>
<clus scale="   92.714">  7  8 -1 -1</clus>
<clus scale="  104.252">  2  7  1 -1</clus>
<clus scale="  137.981">  1  5  2 -1</clus>
</clustering>
</event>
<event>
 9    1  0.4516508E-005  0.3793037E+03  0.7546771E-02  0.1097435E+00
          1   -1    0    0  502    0 -0.00000000000E+00  0.00000000000E+00  0.75596965777E+03  0.75596965777E+03  0.00000000000E+00 0. -1.
         21   -1    0    0  501  502  0.00000000000E+00 -0.00000000000E+00 -0.19691508809E+03  0.19691508809E+03  0.00000000000E+00 0.  1.
         23    2    1    2    0    0 -0.44473838840E+02  0.34859693178E+02  0.56337031556E+03  0.57355644948E+03  0.91584757162E+02 0.  0.
        -24    2    1    2    0    0  0.16049271110E+02  0.15488156201E+03 -0.30926720771E+02  0.18563306166E+03  0.96214833408E+02 0.  0.
         13    1    4    4    0    0  0.27229244376E+02  0.84931546877E+01 -0.26219215064E+02  0.38742904698E+02  0.00000000000E+00 0. -1.
        -14    1    4    4    0    0 -0.11179973266E+02  0.14638840732E+03 -0.47075057069E+01  0.14689015696E+03  0.00000000000E+00 0.  1.
        -11    1    3    3    0    0  0.12662178291E+02 -0.22646265238E+02  0.11215603638E+03  0.11511802893E+03  0.00000000000E+00 0.  1.
         11    1    3    3    0    0 -0.57136017131E+02  0.57505958416E+02  0.45121427918E+03  0.45843842055E+03  0.00000000000E+00 0. -1.
          2    1    1    2  501    0  0.28424567731E+02 -0.18974125519E+03  0.26610974895E+02  0.19369523473E+03  0.00000000000E+00 0. -1.
<scales pt_clust_5="13000.00000" pt_clust_6="13000.00000" pt_clust_7="13000.00000" pt_clust_8="13000.00000" pt_clust_9="13000.00000"></scales>
<clustering>
<clus scale="   91.585">  7  8 -1 -1</clus>
<clus scale="   96.215">  5  6 -1 -1</clus>
<clus scale="  107.615">  1  7  2 -1</clus>
<clus scale="  169.278">  5  9 -1 -1</clus>
<clus scale="  379.304">  2  5  1 -1</clus>
</clustering>
</event>
<event>
 9    1  0.4516508E-005  0.2384275E+03  0.7546771E-02  0.1156693E+00
         21   -1    0    0  501  502  0.00000000000E+00  0.00000000000E+00  0.46773501682E+02  0.46773501682E+02  0.00000000000E+00 0. -1.
          1   -1    0    0  502    0 -0.00000000000E+00 -0.00000000000E+00 -0.63601626101E+03  0.63601626101E+03  0.00000000000E+00 0. -1.
         23    2    1    2    0    0  0.37326969364E+02 -0.67719696856E+01 -0.23833765944E+03  0.25854681209E+03  0.92749403870E+02 0.  0.
        -24    2    1    2    0    0 -0.77226198180E+02  0.91303352620E+02 -0.23084340925E+03  0.27208411018E+03  0.80255190061E+02 0.  0.
         13    1    4    4    0    0 -0.75695467289E+02  0.97143523781E+02 -0.23460941474E+03  0.26496838579E+03  0.00000000000E+00 0. -1.
        -14    1    4    4    0    0 -0.15307308913E+01 -0.58401711617E+01  0.37660054908E+01  0.71157243915E+01  0.00000000000E+00 0.  1.
        -11    1    3    3    0    0 -0.84477021072E+00 -0.42501755776E+02 -0.66459953659E+02  0.78892574563E+02  0.00000000000E+00 0.  1.
         11    1    3    3    0    0  0.38171739575E+02  0.35729786091E+02 -0.17187770578E+03  0.17965423752E+03  0.00000000000E+00 0. -1.
          2    1    1    2  501    0  0.39899228816E+02 -0.84531382934E+02 -0.12006169063E+03  0.15215884042E+03  0.00000000000E+00 0. -1.
<scales pt_clust_5="13000.00000" pt_clust_6="13000.00000" pt_clust_7="13000.00000" pt_clust_8="13000.00000" pt_clust_9="13000.00000"></scales>
<clustering>
<clus scale="   80.255">  5  6 -1 -1</clus>
<clus scale="   92.749">  7  8 -1 -1</clus>
<clus scale="   93.475">  5  9 -1 -1</clus>
<clus scale="  100.208">  2  7  1 -1</clus>
<clus scale="  238.428">  1  5  2 -1</clus>
</clustering>
</event>
<event>
 9    1  0.4516508E-005  0.1547966E+03  0.7546771E-02  0.1209210E+00
          1   -1    0    0  502    0 -0.00000000000E+00  0.00000000000E+00  0.32695583658E+03  0.32695583658E+03  0.00000000000E+00 0. -1.
         21   -1    0    0  501  502  0.00000000000E+00 -0.00000000000E+00 -0.60765713863E+02  0.60765713863E+02  0.00000000000E+00 0. -1.
         23    2    1    2    0    0 -0.61639442248E+02  0.16100550523E+02  0.17412753657E+03  0.20761739260E+03  0.93412708726E+02 0.  0.
        -24    2    1    2    0    0  0.10408468244E+02 -0.40885325935E+02  0.26846130168E+02  0.93547333037E+02  0.79059741496E+02 0.  0.
         11    1    4    4    0    0  0.47774648526E+01 -0.33358791813E+02 -0.24298704612E+02  0.41545880752E+02  0.00000000000E+00 0. -1.
        -12    1    4    4    0    0  0.56310033916E+01 -0.75265341223E+01  0.51144834780E+02  0.52001452285E+02  0.00000000000E+00 0.  1.
        -13    1    3    3    0    0 -0.35368924387E+02 -0.38620160822E+02  0.80846343867E+02  0.96325536338E+02  0.00000000000E+00 0.  1.
         13    1    3    3    0    0 -0.26270517862E+02  0.54720711345E+02  0.93281192700E+02  0.11129185626E+03  0.00000000000E+00 0. -1.
          2    1    1    2  501    0  0.51230974004E+02  0.24784775412E+02  0.65216455982E+02  0.86556824806E+02  0.00000000000E+00 0. -1.
<scales pt_clust_5="13000.00000" pt_clust_6="13000.00000" pt_clust_7="13000.00000" pt_clust_8="13000.00000" pt_clust_9="13000.00000"></scales>
<clustering>
<clus scale="   79.060">  5  6 -1 -1</clus>
<clus scale="   56.911">  5  9 -1 -1</clus>
<clus scale="   93.413">  7  8 -1 -1</clus>
<clus scale="  113.069">  1  7  2 -1</clus>
<clus scale="  154.797">  2  5  1 -1</clus>
</clustering>
</event>
<event>
 9    1  0.4516508E-005  0.1689761E+03  0.7546771E-02  0.1195712E+00
         21   -1    0    0  501  502  0.00000000000E+00  0.00000000000E+00  0.10075288339E+03  0.10075288339E+03  0.00000000000E+00 0. -1.
          1   -1    0    0  502    0 -0.00000000000E+00 -0.00000000000E+00 -0.20409731819E+03  0.20409731819E+03  0.00000000000E+00 0. -1.
         23    2    1    2    0    0 -0.60285750575E+02  0.27337132974E+02 -0.27333437564E+02  0.11956505026E+03  0.95744419541E+02 0.  0.
        -24    2    1    2    0    0  0.20241325025E+02 -0.45338591451E+02  0.46364104549E+01  0.93461336918E+02  0.79045721472E+02 0.  0.
         11    1    4    4    0    0 -0.93062963918E+01 -0.43256543350E+02  0.30823719121E+02  0.53924366993E+02  0.00000000000E+00 0. -1.
        -12    1    4    4    0    0  0.29547621417E+02 -0.20820481011E+01 -0.26187308666E+02  0.39536969925E+02  0.00000000000E+00 0.  1.
        -13    1    3    3    0    0 -0.32230351057E+01  0.47473605100E+02 -0.34295889707E+02  0.58654404671E+02  0.00000000000E+00 0.  1.
         13    1    3    3    0    0 -0.57062715469E+02 -0.20136472126E+02  0.69624521423E+01  0.60910645591E+02  0.00000000000E+00 0. -1.
          2    1    1    2  501    0  0.40044425550E+02  0.18001458477E+02 -0.80647407689E+02  0.91823814405E+02  0.00000000000E+00 0. -1.
<scales pt_clust_5="13000.00000" pt_clust_6="13000.00000" pt_clust_7="13000.00000" pt_clust_8="13000.00000" pt_clust_9="13000.00000"></scales>
<clustering>
<clus scale="   79.046">  5  6 -1 -1</clus>
<clus scale="   43.905">  5  9 -1 -1</clus>
<clus scale="   95.744">  7  8 -1 -1</clus>
<clus scale="  116.399">  2  7  1 -1</clus>
<clus scale="  168.976">  1  5  2 -1</clus>
</clustering>
</event>
<event>
 9    1  0.4516508E-005  0.4177128E+03  0.7546771E-02  0.1086701E+00
         -2   -1    0    0    0  501 -0.00000000000E+00  0.00000000000E+00  0.24109489993E+03  0.24109489993E+03  0.00000000000E+00 0.  1.
         21   -1    0    0  501  502  0.00000000000E+00 -0.00000000000E+00 -0.29618560084E+03  0.29618560084E+03  0.00000000000E+00 0.  1.
         23    2    1    2    0    0  0.25851041721E+02 -0.47790389926E+02 -0.53562113883E+02  0.11956485553E+03  0.92057899757E+02 0.  0.
        -24    2    1    2    0    0 -0.12572136571E+03  0.18867618140E+03 -0.31088153300E+02  0.24251103396E+03  0.80253131373E+02 0.  0.
         11    1    4    4    0    0 -0.16015581409E+02  0.94395344170E+02 -0.16034443110E+02  0.97077717395E+02  0.00000000000E+00 0. -1.
        -12    1    4    4    0    0 -0.10970578430E+03  0.94280837230E+02 -0.15053710190E+02  0.14543331657E+03  0.00000000000E+00 0.  1.
        -11    1    3    3    0    0 -0.34504434712E+02 -0.11151202758E+02 -0.16864947633E+02  0.39991646583E+02  0.00000000000E+00 0. -1.
         11    1    3    3    0    0  0.60355476433E+02 -0.36639187168E+02 -0.36697166250E+02  0.79573208950E+02  0.00000000000E+00 0.  1.
         -1    1    1    2    0  502  0.99870323988E+02 -0.14088579147E+03  0.29559566280E+02  0.17520461127E+03  0.00000000000E+00 0.  1.
<scales pt_clust_5="13000.00000" pt_clust_6="13000.00000" pt_clust_7="13000.00000" pt_clust_8="13000.00000" pt_clust_9="13000.00000"></scales>
<clustering>
<clus scale="   80.253">  5  6 -1 -1</clus>
<clus scale="   92.058">  7  8 -1 -1</clus>
<clus scale="  106.897">  1  7  2 -1</clus>
<clus scale="  199.257">  5  9 -1 -1</clus>
<clus scale="  417.713">  2  5  1 -1</clus>
</clustering>
</event>
<event>
 9    1  0.4516508E-005  0.3301259E+03  0.7546771E-02  0.1088770E+00
          1   -1    0    0  502    0 -0.00000000000E+00  0.00000000000E+00  0.47219787180E+03  0.47219787180E+03  0.00000000000E+00 0. -1.
         21   -1    0    0  501  502  0.00000000000E+00 -0.00000000000E+00 -0.17429207013E+03  0.17429207013E+03  0.00000000000E+00 0.  1.
         23    2    1    2    0    0 -0.17915378864E+03 -0.38427252882E+02  0.48145171975E+01  0.20503144221E+03  0.91880242534E+02 0.  0.
        -24    2    1    2    0    0  0.81329393824E+02  0.19148300655E+02 -0.14451630608E+02  0.11815688383E+03  0.82286522904E+02 0.  0.
         11    1    4    4    0    0  0.74755031070E+02 -0.19863731943E+02 -0.13917175269E+02  0.78591159073E+02  0.00000000000E+00 0. -1.
        -12    1    4    4    0    0  0.65743627536E+01  0.39012032599E+02 -0.53445533909E+00  0.39565724758E+02  0.00000000000E+00 0.  1.
        -11    1    3    3    0    0 -0.11493950618E+03  0.20275563397E+02  0.13974376308E+02  0.11754774241E+03  0.00000000000E+00 0. -1.
         11    1    3    3    0    0 -0.64214282459E+02 -0.58702816279E+02 -0.91598591108E+01  0.87483699794E+02  0.00000000000E+00 0.  1.
          2    1    1    2  501    0  0.97824394819E+02  0.19278952226E+02  0.30754291508E+03  0.32330161589E+03  0.00000000000E+00 0. -1.
<scales pt_clust_5="13000.00000" pt_clust_6="13000.00000" pt_clust_7="13000.00000" pt_clust_8="13000.00000" pt_clust_9="13000.00000"></scales>
<clustering>
<clus scale="   82.287">  5  6 -1 -1</clus>
<clus scale="   91.880">  7  8 -1 -1</clus>
<clus scale="   99.706">  5  9 -1 -1</clus>
<clus scale="  204.975">  1  7  2 -1</clus>
<clus scale="  330.126">  2  5  1 -1</clus>
</clustering>
</event>
<event>
 9    1  0.4516508E-005  0.3247436E+03  0.7546771E-02  0.1106685E+00
          1   -1    0    0  502    0 -0.00000000000E+00  0.00000000000E+00  0.28204613529E+03  0.28204613529E+03  0.00000000000E+00 0. -1.
         21   -1    0    0  501  502  0.00000000000E+00 -0.00000000000E+00 -0.19030365441E+03  0.19030365441E+03  0.00000000000E+00 0. -1.
         23    2    1    2    0    0 -0.39737006820E+02  0.72472553364E+02  0.42708395744E+00  0.13501182382E+03  0.10675537208E+03 0.  0.
        -24    2    1    2    0    0 -0.11758358919E+03  0.26150211167E+01  0.79367508559E+02  0.16260770003E+03  0.79431252734E+02 0.  0.
         13    1    4    4    0    0 -0.10582316422E+03 -0.24793862014E+02  0.75930843352E+02  0.13258495635E+03  0.00000000000E+00 0. -1.
        -14    1    4    4    0    0 -0.11760424971E+02  0.27408883131E+02  0.34366652073E+01  0.30022743674E+02  0.00000000000E+00 0.  1.
        -13    1    3    3    0    0  0.22574792028E+02  0.61575771660E+02 -0.19954461015E+02  0.68552005113E+02  0.00000000000E+00 0. -1.
         13    1    3    3    0    0 -0.62311798848E+02  0.10896781704E+02  0.20381544973E+02  0.66459818707E+02  0.00000000000E+00 0.  1.
          2    1    1    2  501    0  0.15732059601E+03 -0.75087574480E+02  0.11947888362E+02  0.17473026586E+03  0.00000000000E+00 0. -1.
<scales pt_clust_5="13000.00000" pt_clust_6="13000.00000" pt_clust_7="13000.00000" pt_clust_8="13000.00000" pt_clust_9="13000.00000"></scales>
<clustering>
<clus scale="   79.431">  5  6 -1 -1</clus>
<clus scale="  106.755">  7  8 -1 -1</clus>
<clus scale="  135.011">  1  7  2 -1</clus>
<clus scale="  146.625">  5  9 -1 -1</clus>
<clus scale="  324.744">  2  5  1 -1</clus>
</clustering>
</event>
<event>
 9    1  0.4516508E-005  0.2816966E+03  0.7546771E-02  0.1110619E+00
          1   -1    0    0  502    0 -0.00000000000E+00  0.00000000000E+00  0.40280531739E+03  0.40280531739E+03  0.00000000000E+00 0. -1.
         21   -1    0    0  501  502  0.00000000000E+00 -0.00000000000E+00 -0.13638892116E+03  0.13638892116E+03  0.00000000000E+00 0. -1.
         23    2    1    2    0    0  0.85938094240E+02  0.13606690307E+03  0.10506688074E+03  0.21456112522E+03  0.95382749348E+02 0.  0.
        -24    2    1    2    0    0  0.53293697112E+02 -0.86670475911E+02  0.10587541908E+03  0.16682666824E+03  0.79180447874E+02 0.  0.
         13    1    4    4    0    0  0.59852955308E+01 -0.40875763038E+02 -0.96990654007E+00  0.41323026090E+02  0.00000000000E+00 0. -1.
        -14    1    4    4    0    0  0.47308401581E+02 -0.45794712873E+02  0.10684532562E+03  0.12550364215E+03  0.00000000000E+00 0.  1.
        -11    1    3    3    0    0  0.58315019418E+02  0.14466489799E+03  0.99754028963E+02  0.18514707801E+03  0.00000000000E+00 0. -1.
         11    1    3    3    0    0  0.27623074821E+02 -0.85979949211E+01  0.53128517789E+01  0.29414047210E+02  0.00000000000E+00 0.  1.
          2    1    1    2  501    0 -0.13923179135E+03 -0.49396427157E+02  0.55474096415E+02  0.15780644509E+03  0.00000000000E+00 0. -1.
<scales pt_clust_5="13000.00000" pt_clust_6="13000.00000" pt_clust_7="13000.00000" pt_clust_8="13000.00000" pt_clust_9="13000.00000"></scales>
<clustering>
<clus scale="   79.180">  5  6 -1 -1</clus>
<clus scale="   95.383">  7  8 -1 -1</clus>
<clus scale="  147.735">  5  9 -1 -1</clus>
<clus scale="  187.076">  1  7  2 -1</clus>
<clus scale="  281.697">  2  5  1 -1</clus>
</clustering>
</event>
<event>
 9    1  0.4516508E-005  0.3713150E+03  0.7546771E-02  0.1084842E+00
          3   -1    0    0  502    0 -0.00000000000E+00  0.00000000000E+00  0.25384548340E+03  0.25384548340E+03  0.00000000000E+00 0. -1.
         21   -1    0    0  501  502  0.00000000000E+00 -0.00000000000E+00 -0.28771736495E+03  0.28771736495E+03  0.00000000000E+00 0. -1.
         23    2    1    2    0    0  0.20183436389E+02  0.12990749978E+03 -0.56396973433E+02  0.16956526618E+03  0.91040822054E+02 0.  0.
        -24    2    1    2    0    0  0.35143004963E+02 -0.34430329999E+02 -0.14381411852E+03  0.17238386024E+03  0.81321683246E+02 0.  0.
         13    1    4    4    0    0 -0.17006174852E+02 -0.37564014347E+02 -0.79203370289E+02  0.89294115271E+02  0.00000000000E+00 0. -1.
        -14    1    4    4    0    0  0.52149179815E+02  0.31336843475E+01 -0.64610748230E+02  0.83089744974E+02  0.00000000000E+00 0.  1.
        -11    1    3    3    0    0 -0.20744068742E+02  0.22776211569E+00 -0.19948457313E+02  0.28780361581E+02  0.00000000000E+00 0.  1.
         11    1    3    3    0    0  0.40927505131E+02  0.12967973766E+03 -0.36448516120E+02  0.14078490460E+03  0.00000000000E+00 0. -1.
          4    1    1    2  501    0 -0.55326441352E+02 -0.95477169781E+02  0.16633921040E+03  0.19961372192E+03  0.00000000000E+00 0. -1.
<scales pt_clust_5="13000.00000" pt_clust_6="13000.00000" pt_clust_7="13000.00000" pt_clust_8="13000.00000" pt_clust_9="13000.00000"></scales>
<clustering>
<clus scale="   81.322">  5  6 -1 -1</clus>
<clus scale="   91.041">  7  8 -1 -1</clus>
<clus scale="  110.349">  5  9 -1 -1</clus>
<clus scale="  159.912">  1  7  2 -1</clus>
<clus scale="  371.315">  2  5  1 -1</clus>
</clustering>
</event>
<event>
 9    1  0.4516508E-005  0.2756361E+03  0.7546771E-02  0.1135519E+00
          1   -1    0    0  502    0 -0.00000000000E+00  0.00000000000E+00  0.35319922660E+03  0.35319922660E+03  0.00000000000E+00 0. -1.
         21   -1    0    0  501  502  0.00000000000E+00 -0.00000000000E+00 -0.12701844748E+03  0.12701844748E+03  0.00000000000E+00 0. -1.
         23    2    1    2    0    0  0.41026780160E+02  0.28395504423E+02  0.16651722399E+03  0.19819819692E+03  0.95210493194E+02 0.  0.
        -24    2    1    2    0    0 -0.13645531637E+03  0.31278247670E+02  0.15265237903E+02  0.16102868088E+03  0.78094983425E+02 0.  0.
         13    1    4    4    0    0 -0.10012150715E+03  0.15143048044E+02 -0.25150895960E+02  0.10433693337E+03  0.00000000000E+00 0. -1.
        -14    1    4    4    0    0 -0.36333809220E+02  0.16135199627E+02  0.40416133863E+02  0.56691747511E+02  0.00000000000E+00 0.  1.
        -13    1    3    3    0    0  0.29014892647E+02 -0.30550809727E+02  0.99994432440E+02  0.10850853648E+03  0.00000000000E+00 0. -1.
         13    1    3    3    0    0  0.12011887513E+02  0.58946314150E+02  0.66522791552E+02  0.89689660438E+02  0.00000000000E+00 0.  1.
          2    1    1    2  501    0  0.95428536209E+02 -0.59673752093E+02  0.44398317228E+02  0.12099079628E+03  0.00000000000E+00 0. -1.
<scales pt_clust_5="13000.00000" pt_clust_6="13000.00000" pt_clust_7="13000.00000" pt_clust_8="13000.00000" pt_clust_9="13000.00000"></scales>
<clustering>
<clus scale="   78.095">  5  6 -1 -1</clus>
<clus scale="   95.210">  7  8 -1 -1</clus>
<clus scale="  107.492">  1  7  2 -1</clus>
<clus scale="  124.099">  5  9 -1 -1</clus>
<clus scale="  275.636">  2  5  1 -1</clus>
</clustering>
</event>
<event>
 9    1  0.4516508E-005  0.7341294E+03  0.7546771E-02  0.1020035E+00
         21   -1    0    0  501  502  0.00000000000E+00  0.00000000000E+00  0.16932640182E+03  0.16932640182E+03  0.00000000000E+00 0. -1.
          1   -1    0    0  502    0 -0.00000000000E+00 -0.00000000000E+00 -0.13174649586E+04  0.13174649586E+04  0.00000000000E+00 0. -1.
         23    2    1    2    0    0 -0.43588525469E+02  0.81856294421E+02 -0.46854383484E+03  0.48639398301E+03  0.91898689060E+02 0.  0.
        -24    2    1    2    0    0  0.30423545418E+03  0.18146185199E+03 -0.32477666683E+03  0.48739726054E+03  0.81170135823E+02 0.  0.
         11    1    4    4    0    0  0.98264082745E+02  0.95601321140E+02 -0.15550493148E+03  0.20730949394E+03  0.00000000000E+00 0. -1.
        -12    1    4    4    0    0  0.20597137143E+03  0.85860530855E+02 -0.16927173535E+03  0.28008776660E+03  0.00000000000E+00 0.  1.
        -13    1    3    3    0    0 -0.44447553279E+02 -0.37571186952E+01 -0.17741779194E+03  0.18293926268E+03  0.00000000000E+00 0.  1.
         13    1    3    3    0    0  0.85902780996E+00  0.85613413116E+02 -0.29112604290E+03  0.30345472033E+03  0.00000000000E+00 0. -1.
          2    1    1    2  501    0 -0.26064692871E+03 -0.26331814642E+03 -0.35481805508E+03  0.51300011685E+03  0.00000000000E+00 0. -1.
<scales pt_clust_5="13000.00000" pt_clust_6="13000.00000" pt_clust_7="13000.00000" pt_clust_8="13000.00000" pt_clust_9="13000.00000"></scales>
<clustering>
<clus scale="   81.170">  5  6 -1 -1</clus>
<clus scale="   91.899">  7  8 -1 -1</clus>
<clus scale="  130.559">  2  7  1 -1</clus>
<clus scale="  359.218">  5  9 -1 -1</clus>
<clus scale="  734.129">  1  5  2 -1</clus>
</clustering>
</event>
<event>
 9    1  0.4516508E-005  0.4090648E+03  0.7546771E-02  0.1097588E+00
          3   -1    0    0  502    0 -0.00000000000E+00  0.00000000000E+00  0.41018004824E+03  0.41018004824E+03  0.00000000000E+00 0. -1.
         21   -1    0    0  501  502  0.00000000000E+00 -0.00000000000E+00 -0.15058746990E+03  0.15058746990E+03  0.00000000000E+00 0. -1.
         23    2    1    2    0    0 -0.20960398311E+02 -0.10120713015E+02  0.24205822751E+02  0.88813124964E+02  0.82219718934E+02 0.  0.
        -24    2    1    2    0    0 -0.17409314919E+03  0.25367779641E+02  0.19001668242E+03  0.27111415076E+03  0.80278230550E+02 0.  0.
         13    1    4    4    0    0 -0.15868370004E+03 -0.46497893467E+00  0.17867452096E+03  0.23896718876E+03  0.00000000000E+00 0. -1.
        -14    1    4    4    0    0 -0.15409449155E+02  0.25832758575E+02  0.11342161465E+02  0.32146961996E+02  0.00000000000E+00 0.  1.
        -11    1    3    3    0    0 -0.14441816917E+02 -0.44101871889E+02  0.27686436294E+02  0.54037763968E+02  0.00000000000E+00 0. -1.
         11    1    3    3    0    0 -0.65185813939E+01  0.33981158874E+02 -0.34806135428E+01  0.34775360997E+02  0.00000000000E+00 0.  1.
          4    1    1    2  501    0  0.19505354751E+03 -0.15247066625E+02  0.45370073159E+02  0.20084024242E+03  0.00000000000E+00 0. -1.
<scales pt_clust_5="13000.00000" pt_clust_6="13000.00000" pt_clust_7="13000.00000" pt_clust_8="13000.00000" pt_clust_9="13000.00000"></scales>
<clustering>
<clus scale="   80.278">  5  6 -1 -1</clus>
<clus scale="   82.220">  7  8 -1 -1</clus>
<clus scale="   85.451">  1  7  2 -1</clus>
<clus scale="  188.694">  5  9 -1 -1</clus>
<clus scale="  409.065">  2  5  1 -1</clus>
</clustering>
</event>
<event>
 9    1  0.4516508E-005  0.1824060E+03  0.7546771E-02  0.1196925E+00
         21   -1    0    0  501  502  0.00000000000E+00  0.00000000000E+00  0.24175401599E+03  0.24175401599E+03  0.00000000000E+00 0. -1.
         -4   -1    0    0    0  501 -0.00000000000E+00 -0.00000000000E+00 -0.13932597226E+03  0.13932597226E+03  0.00000000000E+00 0.  1.
         23    2    1    2    0    0  0.14554640476E+02 -0.33524482906E+01  0.16519693168E+03  0.18817619030E+03  0.88866055876E+02 0.  0.
        -24    2    1    2    0    0 -0.14481670071E+01  0.21522189424E+02 -0.11221722920E+03  0.13861698933E+03  0.78464395587E+02 0.  0.
         11    1    4    4    0    0 -0.79984093259E+01 -0.29129737781E+02 -0.38521566190E+02  0.48953316912E+02  0.00000000000E+00 0. -1.
        -12    1    4    4    0    0  0.65502423188E+01  0.50651927205E+02 -0.73695663012E+02  0.89663672414E+02  0.00000000000E+00 0.  1.
        -13    1    3    3    0    0  0.21460699191E+02  0.24481970294E+02  0.16051300218E+02  0.36298384509E+02  0.00000000000E+00 0.  1.
         13    1    3    3    0    0 -0.69060587149E+01 -0.27834418584E+02  0.14914563147E+03  0.15187780579E+03  0.00000000000E+00 0. -1.
         -3    1    1    2    0  502 -0.13106473469E+02 -0.18169741133E+02  0.49448341239E+02  0.54286808627E+02  0.00000000000E+00 0.  1.
<scales pt_clust_5="13000.00000" pt_clust_6="13000.00000" pt_clust_7="13000.00000" pt_clust_8="13000.00000" pt_clust_9="13000.00000"></scales>
<clustering>
<clus scale="   78.464">  5  6 -1 -1</clus>
<clus scale="   22.404">  5  9 -1 -1</clus>
<clus scale="   88.866">  7  8 -1 -1</clus>
<clus scale="   90.112">  2  7  1 -1</clus>
<clus scale="  182.406">  1  5  2 -1</clus>
</clustering>
</event>
<event>
 9    1  0.4516508E-005  0.2218743E+03  0.7546771E-02  0.1165004E+00
         -4   -1    0    0    0  501 -0.00000000000E+00  0.00000000000E+00  0.33018693598E+03  0.33018693598E+03  0.00000000000E+00 0.  1.
         21   -1    0    0  501  502  0.00000000000E+00 -0.00000000000E+00 -0.10940212347E+03  0.10940212347E+03  0.00000000000E+00 0.  1.
         23    2    1    2    0    0 -0.30438649896E+02  0.36127717694E+02 -0.27977768596E+02  0.10625583970E+03  0.90971558972E+02 0.  0.
        -24    2    1    2    0    0  0.91197316962E+02 -0.78369252858E+02  0.18970369091E+03  0.23865526334E+03  0.80685525099E+02 0.  0.
         11    1    4    4    0    0  0.39316208531E+02 -0.68818330452E+02  0.15889434800E+03  0.17756446909E+03  0.00000000000E+00 0. -1.
        -12    1    4    4    0    0  0.51881108431E+02 -0.95509224065E+01  0.30809342913E+02  0.61090794246E+02  0.00000000000E+00 0.  1.
        -11    1    3    3    0    0 -0.58477577060E+02  0.30088672353E+02  0.59991971945E+00  0.65767128009E+02  0.00000000000E+00 0. -1.
         11    1    3    3    0    0  0.28038927164E+02  0.60390453405E+01 -0.28577688315E+02  0.40488711693E+02  0.00000000000E+00 0.  1.
         -3    1    1    2    0  502 -0.60758667066E+02  0.42241535164E+02  0.59058890197E+02  0.94677956400E+02  0.00000000000E+00 0.  1.
<scales pt_clust_5="13000.00000" pt_clust_6="13000.00000" pt_clust_7="13000.00000" pt_clust_8="13000.00000" pt_clust_9="13000.00000"></scales>
<clustering>
<clus scale="   80.686">  5  6 -1 -1</clus>
<clus scale="   74.000">  5  9 -1 -1</clus>
<clus scale="   90.972">  7  8 -1 -1</clus>
<clus scale="  102.506">  1  7  2 -1</clus>
<clus scale="  221.874">  2  5  1 -1</clus>
</clustering>
</event>
<event>
 9    1  0.4516508E-005  0.4569739E+03  0.7546771E-02  0.1074194E+00
          1   -1    0    0  502    0 -0.00000000000E+00  0.00000000000E+00  0.27464877937E+03  0.27464877937E+03  0.00000000000E+00 0. -1.
         21   -1    0    0  501  502  0.00000000000E+00 -0.00000000000E+00 -0.29837079984E+03  0.29837079984E+03  0.00000000000E+00 0.  1.
         23    2    1    2    0    0 -0.58326461201E+02  0.33066199274E+02  0.10302626111E+02  0.11478075455E+03  0.92591186944E+02 0.  0.
        -24    2    1    2    0    0 -0.16086646835E+03  0.94000976602E+02 -0.25338347908E+02  0.20472933896E+03  0.80980652721E+02 0.  0.
         13    1    4    4    0    0 -0.22364354685E+02 -0.77852569835E+01  0.15190605906E+02  0.28134126867E+02  0.00000000000E+00 0. -1.
        -14    1    4    4    0    0 -0.13850211367E+03  0.10178623359E+03 -0.40528953814E+02  0.17659521210E+03  0.00000000000E+00 0.  1.
        -13    1    3    3    0    0 -0.58304060086E+02 -0.14361607794E+02 -0.13752246089E+02  0.61601489215E+02  0.00000000000E+00 0.  1.
         13    1    3    3    0    0 -0.22401114996E-01  0.47427807068E+02  0.24054872200E+02  0.53179265336E+02  0.00000000000E+00 0. -1.
          2    1    1    2  501    0  0.21919292955E+03 -0.12706717588E+03 -0.86862986792E+01  0.25350948569E+03  0.00000000000E+00 0. -1.
<scales pt_clust_5="13000.00000" pt_clust_6="13000.00000" pt_clust_7="13000.00000" pt_clust_8="13000.00000" pt_clust_9="13000.00000"></scales>
<clustering>
<clus scale="   80.981">  5  6 -1 -1</clus>
<clus scale="   92.591">  7  8 -1 -1</clus>
<clus scale="  114.317">  1  7  2 -1</clus>
<clus scale="  214.668">  5  9 -1 -1</clus>
<clus scale="  456.974">  2  5  1 -1</clus>
</clustering>
</event>
<event>
 9    1  0.4516508E-005  0.3797146E+03  0.7546771E-02  0.1086106E+00
          1   -1    0    0  502    0 -0.00000000000E+00  0.00000000000E+00  0.54946127580E+03  0.54946127580E+03  0.00000000000E+00 0. -1.
         21   -1    0    0  501  502  0.00000000000E+00 -0.00000000000E+00 -0.16292123905E+03  0.16292123905E+03  0.00000000000E+00 0. -1.
         23    2    1    2    0    0  0.37498919217E+02 -0.10628814300E+03  0.28460928708E+03  0.31922470125E+03  0.90546260604E+02 0.  0.
        -24    2    1    2    0    0  0.97984612445E+02 -0.72897009812E+02  0.81592630404E+02  0.16759907305E+03  0.80728765853E+02 0.  0.
         13    1    4    4    0    0  0.63245543555E+02 -0.42288020713E+01  0.60919927990E+02  0.87915409188E+02  0.00000000000E+00 0. -1.
        -14    1    4    4    0    0  0.34739068890E+02 -0.68668207740E+02  0.20672702414E+02  0.79683663864E+02  0.00000000000E+00 0.  1.
        -11    1    3    3    0    0  0.64043068139E+02 -0.79315450467E+02  0.23982373751E+03  0.26059140495E+03  0.00000000000E+00 0. -1.
         11    1    3    3    0    0 -0.26544148923E+02 -0.26972692537E+02  0.44785549566E+02  0.58633296297E+02  0.00000000000E+00 0.  1.
          2    1    1    2  501    0 -0.13548353166E+03  0.17918515282E+03  0.20338119272E+02  0.22555874055E+03  0.00000000000E+00 0. -1.
<scales pt_clust_5="13000.00000" pt_clust_6="13000.00000" pt_clust_7="13000.00000" pt_clust_8="13000.00000" pt_clust_9="13000.00000"></scales>
<clustering>
<clus scale="   80.729">  5  6 -1 -1</clus>
<clus scale="   90.546">  7  8 -1 -1</clus>
<clus scale="  144.575">  1  7  2 -1</clus>
<clus scale="  172.138">  5  9 -1 -1</clus>
<clus scale="  379.715">  2  5  1 -1</clus>
</clustering>
</event>
<event>
 9    1  0.4516508E-005  0.1584156E+03  0.7546771E-02  0.1208552E+00
         -2   -1    0    0    0  501 -0.00000000000E+00  0.00000000000E+00  0.11929589836E+03  0.11929589836E+03  0.00000000000E+00 0.  1.
         21   -1    0    0  501  502  0.00000000000E+00 -0.00000000000E+00 -0.16031568013E+03  0.16031568013E+03  0.00000000000E+00 0.  1.
         23    2    1    2    0    0  0.29680399852E+02  0.46159510031E+02  0.21809976924E+02  0.10919128916E+03  0.91844629853E+02 0.  0.
        -24    2    1    2    0    0 -0.31925221933E+02  0.19157297282E+02 -0.56299491941E+02  0.10473947838E+03  0.80090596854E+02 0.  0.
         13    1    4    4    0    0  0.19967384962E+02 -0.15225092422E+02 -0.23437315259E+02  0.34348328169E+02  0.00000000000E+00 0. -1.
        -14    1    4    4    0    0 -0.51892606895E+02  0.34382389704E+02 -0.32862176683E+02  0.70391150214E+02  0.00000000000E+00 0.  1.
        -11    1    3    3    0    0  0.89682164916E+01  0.72593621617E+02  0.18484523522E+02  0.75444949575E+02  0.00000000000E+00 0.  1.
         11    1    3    3    0    0  0.20712183360E+02 -0.26434111586E+02  0.33254534023E+01  0.33746339583E+02  0.00000000000E+00 0. -1.
         -1    1    1    2    0  502  0.22448220814E+01 -0.65316807313E+02 -0.65302667535E+01  0.65680810954E+02  0.00000000000E+00 0.  1.
<scales pt_clust_5="13000.00000" pt_clust_6="13000.00000" pt_clust_7="13000.00000" pt_clust_8="13000.00000" pt_clust_9="13000.00000"></scales>
<clustering>
<clus scale="   80.091">  5  6 -1 -1</clus>
<clus scale="   65.355">  5  9 -1 -1</clus>
<clus scale="   91.845">  7  8 -1 -1</clus>
<clus scale="  106.991">  1  7  2 -1</clus>
<clus scale="  158.416">  2  5  1 -1</clus>
</clustering>
</event>
<event>
 9    1  0.4516508E-005  0.6536032E+03  0.7546771E-02  0.1033641E+00
         21   -1    0    0  501  502  0.00000000000E+00  0.00000000000E+00  0.47923767915E+03  0.47923767915E+03  0.00000000000E+00 0. -1.
          1   -1    0    0  502    0 -0.00000000000E+00 -0.00000000000E+00 -0.35233866341E+03  0.35233866341E+03  0.00000000000E+00 0. -1.
         23    2    1    2    0    0  0.61958368423E+02 -0.55052736727E+02 -0.78911838418E+02  0.14633528794E+03  0.91199205118E+02 0.  0.
        -24    2    1    2    0    0 -0.93452779843E+02 -0.26912319473E+03 -0.76348683706E+01  0.29582994929E+03  0.79349553755E+02 0.  0.
         11    1    4    4    0    0 -0.85166601012E+02 -0.21527192302E+03  0.24131118979E+02  0.23276095392E+03  0.00000000000E+00 0. -1.
        -12    1    4    4    0    0 -0.82861788307E+01 -0.53851271710E+02 -0.31765987349E+02  0.63068995368E+02  0.00000000000E+00 0.  1.
        -11    1    3    3    0    0  0.21189654757E+02  0.10697773117E+02  0.12298392924E+02  0.26733766792E+02  0.00000000000E+00 0.  1.
         11    1    3    3    0    0  0.40768713666E+02 -0.65750509844E+02 -0.91210231342E+02  0.11960152114E+03  0.00000000000E+00 0. -1.
          2    1    1    2  501    0  0.31494411419E+02  0.32417593146E+03  0.21344572253E+03  0.38941110533E+03  0.00000000000E+00 0. -1.
<scales pt_clust_5="13000.00000" pt_clust_6="13000.00000" pt_clust_7="13000.00000" pt_clust_8="13000.00000" pt_clust_9="13000.00000"></scales>
<clustering>
<clus scale="   79.350">  5  6 -1 -1</clus>
<clus scale="   91.199">  7  8 -1 -1</clus>
<clus scale="  123.235">  2  7  1 -1</clus>
<clus scale="  308.771">  5  9 -1 -1</clus>
<clus scale="  653.603">  1  5  2 -1</clus>
</clustering>
</event>
<event>
 9    1  0.4516508E-005  0.2889732E+03  0.7546771E-02  0.1118275E+00
         21   -1    0    0  501  502  0.00000000000E+00  0.00000000000E+00  0.58298665968E+02  0.58298665968E+02  0.00000000000E+00 0.  1.
         -2   -1    0    0    0  501 -0.00000000000E+00 -0.00000000000E+00 -0.81876938758E+03  0.81876938758E+03  0.00000000000E+00 0.  1.
         23    2    1    2    0    0 -0.11443401951E+02  0.10892901798E+03 -0.31791763574E+03  0.34852409208E+03  0.91656626820E+02 0.  0.
        -24    2    1    2    0    0 -0.45438223359E+02 -0.38474573945E+02 -0.27169151132E+02  0.10340497099E+03  0.80059354670E+02 0.  0.
         13    1    4    4    0    0  0.19637760631E+02 -0.23088815528E+02 -0.19628423849E+02  0.36111079572E+02  0.00000000000E+00 0. -1.
        -14    1    4    4    0    0 -0.65075983990E+02 -0.15385758416E+02 -0.75407272832E+01  0.67293891419E+02  0.00000000000E+00 0.  1.
        -11    1    3    3    0    0  0.27487041729E+02  0.92577538129E+02 -0.17976558599E+03  0.20406323514E+03  0.00000000000E+00 0.  1.
         11    1    3    3    0    0 -0.38930443680E+02  0.16351479852E+02 -0.13815204975E+03  0.14446085694E+03  0.00000000000E+00 0. -1.
         -1    1    1    2    0  502  0.56881625310E+02 -0.70454444036E+02 -0.41538393474E+03  0.42513899048E+03  0.00000000000E+00 0.  1.
<scales pt_clust_5="13000.00000" pt_clust_6="13000.00000" pt_clust_7="13000.00000" pt_clust_8="13000.00000" pt_clust_9="13000.00000"></scales>
<clustering>
<clus scale="   80.059">  5  6 -1 -1</clus>
<clus scale="   90.550">  5  9 -1 -1</clus>
<clus scale="   91.657">  7  8 -1 -1</clus>
<clus scale="  142.820">  2  7  1 -1</clus>
<clus scale="  288.973">  1  5  2 -1</clus>
</clustering>
</event>
<event>
 9    1  0.4516508E-005  0.5495664E+03  0.7546771E-02  0.1056528E+00
         21   -1    0    0  501  502  0.00000000000E+00  0.00000000000E+00  0.13900461722E+03  0.13900461722E+03  0.00000000000E+00 0. -1.
          1   -1    0    0  502    0 -0.00000000000E+00 -0.00000000000E+00 -0.79813178542E+03  0.79813178542E+03  0.00000000000E+00 0. -1.
         23    2    1    2    0    0 -0.55736475524E+02  0.33940385502E+02 -0.17240404165E+03  0.20302291436E+03  0.85068476579E+02 0.  0.
        -24    2    1    2    0    0  0.14504576384E+03 -0.10699912217E+03 -0.56393477336E+03  0.59527773501E+03  0.62016670708E+02 0.  0.
         11    1    4    4    0    0  0.92651047648E+02 -0.29825233129E+02 -0.28825658386E+03  0.30424598486E+03  0.00000000000E+00 0. -1.
        -12    1    4    4    0    0  0.52394716188E+02 -0.77173889044E+02 -0.27567818950E+03  0.29103175016E+03  0.00000000000E+00 0.  1.
        -13    1    3    3    0    0 -0.44706303991E+02 -0.22255624129E+02 -0.79110053515E+02  0.93554085902E+02  0.00000000000E+00 0.  1.
         13    1    3    3    0    0 -0.11030171533E+02  0.56196009631E+02 -0.93293988131E+02  0.10946882846E+03  0.00000000000E+00 0. -1.
          2    1    1    2  501    0 -0.89309288312E+02  0.73058736671E+02  0.77211646808E+02  0.13883575327E+03  0.00000000000E+00 0. -1.
<scales pt_clust_5="13000.00000" pt_clust_6="13000.00000" pt_clust_7="13000.00000" pt_clust_8="13000.00000" pt_clust_9="13000.00000"></scales>
<clustering>
<clus scale="   62.017">  5  6 -1 -1</clus>
<clus scale="   85.068">  7  8 -1 -1</clus>
<clus scale="  107.215">  2  7  1 -1</clus>
<clus scale="  118.648">  5  9 -1 -1</clus>
<clus scale="  549.566">  1  5  2 -1</clus>
</clustering>
</event>
<event>
 9    1  0.4516508E-005  0.1956534E+03  0.7546771E-02  0.1169273E+00
          1   -1    0    0  502    0 -0.00000000000E+00  0.00000000000E+00  0.91689198687E+02  0.91689198687E+02  0.00000000000E+00 0. -1.
         21   -1    0    0  501  502  0.00000000000E+00 -0.00000000000E+00 -0.38281936041E+03  0.38281936041E+03  0.00000000000E+00 0.  1.
         23    2    1    2    0    0 -0.74402876864E+02 -0.66280530480E+02 -0.23447343105E+03  0.27081706969E+03  0.91843337055E+02 0.  0.
        -24    2    1    2    0    0  0.42714224291E+02 -0.16961824485E+02  0.10325558579E+02  0.92246043400E+02  0.79312715982E+02 0.  0.
         11    1    4    4    0    0  0.55063011850E+02 -0.32100432102E+02 -0.94666560081E+01  0.64435941765E+02  0.00000000000E+00 0. -1.
        -12    1    4    4    0    0 -0.12348787559E+02  0.15138607617E+02  0.19792214587E+02  0.27810101636E+02  0.00000000000E+00 0.  1.
        -13    1    3    3    0    0 -0.44128442962E+02 -0.81113744799E+02 -0.20923010946E+03  0.22870067288E+03  0.00000000000E+00 0.  1.
         13    1    3    3    0    0 -0.30274433901E+02  0.14833214318E+02 -0.25243321592E+02  0.42116396808E+02  0.00000000000E+00 0. -1.
          2    1    1    2  501    0  0.31688652573E+02  0.83242354965E+02 -0.66982289252E+02  0.11144544601E+03  0.00000000000E+00 0. -1.
<scales pt_clust_5="13000.00000" pt_clust_6="13000.00000" pt_clust_7="13000.00000" pt_clust_8="13000.00000" pt_clust_9="13000.00000"></scales>
<clustering>
<clus scale="   79.313">  5  6 -1 -1</clus>
<clus scale="   89.070">  5  9 -1 -1</clus>
<clus scale="   91.843">  7  8 -1 -1</clus>
<clus scale="  135.514">  1  7  2 -1</clus>
<clus scale="  195.653">  2  5  1 -1</clus>
</clustering>
</event>
<event>
 9    1  0.4516508E-005  0.1616815E+03  0.7546771E-02  0.1203921E+00
         21   -1    0    0  501  502  0.00000000000E+00  0.00000000000E+00  0.37048718391E+03  0.37048718391E+03  0.00000000000E+00 0. -1.
          1   -1    0    0  502    0 -0.00000000000E+00 -0.00000000000E+00 -0.16512604374E+03  0.16512604374E+03  0.00000000000E+00 0. -1.
         23    2    1    2    0    0  0.49343588190E+02  0.25357958464E+02  0.31911529084E+03  0.33792432223E+03  0.96335159487E+02 0.  0.
        -24    2    1    2    0    0  0.42212588584E+01 -0.15557451951E+02 -0.11745281628E+03  0.14310939558E+03  0.80157854982E+02 0.  0.
         11    1    4    4    0    0  0.37052908172E+02 -0.46821778419E+01 -0.94467243343E+02  0.10158199082E+03  0.00000000000E+00 0. -1.
        -12    1    4    4    0    0 -0.32831649314E+02 -0.10875274109E+02 -0.22985572936E+02  0.41527404769E+02  0.00000000000E+00 0.  1.
        -13    1    3    3    0    0  0.58116111044E+02  0.54314211547E+02  0.25310318398E+03  0.26530875914E+03  0.00000000000E+00 0. -1.
         13    1    3    3    0    0 -0.87725228543E+01 -0.28956253083E+02  0.66012106862E+02  0.72615563085E+02  0.00000000000E+00 0.  1.
          2    1    1    2  501    0 -0.53564847048E+02 -0.98005065133E+01  0.36986656085E+01  0.54579509841E+02  0.00000000000E+00 0. -1.
<scales pt_clust_5="13000.00000" pt_clust_6="13000.00000" pt_clust_7="13000.00000" pt_clust_8="13000.00000" pt_clust_9="13000.00000"></scales>
<clustering>
<clus scale="   80.158">  5  6 -1 -1</clus>
<clus scale="   54.454">  5  9 -1 -1</clus>
<clus scale="   96.335">  7  8 -1 -1</clus>
<clus scale="  111.168">  2  7  1 -1</clus>
<clus scale="  161.681">  1  5  2 -1</clus>
</clustering>
</event>
<event>
 9    1  0.4516508E-005  0.2226699E+03  0.7546771E-02  0.1158690E+00
         21   -1    0    0  501  502  0.00000000000E+00  0.00000000000E+00  0.29690358966E+03  0.29690358966E+03  0.00000000000E+00 0. -1.
          1   -1    0    0  502    0 -0.00000000000E+00 -0.00000000000E+00 -0.99333237555E+02  0.99333237555E+02  0.00000000000E+00 0. -1.
         23    2    1    2    0    0  0.39604732091E+02 -0.62882670538E+02  0.95220127874E+02  0.15117064976E+03  0.90900646531E+02 0.  0.
        -24    2    1    2    0    0 -0.40855401526E+02 -0.28021575752E+00  0.14366388575E+03  0.16958152333E+03  0.80307774423E+02 0.  0.
         13    1    4    4    0    0 -0.15926875115E+02  0.22416078742E+02  0.13053924961E+03  0.13340405400E+03  0.00000000000E+00 0. -1.
        -14    1    4    4    0    0 -0.24928526411E+02 -0.22696294499E+02  0.13124636139E+02  0.36177469326E+02  0.00000000000E+00 0.  1.
        -13    1    3    3    0    0  0.48385201741E+02 -0.82409397353E+02  0.82627665958E+02  0.12633197418E+03  0.00000000000E+00 0. -1.
         13    1    3    3    0    0 -0.87804696503E+01  0.19526726816E+02  0.12592461916E+02  0.24838675579E+02  0.00000000000E+00 0.  1.
          2    1    1    2  501    0  0.12506694350E+01  0.63162886295E+02 -0.41313661518E+02  0.75484654117E+02  0.00000000000E+00 0. -1.
<scales pt_clust_5="13000.00000" pt_clust_6="13000.00000" pt_clust_7="13000.00000" pt_clust_8="13000.00000" pt_clust_9="13000.00000"></scales>
<clustering>
<clus scale="   80.308">  5  6 -1 -1</clus>
<clus scale="   63.175">  5  9 -1 -1</clus>
<clus scale="   90.901">  7  8 -1 -1</clus>
<clus scale="  117.413">  2  7  1 -1</clus>
<clus scale="  222.670">  1  5  2 -1</clus>
</clustering>
</event>
<event>
 9    1  0.4516508E-005  0.1922154E+03  0.7546771E-02  0.1180547E+00
         -2   -1    0    0    0  501 -0.00000000000E+00  0.00000000000E+00  0.77223297876E+02  0.77223297876E+02  0.00000000000E+00 0.  1.
         21   -1    0    0  501  502  0.00000000000E+00 -0.00000000000E+00 -0.30350458156E+03  0.30350458156E+03  0.00000000000E+00 0. -1.
         23    2    1    2    0    0  0.22389684282E+02 -0.58313517373E+02 -0.11019038830E+03  0.15617534080E+03  0.91362197485E+02 0.  0.
        -24    2    1    2    0    0 -0.64482945946E+02 -0.14695454722E+02 -0.85696267381E+02  0.13496467063E+03  0.80607725230E+02 0.  0.
         13    1    4    4    0    0 -0.57120799868E+02 -0.99851894206E+01 -0.10094106403E+02  0.58858990557E+02  0.00000000000E+00 0. -1.
        -14    1    4    4    0    0 -0.73621460776E+01 -0.47102653010E+01 -0.75602160978E+02  0.76105680068E+02  0.00000000000E+00 0.  1.
        -13    1    3    3    0    0  0.43616580309E+02 -0.94574234659E+01 -0.14980674723E+02  0.47077272135E+02  0.00000000000E+00 0.  1.
         13    1    3    3    0    0 -0.21226896027E+02 -0.48856093907E+02 -0.95209713579E+02  0.10909806867E+03  0.00000000000E+00 0. -1.
         -1    1    1    2    0  502  0.42093261663E+02  0.73008972095E+02 -0.30394628005E+02  0.89587868014E+02  0.00000000000E+00 0.  1.
<scales pt_clust_5="13000.00000" pt_clust_6="13000.00000" pt_clust_7="13000.00000" pt_clust_8="13000.00000" pt_clust_9="13000.00000"></scales>
<clustering>
<clus scale="   80.608">  5  6 -1 -1</clus>
<clus scale="   84.274">  5  9 -1 -1</clus>
<clus scale="   91.362">  7  8 -1 -1</clus>
<clus scale="  110.674">  1  7  2 -1</clus>
<clus scale="  192.215">  2  5  1 -1</clus>
</clustering>
</event>
<event>
 9    1  0.4516508E-005  0.1609800E+03  0.7546771E-02  0.1211238E+00
         21   -1    0    0  501  502  0.00000000000E+00  0.00000000000E+00  0.36334751689E+02  0.36334751689E+02  0.00000000000E+00 0. -1.
          1   -1    0    0  502    0 -0.00000000000E+00 -0.00000000000E+00 -0.10386620334E+04  0.10386620334E+04  0.00000000000E+00 0. -1.
         23    2    1    2    0    0 -0.16816814894E+02  0.25601020171E+02 -0.48725955889E+02  0.10790318162E+03  0.91272451103E+02 0.  0.
        -24    2    1    2    0    0  0.12132493727E+02  0.41526852083E+02 -0.46866777120E+03  0.47751353187E+03  0.80610275496E+02 0.  0.
         13    1    4    4    0    0  0.32708046851E+02  0.55686638860E+02 -0.28969909094E+03  0.29681034579E+03  0.00000000000E+00 0. -1.
        -14    1    4    4    0    0 -0.20575553124E+02 -0.14159786777E+02 -0.17896868025E+03  0.18070318608E+03  0.00000000000E+00 0.  1.
        -13    1    3    3    0    0  0.13847115273E+02  0.19304570691E+02 -0.67391879823E+02  0.71456801755E+02  0.00000000000E+00 0.  1.
         13    1    3    3    0    0 -0.30663930167E+02  0.62964494799E+01  0.18665923933E+02  0.36446379870E+02  0.00000000000E+00 0. -1.
          2    1    1    2  501    0  0.46843211663E+01 -0.67127872254E+02 -0.48493355467E+03  0.48958007164E+03  0.00000000000E+00 0. -1.
<scales pt_clust_5="13000.00000" pt_clust_6="13000.00000" pt_clust_7="13000.00000" pt_clust_8="13000.00000" pt_clust_9="13000.00000"></scales>
<clustering>
<clus scale="   80.610">  5  6 -1 -1</clus>
<clus scale="   67.291">  5  9 -1 -1</clus>
<clus scale="   91.272">  7  8 -1 -1</clus>
<clus scale="   96.275">  2  7  1 -1</clus>
<clus scale="  160.980">  1  5  2 -1</clus>
</clustering>
</event>
<event>
 9    1  0.4516508E-005  0.1739804E+03  0.7546771E-02  0.1185483E+00
          1   -1    0    0  502    0 -0.00000000000E+00  0.00000000000E+00  0.32599479552E+03  0.32599479552E+03  0.00000000000E+00 0. -1.
         21   -1    0    0  501  502  0.00000000000E+00 -0.00000000000E+00 -0.13454779893E+03  0.13454779893E+03  0.00000000000E+00 0. -1.
         23    2    1    2    0    0 -0.16975838426E+02 -0.90460992568E+02  0.24450745753E+03  0.27865090860E+03  0.96907490980E+02 0.  0.
        -24    2    1    2    0    0 -0.20004130213E+02  0.79722844505E+01 -0.23231491183E+02  0.86698868446E+02  0.80704826759E+02 0.  0.
         13    1    4    4    0    0 -0.18637157558E+02 -0.15516038566E+02 -0.47229267219E+02  0.53091381378E+02  0.00000000000E+00 0. -1.
        -14    1    4    4    0    0 -0.13669726547E+01  0.23488323017E+02  0.23997776035E+02  0.33607487068E+02  0.00000000000E+00 0.  1.
        -13    1    3    3    0    0 -0.25587671093E+01 -0.50016189545E+02  0.26901895018E+02  0.56849612675E+02  0.00000000000E+00 0.  1.
         13    1    3    3    0    0 -0.14417071316E+02 -0.40444803022E+02  0.21760556251E+03  0.22180129592E+03  0.00000000000E+00 0. -1.
          2    1    1    2  501    0  0.36979968638E+02  0.82488708117E+02 -0.29828969757E+02  0.95192817397E+02  0.00000000000E+00 0. -1.
<scales pt_clust_5="13000.00000" pt_clust_6="13000.00000" pt_clust_7="13000.00000" pt_clust_8="13000.00000" pt_clust_9="13000.00000"></scales>
<clustering>
<clus scale="   80.705">  5  6 -1 -1</clus>
<clus scale="   90.399">  5  9 -1 -1</clus>
<clus scale="   96.907">  7  8 -1 -1</clus>
<clus scale="  133.650">  1  7  2 -1</clus>
<clus scale="  173.980">  2  5  1 -1</clus>
</clustering>
</event>
<event>
 9    1  0.4516508E-005  0.9896693E+03  0.7546771E-02  0.9685859E-01
          1   -1    0    0  502    0 -0.00000000000E+00  0.00000000000E+00  0.78056720875E+03  0.78056720875E+03  0.00000000000E+00 0. -1.
         21   -1    0    0  501  502  0.00000000000E+00 -0.00000000000E+00 -0.53930400151E+03  0.53930400151E+03  0.00000000000E+00 0. -1.
         23    2    1    2    0    0  0.21021838356E+03 -0.15178589559E+03  0.17895595509E+03  0.32824253660E+03  0.92126011974E+02 0.  0.
        -24    2    1    2    0    0 -0.12809505506E+03  0.53714053241E+03 -0.96605725788E+02  0.56678073409E+03  0.83543040296E+02 0.  0.
         13    1    4    4    0    0 -0.11230532818E+03  0.48751755296E+03 -0.11161693643E+03  0.51258578958E+03  0.00000000000E+00 0. -1.
        -14    1    4    4    0    0 -0.15789726881E+02  0.49622979454E+02  0.15011210643E+02  0.54194944504E+02  0.00000000000E+00 0.  1.
        -11    1    3    3    0    0  0.58294092974E+02 -0.79525044383E+02  0.28742887445E+02  0.10270631694E+03  0.00000000000E+00 0.  1.
         11    1    3    3    0    0  0.15192429059E+03 -0.72260851205E+02  0.15021306765E+03  0.22553621966E+03  0.00000000000E+00 0. -1.
          2    1    1    2  501    0 -0.82123328502E+02 -0.38535463683E+03  0.15891297793E+03  0.42484793958E+03  0.00000000000E+00 0. -1.
<scales pt_clust_5="13000.00000" pt_clust_6="13000.00000" pt_clust_7="13000.00000" pt_clust_8="13000.00000" pt_clust_9="13000.00000"></scales>
<clustering>
<clus scale="   83.543">  5  6 -1 -1</clus>
<clus scale="   92.126">  7  8 -1 -1</clus>
<clus scale="  275.169">  1  7  2 -1</clus>
<clus scale="  470.679">  5  9 -1 -1</clus>
<clus scale="  989.669">  2  5  1 -1</clus>
</clustering>
</event>
<event>
 9    1  0.4516508E-005  0.2142057E+03  0.7546771E-02  0.1158341E+00
          3   -1    0    0  502    0 -0.00000000000E+00  0.00000000000E+00  0.15056406094E+03  0.15056406094E+03  0.00000000000E+00 0. -1.
         21   -1    0    0  501  502  0.00000000000E+00 -0.00000000000E+00 -0.24137664765E+03  0.24137664765E+03  0.00000000000E+00 0. -1.
         23    2    1    2    0    0 -0.94884604434E+02 -0.73946687747E+01  0.42553306060E+02  0.13961048199E+03  0.92857598182E+02 0.  0.
        -24    2    1    2    0    0  0.57004809901E+01 -0.51899306970E+02 -0.20823223203E+02  0.96974390180E+02  0.79021466569E+02 0.  0.
         13    1    4    4    0    0 -0.24520028838E+02  0.50792394600E+01 -0.20682238761E+02  0.32477461229E+02  0.00000000000E+00 0. -1.
        -14    1    4    4    0    0  0.30220509828E+02 -0.56978546430E+02 -0.14098444215E+00  0.64496928951E+02  0.00000000000E+00 0.  1.
        -13    1    3    3    0    0  0.77447407181E+01  0.19180079087E+02 -0.79773278251E+01  0.22169668509E+02  0.00000000000E+00 0.  1.
         13    1    3    3    0    0 -0.10262934515E+03 -0.26574747862E+02  0.50530633886E+02  0.11744081348E+03  0.00000000000E+00 0. -1.
          4    1    1    2  501    0  0.89184123444E+02  0.59293975745E+02 -0.11254266958E+03  0.15535583642E+03  0.00000000000E+00 0. -1.
<scales pt_clust_5="13000.00000" pt_clust_6="13000.00000" pt_clust_7="13000.00000" pt_clust_8="13000.00000" pt_clust_9="13000.00000"></scales>
<clustering>
<clus scale="   79.021">  5  6 -1 -1</clus>
<clus scale="   92.858">  7  8 -1 -1</clus>
<clus scale="  107.096">  5  9 -1 -1</clus>
<clus scale="  132.967">  1  7  2 -1</clus>
<clus scale="  214.206">  2  5  1 -1</clus>
</clustering>
</event>
<event>
 9    1  0.4516508E-005  0.2073834E+03  0.7546771E-02  0.1173291E+00
          1   -1    0    0  502    0 -0.00000000000E+00  0.00000000000E+00  0.72470963666E+02  0.72470963666E+02  0.00000000000E+00 0. -1.
         21   -1    0    0  501  502  0.00000000000E+00 -0.00000000000E+00 -0.34451495711E+03  0.34451495711E+03  0.00000000000E+00 0. -1.
         23    2    1    2    0    0 -0.21131656259E+02 -0.44559974304E+02 -0.12637380812E+03  0.16355410930E+03  0.91364484802E+02 0.  0.
        -24    2    1    2    0    0 -0.49910983644E+01  0.32751755375E+02 -0.18431237430E+03  0.20531683342E+03  0.84180533496E+02 0.  0.
         13    1    4    4    0    0  0.11958851101E+01 -0.28602742484E+02 -0.64451628746E+02  0.70523467490E+02  0.00000000000E+00 0. -1.
        -14    1    4    4    0    0 -0.61869834745E+01  0.61354497859E+02 -0.11986074556E+03  0.13479336593E+03  0.00000000000E+00 0.  1.
        -13    1    3    3    0    0  0.26867146780E+02 -0.37479829456E+02 -0.95485482965E+02  0.10603800568E+03  0.00000000000E+00 0.  1.
         13    1    3    3    0    0 -0.47998803039E+02 -0.70801448483E+01 -0.30888325158E+02  0.57516103617E+02  0.00000000000E+00 0. -1.
          2    1    1    2  501    0  0.26122754623E+02  0.11808218929E+02  0.38642188988E+02  0.48114978054E+02  0.00000000000E+00 0. -1.
<scales pt_clust_5="13000.00000" pt_clust_6="13000.00000" pt_clust_7="13000.00000" pt_clust_8="13000.00000" pt_clust_9="13000.00000"></scales>
<clustering>
<clus scale="   84.181">  5  6 -1 -1</clus>
<clus scale="   28.668">  5  9 -1 -1</clus>
<clus scale="   91.364">  7  8 -1 -1</clus>
<clus scale="  103.825">  1  7  2 -1</clus>
<clus scale="  207.383">  2  5  1 -1</clus>
</clustering>
</event>
<event>
 9    1  0.4516508E-005  0.1193521E+03  0.7546771E-02  0.1250623E+00
         21   -1    0    0  501  502  0.00000000000E+00  0.00000000000E+00  0.13877669989E+02  0.13877669989E+02  0.00000000000E+00 0. -1.
          1   -1    0    0  502    0 -0.00000000000E+00 -0.00000000000E+00 -0.95348479970E+03  0.95348479970E+03  0.00000000000E+00 0. -1.
         23    2    1    2    0    0  0.33922773908E+02  0.33735040760E+02 -0.33277657022E+03  0.34890613163E+03  0.93308281725E+02 0.  0.
        -24    2    1    2    0    0 -0.15904110787E+02 -0.48020837430E+01 -0.35727121347E+03  0.36658006802E+03  0.80387968912E+02 0.  0.
         13    1    4    4    0    0 -0.46502767636E+02  0.65928208770E+01 -0.16493607227E+03  0.17149309205E+03  0.00000000000E+00 0. -1.
        -14    1    4    4    0    0  0.30598656848E+02 -0.11394904620E+02 -0.19233514120E+03  0.19508697597E+03  0.00000000000E+00 0.  1.
        -13    1    3    3    0    0  0.15259189994E+02 -0.29315579311E+02 -0.61982238700E+02  0.70242750401E+02  0.00000000000E+00 0.  1.
         13    1    3    3    0    0  0.18663583914E+02  0.63050620071E+02 -0.27079433152E+03  0.27866338123E+03  0.00000000000E+00 0. -1.
          2    1    1    2  501    0 -0.18018663121E+02 -0.28932957017E+02 -0.24955934602E+03  0.25187627004E+03  0.00000000000E+00 0. -1.
<scales pt_clust_5="13000.00000" pt_clust_6="13000.00000" pt_clust_7="13000.00000" pt_clust_8="13000.00000" pt_clust_9="13000.00000"></scales>
<clustering>
<clus scale="   80.388">  5  6 -1 -1</clus>
<clus scale="   34.085">  5  9 -1 -1</clus>
<clus scale="   93.308">  7  8 -1 -1</clus>
<clus scale="  104.858">  2  7  1 -1</clus>
<clus scale="  119.352">  1  5  2 -1</clus>
</clustering>
</event>
<event>
 9    1  0.4516508E-005  0.1564129E+03  0.7546771E-02  0.1204987E+00
         21   -1    0    0  501  502  0.00000000000E+00  0.00000000000E+00  0.19994241950E+03  0.19994241950E+03  0.00000000000E+00 0. -1.
          1   -1    0    0  502    0 -0.00000000000E+00 -0.00000000000E+00 -0.98332594982E+02  0.98332594982E+02  0.00000000000E+00 0. -1.
         23    2    1    2    0    0  0.72006222365E+02 -0.25713214409E+02  0.19335969185E+02  0.12154364040E+03  0.92481951553E+02 0.  0.
        -24    2    1    2    0    0 -0.54685506468E+02 -0.79352211810E+01  0.94851888078E+02  0.13685116189E+03  0.81718342408E+02 0.  0.
         11    1    4    4    0    0 -0.75432385804E+02 -0.13649169200E+02  0.79345419412E+02  0.11032696964E+03  0.00000000000E+00 0. -1.
        -12    1    4    4    0    0  0.20746879336E+02  0.57139480192E+01  0.15506468666E+02  0.26524192252E+02  0.00000000000E+00 0.  1.
        -11    1    3    3    0    0 -0.20714673859E+02 -0.16869873098E+02  0.18861135423E+01  0.26781481582E+02  0.00000000000E+00 0.  1.
         11    1    3    3    0    0  0.92720896223E+02 -0.88433413105E+01  0.17449855643E+02  0.94762158819E+02  0.00000000000E+00 0. -1.
          2    1    1    2  501    0 -0.17320715896E+02  0.33648435590E+02 -0.12578032744E+02  0.39880212192E+02  0.00000000000E+00 0. -1.
<scales pt_clust_5="13000.00000" pt_clust_6="13000.00000" pt_clust_7="13000.00000" pt_clust_8="13000.00000" pt_clust_9="13000.00000"></scales>
<clustering>
<clus scale="   81.718">  5  6 -1 -1</clus>
<clus scale="   37.845">  5  9 -1 -1</clus>
<clus scale="   92.482">  7  8 -1 -1</clus>
<clus scale="  119.996">  2  7  1 -1</clus>
<clus scale="  156.413">  1  5  2 -1</clus>
</clustering>
</event>
<event>
 9    1  0.4516508E-005  0.1769100E+03  0.7546771E-02  0.1194986E+00
          3   -1    0    0  502    0 -0.00000000000E+00  0.00000000000E+00  0.29739393204E+03  0.29739393204E+03  0.00000000000E+00 0. -1.
         21   -1    0    0  501  502  0.00000000000E+00 -0.00000000000E+00 -0.14329422948E+03  0.14329422948E+03  0.00000000000E+00 0. -1.
         23    2    1    2    0    0  0.51798813420E+02  0.14004064867E+02  0.22703823715E+03  0.24933205145E+03  0.87982270064E+02 0.  0.
        -24    2    1    2    0    0  0.34884744576E+02 -0.82736653087E+01 -0.30577961651E+02  0.94705735810E+02  0.82150871662E+02 0.  0.
         13    1    4    4    0    0  0.36245089727E+02 -0.27491219188E+02 -0.49828191794E+02  0.67470900092E+02  0.00000000000E+00 0. -1.
        -14    1    4    4    0    0 -0.13603451507E+01  0.19217553879E+02  0.19250230143E+02  0.27234835718E+02  0.00000000000E+00 0.  1.
        -13    1    3    3    0    0  0.65125805022E+02 -0.98586479976E+01  0.20124866247E+03  0.21175360107E+03  0.00000000000E+00 0.  1.
         13    1    3    3    0    0 -0.13326991602E+02  0.23862712865E+02  0.25789574676E+02  0.37578450373E+02  0.00000000000E+00 0. -1.
          4    1    1    2  501    0 -0.86683557996E+02 -0.57303995583E+01 -0.42360572943E+02  0.96650374267E+02  0.00000000000E+00 0. -1.
<scales pt_clust_5="13000.00000" pt_clust_6="13000.00000" pt_clust_7="13000.00000" pt_clust_8="13000.00000" pt_clust_9="13000.00000"></scales>
<clustering>
<clus scale="   82.151">  5  6 -1 -1</clus>
<clus scale="   86.873">  5  9 -1 -1</clus>
<clus scale="   87.982">  7  8 -1 -1</clus>
<clus scale="  103.054">  1  7  2 -1</clus>
<clus scale="  176.910">  2  5  1 -1</clus>
</clustering>
</event>
<event>
 9    1  0.4516508E-005  0.1822972E+03  0.7546771E-02  0.1185928E+00
          1   -1    0    0  502    0 -0.00000000000E+00  0.00000000000E+00  0.16973675460E+03  0.16973675460E+03  0.00000000000E+00 0. -1.
         21   -1    0    0  501  502  0.00000000000E+00 -0.00000000000E+00 -0.16972032945E+03  0.16972032945E+03  0.00000000000E+00 0. -1.
         23    2    1    2    0    0 -0.68054192744E+02 -0.63843233551E+01  0.80274387756E+02  0.14027470353E+03  0.92525036541E+02 0.  0.
        -24    2    1    2    0    0 -0.11912548469E+02 -0.16036982648E+01 -0.85607152800E+02  0.11863983260E+03  0.81254812835E+02 0.  0.
         13    1    4    4    0    0  0.12285094764E+02  0.33800718868E+02 -0.55907348040E+02  0.66475888216E+02  0.00000000000E+00 0. -1.
        -14    1    4    4    0    0 -0.24197643232E+02 -0.35404417132E+02 -0.29699804761E+02  0.52163944380E+02  0.00000000000E+00 0.  1.
        -13    1    3    3    0    0 -0.41721490845E+02  0.39849097550E+02  0.60266094653E+02  0.83430423340E+02  0.00000000000E+00 0. -1.
         13    1    3    3    0    0 -0.26332701898E+02 -0.46233420905E+02  0.20008293103E+02  0.56844280193E+02  0.00000000000E+00 0.  1.
          2    1    1    2  501    0  0.79966741212E+02  0.79880216199E+01  0.53491902021E+01  0.80542547919E+02  0.00000000000E+00 0. -1.
<scales pt_clust_5="13000.00000" pt_clust_6="13000.00000" pt_clust_7="13000.00000" pt_clust_8="13000.00000" pt_clust_9="13000.00000"></scales>
<clustering>
<clus scale="   81.255">  5  6 -1 -1</clus>
<clus scale="   80.365">  5  9 -1 -1</clus>
<clus scale="   92.525">  7  8 -1 -1</clus>
<clus scale="  115.035">  1  7  2 -1</clus>
<clus scale="  182.297">  2  5  1 -1</clus>
</clustering>
</event>
<event>
 9    1  0.4516508E-005  0.1308999E+03  0.7546771E-02  0.1238423E+00
         21   -1    0    0  501  502  0.00000000000E+00  0.00000000000E+00  0.17286098780E+03  0.17286098780E+03  0.00000000000E+00 0.  1.
          1   -1    0    0  502    0 -0.00000000000E+00 -0.00000000000E+00 -0.15750544363E+03  0.15750544363E+03  0.00000000000E+00 0. -1.
         23    2    1    2    0    0  0.42413089030E+02  0.16545109938E+02 -0.10954606422E+03  0.14943769772E+03  0.90877249781E+02 0.  0.
        -24    2    1    2    0    0 -0.25988351780E+02 -0.42744950971E+02  0.10616275856E+03  0.14477146394E+03  0.84768627483E+02 0.  0.
         11    1    4    4    0    0 -0.22591674126E+02  0.21538792599E+02  0.51973390638E+02  0.60626204407E+02  0.00000000000E+00 0. -1.
        -12    1    4    4    0    0 -0.33966776537E+01 -0.64283743570E+02  0.54189367919E+02  0.84145259533E+02  0.00000000000E+00 0.  1.
        -13    1    3    3    0    0  0.24906246759E+01 -0.32398500282E+02 -0.15131241376E+02  0.35844392830E+02  0.00000000000E+00 0.  1.
         13    1    3    3    0    0  0.39922464354E+02  0.48943610220E+02 -0.94414822848E+02  0.11359330489E+03  0.00000000000E+00 0. -1.
          2    1    1    2  501    0 -0.16424737250E+02  0.26199841033E+02  0.18738849835E+02  0.36157269768E+02  0.00000000000E+00 0. -1.
<scales pt_clust_5="13000.00000" pt_clust_6="13000.00000" pt_clust_7="13000.00000" pt_clust_8="13000.00000" pt_clust_9="13000.00000"></scales>
<clustering>
<clus scale="   84.769">  5  6 -1 -1</clus>
<clus scale="   30.923">  5  9 -1 -1</clus>
<clus scale="   90.877">  7  8 -1 -1</clus>
<clus scale="  101.643">  2  7  1 -1</clus>
<clus scale="  130.900">  1  5  2 -1</clus>
</clustering>
</event>
<event>
 9    1  0.4516508E-005  0.4881040E+03  0.7546771E-02  0.1068434E+00
         -2   -1    0    0    0  501 -0.00000000000E+00  0.00000000000E+00  0.12422457218E+03  0.12422457218E+03  0.00000000000E+00 0.  1.
         21   -1    0    0  501  502  0.00000000000E+00 -0.00000000000E+00 -0.76603148219E+03  0.76603148219E+03  0.00000000000E+00 0.  1.
         23    2    1    2    0    0  0.60114892645E+02  0.14946791806E+02 -0.43587392937E+02  0.11817309754E+03  0.90707294396E+02 0.  0.
        -24    2    1    2    0    0 -0.18791188037E+03 -0.17048650640E+03 -0.44738158028E+03  0.52053424173E+03  0.80181636271E+02 0.  0.
         11    1    4    4    0    0 -0.85290408353E+02 -0.12059803785E+03 -0.20537891482E+03  0.25297991846E+03  0.00000000000E+00 0. -1.
        -12    1    4    4    0    0 -0.10262147202E+03 -0.49888468546E+02 -0.24200266546E+03  0.26755432327E+03  0.00000000000E+00 0.  1.
        -11    1    3    3    0    0  0.70759062456E+02 -0.19818824904E+02 -0.29075778081E+02  0.79025512407E+02  0.00000000000E+00 0.  1.
         11    1    3    3    0    0 -0.10644169811E+02  0.34765616710E+02 -0.14511614856E+02  0.39147585135E+02  0.00000000000E+00 0. -1.
         -1    1    1    2    0  502  0.12779698773E+03  0.15553971459E+03 -0.15083793679E+03  0.25154871509E+03  0.00000000000E+00 0.  1.
<scales pt_clust_5="13000.00000" pt_clust_6="13000.00000" pt_clust_7="13000.00000" pt_clust_8="13000.00000" pt_clust_9="13000.00000"></scales>
<clustering>
<clus scale="   80.182">  5  6 -1 -1</clus>
<clus scale="   90.707">  7  8 -1 -1</clus>
<clus scale="  109.841">  1  7  2 -1</clus>
<clus scale="  231.097">  5  9 -1 -1</clus>
<clus scale="  488.104">  2  5  1 -1</clus>
</clustering>
</event>
<event>
 9    1  0.4516508E-005  0.6423836E+03  0.7546771E-02  0.9908087E-01
          1   -1    0    0  502    0 -0.00000000000E+00  0.00000000000E+00  0.51643180994E+03  0.51643180994E+03  0.00000000000E+00 0. -1.
         21   -1    0    0  501  502  0.00000000000E+00 -0.00000000000E+00 -0.80307554394E+03  0.80307554394E+03  0.00000000000E+00 0. -1.
         23    2    1    2    0    0  0.47574166526E+02 -0.47365548742E+03  0.18894306115E+03  0.52023297799E+03  0.91269101854E+02 0.  0.
        -24    2    1    2    0    0  0.14138017983E+03  0.11729769608E+03 -0.29762672314E+03  0.35840658656E+03  0.78272026949E+02 0.  0.
         11    1    4    4    0    0  0.14969081099E+03  0.10584460402E+03 -0.28760155225E+03  0.34106461551E+03  0.00000000000E+00 0. -1.
        -12    1    4    4    0    0 -0.83106311684E+01  0.11453092065E+02 -0.10025170890E+02  0.17341971043E+02  0.00000000000E+00 0.  1.
        -11    1    3    3    0    0  0.21153000185E+02 -0.16114933540E+03  0.19309217727E+02  0.16367468835E+03  0.00000000000E+00 0.  1.
         11    1    3    3    0    0  0.26421166341E+02 -0.31250615201E+03  0.16963384342E+03  0.35655828964E+03  0.00000000000E+00 0. -1.
          2    1    1    2  501    0 -0.18895434635E+03  0.35635779133E+03 -0.17796007200E+03  0.44086778934E+03  0.00000000000E+00 0. -1.
<scales pt_clust_5="13000.00000" pt_clust_6="13000.00000" pt_clust_7="13000.00000" pt_clust_8="13000.00000" pt_clust_9="13000.00000"></scales>
<clustering>
<clus scale="   78.272">  5  6 -1 -1</clus>
<clus scale="   91.269">  7  8 -1 -1</clus>
<clus scale="  403.354">  5  9 -1 -1</clus>
<clus scale="  484.709">  1  7  2 -1</clus>
<clus scale="  642.384">  2  5  1 -1</clus>
</clustering>
</event>
<event>
 9    1  0.4516508E-005  0.1465232E+03  0.7546771E-02  0.1223143E+00
          3   -1    0    0  502    0 -0.00000000000E+00  0.00000000000E+00  0.52219955595E+02  0.52219955595E+02  0.00000000000E+00 0. -1.
         21   -1    0    0  501  502  0.00000000000E+00 -0.00000000000E+00 -0.34995044570E+03  0.34995044570E+03  0.00000000000E+00 0. -1.
         23    2    1    2    0    0 -0.29612042861E+02 -0.23902656193E+02 -0.42837269095E+02  0.10816426469E+03  0.91740211885E+02 0.  0.
        -24    2    1    2    0    0  0.11996045344E+02 -0.24535998646E+02 -0.10441641309E+03  0.13494672515E+03  0.81005623091E+02 0.  0.
         13    1    4    4    0    0  0.36512998933E+02 -0.40060437171E+02 -0.81921116252E+02  0.98229868194E+02  0.00000000000E+00 0. -1.
        -14    1    4    4    0    0 -0.24516953589E+02  0.15524438525E+02 -0.22495296834E+02  0.36716856952E+02  0.00000000000E+00 0.  1.
        -13    1    3    3    0    0 -0.54528464593E+02 -0.20623186338E+02  0.23249367940E+00  0.58298570471E+02  0.00000000000E+00 0. -1.
         13    1    3    3    0    0  0.24916421732E+02 -0.32794698548E+01 -0.43069762775E+02  0.49865694218E+02  0.00000000000E+00 0.  1.
          4    1    1    2  501    0  0.17615997517E+02  0.48438654839E+02 -0.15047680792E+03  0.15905941146E+03  0.00000000000E+00 0. -1.
<scales pt_clust_5="13000.00000" pt_clust_6="13000.00000" pt_clust_7="13000.00000" pt_clust_8="13000.00000" pt_clust_9="13000.00000"></scales>
<clustering>
<clus scale="   81.006">  5  6 -1 -1</clus>
<clus scale="   51.543">  5  9 -1 -1</clus>
<clus scale="   91.740">  7  8 -1 -1</clus>
<clus scale="   99.320">  1  7  2 -1</clus>
<clus scale="  146.523">  2  5  1 -1</clus>
</clustering>
</event>
<event>
 9    1  0.4516508E-005  0.2618198E+03  0.7546771E-02  0.1132006E+00
          1   -1    0    0  502    0 -0.00000000000E+00  0.00000000000E+00  0.88249467477E+03  0.88249467477E+03  0.00000000000E+00 0. -1.
         21   -1    0    0  501  502  0.00000000000E+00 -0.00000000000E+00 -0.49489292095E+02  0.49489292095E+02  0.00000000000E+00 0.  1.
         23    2    1    2    0    0  0.57955651323E+02 -0.83104936716E+02  0.43180688099E+03  0.45291212841E+03  0.91689288189E+02 0.  0.
        -24    2    1    2    0    0 -0.90551090494E+02  0.46672894052E+02  0.76938029458E+02  0.15114713637E+03  0.80920562442E+02 0.  0.
         13    1    4    4    0    0 -0.64466582986E+02 -0.62856590396E-01  0.96756626543E+01  0.65188670186E+02  0.00000000000E+00 0. -1.
        -14    1    4    4    0    0 -0.26084507508E+02  0.46735750642E+02  0.67262366804E+02  0.85958466180E+02  0.00000000000E+00 0.  1.
        -13    1    3    3    0    0  0.72464366714E+01 -0.56204322800E+02  0.90261787778E+02  0.10657685996E+03  0.00000000000E+00 0.  1.
         13    1    3    3    0    0  0.50709214651E+02 -0.26900613916E+02  0.34154509321E+03  0.34633526845E+03  0.00000000000E+00 0. -1.
          2    1    1    2  501    0  0.32595439172E+02  0.36432042664E+02  0.32426047223E+03  0.32792470208E+03  0.00000000000E+00 0. -1.
<scales pt_clust_5="13000.00000" pt_clust_6="13000.00000" pt_clust_7="13000.00000" pt_clust_8="13000.00000" pt_clust_9="13000.00000"></scales>
<clustering>
<clus scale="   80.921">  5  6 -1 -1</clus>
<clus scale="   48.885">  5  9 -1 -1</clus>
<clus scale="   91.689">  7  8 -1 -1</clus>
<clus scale="  136.646">  1  7  2 -1</clus>
<clus scale="  261.820">  2  5  1 -1</clus>
</clustering>
</event>
<event>
 9    1  0.4516508E-005  0.3237016E+03  0.7546771E-02  0.1115171E+00
          1   -1    0    0  502    0 -0.00000000000E+00  0.00000000000E+00  0.21787958981E+03  0.21787958981E+03  0.00000000000E+00 0. -1.
         21   -1    0    0  501  502  0.00000000000E+00 -0.00000000000E+00 -0.28096572369E+03  0.28096572369E+03  0.00000000000E+00 0. -1.
         23    2    1    2    0    0  0.44993944364E+02  0.32160496482E+02 -0.12801841907E+03  0.16869547179E+03  0.94924675499E+02 0.  0.
        -24    2    1    2    0    0  0.91363453631E+01  0.12028666852E+03 -0.22143644967E+02  0.14643145940E+03  0.79996724054E+02 0.  0.
         11    1    4    4    0    0 -0.18798578057E+02  0.57095731382E+02 -0.43405046995E+02  0.74143827684E+02  0.00000000000E+00 0. -1.
        -12    1    4    4    0    0  0.27934923420E+02  0.63190937137E+02  0.21261402029E+02  0.72287631715E+02  0.00000000000E+00 0.  1.
        -11    1    3    3    0    0 -0.15678303763E+02  0.39650603668E+02 -0.81129453985E+02  0.91651338692E+02  0.00000000000E+00 0.  1.
         11    1    3    3    0    0  0.60672248127E+02 -0.74901071857E+01 -0.46888965085E+02  0.77044133100E+02  0.00000000000E+00 0. -1.
          2    1    1    2  501    0 -0.54130289727E+02 -0.15244716500E+03  0.87075930165E+02  0.18371838231E+03  0.00000000000E+00 0. -1.
<scales pt_clust_5="13000.00000" pt_clust_6="13000.00000" pt_clust_7="13000.00000" pt_clust_8="13000.00000" pt_clust_9="13000.00000"></scales>
<clustering>
<clus scale="   79.997">  5  6 -1 -1</clus>
<clus scale="   94.925">  7  8 -1 -1</clus>
<clus scale="  109.861">  1  7  2 -1</clus>
<clus scale="  132.468">  5  9 -1 -1</clus>
<clus scale="  323.702">  2  5  1 -1</clus>
</clustering>
</event>
<event>
 9    1  0.4516508E-005  0.7466389E+03  0.7546771E-02  0.9837252E-01
         21   -1    0    0  501  502  0.00000000000E+00  0.00000000000E+00  0.39049153763E+03  0.39049153763E+03  0.00000000000E+00 0. -1.
          1   -1    0    0  502    0 -0.00000000000E+00 -0.00000000000E+00 -0.89618668504E+03  0.89618668504E+03  0.00000000000E+00 0. -1.
         23    2    1    2    0    0 -0.37655816711E+03  0.29540949710E+02 -0.35276036958E+03  0.52453732850E+03  0.89614785154E+02 0.  0.
        -24    2    1    2    0    0 -0.65037962954E+02  0.21271652939E+02  0.17760159428E+03  0.20820646127E+03  0.84410807248E+02 0.  0.
         11    1    4    4    0    0 -0.68849276400E+02  0.12554052324E+02  0.18392004509E+03  0.19678518764E+03  0.00000000000E+00 0. -1.
        -12    1    4    4    0    0  0.38113134460E+01  0.87176006144E+01 -0.63184508087E+01  0.11421273628E+02  0.00000000000E+00 0.  1.
        -13    1    3    3    0    0 -0.18777642464E+02  0.10370193028E+02  0.39385081024E+00  0.21454507182E+02  0.00000000000E+00 0.  1.
         13    1    3    3    0    0 -0.35778052464E+03  0.19170756682E+02 -0.35315422039E+03  0.50308282132E+03  0.00000000000E+00 0. -1.
          2    1    1    2  501    0  0.44159613006E+03 -0.50812602648E+02 -0.33053637210E+03  0.55393443291E+03  0.00000000000E+00 0. -1.
<scales pt_clust_5="13000.00000" pt_clust_6="13000.00000" pt_clust_7="13000.00000" pt_clust_8="13000.00000" pt_clust_9="13000.00000"></scales>
<clustering>
<clus scale="   84.411">  5  6 -1 -1</clus>
<clus scale="   89.615">  7  8 -1 -1</clus>
<clus scale="  388.200">  2  7  1 -1</clus>
<clus scale="   80.760">  5  9 -1 -1</clus>
<clus scale="  746.639">  1  5  2 -1</clus>
</clustering>
</event>
<event>
 9    1  0.4516508E-005  0.1890603E+03  0.7546771E-02  0.1188647E+00
          1   -1    0    0  502    0 -0.00000000000E+00  0.00000000000E+00  0.35417543202E+03  0.35417543202E+03  0.00000000000E+00 0. -1.
         21   -1    0    0  501  502  0.00000000000E+00 -0.00000000000E+00 -0.74348224928E+02  0.74348224928E+02  0.00000000000E+00 0. -1.
         23    2    1    2    0    0 -0.20848012680E+02 -0.23744234423E+02  0.80010877016E+01  0.97414541777E+02  0.91799494793E+02 0.  0.
        -24    2    1    2    0    0 -0.45144909178E+02  0.32456290109E+02  0.77432568585E+02  0.12563449814E+03  0.81833677986E+02 0.  0.
         13    1    4    4    0    0 -0.60194864800E+02  0.35529031383E+02  0.83697230830E+02  0.10904567973E+03  0.00000000000E+00 0. -1.
        -14    1    4    4    0    0  0.15049955622E+02 -0.30727412744E+01 -0.62646622443E+01  0.16588818409E+02  0.00000000000E+00 0.  1.
        -11    1    3    3    0    0 -0.66184679543E+01 -0.55528051666E+02 -0.12086756712E+02  0.57212396626E+02  0.00000000000E+00 0. -1.
         11    1    3    3    0    0 -0.14229544725E+02  0.31783817242E+02  0.20087844414E+02  0.40202145151E+02  0.00000000000E+00 0.  1.
          2    1    1    2  501    0  0.65992921857E+02 -0.87120556857E+01  0.19439355080E+03  0.20547461703E+03  0.00000000000E+00 0. -1.
<scales pt_clust_5="13000.00000" pt_clust_6="13000.00000" pt_clust_7="13000.00000" pt_clust_8="13000.00000" pt_clust_9="13000.00000"></scales>
<clustering>
<clus scale="   81.834">  5  6 -1 -1</clus>
<clus scale="   66.566">  5  9 -1 -1</clus>
<clus scale="   91.799">  7  8 -1 -1</clus>
<clus scale="   97.085">  1  7  2 -1</clus>
<clus scale="  189.060">  2  5  1 -1</clus>
</clustering>
</event>
<event>
 9    1  0.4516508E-005  0.1989952E+03  0.7546771E-02  0.1169749E+00
         21   -1    0    0  501  502  0.00000000000E+00  0.00000000000E+00  0.86862353268E+03  0.86862353268E+03  0.00000000000E+00 0. -1.
          3   -1    0    0  502    0 -0.00000000000E+00 -0.00000000000E+00 -0.42027149238E+02  0.42027149238E+02  0.00000000000E+00 0. -1.
         23    2    1    2    0    0 -0.70760153087E+02 -0.62164264049E+02  0.57974130291E+03  0.59357571086E+03  0.85794820512E+02 0.  0.
        -24    2    1    2    0    0  0.45121145397E+02  0.10845688845E+03  0.15421857708E+03  0.21038904152E+03  0.81739616237E+02 0.  0.
         11    1    4    4    0    0  0.56721740011E+02  0.11609775987E+03  0.13976064461E+03  0.19033939009E+03  0.00000000000E+00 0. -1.
        -12    1    4    4    0    0 -0.11600594613E+02 -0.76408714201E+01  0.14457932468E+02  0.20049651436E+02  0.00000000000E+00 0.  1.
        -11    1    3    3    0    0 -0.12903197275E+02 -0.66985085388E+02  0.27343895905E+03  0.28181972693E+03  0.00000000000E+00 0.  1.
         11    1    3    3    0    0 -0.57856955813E+02  0.48208213385E+01  0.30630234387E+03  0.31175598393E+03  0.00000000000E+00 0. -1.
          4    1    1    2  501    0  0.25639007690E+02 -0.46292624403E+02  0.92636503446E+02  0.10668592953E+03  0.00000000000E+00 0. -1.
<scales pt_clust_5="13000.00000" pt_clust_6="13000.00000" pt_clust_7="13000.00000" pt_clust_8="13000.00000" pt_clust_9="13000.00000"></scales>
<clustering>
<clus scale="   81.740">  5  6 -1 -1</clus>
<clus scale="   52.919">  5  9 -1 -1</clus>
<clus scale="   85.795">  7  8 -1 -1</clus>
<clus scale="  127.406">  2  7  1 -1</clus>
<clus scale="  198.995">  1  5  2 -1</clus>
</clustering>
</event>
<event>
 9    1  0.4516508E-005  0.2575514E+03  0.7546771E-02  0.1129489E+00
          1   -1    0    0  502    0 -0.00000000000E+00  0.00000000000E+00  0.29524388127E+03  0.29524388127E+03  0.00000000000E+00 0. -1.
         21   -1    0    0  501  502  0.00000000000E+00 -0.00000000000E+00 -0.20144162461E+03  0.20144162461E+03  0.00000000000E+00 0. -1.
         23    2    1    2    0    0 -0.10143134573E+02  0.12402777089E+03 -0.92760895696E+02  0.17866269535E+03  0.88487308728E+02 0.  0.
        -24    2    1    2    0    0 -0.29602684426E+02 -0.38344391148E+02 -0.12202747625E+02  0.97956332656E+02  0.84261051501E+02 0.  0.
         11    1    4    4    0    0 -0.10515883945E+02 -0.35248894526E+02 -0.46072668054E+02  0.58955569050E+02  0.00000000000E+00 0. -1.
        -12    1    4    4    0    0 -0.19086800481E+02 -0.30954966225E+01  0.33869920429E+02  0.39000763606E+02  0.00000000000E+00 0.  1.
        -13    1    3    3    0    0 -0.42993800948E+02  0.10319829504E+03 -0.80899442584E+02  0.13799664789E+03  0.00000000000E+00 0. -1.
         13    1    3    3    0    0  0.32850666375E+02  0.20829475856E+02 -0.11861453113E+02  0.40666047456E+02  0.00000000000E+00 0.  1.
          2    1    1    2  501    0  0.39745818999E+02 -0.85683379745E+02  0.19876589998E+03  0.22006647788E+03  0.00000000000E+00 0. -1.
<scales pt_clust_5="13000.00000" pt_clust_6="13000.00000" pt_clust_7="13000.00000" pt_clust_8="13000.00000" pt_clust_9="13000.00000"></scales>
<clustering>
<clus scale="   84.261">  5  6 -1 -1</clus>
<clus scale="   88.487">  7  8 -1 -1</clus>
<clus scale="   94.453">  5  9 -1 -1</clus>
<clus scale="  152.695">  1  7  2 -1</clus>
<clus scale="  257.551">  2  5  1 -1</clus>
</clustering>
</event>
<event>
 9    1  0.4516508E-005  0.2194590E+03  0.7546771E-02  0.1159279E+00
          1   -1    0    0  502    0 -0.00000000000E+00  0.00000000000E+00  0.20582168693E+03  0.20582168693E+03  0.00000000000E+00 0. -1.
         21   -1    0    0  501  502  0.00000000000E+00 -0.00000000000E+00 -0.21075693162E+03  0.21075693162E+03  0.00000000000E+00 0.  1.
         23    2    1    2    0    0 -0.35629559312E+02  0.68578633528E+02 -0.11861926126E+03  0.16942217872E+03  0.93063693396E+02 0.  0.
        -24    2    1    2    0    0  0.94515483960E+02 -0.72746373632E+02  0.30929696430E+02  0.14550409268E+03  0.77392398088E+02 0.  0.
         13    1    4    4    0    0  0.10235881341E+03 -0.56172496036E+02  0.92716472111E+01  0.11712659577E+03  0.00000000000E+00 0. -1.
        -14    1    4    4    0    0 -0.78433294496E+01 -0.16573877595E+02  0.21658049218E+02  0.28377496918E+02  0.00000000000E+00 0.  1.
        -13    1    3    3    0    0 -0.14616196795E+02  0.14457032679E+02 -0.10857224663E+03  0.11050145583E+03  0.00000000000E+00 0.  1.
         13    1    3    3    0    0 -0.21013362517E+02  0.54121600848E+02 -0.10047014623E+02  0.58920722887E+02  0.00000000000E+00 0. -1.
          2    1    1    2  501    0 -0.58885924648E+02  0.41677401041E+01  0.82754320135E+02  0.10165234715E+03  0.00000000000E+00 0. -1.
<scales pt_clust_5="13000.00000" pt_clust_6="13000.00000" pt_clust_7="13000.00000" pt_clust_8="13000.00000" pt_clust_9="13000.00000"></scales>
<clustering>
<clus scale="   77.392">  5  6 -1 -1</clus>
<clus scale="   59.033">  5  9 -1 -1</clus>
<clus scale="   93.064">  7  8 -1 -1</clus>
<clus scale="  120.968">  1  7  2 -1</clus>
<clus scale="  219.459">  2  5  1 -1</clus>
</clustering>
</event>
<event>
 9    1  0.4516508E-005  0.1459322E+03  0.7546771E-02  0.1213057E+00
          3   -1    0    0  502    0 -0.00000000000E+00  0.00000000000E+00  0.19035348785E+03  0.19035348785E+03  0.00000000000E+00 0. -1.
         21   -1    0    0  501  502  0.00000000000E+00 -0.00000000000E+00 -0.38069187816E+03  0.38069187816E+03  0.00000000000E+00 0. -1.
         23    2    1    2    0    0 -0.83234352411E+02 -0.18414659905E+02  0.15349249800E+03  0.19752710966E+03  0.90498370081E+02 0.  0.
        -24    2    1    2    0    0  0.47645685281E+02 -0.32205627804E+01 -0.15996241737E+03  0.18499173117E+03  0.79708734032E+02 0.  0.
         13    1    4    4    0    0  0.53682428698E+02  0.28139294958E+02 -0.11244078529E+03  0.12773626450E+03  0.00000000000E+00 0. -1.
        -14    1    4    4    0    0 -0.60367434165E+01 -0.31359857739E+02 -0.47521632084E+02  0.57255466677E+02  0.00000000000E+00 0.  1.
        -11    1    3    3    0    0 -0.71689109098E+02  0.12721389519E+02  0.14649419801E+03  0.16359007356E+03  0.00000000000E+00 0. -1.
         11    1    3    3    0    0 -0.11545243313E+02 -0.31136049424E+02  0.69982999905E+01  0.33937036106E+02  0.00000000000E+00 0.  1.
          4    1    1    2  501    0  0.35588667129E+02  0.21635222686E+02 -0.18386847094E+03  0.18852652517E+03  0.00000000000E+00 0. -1.
<scales pt_clust_5="13000.00000" pt_clust_6="13000.00000" pt_clust_7="13000.00000" pt_clust_8="13000.00000" pt_clust_9="13000.00000"></scales>
<clustering>
<clus scale="   79.709">  5  6 -1 -1</clus>
<clus scale="   41.649">  5  9 -1 -1</clus>
<clus scale="   90.498">  7  8 -1 -1</clus>
<clus scale="  124.326">  1  7  2 -1</clus>
<clus scale="  145.932">  2  5  1 -1</clus>
</clustering>
</event>
<event>
 9    1  0.4516508E-005  0.2727543E+03  0.7546771E-02  0.1128929E+00
         21   -1    0    0  501  502  0.00000000000E+00  0.00000000000E+00  0.44706473461E+02  0.44706473461E+02  0.00000000000E+00 0. -1.
          1   -1    0    0  502    0 -0.00000000000E+00 -0.00000000000E+00 -0.94192031836E+03  0.94192031836E+03  0.00000000000E+00 0. -1.
         23    2    1    2    0    0  0.91216514885E+02  0.17004037303E+02 -0.38270596322E+03  0.40429248256E+03  0.91536699188E+02 0.  0.
        -24    2    1    2    0    0 -0.70909686789E+01 -0.32135499524E+02 -0.27790284302E+02  0.88168255924E+02  0.76930938410E+02 0.  0.
         13    1    4    4    0    0 -0.12837481367E+02 -0.39873537059E+02  0.14856663682E+02  0.44445701043E+02  0.00000000000E+00 0. -1.
        -14    1    4    4    0    0  0.57465126882E+01  0.77380375344E+01 -0.42646947984E+02  0.43722554881E+02  0.00000000000E+00 0.  1.
        -13    1    3    3    0    0 -0.13763266381E-02 -0.27757482335E+02 -0.10406854028E+03  0.10770672636E+03  0.00000000000E+00 0.  1.
         13    1    3    3    0    0  0.91217891211E+02  0.44761519639E+02 -0.27863742295E+03  0.29658575620E+03  0.00000000000E+00 0. -1.
          2    1    1    2  501    0 -0.84125546206E+02  0.15131462221E+02 -0.48671759737E+03  0.49416605333E+03  0.00000000000E+00 0. -1.
<scales pt_clust_5="13000.00000" pt_clust_6="13000.00000" pt_clust_7="13000.00000" pt_clust_8="13000.00000" pt_clust_9="13000.00000"></scales>
<clustering>
<clus scale="   76.931">  5  6 -1 -1</clus>
<clus scale="   85.476">  5  9 -1 -1</clus>
<clus scale="   91.537">  7  8 -1 -1</clus>
<clus scale="  130.340">  2  7  1 -1</clus>
<clus scale="  272.754">  1  5  2 -1</clus>
</clustering>
</event>
<event>
 9    1  0.4516508E-005  0.1430276E+03  0.7546771E-02  0.1226834E+00
         21   -1    0    0  501  502  0.00000000000E+00  0.00000000000E+00  0.26317487861E+03  0.26317487861E+03  0.00000000000E+00 0. -1.
          3   -1    0    0  502    0 -0.00000000000E+00 -0.00000000000E+00 -0.92965113145E+02  0.92965113145E+02  0.00000000000E+00 0. -1.
         23    2    1    2    0    0  0.12652362624E+02  0.40408246474E+02 -0.35958371388E+02  0.10521729621E+03  0.89357519475E+02 0.  0.
        -24    2    1    2    0    0 -0.15263421831E+02 -0.79759634153E+01  0.72398011963E+02  0.11325237583E+03  0.85370020837E+02 0.  0.
         13    1    4    4    0    0 -0.39755046476E+02  0.17379663342E+02  0.15027898796E+02  0.45916817838E+02  0.00000000000E+00 0. -1.
        -14    1    4    4    0    0  0.24491624644E+02 -0.25355626757E+02  0.57370113166E+02  0.67335557996E+02  0.00000000000E+00 0.  1.
        -11    1    3    3    0    0 -0.37901717043E+02  0.91247197926E+01 -0.93868933001E+01  0.40098808361E+02  0.00000000000E+00 0. -1.
         11    1    3    3    0    0  0.50554079667E+02  0.31283526681E+02 -0.26571478088E+02  0.65118487854E+02  0.00000000000E+00 0.  1.
          4    1    1    2  501    0  0.26110592079E+01 -0.32432283058E+02  0.13377012489E+03  0.13767031970E+03  0.00000000000E+00 0. -1.
<scales pt_clust_5="13000.00000" pt_clust_6="13000.00000" pt_clust_7="13000.00000" pt_clust_8="13000.00000" pt_clust_9="13000.00000"></scales>
<clustering>
<clus scale="   85.370">  5  6 -1 -1</clus>
<clus scale="   32.537">  5  9 -1 -1</clus>
<clus scale="   89.358">  7  8 -1 -1</clus>
<clus scale="   98.882">  2  7  1 -1</clus>
<clus scale="  143.028">  1  5  2 -1</clus>
</clustering>
</event>
<event>
 9    1  0.4516508E-005  0.1616169E+03  0.7546771E-02  0.1191153E+00
          1   -1    0    0  502    0 -0.00000000000E+00  0.00000000000E+00  0.51800519922E+03  0.51800519922E+03  0.00000000000E+00 0. -1.
         21   -1    0    0  501  502  0.00000000000E+00 -0.00000000000E+00 -0.46301878028E+02  0.46301878028E+02  0.00000000000E+00 0. -1.
         23    2    1    2    0    0 -0.16529149562E+02  0.11426749873E+03  0.24829202926E+03  0.28856694495E+03  0.91058639720E+02 0.  0.
        -24    2    1    2    0    0  0.39206214358E+02 -0.79110750607E+02  0.15781688228E+03  0.19793992161E+03  0.80488546571E+02 0.  0.
         13    1    4    4    0    0  0.48123258372E+02 -0.67084104018E+02  0.68213624375E+02  0.10709446091E+03  0.00000000000E+00 0. -1.
        -14    1    4    4    0    0 -0.89170440145E+01 -0.12026646590E+02  0.89603257902E+02  0.90845460695E+02  0.00000000000E+00 0.  1.
        -13    1    3    3    0    0  0.18852892796E+01  0.31565835350E+02  0.63969076433E+01  0.32262620855E+02  0.00000000000E+00 0.  1.
         13    1    3    3    0    0 -0.18414438842E+02  0.82701663381E+02  0.24189512162E+03  0.25630432409E+03  0.00000000000E+00 0. -1.
          2    1    1    2  501    0 -0.22677064795E+02 -0.35156748124E+02  0.65594409653E+02  0.77800210695E+02  0.00000000000E+00 0. -1.
<scales pt_clust_5="13000.00000" pt_clust_6="13000.00000" pt_clust_7="13000.00000" pt_clust_8="13000.00000" pt_clust_9="13000.00000"></scales>
<clustering>
<clus scale="   80.489">  5  6 -1 -1</clus>
<clus scale="   41.836">  5  9 -1 -1</clus>
<clus scale="   91.059">  7  8 -1 -1</clus>
<clus scale="  147.044">  1  7  2 -1</clus>
<clus scale="  161.617">  2  5  1 -1</clus>
</clustering>
</event>
<event>
 9    1  0.4516508E-005  0.3023222E+03  0.7546771E-02  0.1117760E+00
          1   -1    0    0  502    0 -0.00000000000E+00  0.00000000000E+00  0.94009854848E+03  0.94009854848E+03  0.00000000000E+00 0. -1.
         21   -1    0    0  501  502  0.00000000000E+00 -0.00000000000E+00 -0.49238301095E+02  0.49238301095E+02  0.00000000000E+00 0. -1.
         23    2    1    2    0    0  0.54153922885E+02  0.68786861103E+02  0.22472655485E+03  0.25780911824E+03  0.91100150210E+02 0.  0.
        -24    2    1    2    0    0 -0.68687534220E+02  0.19161609335E+02  0.62315907385E+03  0.63256825901E+03  0.82037956827E+02 0.  0.
         13    1    4    4    0    0 -0.71458096261E+02 -0.13321562391E+02  0.34984667169E+03  0.35731836958E+03  0.00000000000E+00 0. -1.
        -14    1    4    4    0    0  0.27705620413E+01  0.32483171726E+02  0.27331240216E+03  0.27524988944E+03  0.00000000000E+00 0.  1.
        -13    1    3    3    0    0 -0.20841686835E+02  0.94168353399E+01  0.15140082123E+02  0.27427628126E+02  0.00000000000E+00 0.  1.
         13    1    3    3    0    0  0.74995609720E+02  0.59370025763E+02  0.20958647273E+03  0.23038149011E+03  0.00000000000E+00 0. -1.
          2    1    1    2  501    0  0.14533611335E+02 -0.87948470437E+02  0.42974618680E+02  0.98959472318E+02  0.00000000000E+00 0. -1.
<scales pt_clust_5="13000.00000" pt_clust_6="13000.00000" pt_clust_7="13000.00000" pt_clust_8="13000.00000" pt_clust_9="13000.00000"></scales>
<clustering>
<clus scale="   82.038">  5  6 -1 -1</clus>
<clus scale="   89.141">  5  9 -1 -1</clus>
<clus scale="   91.100">  7  8 -1 -1</clus>
<clus scale="  126.347">  1  7  2 -1</clus>
<clus scale="  302.322">  2  5  1 -1</clus>
</clustering>
</event>
<event>
 9    1  0.4516508E-005  0.1184107E+04  0.7546771E-02  0.9529492E-01
          1   -1    0    0  502    0 -0.00000000000E+00  0.00000000000E+00  0.78430687691E+03  0.78430687691E+03  0.00000000000E+00 0. -1.
         21   -1    0    0  501  502  0.00000000000E+00 -0.00000000000E+00 -0.83664866942E+03  0.83664866942E+03  0.00000000000E+00 0. -1.
         23    2    1    2    0    0 -0.11837537611E+03  0.22909971457E+03  0.27915188362E+03  0.39132206662E+03  0.93315469285E+02 0.  0.
        -24    2    1    2    0    0  0.27150144022E+03  0.42505958134E+03 -0.17375099633E+03  0.53952136638E+03  0.80654921254E+02 0.  0.
         11    1    4    4    0    0  0.10167404433E+03  0.22392657068E+03 -0.10531917027E+03  0.26753102245E+03  0.00000000000E+00 0. -1.
        -12    1    4    4    0    0  0.16982739589E+03  0.20113301067E+03 -0.68431826060E+02  0.27199034394E+03  0.00000000000E+00 0.  1.
        -13    1    3    3    0    0 -0.69918048806E+02  0.51268946963E+02  0.62525071888E+02  0.10689444834E+03  0.00000000000E+00 0.  1.
         13    1    3    3    0    0 -0.48457327302E+02  0.17783076761E+03  0.21662681173E+03  0.28442761827E+03  0.00000000000E+00 0. -1.
          2    1    1    2  501    0 -0.15312606411E+03 -0.65415929591E+03 -0.15774267980E+03  0.69011211333E+03  0.00000000000E+00 0. -1.
<scales pt_clust_5="13000.00000" pt_clust_6="13000.00000" pt_clust_7="13000.00000" pt_clust_8="13000.00000" pt_clust_9="13000.00000"></scales>
<clustering>
<clus scale="   80.655">  5  6 -1 -1</clus>
<clus scale="   93.315">  7  8 -1 -1</clus>
<clus scale="  274.239">  1  7  2 -1</clus>
<clus scale="  564.410">  5  9 -1 -1</clus>
<clus scale=" 1184.107">  2  5  1 -1</clus>
</clustering>
</event>
<event>
 9    1  0.4516508E-005  0.1329522E+03  0.7546771E-02  0.1240713E+00
         21   -1    0    0  501  502  0.00000000000E+00  0.00000000000E+00  0.35629858469E+02  0.35629858469E+02  0.00000000000E+00 0.  1.
          3   -1    0    0  502    0 -0.00000000000E+00 -0.00000000000E+00 -0.36248324652E+03  0.36248324652E+03  0.00000000000E+00 0. -1.
         23    2    1    2    0    0 -0.17688642296E+02  0.24080231241E+01 -0.11043683284E+03  0.14412014849E+03  0.90860533294E+02 0.  0.
        -24    2    1    2    0    0 -0.15475943286E+02 -0.29720782055E+02 -0.17131363554E+03  0.19170210725E+03  0.79237027312E+02 0.  0.
         13    1    4    4    0    0 -0.21051471909E+02 -0.45515407440E+02 -0.16705471811E+03  0.17441930979E+03  0.00000000000E+00 0. -1.
        -14    1    4    4    0    0  0.55755286231E+01  0.15794625385E+02 -0.42589174250E+01  0.17282797462E+02  0.00000000000E+00 0.  1.
        -11    1    3    3    0    0 -0.13935678356E+02 -0.33183189112E+02 -0.97880715117E+01  0.37297902285E+02  0.00000000000E+00 0.  1.
         11    1    3    3    0    0 -0.37529639398E+01  0.35591212237E+02 -0.10064876133E+03  0.10682224620E+03  0.00000000000E+00 0. -1.
          4    1    1    2  501    0  0.33164585582E+02  0.27312758931E+02 -0.45102919674E+02  0.62290849251E+02  0.00000000000E+00 0. -1.
<scales pt_clust_5="13000.00000" pt_clust_6="13000.00000" pt_clust_7="13000.00000" pt_clust_8="13000.00000" pt_clust_9="13000.00000"></scales>
<clustering>
<clus scale="   79.237">  5  6 -1 -1</clus>
<clus scale="   42.964">  5  9 -1 -1</clus>
<clus scale="   90.861">  7  8 -1 -1</clus>
<clus scale="   92.598">  2  7  1 -1</clus>
<clus scale="  132.952">  1  5  2 -1</clus>
</clustering>
</event>
<event>
 9    1  0.4516508E-005  0.1657199E+03  0.7546771E-02  0.1195677E+00
         21   -1    0    0  501  502  0.00000000000E+00  0.00000000000E+00  0.53822014651E+02  0.53822014651E+02  0.00000000000E+00 0. -1.
          1   -1    0    0  502    0 -0.00000000000E+00 -0.00000000000E+00 -0.40601143871E+03  0.40601143871E+03  0.00000000000E+00 0. -1.
         23    2    1    2    0    0  0.83328617954E+02  0.99503199682E+01 -0.19873257026E+03  0.23397490473E+03  0.90592240958E+02 0.  0.
        -24    2    1    2    0    0 -0.77516218463E+01  0.88895635100E+00 -0.10953633016E+03  0.13777685559E+03  0.83206829214E+02 0.  0.
         11    1    4    4    0    0  0.21388766478E+02  0.32558732139E+02 -0.65459115383E+02  0.76173789171E+02  0.00000000000E+00 0. -1.
        -12    1    4    4    0    0 -0.29140388325E+02 -0.31669775788E+02 -0.44077214778E+02  0.61603066423E+02  0.00000000000E+00 0.  1.
        -11    1    3    3    0    0  0.14583757095E+02 -0.27737597118E+02 -0.16110980427E+02  0.35236684793E+02  0.00000000000E+00 0. -1.
         11    1    3    3    0    0  0.68744860859E+02  0.37687917086E+02 -0.18262158984E+03  0.19873821994E+03  0.00000000000E+00 0.  1.
          2    1    1    2  501    0 -0.75576996108E+02 -0.10839276319E+02 -0.43920523635E+02  0.88081693036E+02  0.00000000000E+00 0. -1.
<scales pt_clust_5="13000.00000" pt_clust_6="13000.00000" pt_clust_7="13000.00000" pt_clust_8="13000.00000" pt_clust_9="13000.00000"></scales>
<clustering>
<clus scale="   83.207">  5  6 -1 -1</clus>
<clus scale="   76.350">  5  9 -1 -1</clus>
<clus scale="   90.592">  7  8 -1 -1</clus>
<clus scale="  123.489">  2  7  1 -1</clus>
<clus scale="  165.720">  1  5  2 -1</clus>
</clustering>
</event>
<event>
 9    1  0.4516508E-005  0.2174074E+03  0.7546771E-02  0.1168955E+00
          1   -1    0    0  502    0 -0.00000000000E+00  0.00000000000E+00  0.73824927569E+03  0.73824927569E+03  0.00000000000E+00 0. -1.
         21   -1    0    0  501  502  0.00000000000E+00 -0.00000000000E+00 -0.43110832258E+02  0.43110832258E+02  0.00000000000E+00 0.  1.
         23    2    1    2    0    0 -0.17223150083E+01 -0.23630758169E+02  0.76117683700E+02  0.12527119297E+03  0.96631210875E+02 0.  0.
        -24    2    1    2    0    0 -0.68524890804E+02 -0.47423419601E+02  0.27495097330E+03  0.29780497167E+03  0.78390828814E+02 0.  0.
         13    1    4    4    0    0  0.75621379428E+01 -0.30142991073E+02  0.42797759617E+02  0.52890774898E+02  0.00000000000E+00 0. -1.
        -14    1    4    4    0    0 -0.76087028746E+02 -0.17280428528E+02  0.23215321369E+03  0.24491419677E+03  0.00000000000E+00 0.  1.
        -11    1    3    3    0    0  0.35108533515E+02 -0.22130332379E+02  0.90482368212E+00  0.41511196594E+02  0.00000000000E+00 0.  1.
         11    1    3    3    0    0 -0.36830848523E+02 -0.15004257904E+01  0.75212860018E+02  0.83759996374E+02  0.00000000000E+00 0. -1.
          2    1    1    2  501    0  0.70247205812E+02  0.71054177770E+02  0.34406978643E+03  0.35828394331E+03  0.00000000000E+00 0. -1.
<scales pt_clust_5="13000.00000" pt_clust_6="13000.00000" pt_clust_7="13000.00000" pt_clust_8="13000.00000" pt_clust_9="13000.00000"></scales>
<clustering>
<clus scale="   78.391">  5  6 -1 -1</clus>
<clus scale="   96.631">  7  8 -1 -1</clus>
<clus scale="   99.494">  1  7  2 -1</clus>
<clus scale="   90.392">  5  9 -1 -1</clus>
<clus scale="  217.407">  2  5  1 -1</clus>
</clustering>
</event>
<event>
 9    1  0.4516508E-005  0.2228112E+03  0.7546771E-02  0.1151030E+00
          1   -1    0    0  502    0 -0.00000000000E+00  0.00000000000E+00  0.50302442343E+03  0.50302442343E+03  0.00000000000E+00 0. -1.
         21   -1    0    0  501  502  0.00000000000E+00 -0.00000000000E+00 -0.70710974611E+02  0.70710974611E+02  0.00000000000E+00 0. -1.
         23    2    1    2    0    0  0.48892516618E+02  0.90068916120E+02  0.24643502248E+03  0.28357059516E+03  0.95808007490E+02 0.  0.
        -24    2    1    2    0    0 -0.59245450714E+02 -0.13678798060E+03  0.17312111585E+03  0.24064103888E+03  0.75605646420E+02 0.  0.
         13    1    4    4    0    0 -0.69746836482E+02 -0.69201146646E+02  0.11107623608E+03  0.14829480813E+03  0.00000000000E+00 0. -1.
        -14    1    4    4    0    0  0.10501385769E+02 -0.67586833959E+02  0.62044879770E+02  0.92346230748E+02  0.00000000000E+00 0.  1.
        -11    1    3    3    0    0  0.62491948774E+02  0.19032394902E+02  0.89840775095E+02  0.11108033393E+03  0.00000000000E+00 0.  1.
         11    1    3    3    0    0 -0.13599432156E+02  0.71036521218E+02  0.15659424739E+03  0.17249026122E+03  0.00000000000E+00 0. -1.
          2    1    1    2  501    0  0.10352934096E+02  0.46719064485E+02  0.12757310487E+02  0.49523764008E+02  0.00000000000E+00 0. -1.
<scales pt_clust_5="13000.00000" pt_clust_6="13000.00000" pt_clust_7="13000.00000" pt_clust_8="13000.00000" pt_clust_9="13000.00000"></scales>
<clustering>
<clus scale="   75.606">  5  6 -1 -1</clus>
<clus scale="   47.852">  5  9 -1 -1</clus>
<clus scale="   95.808">  7  8 -1 -1</clus>
<clus scale="  140.293">  1  7  2 -1</clus>
<clus scale="  222.811">  2  5  1 -1</clus>
</clustering>
</event>
<event>
 9    1  0.4516508E-005  0.1710034E+03  0.7546771E-02  0.1199199E+00
         21   -1    0    0  501  502  0.00000000000E+00  0.00000000000E+00  0.26177451349E+03  0.26177451349E+03  0.00000000000E+00 0.  1.
          3   -1    0    0  502    0 -0.00000000000E+00 -0.00000000000E+00 -0.72288466873E+02  0.72288466873E+02  0.00000000000E+00 0. -1.
         23    2    1    2    0    0 -0.48672659939E+02 -0.15279058510E+02  0.74417711181E+02  0.12794918115E+03  0.90722212086E+02 0.  0.
        -24    2    1    2    0    0  0.34899782068E+02 -0.23589746804E+02  0.13328165974E+03  0.16103385497E+03  0.79958931206E+02 0.  0.
         11    1    4    4    0    0  0.51158574924E+02 -0.92383618562E+01  0.40915848698E+02  0.66156283093E+02  0.00000000000E+00 0. -1.
        -12    1    4    4    0    0 -0.16258792856E+02 -0.14351384948E+02  0.92365811041E+02  0.94877571872E+02  0.00000000000E+00 0.  1.
        -11    1    3    3    0    0 -0.30990251471E+02  0.16362817400E+02  0.83521655769E+02  0.90575959625E+02  0.00000000000E+00 0.  1.
         11    1    3    3    0    0 -0.17682408468E+02 -0.31641875910E+02 -0.91039445883E+01  0.37373221528E+02  0.00000000000E+00 0. -1.
          4    1    1    2  501    0  0.13772877871E+02  0.38868805314E+02 -0.18213324299E+02  0.45079944248E+02  0.00000000000E+00 0. -1.
<scales pt_clust_5="13000.00000" pt_clust_6="13000.00000" pt_clust_7="13000.00000" pt_clust_8="13000.00000" pt_clust_9="13000.00000"></scales>
<clustering>
<clus scale="   79.959">  5  6 -1 -1</clus>
<clus scale="   41.237">  5  9 -1 -1</clus>
<clus scale="   90.722">  7  8 -1 -1</clus>
<clus scale="  104.082">  2  7  1 -1</clus>
<clus scale="  171.003">  1  5  2 -1</clus>
</clustering>
</event>
<event>
 9    1  0.4516508E-005  0.3205424E+03  0.7546771E-02  0.1121952E+00
          3   -1    0    0  502    0 -0.00000000000E+00  0.00000000000E+00  0.73197459181E+02  0.73197459181E+02  0.00000000000E+00 0. -1.
         21   -1    0    0  501  502  0.00000000000E+00 -0.00000000000E+00 -0.65897180888E+03  0.65897180888E+03  0.00000000000E+00 0. -1.
         23    2    1    2    0    0 -0.22809507524E+02 -0.15120853911E+02 -0.49810479194E+02  0.10766572277E+03  0.91443480715E+02 0.  0.
        -24    2    1    2    0    0  0.80955639180E+02 -0.97105977284E+02 -0.44131726279E+03  0.46659909754E+03  0.83488951682E+02 0.  0.
         11    1    4    4    0    0  0.50286712782E+02 -0.75162094672E+02 -0.40228933926E+03  0.41232851762E+03  0.00000000000E+00 0. -1.
        -12    1    4    4    0    0  0.30668926398E+02 -0.21943882612E+02 -0.39027923528E+02  0.54270579925E+02  0.00000000000E+00 0.  1.
        -13    1    3    3    0    0 -0.25554471338E+02  0.35982217075E+02 -0.20157656648E+02  0.48518883669E+02  0.00000000000E+00 0.  1.
         13    1    3    3    0    0  0.27449638138E+01 -0.51103070986E+02 -0.29652822546E+02  0.59146839099E+02  0.00000000000E+00 0. -1.
          4    1    1    2  501    0 -0.58146131656E+02  0.11222683119E+03 -0.94646607715E+02  0.15790444775E+03  0.00000000000E+00 0. -1.
<scales pt_clust_5="13000.00000" pt_clust_6="13000.00000" pt_clust_7="13000.00000" pt_clust_8="13000.00000" pt_clust_9="13000.00000"></scales>
<clustering>
<clus scale="   83.489">  5  6 -1 -1</clus>
<clus scale="   91.443">  7  8 -1 -1</clus>
<clus scale="   95.451">  1  7  2 -1</clus>
<clus scale="  125.811">  5  9 -1 -1</clus>
<clus scale="  320.542">  2  5  1 -1</clus>
</clustering>
</event>
<event>
 9    1  0.4516508E-005  0.1682246E+03  0.7546771E-02  0.1187200E+00
          1   -1    0    0  502    0 -0.00000000000E+00  0.00000000000E+00  0.34482708906E+03  0.34482708906E+03  0.00000000000E+00 0. -1.
         21   -1    0    0  501  502  0.00000000000E+00 -0.00000000000E+00 -0.72685411130E+02  0.72685411130E+02  0.00000000000E+00 0. -1.
         23    2    1    2    0    0  0.92164802413E+02  0.57787926092E+02  0.84500568006E+02  0.16550317731E+03  0.91745084333E+02 0.  0.
        -24    2    1    2    0    0 -0.26775172164E+02 -0.53491556994E+02  0.93299207635E+02  0.13714132447E+03  0.80775888845E+02 0.  0.
         11    1    4    4    0    0 -0.24609815200E+02 -0.64542261604E+02  0.34384045237E+02  0.77159633903E+02  0.00000000000E+00 0. -1.
        -12    1    4    4    0    0 -0.21653569638E+01  0.11050704610E+02  0.58915162398E+02  0.59981690569E+02  0.00000000000E+00 0.  1.
        -11    1    3    3    0    0  0.36040182752E+02  0.68634608032E+02  0.74413574858E+02  0.10745689515E+03  0.00000000000E+00 0.  1.
         11    1    3    3    0    0  0.56124619661E+02 -0.10846681940E+02  0.10086993148E+02  0.58046282154E+02  0.00000000000E+00 0. -1.
          2    1    1    2  501    0 -0.65389630249E+02 -0.42963690977E+01  0.94341902285E+02  0.11486799841E+03  0.00000000000E+00 0. -1.
<scales pt_clust_5="13000.00000" pt_clust_6="13000.00000" pt_clust_7="13000.00000" pt_clust_8="13000.00000" pt_clust_9="13000.00000"></scales>
<clustering>
<clus scale="   80.776">  5  6 -1 -1</clus>
<clus scale="   65.531">  5  9 -1 -1</clus>
<clus scale="   91.745">  7  8 -1 -1</clus>
<clus scale="  142.306">  1  7  2 -1</clus>
<clus scale="  168.225">  2  5  1 -1</clus>
</clustering>
</event>
<event>
 9    1  0.4516508E-005  0.5442851E+03  0.7546771E-02  0.1047149E+00
         21   -1    0    0  501  502  0.00000000000E+00  0.00000000000E+00  0.22403630382E+03  0.22403630382E+03  0.00000000000E+00 0. -1.
          1   -1    0    0  502    0 -0.00000000000E+00 -0.00000000000E+00 -0.58548097438E+03  0.58548097438E+03  0.00000000000E+00 0. -1.
         23    2    1    2    0    0  0.67768529803E+02 -0.86525364820E+02  0.19157938952E+02  0.14536023864E+03  0.93184547874E+02 0.  0.
        -24    2    1    2    0    0  0.21055620213E+03  0.31314432940E+02 -0.28471020046E+03  0.36464367173E+03  0.81182517313E+02 0.  0.
         13    1    4    4    0    0  0.12895748192E+03  0.45032462192E+02 -0.22265759390E+03  0.26121707241E+03  0.00000000000E+00 0. -1.
        -14    1    4    4    0    0  0.81598720207E+02 -0.13718029252E+02 -0.62052606564E+02  0.10342659932E+03  0.00000000000E+00 0.  1.
        -13    1    3    3    0    0  0.79824038310E+01 -0.82213672891E+02  0.56773817535E+00  0.82602234278E+02  0.00000000000E+00 0. -1.
         13    1    3    3    0    0  0.59786125972E+02 -0.43116919288E+01  0.18590200776E+02  0.62758004357E+02  0.00000000000E+00 0.  1.
          2    1    1    2  501    0 -0.27832473193E+03  0.55210931879E+02 -0.95892409049E+02  0.29951336784E+03  0.00000000000E+00 0. -1.
<scales pt_clust_5="13000.00000" pt_clust_6="13000.00000" pt_clust_7="13000.00000" pt_clust_8="13000.00000" pt_clust_9="13000.00000"></scales>
<clustering>
<clus scale="   81.183">  5  6 -1 -1</clus>
<clus scale="   93.185">  7  8 -1 -1</clus>
<clus scale="  144.092">  2  7  1 -1</clus>
<clus scale="  253.673">  5  9 -1 -1</clus>
<clus scale="  544.285">  1  5  2 -1</clus>
</clustering>
</event>
<event>
 9    1  0.4516508E-005  0.5322362E+03  0.7546771E-02  0.1054101E+00
          1   -1    0    0  502    0 -0.00000000000E+00  0.00000000000E+00  0.12378195738E+03  0.12378195738E+03  0.00000000000E+00 0. -1.
         21   -1    0    0  501  502  0.00000000000E+00 -0.00000000000E+00 -0.10975190587E+04  0.10975190587E+04  0.00000000000E+00 0. -1.
         23    2    1    2    0    0  0.21576792826E+02  0.81294980889E+02 -0.18442404144E+02  0.12774564137E+03  0.94363100374E+02 0.  0.
        -24    2    1    2    0    0  0.91467773656E+01 -0.22108084755E+03 -0.91527031805E+03  0.94494185849E+03  0.78961738362E+02 0.  0.
         11    1    4    4    0    0  0.15411234755E+02 -0.14487544973E+03 -0.73204335182E+03  0.74640061029E+03  0.00000000000E+00 0. -1.
        -12    1    4    4    0    0 -0.62644573897E+01 -0.76205397813E+02 -0.18322696623E+03  0.19854124820E+03  0.00000000000E+00 0.  1.
        -13    1    3    3    0    0 -0.34856945468E+02  0.28227922425E+02  0.86491007225E+01  0.45679636547E+02  0.00000000000E+00 0.  1.
         13    1    3    3    0    0  0.56433738293E+02  0.53067058464E+02 -0.27091504867E+02  0.82066004824E+02  0.00000000000E+00 0. -1.
          2    1    1    2  501    0 -0.30723570191E+02  0.13978586666E+03 -0.40024379149E+02  0.14861351624E+03  0.00000000000E+00 0. -1.
<scales pt_clust_5="13000.00000" pt_clust_6="13000.00000" pt_clust_7="13000.00000" pt_clust_8="13000.00000" pt_clust_9="13000.00000"></scales>
<clustering>
<clus scale="   78.962">  5  6 -1 -1</clus>
<clus scale="   94.363">  7  8 -1 -1</clus>
<clus scale="  126.407">  1  7  2 -1</clus>
<clus scale="  204.100">  5  9 -1 -1</clus>
<clus scale="  532.236">  2  5  1 -1</clus>
</clustering>
</event>
<event>
 9    1  0.4516508E-005  0.4761233E+03  0.7546771E-02  0.1060497E+00
         21   -1    0    0  501  502  0.00000000000E+00  0.00000000000E+00  0.14590084842E+03  0.14590084842E+03  0.00000000000E+00 0. -1.
          1   -1    0    0  502    0 -0.00000000000E+00 -0.00000000000E+00 -0.74183429289E+03  0.74183429289E+03  0.00000000000E+00 0. -1.
         23    2    1    2    0    0  0.11026256410E+03  0.40860003420E+02 -0.34279648884E+02  0.15142785750E+03  0.89038917205E+02 0.  0.
        -24    2    1    2    0    0 -0.14299384762E+03 -0.13950675020E+03 -0.58920264216E+03  0.62878307016E+03  0.91098968068E+02 0.  0.
         11    1    4    4    0    0 -0.94240045035E+02 -0.13321350630E+03 -0.37418133746E+03  0.40821403411E+03  0.00000000000E+00 0. -1.
        -12    1    4    4    0    0 -0.48753802588E+02 -0.62932439049E+01 -0.21502130471E+03  0.22056903605E+03  0.00000000000E+00 0.  1.
        -11    1    3    3    0    0  0.10684657750E+03  0.10797694691E+02 -0.48693006389E+02  0.11791433418E+03  0.00000000000E+00 0.  1.
         11    1    3    3    0    0  0.34159866022E+01  0.30062308729E+02  0.14413357505E+02  0.33513523317E+02  0.00000000000E+00 0. -1.
          2    1    1    2  501    0  0.32731283520E+02  0.98646746782E+02  0.27548846577E+02  0.10752421364E+03  0.00000000000E+00 0. -1.
<scales pt_clust_5="13000.00000" pt_clust_6="13000.00000" pt_clust_7="13000.00000" pt_clust_8="13000.00000" pt_clust_9="13000.00000"></scales>
<clustering>
<clus scale="   89.039">  7  8 -1 -1</clus>
<clus scale="   91.099">  5  6 -1 -1</clus>
<clus scale="  103.935">  5  9 -1 -1</clus>
<clus scale="  147.497">  2  7  1 -1</clus>
<clus scale="  476.123">  1  5  2 -1</clus>
</clustering>
</event>
<event>
 9    1  0.4516508E-005  0.2387111E+03  0.7546771E-02  0.1160255E+00
         21   -1    0    0  501  502  0.00000000000E+00  0.00000000000E+00  0.12756738200E+03  0.12756738200E+03  0.00000000000E+00 0.  1.
          1   -1    0    0  502    0 -0.00000000000E+00 -0.00000000000E+00 -0.28897241573E+03  0.28897241573E+03  0.00000000000E+00 0. -1.
         23    2    1    2    0    0  0.43644846045E+01  0.64950583882E+01 -0.15203654025E+03  0.17764495996E+03  0.91549919278E+02 0.  0.
        -24    2    1    2    0    0 -0.61887391649E+02 -0.27594029653E+02  0.78734578109E+02  0.13158126618E+03  0.80765191149E+02 0.  0.
         13    1    4    4    0    0 -0.36267103941E+02  0.60248410811E+01 -0.56562819783E+01  0.37196707706E+02  0.00000000000E+00 0. -1.
        -14    1    4    4    0    0 -0.25620287708E+02 -0.33618870734E+02  0.84390860088E+02  0.94384558472E+02  0.00000000000E+00 0.  1.
        -13    1    3    3    0    0 -0.35099504547E+02 -0.21547243230E+02 -0.50561360983E+02  0.65212806524E+02  0.00000000000E+00 0.  1.
         13    1    3    3    0    0  0.39463989152E+02  0.28042301618E+02 -0.10147517926E+03  0.11243215344E+03  0.00000000000E+00 0. -1.
          2    1    1    2  501    0  0.57522907044E+02  0.21098971264E+02 -0.88103071594E+02  0.10731357159E+03  0.00000000000E+00 0. -1.
<scales pt_clust_5="13000.00000" pt_clust_6="13000.00000" pt_clust_7="13000.00000" pt_clust_8="13000.00000" pt_clust_9="13000.00000"></scales>
<clustering>
<clus scale="   80.765">  5  6 -1 -1</clus>
<clus scale="   61.270">  5  9 -1 -1</clus>
<clus scale="   91.550">  7  8 -1 -1</clus>
<clus scale="   91.884">  2  7  1 -1</clus>
<clus scale="  238.711">  1  5  2 -1</clus>
</clustering>
</event>
<event>
 9    1  0.4516508E-005  0.2647967E+03  0.7546771E-02  0.1117019E+00
         21   -1    0    0  501  502  0.00000000000E+00  0.00000000000E+00  0.84814439309E+02  0.84814439309E+02  0.00000000000E+00 0. -1.
          1   -1    0    0  502    0 -0.00000000000E+00 -0.00000000000E+00 -0.61735382087E+03  0.61735382087E+03  0.00000000000E+00 0. -1.
         23    2    1    2    0    0  0.15605565997E+03  0.59350425520E+02 -0.24974101750E+03  0.31475092822E+03  0.93924059610E+02 0.  0.
        -24    2    1    2    0    0 -0.10396266859E+02  0.17431482725E+02 -0.34920137252E+02  0.89834174575E+02  0.80242283002E+02 0.  0.
         11    1    4    4    0    0 -0.40972105462E+02  0.27201635730E+02 -0.12694452520E+02  0.50791648302E+02  0.00000000000E+00 0. -1.
        -12    1    4    4    0    0  0.30575838604E+02 -0.97701530051E+01 -0.22225684732E+02  0.39042526274E+02  0.00000000000E+00 0.  1.
        -13    1    3    3    0    0  0.22212785677E+02  0.50447792214E+02 -0.51806893755E+02  0.75646162013E+02  0.00000000000E+00 0.  1.
         13    1    3    3    0    0  0.13384287429E+03  0.89026333055E+01 -0.19793412375E+03  0.23910476620E+03  0.00000000000E+00 0. -1.
          2    1    1    2  501    0 -0.14565939311E+03 -0.76781908245E+02 -0.24787822681E+03  0.29758315738E+03  0.00000000000E+00 0. -1.
<scales pt_clust_5="13000.00000" pt_clust_6="13000.00000" pt_clust_7="13000.00000" pt_clust_8="13000.00000" pt_clust_9="13000.00000"></scales>
<clustering>
<clus scale="   80.242">  5  6 -1 -1</clus>
<clus scale="   93.924">  7  8 -1 -1</clus>
<clus scale="  164.658">  5  9 -1 -1</clus>
<clus scale="  191.566">  2  7  1 -1</clus>
<clus scale="  264.797">  1  5  2 -1</clus>
</clustering>
</event>
<event>
 9    1  0.4516508E-005  0.2542962E+03  0.7546771E-02  0.1151338E+00
          3   -1    0    0  502    0 -0.00000000000E+00  0.00000000000E+00  0.15425004305E+04  0.15425004305E+04  0.00000000000E+00 0. -1.
         21   -1    0    0  501  502  0.00000000000E+00 -0.00000000000E+00 -0.25496076207E+02  0.25496076207E+02  0.00000000000E+00 0. -1.
         23    2    1    2    0    0  0.92479658494E+01 -0.24192976584E+02  0.14504562055E+03  0.17266954946E+03  0.90031751535E+02 0.  0.
        -24    2    1    2    0    0  0.20285712367E+02  0.12017698680E+03  0.62462943477E+03  0.64128037415E+03  0.78895939076E+02 0.  0.
         11    1    4    4    0    0  0.29110189054E+02  0.12917388524E+03  0.56100869789E+03  0.57642350302E+03  0.00000000000E+00 0. -1.
        -12    1    4    4    0    0 -0.88244766872E+01 -0.89968984373E+01  0.63620736881E+02  0.64856871121E+02  0.00000000000E+00 0.  1.
        -13    1    3    3    0    0  0.28707010129E+02 -0.40339376993E+02  0.13771206602E+03  0.14634196559E+03  0.00000000000E+00 0.  1.
         13    1    3    3    0    0 -0.19459044279E+02  0.16146400409E+02  0.73335545258E+01  0.26327583870E+02  0.00000000000E+00 0. -1.
          4    1    1    2  501    0 -0.29533678216E+02 -0.95984010217E+02  0.74732929897E+03  0.75404658309E+03  0.00000000000E+00 0. -1.
<scales pt_clust_5="13000.00000" pt_clust_6="13000.00000" pt_clust_7="13000.00000" pt_clust_8="13000.00000" pt_clust_9="13000.00000"></scales>
<clustering>
<clus scale="   78.896">  5  6 -1 -1</clus>
<clus scale="   90.032">  7  8 -1 -1</clus>
<clus scale="   93.683">  1  7  2 -1</clus>
<clus scale="  111.830">  5  9 -1 -1</clus>
<clus scale="  254.296">  2  5  1 -1</clus>
</clustering>
</event>
<event>
 9    1  0.4516508E-005  0.2484689E+03  0.7546771E-02  0.1120071E+00
          3   -1    0    0  502    0 -0.00000000000E+00  0.00000000000E+00  0.69693715898E+03  0.69693715898E+03  0.00000000000E+00 0. -1.
         21   -1    0    0  501  502  0.00000000000E+00 -0.00000000000E+00 -0.77239201691E+02  0.77239201691E+02  0.00000000000E+00 0. -1.
         23    2    1    2    0    0 -0.19282201953E+03 -0.13543834500E+02  0.30965303535E+03  0.37685452834E+03  0.93651303029E+02 0.  0.
        -24    2    1    2    0    0  0.16628330774E+03 -0.86283810543E+01  0.16502518623E+03  0.24823583663E+03  0.81628004434E+02 0.  0.
         13    1    4    4    0    0  0.16931403735E+03 -0.17833367224E+02  0.13682787158E+03  0.21841963893E+03  0.00000000000E+00 0. -1.
        -14    1    4    4    0    0 -0.30307296051E+01  0.92049861702E+01  0.28197314647E+02  0.29816197705E+02  0.00000000000E+00 0.  1.
        -11    1    3    3    0    0 -0.11094557170E+03  0.12140767081E+02  0.24561379795E+03  0.26978223782E+03  0.00000000000E+00 0.  1.
         11    1    3    3    0    0 -0.81876447839E+02 -0.25684601580E+02  0.64039237405E+02  0.10707229052E+03  0.00000000000E+00 0. -1.
          4    1    1    2  501    0  0.26538711793E+02  0.22172215554E+02  0.14501973571E+03  0.14908599570E+03  0.00000000000E+00 0. -1.
<scales pt_clust_5="13000.00000" pt_clust_6="13000.00000" pt_clust_7="13000.00000" pt_clust_8="13000.00000" pt_clust_9="13000.00000"></scales>
<clustering>
<clus scale="   81.628">  5  6 -1 -1</clus>
<clus scale="   34.582">  5  9 -1 -1</clus>
<clus scale="   93.651">  7  8 -1 -1</clus>
<clus scale="  214.789">  1  7  2 -1</clus>
<clus scale="  248.469">  2  5  1 -1</clus>
</clustering>
</event>
<event>
 9    1  0.4516508E-005  0.3936356E+03  0.7546771E-02  0.1082436E+00
         21   -1    0    0  501  502  0.00000000000E+00  0.00000000000E+00  0.12414443015E+03  0.12414443015E+03  0.00000000000E+00 0. -1.
          1   -1    0    0  502    0 -0.00000000000E+00 -0.00000000000E+00 -0.58075563844E+03  0.58075563844E+03  0.00000000000E+00 0. -1.
         23    2    1    2    0    0 -0.96195016264E+02 -0.59067751626E+02 -0.13118736867E+03  0.19416566420E+03  0.88021014636E+02 0.  0.
        -24    2    1    2    0    0 -0.10109587236E+03  0.16896106358E+02 -0.27210613020E+03  0.30206020729E+03  0.81809344943E+02 0.  0.
         13    1    4    4    0    0 -0.79262847907E+02 -0.11017724399E+02 -0.24412637446E+03  0.25690791349E+03  0.00000000000E+00 0. -1.
        -14    1    4    4    0    0 -0.21833024451E+02  0.27913830757E+02 -0.27979755745E+02  0.45152293804E+02  0.00000000000E+00 0.  1.
        -11    1    3    3    0    0 -0.93028181622E+02 -0.22041875079E+02 -0.57301503063E+02  0.11146097562E+03  0.00000000000E+00 0. -1.
         11    1    3    3    0    0 -0.31668346419E+01 -0.37025876547E+02 -0.73885865608E+02  0.82704688576E+02  0.00000000000E+00 0.  1.
          2    1    1    2  501    0  0.19729088862E+03  0.42171645268E+02 -0.53317709410E+02  0.20867419710E+03  0.00000000000E+00 0. -1.
<scales pt_clust_5="13000.00000" pt_clust_6="13000.00000" pt_clust_7="13000.00000" pt_clust_8="13000.00000" pt_clust_9="13000.00000"></scales>
<clustering>
<clus scale="   81.809">  5  6 -1 -1</clus>
<clus scale="   88.021">  7  8 -1 -1</clus>
<clus scale="  143.144">  2  7  1 -1</clus>
<clus scale="  168.817">  5  9 -1 -1</clus>
<clus scale="  393.636">  1  5  2 -1</clus>
</clustering>
</event>
<event>
 9    1  0.4516508E-005  0.1457112E+04  0.7546771E-02  0.9238514E-01
          1   -1    0    0  502    0 -0.00000000000E+00  0.00000000000E+00  0.83385500336E+03  0.83385500336E+03  0.00000000000E+00 0. -1.
         21   -1    0    0  501  502  0.00000000000E+00 -0.00000000000E+00 -0.10555443070E+04  0.10555443070E+04  0.00000000000E+00 0. -1.
         23    2    1    2    0    0  0.37658936430E+03  0.15676977854E+03 -0.76666152796E+02  0.42508827023E+03  0.91793386099E+02 0.  0.
        -24    2    1    2    0    0  0.84158700278E+02  0.57807266142E+03 -0.65482611938E+02  0.59332947439E+03  0.80630043985E+02 0.  0.
         13    1    4    4    0    0  0.37272481089E+02  0.69664256954E+02 -0.45309572169E+01  0.79138335318E+02  0.00000000000E+00 0. -1.
        -14    1    4    4    0    0  0.46886219189E+02  0.50840840447E+03 -0.60951654721E+02  0.51419113907E+03  0.00000000000E+00 0.  1.
        -13    1    3    3    0    0  0.13309812513E+03  0.64895831220E+02  0.15766619273E+02  0.14891328385E+03  0.00000000000E+00 0.  1.
         13    1    3    3    0    0  0.24349123917E+03  0.91873947317E+02 -0.92432772069E+02  0.27617498638E+03  0.00000000000E+00 0. -1.
          2    1    1    2  501    0 -0.46074806458E+03 -0.73484243996E+03 -0.79540538938E+02  0.87098156577E+03  0.00000000000E+00 0. -1.
<scales pt_clust_5="13000.00000" pt_clust_6="13000.00000" pt_clust_7="13000.00000" pt_clust_8="13000.00000" pt_clust_9="13000.00000"></scales>
<clustering>
<clus scale="   80.630">  5  6 -1 -1</clus>
<clus scale="   91.793">  7  8 -1 -1</clus>
<clus scale="  418.118">  1  7  2 -1</clus>
<clus scale="  682.471">  5  9 -1 -1</clus>
<clus scale=" 1457.112">  2  5  1 -1</clus>
</clustering>
</event>
<event>
 9    1  0.4516508E-005  0.1568002E+03  0.7546771E-02  0.1200826E+00
          1   -1    0    0  502    0 -0.00000000000E+00  0.00000000000E+00  0.23712704246E+03  0.23712704246E+03  0.00000000000E+00 0. -1.
         21   -1    0    0  501  502  0.00000000000E+00 -0.00000000000E+00 -0.95698873433E+02  0.95698873433E+02  0.00000000000E+00 0. -1.
         23    2    1    2    0    0 -0.84594633623E+02 -0.36095244919E+02  0.11502219540E+03  0.17381779267E+03  0.92322266389E+02 0.  0.
        -24    2    1    2    0    0  0.50242110331E+02 -0.97578874290E+01  0.30224542747E+02  0.10158698536E+03  0.82382683821E+02 0.  0.
         13    1    4    4    0    0  0.49015124933E+02 -0.17866002889E+02 -0.16056786068E+02  0.54584768115E+02  0.00000000000E+00 0. -1.
        -14    1    4    4    0    0  0.12269853983E+01  0.81081154595E+01  0.46281328815E+02  0.47002217249E+02  0.00000000000E+00 0.  1.
        -11    1    3    3    0    0  0.61637021546E+01 -0.29787802019E+02  0.46321671675E+01  0.30769487257E+02  0.00000000000E+00 0.  1.
         11    1    3    3    0    0 -0.90758335777E+02 -0.63074428994E+01  0.11039002823E+03  0.14304830542E+03  0.00000000000E+00 0. -1.
          2    1    1    2  501    0  0.34352523292E+02  0.45853132348E+02 -0.38185691198E+01  0.57421137856E+02  0.00000000000E+00 0. -1.
<scales pt_clust_5="13000.00000" pt_clust_6="13000.00000" pt_clust_7="13000.00000" pt_clust_8="13000.00000" pt_clust_9="13000.00000"></scales>
<clustering>
<clus scale="   82.383">  5  6 -1 -1</clus>
<clus scale="   57.294">  5  9 -1 -1</clus>
<clus scale="   92.322">  7  8 -1 -1</clus>
<clus scale="  130.317">  1  7  2 -1</clus>
<clus scale="  156.800">  2  5  1 -1</clus>
</clustering>
</event>
<event>
 9    1  0.4516508E-005  0.2262525E+03  0.7546771E-02  0.1157565E+00
          1   -1    0    0  502    0 -0.00000000000E+00  0.00000000000E+00  0.52228258913E+03  0.52228258913E+03  0.00000000000E+00 0. -1.
         21   -1    0    0  501  502  0.00000000000E+00 -0.00000000000E+00 -0.56767243579E+02  0.56767243579E+02  0.00000000000E+00 0. -1.
         23    2    1    2    0    0  0.16113166866E+02  0.65458069240E+02  0.19558849414E+03  0.22684153130E+03  0.93047451899E+02 0.  0.
        -24    2    1    2    0    0  0.70884750979E+02 -0.70918240004E+02  0.10740821109E+03  0.16778823845E+03  0.81008175296E+02 0.  0.
         11    1    4    4    0    0  0.71002675117E+02 -0.66637741598E+02  0.48609954183E+02  0.10883425989E+03  0.00000000000E+00 0. -1.
        -12    1    4    4    0    0 -0.11792413829E+00 -0.42804984054E+01  0.58798256911E+02  0.58953978563E+02  0.00000000000E+00 0.  1.
        -11    1    3    3    0    0 -0.10907451658E+02  0.18086533380E+02 -0.26056541129E+01  0.21281086080E+02  0.00000000000E+00 0.  1.
         11    1    3    3    0    0  0.27020618524E+02  0.47371535860E+02  0.19819414825E+03  0.20556044522E+03  0.00000000000E+00 0. -1.
          2    1    1    2  501    0 -0.86997917844E+02  0.54601707640E+01  0.16251864032E+03  0.18442006297E+03  0.00000000000E+00 0. -1.
<scales pt_clust_5="13000.00000" pt_clust_6="13000.00000" pt_clust_7="13000.00000" pt_clust_8="13000.00000" pt_clust_9="13000.00000"></scales>
<clustering>
<clus scale="   81.008">  5  6 -1 -1</clus>
<clus scale="   87.169">  5  9 -1 -1</clus>
<clus scale="   93.047">  7  8 -1 -1</clus>
<clus scale="  114.901">  1  7  2 -1</clus>
<clus scale="  226.252">  2  5  1 -1</clus>
</clustering>
</event>
<event>
 9    1  0.4516508E-005  0.5193009E+03  0.7546771E-02  0.1072954E+00
          1   -1    0    0  502    0 -0.00000000000E+00  0.00000000000E+00  0.56520596712E+03  0.56520596712E+03  0.00000000000E+00 0. -1.
         21   -1    0    0  501  502  0.00000000000E+00 -0.00000000000E+00 -0.16023427714E+03  0.16023427714E+03  0.00000000000E+00 0.  1.
         23    2    1    2    0    0 -0.12636484698E+01 -0.45648304308E+02  0.35140074138E+02  0.87906799018E+02  0.66388372548E+02 0.  0.
        -24    2    1    2    0    0 -0.19835223476E+02 -0.49226409292E+01  0.49461122080E+03  0.50125236543E+03  0.78714710294E+02 0.  0.
         11    1    4    4    0    0 -0.42359023845E+02  0.20641373631E+02  0.27279434355E+03  0.27683407861E+03  0.00000000000E+00 0. -1.
        -12    1    4    4    0    0  0.22523800369E+02 -0.25564014560E+02  0.22181687725E+03  0.22441828681E+03  0.00000000000E+00 0.  1.
        -11    1    3    3    0    0  0.25980856295E+02 -0.38341152661E+02  0.37511326280E+02  0.59599903360E+02  0.00000000000E+00 0.  1.
         11    1    3    3    0    0 -0.27244504765E+02 -0.73071516471E+01 -0.23712521426E+01  0.28306895658E+02  0.00000000000E+00 0. -1.
          2    1    1    2  501    0  0.21098871946E+02  0.50570945237E+02 -0.12477960496E+03  0.13628107981E+03  0.00000000000E+00 0. -1.
<scales pt_clust_5="13000.00000" pt_clust_6="13000.00000" pt_clust_7="13000.00000" pt_clust_8="13000.00000" pt_clust_9="13000.00000"></scales>
<clustering>
<clus scale="   66.388">  7  8 -1 -1</clus>
<clus scale="   78.715">  5  6 -1 -1</clus>
<clus scale="   54.796">  5  9 -1 -1</clus>
<clus scale="   80.578">  1  7  2 -1</clus>
<clus scale="  519.301">  2  5  1 -1</clus>
</clustering>
</event>
<event>
 9    1  0.4516508E-005  0.2708607E+03  0.7546771E-02  0.1112210E+00
         21   -1    0    0  501  502  0.00000000000E+00  0.00000000000E+00  0.20753825460E+03  0.20753825460E+03  0.00000000000E+00 0.  1.
          3   -1    0    0  502    0 -0.00000000000E+00 -0.00000000000E+00 -0.27307678978E+03  0.27307678978E+03  0.00000000000E+00 0. -1.
         23    2    1    2    0    0  0.67572829944E+02 -0.16468899024E+03 -0.69766390402E+00  0.20210138670E+03  0.95686639185E+02 0.  0.
        -24    2    1    2    0    0 -0.44627154635E+02  0.69030525768E+01  0.22603863406E+02  0.96663478228E+02  0.82423651439E+02 0.  0.
         13    1    4    4    0    0  0.14506502227E+02 -0.18969527052E+02  0.21461711267E+02  0.32107423035E+02  0.00000000000E+00 0. -1.
        -14    1    4    4    0    0 -0.59133656863E+02  0.25872579628E+02  0.11421521387E+01  0.64556055193E+02  0.00000000000E+00 0.  1.
        -11    1    3    3    0    0 -0.11345964334E+02 -0.24289269235E+02 -0.27976620984E+02  0.38747784818E+02  0.00000000000E+00 0. -1.
         11    1    3    3    0    0  0.78918794278E+02 -0.14039972101E+03  0.27278957080E+02  0.16335360188E+03  0.00000000000E+00 0.  1.
          4    1    1    2  501    0 -0.22945675309E+02  0.15778593767E+03 -0.87444734684E+02  0.18185017945E+03  0.00000000000E+00 0. -1.
<scales pt_clust_5="13000.00000" pt_clust_6="13000.00000" pt_clust_7="13000.00000" pt_clust_8="13000.00000" pt_clust_9="13000.00000"></scales>
<clustering>
<clus scale="   82.424">  5  6 -1 -1</clus>
<clus scale="   95.687">  7  8 -1 -1</clus>
<clus scale="  159.446">  5  9 -1 -1</clus>
<clus scale="  202.100">  2  7  1 -1</clus>
<clus scale="  270.861">  1  5  2 -1</clus>
</clustering>
</event>
<event>
 9    1  0.4516508E-005  0.2744105E+03  0.7546771E-02  0.1137797E+00
         21   -1    0    0  501  502  0.00000000000E+00  0.00000000000E+00  0.72543517640E+03  0.72543517640E+03  0.00000000000E+00 0. -1.
          1   -1    0    0  502    0 -0.00000000000E+00 -0.00000000000E+00 -0.49408611329E+02  0.49408611329E+02  0.00000000000E+00 0. -1.
         23    2    1    2    0    0 -0.46961354343E+02  0.11712712220E+02  0.21246318116E+03  0.23614894434E+03  0.91011890074E+02 0.  0.
        -24    2    1    2    0    0  0.69452530046E+02  0.28009087182E+02  0.47838330900E+03  0.49070208860E+03  0.79559955568E+02 0.  0.
         13    1    4    4    0    0  0.72890219285E+02  0.40122231805E+02  0.46476843390E+03  0.47215725633E+03  0.00000000000E+00 0. -1.
        -14    1    4    4    0    0 -0.34376892387E+01 -0.12113144624E+02  0.13614875101E+02  0.18544832272E+02  0.00000000000E+00 0.  1.
        -11    1    3    3    0    0 -0.64854253273E+02 -0.94206471335E+01  0.94638765255E+02  0.11511437204E+03  0.00000000000E+00 0.  1.
         11    1    3    3    0    0  0.17892898930E+02  0.21133359354E+02  0.11782441590E+03  0.12103457230E+03  0.00000000000E+00 0. -1.
          2    1    1    2  501    0 -0.22491175703E+02 -0.39721799402E+02 -0.14819925094E+02  0.47992754787E+02  0.00000000000E+00 0. -1.
<scales pt_clust_5="13000.00000" pt_clust_6="13000.00000" pt_clust_7="13000.00000" pt_clust_8="13000.00000" pt_clust_9="13000.00000"></scales>
<clustering>
<clus scale="   79.560">  5  6 -1 -1</clus>
<clus scale="   45.647">  5  9 -1 -1</clus>
<clus scale="   91.012">  7  8 -1 -1</clus>
<clus scale="  103.081">  2  7  1 -1</clus>
<clus scale="  274.411">  1  5  2 -1</clus>
</clustering>
</event>
<event>
 9    1  0.4516508E-005  0.2276806E+03  0.7546771E-02  0.1135594E+00
         21   -1    0    0  501  502  0.00000000000E+00  0.00000000000E+00  0.15816906065E+03  0.15816906065E+03  0.00000000000E+00 0.  1.
         -2   -1    0    0    0  501 -0.00000000000E+00 -0.00000000000E+00 -0.29297186489E+03  0.29297186489E+03  0.00000000000E+00 0.  1.
         23    2    1    2    0    0  0.90315440247E+02  0.14033589199E+03 -0.11542418239E+03  0.22263710583E+03  0.91616033982E+02 0.  0.
        -24    2    1    2    0    0  0.73411779099E+01 -0.73877480483E+02  0.23980445803E+01  0.10838821402E+03  0.78933385235E+02 0.  0.
         13    1    4    4    0    0 -0.16789660610E+02 -0.45706177831E+02 -0.31619579804E+02  0.58058119349E+02  0.00000000000E+00 0. -1.
        -14    1    4    4    0    0  0.24130838520E+02 -0.28171302652E+02  0.34017624384E+02  0.50330094670E+02  0.00000000000E+00 0.  1.
        -11    1    3    3    0    0  0.10016703491E+03  0.95675144870E+02 -0.60469883107E+02  0.15114157268E+03  0.00000000000E+00 0.  1.
         11    1    3    3    0    0 -0.98515946606E+01  0.44660747119E+02 -0.54954299284E+02  0.71495533149E+02  0.00000000000E+00 0. -1.
         -1    1    1    2    0  502 -0.97656618157E+02 -0.66458411505E+02 -0.21776666429E+02  0.12011560569E+03  0.00000000000E+00 0.  1.
<scales pt_clust_5="13000.00000" pt_clust_6="13000.00000" pt_clust_7="13000.00000" pt_clust_8="13000.00000" pt_clust_9="13000.00000"></scales>
<clustering>
<clus scale="   78.933">  5  6 -1 -1</clus>
<clus scale="   91.616">  7  8 -1 -1</clus>
<clus scale="  118.125">  5  9 -1 -1</clus>
<clus scale="  190.380">  2  7  1 -1</clus>
<clus scale="  227.681">  1  5  2 -1</clus>
</clustering>
</event>
<event>
 9    1  0.4516508E-005  0.3543238E+03  0.7546771E-02  0.1087060E+00
         21   -1    0    0  501  502  0.00000000000E+00  0.00000000000E+00  0.24248945360E+03  0.24248945360E+03  0.00000000000E+00 0.  1.
          1   -1    0    0  502    0 -0.00000000000E+00 -0.00000000000E+00 -0.29143233784E+03  0.29143233784E+03  0.00000000000E+00 0. -1.
         23    2    1    2    0    0 -0.22151818841E+02 -0.14538691585E+03  0.14033363823E+02  0.17404489721E+03  0.92014306309E+02 0.  0.
        -24    2    1    2    0    0 -0.15357334855E+02  0.41896633611E+02  0.11700744846E+03  0.14889986672E+03  0.80555891600E+02 0.  0.
         11    1    4    4    0    0 -0.42137769798E+02  0.72952308271E+01  0.32414311690E+02  0.53660969417E+02  0.00000000000E+00 0. -1.
        -12    1    4    4    0    0  0.26780434943E+02  0.34601402784E+02  0.84593136769E+02  0.95238897300E+02  0.00000000000E+00 0.  1.
        -11    1    3    3    0    0 -0.57568604983E+02 -0.97647945756E+02  0.16513468935E+02  0.11455112503E+03  0.00000000000E+00 0.  1.
         11    1    3    3    0    0  0.35416786142E+02 -0.47738970093E+02 -0.24801051116E+01  0.59493772174E+02  0.00000000000E+00 0. -1.
          2    1    1    2  501    0  0.37509153696E+02  0.10349028224E+03 -0.17998369652E+03  0.21097702752E+03  0.00000000000E+00 0. -1.
<scales pt_clust_5="13000.00000" pt_clust_6="13000.00000" pt_clust_7="13000.00000" pt_clust_8="13000.00000" pt_clust_9="13000.00000"></scales>
<clustering>
<clus scale="   80.556">  5  6 -1 -1</clus>
<clus scale="   92.014">  7  8 -1 -1</clus>
<clus scale="  110.078">  5  9 -1 -1</clus>
<clus scale="  173.478">  2  7  1 -1</clus>
<clus scale="  354.324">  1  5  2 -1</clus>
</clustering>
</event>
<event>
 9    1  0.4516509E-005  0.2634574E+03  0.7546771E-02  0.1122322E+00
         21   -1    0    0  501  502  0.00000000000E+00  0.00000000000E+00  0.16114527792E+03  0.16114527792E+03  0.00000000000E+00 0. -1.
          1   -1    0    0  502    0 -0.00000000000E+00 -0.00000000000E+00 -0.82119747247E+03  0.82119747247E+03  0.00000000000E+00 0. -1.
         23    2    1    2    0    0 -0.12047585927E+03 -0.84064208882E+02  0.86233652182E+02  0.19091850226E+03  0.86211413720E+02 0.  0.
        -24    2    1    2    0    0 -0.22096828603E+02  0.47360151381E+02 -0.17232972793E+03  0.19888751047E+03  0.84424243680E+02 0.  0.
         11    1    4    4    0    0 -0.83340413770E+01  0.70963107451E+02 -0.13334574739E+03  0.15128221049E+03  0.00000000000E+00 0. -1.
        -12    1    4    4    0    0 -0.13762787226E+02 -0.23602956070E+02 -0.38983980541E+02  0.47605299981E+02  0.00000000000E+00 0.  1.
        -11    1    3    3    0    0 -0.10488746990E+02 -0.54361751337E+02  0.18481886928E+02  0.58367747655E+02  0.00000000000E+00 0. -1.
         11    1    3    3    0    0 -0.10998711228E+03 -0.29702457545E+02  0.67751765253E+02  0.13255075461E+03  0.00000000000E+00 0.  1.
          2    1    1    2  501    0  0.14257268788E+03  0.36704057501E+02 -0.57395611880E+03  0.59253673765E+03  0.00000000000E+00 0. -1.
<scales pt_clust_5="13000.00000" pt_clust_6="13000.00000" pt_clust_7="13000.00000" pt_clust_8="13000.00000" pt_clust_9="13000.00000"></scales>
<clustering>
<clus scale="   84.424">  5  6 -1 -1</clus>
<clus scale="   86.211">  7  8 -1 -1</clus>
<clus scale="  147.222">  5  9 -1 -1</clus>
<clus scale="  170.334">  2  7  1 -1</clus>
<clus scale="  263.457">  1  5  2 -1</clus>
</clustering>
</event>
<event>
 9    1  0.4516508E-005  0.3138121E+03  0.7546771E-02  0.1099658E+00
          3   -1    0    0  502    0 -0.00000000000E+00  0.00000000000E+00  0.59219964645E+03  0.59219964645E+03  0.00000000000E+00 0. -1.
         21   -1    0    0  501  502  0.00000000000E+00 -0.00000000000E+00 -0.16882771905E+03  0.16882771905E+03  0.00000000000E+00 0. -1.
         23    2    1    2    0    0  0.52258995484E+02 -0.14501893789E+03 -0.56160887254E+02  0.18793945022E+03  0.91682586878E+02 0.  0.
        -24    2    1    2    0    0 -0.12043236232E+02  0.28241280794E+02  0.72510575867E+01  0.84923612462E+02  0.78846893646E+02 0.  0.
         13    1    4    4    0    0 -0.18636268683E+02  0.52669592854E+02 -0.62955992389E+01  0.56223047691E+02  0.00000000000E+00 0. -1.
        -14    1    4    4    0    0  0.65930324507E+01 -0.24428312060E+02  0.13546656826E+02  0.28700564771E+02  0.00000000000E+00 0.  1.
        -13    1    3    3    0    0  0.62933440413E+02 -0.49850794441E+02 -0.43583042177E+02  0.91352072741E+02  0.00000000000E+00 0. -1.
         13    1    3    3    0    0 -0.10674444929E+02 -0.95168143445E+02 -0.12577845076E+02  0.96587377478E+02  0.00000000000E+00 0.  1.
          4    1    1    2  501    0 -0.40215759252E+02  0.11677765709E+03  0.47228175707E+03  0.48816430282E+03  0.00000000000E+00 0. -1.
<scales pt_clust_5="13000.00000" pt_clust_6="13000.00000" pt_clust_7="13000.00000" pt_clust_8="13000.00000" pt_clust_9="13000.00000"></scales>
<clustering>
<clus scale="   78.847">  5  6 -1 -1</clus>
<clus scale="   91.683">  7  8 -1 -1</clus>
<clus scale="  123.508">  5  9 -1 -1</clus>
<clus scale="  179.352">  1  7  2 -1</clus>
<clus scale="  313.812">  2  5  1 -1</clus>
</clustering>
</event>
<event>
 9    1  0.4516508E-005  0.2258661E+03  0.7546771E-02  0.1165723E+00
         21   -1    0    0  501  502  0.00000000000E+00  0.00000000000E+00  0.39666360523E+02  0.39666360523E+02  0.00000000000E+00 0. -1.
          1   -1    0    0  502    0 -0.00000000000E+00 -0.00000000000E+00 -0.68585508894E+03  0.68585508894E+03  0.00000000000E+00 0. -1.
         23    2    1    2    0    0 -0.15432250397E+02  0.26176286289E+02 -0.27367790529E+03  0.28988422929E+03  0.90608599092E+02 0.  0.
        -24    2    1    2    0    0 -0.14125897923E+02  0.80035662769E+02 -0.21136454497E+03  0.24038664983E+03  0.80656817697E+02 0.  0.
         13    1    4    4    0    0  0.33831837160E+02  0.34994663167E+02 -0.92837562565E+02  0.10482381733E+03  0.00000000000E+00 0. -1.
        -14    1    4    4    0    0 -0.47957735084E+02  0.45040999602E+02 -0.11852698241E+03  0.13556283251E+03  0.00000000000E+00 0.  1.
        -11    1    3    3    0    0  0.25546330978E+02  0.42857776123E+02 -0.16974751664E+03  0.17692830019E+03  0.00000000000E+00 0.  1.
         11    1    3    3    0    0 -0.40978581376E+02 -0.16681489834E+02 -0.10393038865E+03  0.11295592910E+03  0.00000000000E+00 0. -1.
          2    1    1    2  501    0  0.29558148321E+02 -0.10621194906E+03 -0.16114627815E+03  0.19525057034E+03  0.00000000000E+00 0. -1.
<scales pt_clust_5="13000.00000" pt_clust_6="13000.00000" pt_clust_7="13000.00000" pt_clust_8="13000.00000" pt_clust_9="13000.00000"></scales>
<clustering>
<clus scale="   80.657">  5  6 -1 -1</clus>
<clus scale="   90.609">  7  8 -1 -1</clus>
<clus scale="   95.568">  2  7  1 -1</clus>
<clus scale="   97.364">  5  9 -1 -1</clus>
<clus scale="  225.866">  1  5  2 -1</clus>
</clustering>
</event>
<event>
 9    1  0.4516508E-005  0.1879741E+03  0.7546771E-02  0.1182596E+00
          1   -1    0    0  502    0 -0.00000000000E+00  0.00000000000E+00  0.31626322427E+03  0.31626322427E+03  0.00000000000E+00 0. -1.
         21   -1    0    0  501  502  0.00000000000E+00 -0.00000000000E+00 -0.83512418097E+02  0.83512418097E+02  0.00000000000E+00 0. -1.
         23    2    1    2    0    0  0.16069320253E+02 -0.64428982802E+02  0.18115430733E+02  0.11446419870E+03  0.91458007171E+02 0.  0.
        -24    2    1    2    0    0  0.58295113460E+02  0.50266526171E+02  0.11343069478E+03  0.15892698431E+03  0.80412809405E+02 0.  0.
         13    1    4    4    0    0  0.78604982734E+02  0.41515669582E+02  0.85932804569E+02  0.12363956095E+03  0.00000000000E+00 0. -1.
        -14    1    4    4    0    0 -0.20309869274E+02  0.87508565887E+01  0.27497890215E+02  0.35287423358E+02  0.00000000000E+00 0.  1.
        -11    1    3    3    0    0  0.21735504539E+02 -0.87039059702E+02  0.14506793147E+02  0.90877264036E+02  0.00000000000E+00 0. -1.
         11    1    3    3    0    0 -0.56661842852E+01  0.22610076899E+02  0.36086375861E+01  0.23586934667E+02  0.00000000000E+00 0.  1.
          2    1    1    2  501    0 -0.74364433713E+02  0.14162456632E+02  0.10120468066E+03  0.12638445935E+03  0.00000000000E+00 0. -1.
<scales pt_clust_5="13000.00000" pt_clust_6="13000.00000" pt_clust_7="13000.00000" pt_clust_8="13000.00000" pt_clust_9="13000.00000"></scales>
<clustering>
<clus scale="   80.413">  5  6 -1 -1</clus>
<clus scale="   75.701">  5  9 -1 -1</clus>
<clus scale="   91.458">  7  8 -1 -1</clus>
<clus scale="  113.022">  1  7  2 -1</clus>
<clus scale="  187.974">  2  5  1 -1</clus>
</clustering>
</event>
<event>
 9    1  0.4516508E-005  0.3109472E+03  0.7546771E-02  0.1122663E+00
          1   -1    0    0  502    0 -0.00000000000E+00  0.00000000000E+00  0.44714815470E+03  0.44714815470E+03  0.00000000000E+00 0. -1.
         21   -1    0    0  501  502  0.00000000000E+00 -0.00000000000E+00 -0.16312899885E+03  0.16312899885E+03  0.00000000000E+00 0. -1.
         23    2    1    2    0    0  0.35926955829E+02  0.30162033345E+02  0.28113654764E+03  0.29931662787E+03  0.91390321657E+02 0.  0.
        -24    2    1    2    0    0 -0.79717582628E+02  0.16669782667E+02 -0.12411390723E+03  0.16869685174E+03  0.80134831280E+02 0.  0.
         13    1    4    4    0    0 -0.63499344241E+02 -0.25854987043E+02 -0.79216174617E+02  0.10476568806E+03  0.00000000000E+00 0. -1.
        -14    1    4    4    0    0 -0.16218238386E+02  0.42524769710E+02 -0.44897732613E+02  0.63931163677E+02  0.00000000000E+00 0.  1.
        -13    1    3    3    0    0  0.20689681219E+02 -0.23926320893E+02  0.36453228274E+02  0.48263543094E+02  0.00000000000E+00 0.  1.
         13    1    3    3    0    0  0.15237274610E+02  0.54088354238E+02  0.24468331937E+03  0.25105308478E+03  0.00000000000E+00 0. -1.
          2    1    1    2  501    0  0.43790626799E+02 -0.46831816012E+02  0.12699651544E+03  0.14226367393E+03  0.00000000000E+00 0. -1.
<scales pt_clust_5="13000.00000" pt_clust_6="13000.00000" pt_clust_7="13000.00000" pt_clust_8="13000.00000" pt_clust_9="13000.00000"></scales>
<clustering>
<clus scale="   80.135">  5  6 -1 -1</clus>
<clus scale="   64.116">  5  9 -1 -1</clus>
<clus scale="   91.390">  7  8 -1 -1</clus>
<clus scale="  102.726">  1  7  2 -1</clus>
<clus scale="  310.947">  2  5  1 -1</clus>
</clustering>
</event>
<event>
 9    1  0.4516508E-005  0.1284434E+03  0.7546771E-02  0.1241466E+00
         -2   -1    0    0    0  501 -0.00000000000E+00  0.00000000000E+00  0.34566744491E+03  0.34566744491E+03  0.00000000000E+00 0.  1.
         21   -1    0    0  501  502  0.00000000000E+00 -0.00000000000E+00 -0.50391518056E+02  0.50391518056E+02  0.00000000000E+00 0. -1.
         23    2    1    2    0    0 -0.10872564943E+02  0.41221885469E+02  0.37157696590E+02  0.10774883399E+03  0.91715103994E+02 0.  0.
        -24    2    1    2    0    0  0.26901345246E+02 -0.84252745668E+01  0.13388467233E+03  0.15882454521E+03  0.80656450767E+02 0.  0.
         13    1    4    4    0    0  0.51070498160E+02 -0.24067381168E+02  0.93632856314E+02  0.10933684832E+03  0.00000000000E+00 0. -1.
        -14    1    4    4    0    0 -0.24169152915E+02  0.15642106601E+02  0.40251816016E+02  0.49487696896E+02  0.00000000000E+00 0.  1.
        -13    1    3    3    0    0  0.35850744495E+02  0.32580240661E+02  0.35760359477E+02  0.60212550788E+02  0.00000000000E+00 0.  1.
         13    1    3    3    0    0 -0.46723309438E+02  0.86416448079E+01  0.13973371122E+01  0.47536283204E+02  0.00000000000E+00 0. -1.
         -1    1    1    2    0  502 -0.16028780302E+02 -0.32796610903E+02  0.12423355793E+03  0.12948558376E+03  0.00000000000E+00 0.  1.
<scales pt_clust_5="13000.00000" pt_clust_6="13000.00000" pt_clust_7="13000.00000" pt_clust_8="13000.00000" pt_clust_9="13000.00000"></scales>
<clustering>
<clus scale="   80.656">  5  6 -1 -1</clus>
<clus scale="   36.504">  5  9 -1 -1</clus>
<clus scale="   91.715">  7  8 -1 -1</clus>
<clus scale="  101.139">  1  7  2 -1</clus>
<clus scale="  128.443">  2  5  1 -1</clus>
</clustering>
</event>
<event>
 9    1  0.4516508E-005  0.1516490E+03  0.7546771E-02  0.1218594E+00
         21   -1    0    0  501  502  0.00000000000E+00  0.00000000000E+00  0.10666626862E+03  0.10666626862E+03  0.00000000000E+00 0.  1.
          3   -1    0    0  502    0 -0.00000000000E+00 -0.00000000000E+00 -0.14860924866E+03  0.14860924866E+03  0.00000000000E+00 0. -1.
         23    2    1    2    0    0  0.69571376790E+01  0.33536887134E+02 -0.30650114452E+02  0.10320658928E+03  0.92406958565E+02 0.  0.
        -24    2    1    2    0    0 -0.42037749650E+02 -0.41027828544E+02  0.24401531099E+02  0.10146405181E+03  0.79051021363E+02 0.  0.
         13    1    4    4    0    0  0.14276296697E+02 -0.37780373466E+02  0.10147456758E+01  0.40400482366E+02  0.00000000000E+00 0. -1.
        -14    1    4    4    0    0 -0.56314046347E+02 -0.32474550774E+01  0.23386785423E+02  0.61063569441E+02  0.00000000000E+00 0.  1.
        -13    1    3    3    0    0 -0.51570907905E+00 -0.31844111824E+02 -0.16607610465E+02  0.35918325951E+02  0.00000000000E+00 0. -1.
         13    1    3    3    0    0  0.74728467580E+01  0.65380998958E+02 -0.14042503987E+02  0.67288263327E+02  0.00000000000E+00 0.  1.
          4    1    1    2  501    0  0.35080611971E+02  0.74909414103E+01 -0.35694396685E+02  0.50604876190E+02  0.00000000000E+00 0. -1.
<scales pt_clust_5="13000.00000" pt_clust_6="13000.00000" pt_clust_7="13000.00000" pt_clust_8="13000.00000" pt_clust_9="13000.00000"></scales>
<clustering>
<clus scale="   79.051">  5  6 -1 -1</clus>
<clus scale="   35.872">  5  9 -1 -1</clus>
<clus scale="   92.407">  7  8 -1 -1</clus>
<clus scale="   98.550">  2  7  1 -1</clus>
<clus scale="  151.649">  1  5  2 -1</clus>
</clustering>
</event>
<event>
 9    1  0.4516508E-005  0.1826665E+03  0.7546771E-02  0.1196817E+00
          1   -1    0    0  502    0 -0.00000000000E+00  0.00000000000E+00  0.46209779354E+03  0.46209779354E+03  0.00000000000E+00 0. -1.
         21   -1    0    0  501  502  0.00000000000E+00 -0.00000000000E+00 -0.61797924046E+02  0.61797924046E+02  0.00000000000E+00 0. -1.
         23    2    1    2    0    0  0.14316474641E+02 -0.18095006918E+02  0.30475710090E+03  0.31775145812E+03  0.86929326852E+02 0.  0.
        -24    2    1    2    0    0 -0.28831929763E+02 -0.56028513062E+02  0.29596084063E+02  0.10587482318E+03  0.79768888313E+02 0.  0.
         13    1    4    4    0    0 -0.11864950296E+02 -0.46486507122E+02 -0.20467256885E+02  0.52160147568E+02  0.00000000000E+00 0. -1.
        -14    1    4    4    0    0 -0.16966979467E+02 -0.95420059404E+01  0.50063340949E+02  0.53714675616E+02  0.00000000000E+00 0.  1.
        -11    1    3    3    0    0  0.13428020518E+02 -0.51214531356E+02  0.13957996689E+03  0.14928431637E+03  0.00000000000E+00 0. -1.
         11    1    3    3    0    0  0.88845412277E+00  0.33119524438E+02  0.16517713401E+03  0.16846714175E+03  0.00000000000E+00 0.  1.
          2    1    1    2  501    0  0.14515455122E+02  0.74123519980E+02  0.65946684534E+02  0.10026943628E+03  0.00000000000E+00 0. -1.
<scales pt_clust_5="13000.00000" pt_clust_6="13000.00000" pt_clust_7="13000.00000" pt_clust_8="13000.00000" pt_clust_9="13000.00000"></scales>
<clustering>
<clus scale="   79.769">  5  6 -1 -1</clus>
<clus scale="   75.531">  5  9 -1 -1</clus>
<clus scale="   86.929">  7  8 -1 -1</clus>
<clus scale="   89.939">  1  7  2 -1</clus>
<clus scale="  182.666">  2  5  1 -1</clus>
</clustering>
</event>
<event>
 9    1  0.4516508E-005  0.3335367E+03  0.7546771E-02  0.1086468E+00
         -2   -1    0    0    0  501 -0.00000000000E+00  0.00000000000E+00  0.21475109183E+03  0.21475109183E+03  0.00000000000E+00 0.  1.
         21   -1    0    0  501  502  0.00000000000E+00 -0.00000000000E+00 -0.38829161615E+03  0.38829161615E+03  0.00000000000E+00 0.  1.
         23    2    1    2    0    0 -0.36303334306E+02  0.18665372530E+03  0.28334278118E+02  0.21317069857E+03  0.92094354673E+02 0.  0.
        -24    2    1    2    0    0 -0.74706628587E+02 -0.79698185331E+02 -0.10935509251E+01  0.13674000758E+03  0.82242037424E+02 0.  0.
         13    1    4    4    0    0  0.17511265098E+02 -0.10874394112E+02  0.59533589603E+01  0.21455519932E+02  0.00000000000E+00 0. -1.
        -14    1    4    4    0    0 -0.92217893685E+02 -0.68823791219E+02 -0.70469098854E+01  0.11528448765E+03  0.00000000000E+00 0.  1.
        -13    1    3    3    0    0 -0.26908140453E+02  0.57103939951E+01 -0.74177326950E+01  0.28489987373E+02  0.00000000000E+00 0. -1.
         13    1    3    3    0    0 -0.93951938533E+01  0.18094333130E+03  0.35752010813E+02  0.18468071120E+03  0.00000000000E+00 0.  1.
         -1    1    1    2    0  502  0.11100996289E+03 -0.10695553997E+03 -0.20078125152E+03  0.25313200183E+03  0.00000000000E+00 0.  1.
<scales pt_clust_5="13000.00000" pt_clust_6="13000.00000" pt_clust_7="13000.00000" pt_clust_8="13000.00000" pt_clust_9="13000.00000"></scales>
<clustering>
<clus scale="   82.242">  5  6 -1 -1</clus>
<clus scale="   92.094">  7  8 -1 -1</clus>
<clus scale="  154.152">  5  9 -1 -1</clus>
<clus scale="  211.279">  1  7  2 -1</clus>
<clus scale="  333.537">  2  5  1 -1</clus>
</clustering>
</event>
<event>
 9    1  0.4516508E-005  0.3757306E+03  0.7546771E-02  0.1095846E+00
          1   -1    0    0  502    0 -0.00000000000E+00  0.00000000000E+00  0.77092450880E+02  0.77092450880E+02  0.00000000000E+00 0. -1.
         21   -1    0    0  501  502  0.00000000000E+00 -0.00000000000E+00 -0.78410895755E+03  0.78410895755E+03  0.00000000000E+00 0. -1.
         23    2    1    2    0    0 -0.39529033220E+02  0.58648580683E+02 -0.18450030615E+03  0.21762027979E+03  0.91192229510E+02 0.  0.
        -24    2    1    2    0    0  0.15021532364E+03 -0.14949430080E+03 -0.26289746740E+03  0.34709118558E+03  0.80274674184E+02 0.  0.
         13    1    4    4    0    0  0.15627647070E+03 -0.14863030361E+03 -0.26397412901E+03  0.34087482047E+03  0.00000000000E+00 0. -1.
        -14    1    4    4    0    0 -0.60611470690E+01 -0.86399719460E+00  0.10766616083E+01  0.62163651086E+01  0.00000000000E+00 0.  1.
        -13    1    3    3    0    0 -0.34068041156E+02 -0.17129825102E+02 -0.46969178051E+02  0.60499305972E+02  0.00000000000E+00 0. -1.
         13    1    3    3    0    0 -0.54609920642E+01  0.75778405785E+02 -0.13753112809E+03  0.15712097382E+03  0.00000000000E+00 0.  1.
          2    1    1    2  501    0 -0.11068629041E+03  0.90845720117E+02 -0.25961873313E+03  0.29648994307E+03  0.00000000000E+00 0. -1.
<scales pt_clust_5="13000.00000" pt_clust_6="13000.00000" pt_clust_7="13000.00000" pt_clust_8="13000.00000" pt_clust_9="13000.00000"></scales>
<clustering>
<clus scale="   80.275">  5  6 -1 -1</clus>
<clus scale="   91.192">  7  8 -1 -1</clus>
<clus scale="  115.405">  1  7  2 -1</clus>
<clus scale="  163.948">  5  9 -1 -1</clus>
<clus scale="  375.731">  2  5  1 -1</clus>
</clustering>
</event>
<event>
 9    1  0.4516508E-005  0.7445004E+03  0.7546771E-02  0.1005172E+00
          1   -1    0    0  502    0 -0.00000000000E+00  0.00000000000E+00  0.83730630150E+03  0.83730630150E+03  0.00000000000E+00 0. -1.
         21   -1    0    0  501  502  0.00000000000E+00 -0.00000000000E+00 -0.26517960311E+03  0.26517960311E+03  0.00000000000E+00 0. -1.
         23    2    1    2    0    0 -0.33440270949E+01 -0.17421055155E+03  0.13121168947E+03  0.23721891834E+03  0.93251321587E+02 0.  0.
        -24    2    1    2    0    0 -0.31807759420E+03  0.14201266998E+03  0.40486955359E+03  0.54023185421E+03  0.81179717416E+02 0.  0.
         13    1    4    4    0    0 -0.98030121042E+02  0.82510920793E+02  0.12174864156E+03  0.17675035616E+03  0.00000000000E+00 0. -1.
        -14    1    4    4    0    0 -0.22004747316E+03  0.59501749185E+02  0.28312091203E+03  0.36348149805E+03  0.00000000000E+00 0.  1.
        -13    1    3    3    0    0 -0.10156265992E+02 -0.15270214039E+03  0.14496303421E+03  0.21079699881E+03  0.00000000000E+00 0. -1.
         13    1    3    3    0    0  0.68122388973E+01 -0.21508411157E+02 -0.13751344747E+02  0.26421919530E+02  0.00000000000E+00 0.  1.
          2    1    1    2  501    0  0.32142162129E+03  0.32197881574E+02  0.36045455333E+02  0.32503513204E+03  0.00000000000E+00 0. -1.
<scales pt_clust_5="13000.00000" pt_clust_6="13000.00000" pt_clust_7="13000.00000" pt_clust_8="13000.00000" pt_clust_9="13000.00000"></scales>
<clustering>
<clus scale="   81.180">  5  6 -1 -1</clus>
<clus scale="   93.251">  7  8 -1 -1</clus>
<clus scale="  197.627">  1  7  2 -1</clus>
<clus scale="  320.895">  5  9 -1 -1</clus>
<clus scale="  744.500">  2  5  1 -1</clus>
</clustering>
</event>
<event>
 9    1  0.4516508E-005  0.1144830E+03  0.7546771E-02  0.1256930E+00
         21   -1    0    0  501  502  0.00000000000E+00  0.00000000000E+00  0.59833046384E+02  0.59833046384E+02  0.00000000000E+00 0. -1.
          1   -1    0    0  502    0 -0.00000000000E+00 -0.00000000000E+00 -0.20264042074E+03  0.20264042074E+03  0.00000000000E+00 0. -1.
         23    2    1    2    0    0  0.40468388460E+02 -0.32206217797E+02 -0.80208760762E+02  0.13199384177E+03  0.91181127615E+02 0.  0.
        -24    2    1    2    0    0 -0.16342814273E+02  0.11235468970E+02 -0.37187037442E+02  0.89643809716E+02  0.79118983344E+02 0.  0.
         11    1    4    4    0    0  0.10686993611E+02  0.31067449369E+02  0.75780088720E+01  0.33716827567E+02  0.00000000000E+00 0. -1.
        -12    1    4    4    0    0 -0.27029807884E+02 -0.19831980399E+02 -0.44765046314E+02  0.55926982149E+02  0.00000000000E+00 0.  1.
        -11    1    3    3    0    0 -0.26281247836E+02  0.49616675186E+01 -0.31784788366E+02  0.41540280498E+02  0.00000000000E+00 0.  1.
         11    1    3    3    0    0  0.66749636295E+02 -0.37167885315E+02 -0.48423972396E+02  0.90453561273E+02  0.00000000000E+00 0. -1.
          2    1    1    2  501    0 -0.24125574186E+02  0.20970748827E+02 -0.25411576152E+02  0.40835815636E+02  0.00000000000E+00 0. -1.
<scales pt_clust_5="13000.00000" pt_clust_6="13000.00000" pt_clust_7="13000.00000" pt_clust_8="13000.00000" pt_clust_9="13000.00000"></scales>
<clustering>
<clus scale="   79.119">  5  6 -1 -1</clus>
<clus scale="   31.966">  5  9 -1 -1</clus>
<clus scale="   91.181">  7  8 -1 -1</clus>
<clus scale="  104.828">  2  7  1 -1</clus>
<clus scale="  114.483">  1  5  2 -1</clus>
</clustering>
</event>
<event>
 9    1  0.4516508E-005  0.3733346E+03  0.7546771E-02  0.1071582E+00
         21   -1    0    0  501  502  0.00000000000E+00  0.00000000000E+00  0.21306504515E+03  0.21306504515E+03  0.00000000000E+00 0. -1.
          1   -1    0    0  502    0 -0.00000000000E+00 -0.00000000000E+00 -0.42043984900E+03  0.42043984900E+03  0.00000000000E+00 0. -1.
         23    2    1    2    0    0 -0.57986070643E+02  0.19916564735E+03 -0.71867534502E+02  0.23633876187E+03  0.87531299391E+02 0.  0.
        -24    2    1    2    0    0  0.29978741335E+02  0.63004435752E+02 -0.68075705277E+02  0.12501804979E+03  0.78274691103E+02 0.  0.
         11    1    4    4    0    0  0.50150962058E+02  0.14315187072E+02 -0.33532191660E+02  0.62003640650E+02  0.00000000000E+00 0. -1.
        -12    1    4    4    0    0 -0.20172220723E+02  0.48689248680E+02 -0.34543513616E+02  0.63014409137E+02  0.00000000000E+00 0.  1.
        -11    1    3    3    0    0  0.18038555657E+02  0.17443427713E+02  0.36859861456E+01  0.25362357036E+02  0.00000000000E+00 0.  1.
         11    1    3    3    0    0 -0.76024626299E+02  0.18172221964E+03 -0.75553520648E+02  0.21097640484E+03  0.00000000000E+00 0. -1.
          2    1    1    2  501    0  0.28007329308E+02 -0.26217008311E+03 -0.67431564069E+02  0.27214808249E+03  0.00000000000E+00 0. -1.
<scales pt_clust_5="13000.00000" pt_clust_6="13000.00000" pt_clust_7="13000.00000" pt_clust_8="13000.00000" pt_clust_9="13000.00000"></scales>
<clustering>
<clus scale="   78.275">  5  6 -1 -1</clus>
<clus scale="   87.531">  7  8 -1 -1</clus>
<clus scale="  225.147">  2  7  1 -1</clus>
<clus scale="  135.498">  5  9 -1 -1</clus>
<clus scale="  373.335">  1  5  2 -1</clus>
</clustering>
</event>
<event>
 9    1  0.4516508E-005  0.2599286E+03  0.7546771E-02  0.1128820E+00
          1   -1    0    0  502    0 -0.00000000000E+00  0.00000000000E+00  0.23740465523E+03  0.23740465523E+03  0.00000000000E+00 0. -1.
         21   -1    0    0  501  502  0.00000000000E+00 -0.00000000000E+00 -0.17790482018E+03  0.17790482018E+03  0.00000000000E+00 0. -1.
         23    2    1    2    0    0 -0.44140848420E+02 -0.10827178090E+03  0.17679548267E+02  0.15203812781E+03  0.95560623916E+02 0.  0.
        -24    2    1    2    0    0 -0.14383302200E+02  0.29045499445E+02 -0.72067570863E+02  0.11269802991E+03  0.80352913801E+02 0.  0.
         11    1    4    4    0    0  0.53418488108E+01  0.53025081724E+02 -0.57504214311E+02  0.78402355220E+02  0.00000000000E+00 0. -1.
        -12    1    4    4    0    0 -0.19725151010E+02 -0.23979582279E+02 -0.14563356553E+02  0.34295674695E+02  0.00000000000E+00 0.  1.
        -11    1    3    3    0    0  0.40836963532E+01 -0.10225240046E+03  0.97595174439E+01  0.10279824004E+03  0.00000000000E+00 0. -1.
         11    1    3    3    0    0 -0.48224544773E+02 -0.60193804456E+01  0.79200308232E+01  0.49239887772E+02  0.00000000000E+00 0.  1.
          2    1    1    2  501    0  0.58524150620E+02  0.79226281456E+02  0.11388785764E+03  0.15057331768E+03  0.00000000000E+00 0. -1.
<scales pt_clust_5="13000.00000" pt_clust_6="13000.00000" pt_clust_7="13000.00000" pt_clust_8="13000.00000" pt_clust_9="13000.00000"></scales>
<clustering>
<clus scale="   80.353">  5  6 -1 -1</clus>
<clus scale="   95.561">  7  8 -1 -1</clus>
<clus scale="   98.498">  5  9 -1 -1</clus>
<clus scale="  151.007">  1  7  2 -1</clus>
<clus scale="  259.929">  2  5  1 -1</clus>
</clustering>
</event>
<event>
 9    1  0.4516508E-005  0.3122271E+03  0.7546771E-02  0.1120873E+00
          3   -1    0    0  502    0 -0.00000000000E+00  0.00000000000E+00  0.18273615905E+03  0.18273615905E+03  0.00000000000E+00 0. -1.
         21   -1    0    0  501  502  0.00000000000E+00 -0.00000000000E+00 -0.29793388744E+03  0.29793388744E+03  0.00000000000E+00 0. -1.
         23    2    1    2    0    0  0.39271518686E+02 -0.34307167777E+02  0.60771387597E+02  0.12226960515E+03  0.92398381217E+02 0.  0.
        -24    2    1    2    0    0  0.11526266531E+03 -0.18944834867E+02 -0.11942995367E+03  0.18544591933E+03  0.80512647321E+02 0.  0.
         13    1    4    4    0    0  0.62724487684E+02 -0.27712980645E+02 -0.11247249651E+03  0.13172863441E+03  0.00000000000E+00 0. -1.
        -14    1    4    4    0    0  0.52538177629E+02  0.87681457784E+01 -0.69574571557E+01  0.53717284918E+02  0.00000000000E+00 0.  1.
        -13    1    3    3    0    0  0.90511184663E+01  0.22717277374E+02 -0.10063289809E+02  0.26443661595E+02  0.00000000000E+00 0.  1.
         13    1    3    3    0    0  0.30220400220E+02 -0.57024445151E+02  0.70834677406E+02  0.95825943551E+02  0.00000000000E+00 0. -1.
          4    1    1    2  501    0 -0.15453418400E+03  0.53252002643E+02 -0.56539162330E+02  0.17295452202E+03  0.00000000000E+00 0. -1.
<scales pt_clust_5="13000.00000" pt_clust_6="13000.00000" pt_clust_7="13000.00000" pt_clust_8="13000.00000" pt_clust_9="13000.00000"></scales>
<clustering>
<clus scale="   80.513">  5  6 -1 -1</clus>
<clus scale="   92.398">  7  8 -1 -1</clus>
<clus scale="  106.098">  1  7  2 -1</clus>
<clus scale="  133.217">  5  9 -1 -1</clus>
<clus scale="  312.227">  2  5  1 -1</clus>
</clustering>
</event>
<event>
 9    1  0.4516508E-005  0.1972222E+03  0.7546771E-02  0.1175080E+00
         21   -1    0    0  501  502  0.00000000000E+00  0.00000000000E+00  0.90860890148E+02  0.90860890148E+02  0.00000000000E+00 0. -1.
          1   -1    0    0  502    0 -0.00000000000E+00 -0.00000000000E+00 -0.32173921404E+03  0.32173921404E+03  0.00000000000E+00 0. -1.
         23    2    1    2    0    0 -0.49744476642E+02 -0.44273347125E+02 -0.17082825224E+03  0.20643852862E+03  0.94867972020E+02 0.  0.
        -24    2    1    2    0    0 -0.41215796646E+02 -0.53093282229E+01 -0.14841426473E+02  0.93130453257E+02  0.82012697339E+02 0.  0.
         13    1    4    4    0    0 -0.44998957381E+02  0.21305013402E+02 -0.33851725119E+02  0.60205888873E+02  0.00000000000E+00 0. -1.
        -14    1    4    4    0    0  0.37831607354E+01 -0.26614341625E+02  0.19010298646E+02  0.32924564384E+02  0.00000000000E+00 0.  1.
        -13    1    3    3    0    0 -0.40219747239E+02 -0.67024653271E+02 -0.78141277847E+02  0.11052597666E+03  0.00000000000E+00 0. -1.
         13    1    3    3    0    0 -0.95247294030E+01  0.22751306146E+02 -0.92686974388E+02  0.95912551956E+02  0.00000000000E+00 0.  1.
          2    1    1    2  501    0  0.90960273288E+02  0.49582675348E+02 -0.45208645184E+02  0.11303112231E+03  0.00000000000E+00 0. -1.
<scales pt_clust_5="13000.00000" pt_clust_6="13000.00000" pt_clust_7="13000.00000" pt_clust_8="13000.00000" pt_clust_9="13000.00000"></scales>
<clustering>
<clus scale="   82.013">  5  6 -1 -1</clus>
<clus scale="   94.868">  7  8 -1 -1</clus>
<clus scale="  103.596">  5  9 -1 -1</clus>
<clus scale="  115.908">  2  7  1 -1</clus>
<clus scale="  197.222">  1  5  2 -1</clus>
</clustering>
</event>
<event>
 9    1  0.4516508E-005  0.4588540E+03  0.7546771E-02  0.1049371E+00
         21   -1    0    0  501  502  0.00000000000E+00  0.00000000000E+00  0.14133674118E+03  0.14133674118E+03  0.00000000000E+00 0. -1.
          1   -1    0    0  502    0 -0.00000000000E+00 -0.00000000000E+00 -0.95796584126E+03  0.95796584126E+03  0.00000000000E+00 0. -1.
         23    2    1    2    0    0  0.16352120864E+03  0.12701082174E+03 -0.96552323099E+02  0.24545388586E+03  0.89745888343E+02 0.  0.
        -24    2    1    2    0    0  0.25038951311E+02  0.98266931346E+02 -0.88283504411E+02  0.15709354646E+03  0.81246946463E+02 0.  0.
         11    1    4    4    0    0 -0.92254705954E+01  0.64092729198E+02 -0.10666496096E+02  0.65625920052E+02  0.00000000000E+00 0. -1.
        -12    1    4    4    0    0  0.34264421906E+02  0.34174202148E+02 -0.77617008314E+02  0.91467626408E+02  0.00000000000E+00 0.  1.
        -13    1    3    3    0    0  0.14552869043E+03  0.10302058442E+03 -0.41968938923E+02  0.18317541425E+03  0.00000000000E+00 0.  1.
         13    1    3    3    0    0  0.17992518215E+02  0.23990237325E+02 -0.54583384175E+02  0.62278471615E+02  0.00000000000E+00 0. -1.
          2    1    1    2  501    0 -0.18856015995E+03 -0.22527775309E+03 -0.63179327256E+03  0.69675515012E+03  0.00000000000E+00 0. -1.
<scales pt_clust_5="13000.00000" pt_clust_6="13000.00000" pt_clust_7="13000.00000" pt_clust_8="13000.00000" pt_clust_9="13000.00000"></scales>
<clustering>
<clus scale="   81.247">  5  6 -1 -1</clus>
<clus scale="   89.746">  7  8 -1 -1</clus>
<clus scale="  225.666">  2  7  1 -1</clus>
<clus scale="  128.427">  5  9 -1 -1</clus>
<clus scale="  458.854">  1  5  2 -1</clus>
</clustering>
</event>
<event>
 9    1  0.4516508E-005  0.2280076E+03  0.7546771E-02  0.1139250E+00
         21   -1    0    0  501  502  0.00000000000E+00  0.00000000000E+00  0.42809561300E+03  0.42809561300E+03  0.00000000000E+00 0. -1.
          1   -1    0    0  502    0 -0.00000000000E+00 -0.00000000000E+00 -0.41469447957E+03  0.41469447957E+03  0.00000000000E+00 0. -1.
         23    2    1    2    0    0 -0.27222347107E+02  0.14560570135E+03 -0.36322104536E+03  0.40252682897E+03  0.90311925036E+02 0.  0.
        -24    2    1    2    0    0  0.29496387254E+02 -0.13778525487E+02  0.94048464641E+02  0.12844363708E+03  0.81195871688E+02 0.  0.
         13    1    4    4    0    0  0.81336263501E+01  0.25425179798E+02  0.27781337646E+01  0.26838660037E+02  0.00000000000E+00 0. -1.
        -14    1    4    4    0    0  0.21362760904E+02 -0.39203705285E+02  0.91270330877E+02  0.10160497704E+03  0.00000000000E+00 0.  1.
        -13    1    3    3    0    0  0.30050575699E+02  0.23102567634E+02 -0.69301659346E+02  0.78990415364E+02  0.00000000000E+00 0.  1.
         13    1    3    3    0    0 -0.57272922807E+02  0.12250313372E+03 -0.29391938601E+03  0.32353641361E+03  0.00000000000E+00 0. -1.
          2    1    1    2  501    0 -0.22740401464E+01 -0.13182717587E+03  0.28257371415E+03  0.31181962652E+03  0.00000000000E+00 0. -1.
<scales pt_clust_5="13000.00000" pt_clust_6="13000.00000" pt_clust_7="13000.00000" pt_clust_8="13000.00000" pt_clust_9="13000.00000"></scales>
<clustering>
<clus scale="   81.196">  5  6 -1 -1</clus>
<clus scale="   90.312">  7  8 -1 -1</clus>
<clus scale="  131.847">  5  9 -1 -1</clus>
<clus scale="  173.489">  2  7  1 -1</clus>
<clus scale="  228.008">  1  5  2 -1</clus>
</clustering>
</event>
<event>
 9    1  0.4516508E-005  0.2933907E+03  0.7546771E-02  0.1131101E+00
         21   -1    0    0  501  502  0.00000000000E+00  0.00000000000E+00  0.74373392811E+03  0.74373392811E+03  0.00000000000E+00 0.  1.
         -2   -1    0    0    0  501 -0.00000000000E+00 -0.00000000000E+00 -0.52244290066E+02  0.52244290066E+02  0.00000000000E+00 0.  1.
         23    2    1    2    0    0 -0.11075826152E+02  0.37142057127E+02  0.20697765162E+03  0.22955968938E+03  0.91409498332E+02 0.  0.
        -24    2    1    2    0    0  0.12637955174E+03  0.15907681552E+02  0.34615774692E+03  0.37866571391E+03  0.85660327513E+02 0.  0.
         11    1    4    4    0    0  0.81942846943E+02  0.45443029125E+02  0.16428407625E+03  0.18912682721E+03  0.00000000000E+00 0. -1.
        -12    1    4    4    0    0  0.44436704795E+02 -0.29535347573E+02  0.18187367067E+03  0.18953888670E+03  0.00000000000E+00 0.  1.
        -13    1    3    3    0    0  0.26063170511E+02 -0.18739925675E+02  0.62514867031E+02  0.70275047287E+02  0.00000000000E+00 0.  1.
         13    1    3    3    0    0 -0.37138996663E+02  0.55881982802E+02  0.14446278459E+03  0.15928464209E+03  0.00000000000E+00 0. -1.
         -1    1    1    2    0  502 -0.11530372559E+03 -0.53049738680E+02  0.13835423950E+03  0.18775281488E+03  0.00000000000E+00 0.  1.
<scales pt_clust_5="13000.00000" pt_clust_6="13000.00000" pt_clust_7="13000.00000" pt_clust_8="13000.00000" pt_clust_9="13000.00000"></scales>
<clustering>
<clus scale="   85.660">  5  6 -1 -1</clus>
<clus scale="   91.409">  7  8 -1 -1</clus>
<clus scale="   99.287">  2  7  1 -1</clus>
<clus scale="  125.775">  5  9 -1 -1</clus>
<clus scale="  293.391">  1  5  2 -1</clus>
</clustering>
</event>
<event>
 9    1  0.4516508E-005  0.5952149E+03  0.7546771E-02  0.1047014E+00
         21   -1    0    0  501  502  0.00000000000E+00  0.00000000000E+00  0.74843790269E+02  0.74843790269E+02  0.00000000000E+00 0. -1.
          1   -1    0    0  502    0 -0.00000000000E+00 -0.00000000000E+00 -0.16641014397E+04  0.16641014397E+04  0.00000000000E+00 0. -1.
         23    2    1    2    0    0  0.41672649200E+02 -0.46279721130E+02 -0.25114051364E+03  0.27441859474E+03  0.91408890552E+02 0.  0.
        -24    2    1    2    0    0 -0.15881859640E+03 -0.20747160032E+03 -0.93472482194E+03  0.97377388183E+03  0.79102899406E+02 0.  0.
         11    1    4    4    0    0 -0.16357968981E+03 -0.20885710932E+03 -0.88785201324E+03  0.92663952238E+03  0.00000000000E+00 0. -1.
        -12    1    4    4    0    0  0.47610934098E+01  0.13855089926E+01 -0.46872808701E+02  0.47134359454E+02  0.00000000000E+00 0.  1.
        -13    1    3    3    0    0  0.52812693351E+02 -0.17313207915E+02 -0.64180839754E+02  0.84900576787E+02  0.00000000000E+00 0.  1.
         13    1    3    3    0    0 -0.11140044151E+02 -0.28966513214E+02 -0.18695967388E+03  0.18951801796E+03  0.00000000000E+00 0. -1.
          2    1    1    2  501    0  0.11714594720E+03  0.25375132145E+03 -0.40339231387E+03  0.49075275340E+03  0.00000000000E+00 0. -1.
<scales pt_clust_5="13000.00000" pt_clust_6="13000.00000" pt_clust_7="13000.00000" pt_clust_8="13000.00000" pt_clust_9="13000.00000"></scales>
<clustering>
<clus scale="   79.103">  5  6 -1 -1</clus>
<clus scale="   91.409">  7  8 -1 -1</clus>
<clus scale="  110.607">  2  7  1 -1</clus>
<clus scale="  272.267">  5  9 -1 -1</clus>
<clus scale="  595.215">  1  5  2 -1</clus>
</clustering>
</event>
<event>
 9    1  0.4516508E-005  0.1899893E+03  0.7546771E-02  0.1188210E+00
         21   -1    0    0  501  502  0.00000000000E+00  0.00000000000E+00  0.52068998595E+02  0.52068998595E+02  0.00000000000E+00 0.  1.
          1   -1    0    0  502    0 -0.00000000000E+00 -0.00000000000E+00 -0.86858101820E+03  0.86858101820E+03  0.00000000000E+00 0. -1.
         23    2    1    2    0    0  0.19664036797E+02  0.13487812886E+02 -0.16016672047E+02  0.97917534395E+02  0.93609370892E+02 0.  0.
        -24    2    1    2    0    0  0.29789754939E+02 -0.73580759838E+02 -0.43347285776E+03  0.44754939668E+03  0.78103689668E+02 0.  0.
         11    1    4    4    0    0 -0.22277544342E+02 -0.27121912969E+01 -0.66411998810E+02  0.70101344848E+02  0.00000000000E+00 0. -1.
        -12    1    4    4    0    0  0.52067299282E+02 -0.70868568542E+02 -0.36706085895E+03  0.37744805183E+03  0.00000000000E+00 0.  1.
        -13    1    3    3    0    0 -0.88466200658E+01 -0.36340210719E+02 -0.15556069394E+02  0.40507590605E+02  0.00000000000E+00 0. -1.
         13    1    3    3    0    0  0.28510656863E+02  0.49828023605E+02 -0.46060265310E+00  0.57409943789E+02  0.00000000000E+00 0.  1.
          2    1    1    2  501    0 -0.49453791736E+02  0.60092946952E+02 -0.36702248980E+03  0.37518308572E+03  0.00000000000E+00 0. -1.
<scales pt_clust_5="13000.00000" pt_clust_6="13000.00000" pt_clust_7="13000.00000" pt_clust_8="13000.00000" pt_clust_9="13000.00000"></scales>
<clustering>
<clus scale="   78.104">  5  6 -1 -1</clus>
<clus scale="   77.826">  5  9 -1 -1</clus>
<clus scale="   93.609">  7  8 -1 -1</clus>
<clus scale="   96.599">  2  7  1 -1</clus>
<clus scale="  189.989">  1  5  2 -1</clus>
</clustering>
</event>
<event>
 9    1  0.5304465E-005  0.1503802E+04  0.7546771E-02  0.9431955E-01
          1   -1    0    0  502    0 -0.00000000000E+00  0.00000000000E+00  0.69521417402E+03  0.69521417402E+03  0.00000000000E+00 0. -1.
         21   -1    0    0  501  502  0.00000000000E+00 -0.00000000000E+00 -0.10356323268E+04  0.10356323268E+04  0.00000000000E+00 0. -1.
         23    2    1    2    0    0 -0.10209089157E+03 -0.13276627863E+03  0.17071662266E+01  0.18861732559E+03  0.86741836578E+02 0.  0.
        -24    2    1    2    0    0 -0.68058098544E+03  0.31711363611E+02 -0.10398190136E+02  0.68617412390E+03  0.80812855590E+02 0.  0.
         13    1    4    4    0    0 -0.57927215755E+03  0.48504611126E+02  0.10425545252E+02  0.58139282917E+03  0.00000000000E+00 0. -1.
        -14    1    4    4    0    0 -0.10130882789E+03 -0.16793247515E+02 -0.20823735388E+02  0.10478129473E+03  0.00000000000E+00 0.  1.
        -13    1    3    3    0    0 -0.23905528619E+02  0.20612392575E+01 -0.20024862027E+02  0.31252489582E+02  0.00000000000E+00 0.  1.
         13    1    3    3    0    0 -0.78185362955E+02 -0.13482751789E+03  0.21732028254E+02  0.15736483601E+03  0.00000000000E+00 0. -1.
          2    1    1    2  501    0  0.78267187701E+03  0.10105491502E+03 -0.33172712890E+03  0.85605505137E+03  0.00000000000E+00 0. -1.
<scales pt_clust_5="13000.00000" pt_clust_6="13000.00000" pt_clust_7="13000.00000" pt_clust_8="13000.00000" pt_clust_9="13000.00000"></scales>
<clustering>
<clus scale="   80.813">  5  6 -1 -1</clus>
<clus scale="   86.742">  7  8 -1 -1</clus>
<clus scale="  188.610">  1  7  2 -1</clus>
<clus scale="  739.323">  5  9 -1 -1</clus>
<clus scale=" 1503.802">  2  5  1 -1</clus>
</clustering>
</event>
<event>
 9    1  0.4516508E-005  0.7345742E+03  0.7546771E-02  0.9978091E-01
         21   -1    0    0  501  502  0.00000000000E+00  0.00000000000E+00  0.47448109696E+03  0.47448109696E+03  0.00000000000E+00 0. -1.
          1   -1    0    0  502    0 -0.00000000000E+00 -0.00000000000E+00 -0.57951983524E+03  0.57951983524E+03  0.00000000000E+00 0. -1.
         23    2    1    2    0    0 -0.12899862841E+03 -0.20531171605E+03 -0.17992966306E+03  0.31561897346E+03  0.91908138256E+02 0.  0.
        -24    2    1    2    0    0 -0.10651265202E+03 -0.11324564247E+03 -0.19292168020E+03  0.26018958610E+03  0.79437556873E+02 0.  0.
         13    1    4    4    0    0 -0.10915905933E+03 -0.71159831375E+02 -0.16197845601E+03  0.20788564656E+03  0.00000000000E+00 0. -1.
        -14    1    4    4    0    0  0.26464073138E+01 -0.42085811095E+02 -0.30943224194E+02  0.52303939533E+02  0.00000000000E+00 0.  1.
        -11    1    3    3    0    0 -0.94132776852E+02 -0.15599764179E+03 -0.80290182782E+02  0.19910489038E+03  0.00000000000E+00 0. -1.
         11    1    3    3    0    0 -0.34865851558E+02 -0.49314074259E+02 -0.99639480280E+02  0.11651408308E+03  0.00000000000E+00 0.  1.
          2    1    1    2  501    0  0.23551128043E+03  0.31855735852E+03  0.26781260498E+03  0.47819237265E+03  0.00000000000E+00 0. -1.
<scales pt_clust_5="13000.00000" pt_clust_6="13000.00000" pt_clust_7="13000.00000" pt_clust_8="13000.00000" pt_clust_9="13000.00000"></scales>
<clustering>
<clus scale="   79.438">  5  6 -1 -1</clus>
<clus scale="   91.908">  7  8 -1 -1</clus>
<clus scale="  259.308">  2  7  1 -1</clus>
<clus scale="  319.551">  5  9 -1 -1</clus>
<clus scale="  734.574">  1  5  2 -1</clus>
</clustering>
</event>
<event>
 9    1  0.4516508E-005  0.1822088E+03  0.7546771E-02  0.1174150E+00
         -2   -1    0    0    0  501 -0.00000000000E+00  0.00000000000E+00  0.28495390955E+03  0.28495390955E+03  0.00000000000E+00 0.  1.
         21   -1    0    0  501  502  0.00000000000E+00 -0.00000000000E+00 -0.98322551534E+02  0.98322551534E+02  0.00000000000E+00 0.  1.
         23    2    1    2    0    0 -0.11658177937E+03 -0.13964060149E+02  0.10741338082E+03  0.18459195380E+03  0.93542764397E+02 0.  0.
        -24    2    1    2    0    0  0.63185205082E+02  0.43048043557E+02  0.16943621836E+02  0.11164906869E+03  0.79579670912E+02 0.  0.
         11    1    4    4    0    0  0.13080980770E+02  0.19071452202E+02  0.44118441196E+02  0.49812339843E+02  0.00000000000E+00 0. -1.
        -12    1    4    4    0    0  0.50104224312E+02  0.23976591354E+02 -0.27174819360E+02  0.61836728844E+02  0.00000000000E+00 0.  1.
        -13    1    3    3    0    0 -0.29793391841E+02  0.37735633468E+02  0.24834106511E+02  0.54114296418E+02  0.00000000000E+00 0. -1.
         13    1    3    3    0    0 -0.86788387528E+02 -0.51699693617E+02  0.82579274310E+02  0.13047765738E+03  0.00000000000E+00 0.  1.
         -1    1    1    2    0  502  0.53396574287E+02 -0.29083983408E+02  0.62274355357E+02  0.87035438596E+02  0.00000000000E+00 0.  1.
<scales pt_clust_5="13000.00000" pt_clust_6="13000.00000" pt_clust_7="13000.00000" pt_clust_8="13000.00000" pt_clust_9="13000.00000"></scales>
<clustering>
<clus scale="   79.580">  5  6 -1 -1</clus>
<clus scale="   60.804">  5  9 -1 -1</clus>
<clus scale="   93.543">  7  8 -1 -1</clus>
<clus scale="  150.122">  1  7  2 -1</clus>
<clus scale="  182.209">  2  5  1 -1</clus>
</clustering>
</event>
<event>
 9    1  0.1604134E-004  0.5555692E+03  0.7546771E-02  0.1055853E+00
         21   -1    0    0  501  502  0.00000000000E+00  0.00000000000E+00  0.33000145296E+03  0.33000145296E+03  0.00000000000E+00 0. -1.
          1   -1    0    0  502    0 -0.00000000000E+00 -0.00000000000E+00 -0.38009484541E+03  0.38009484541E+03  0.00000000000E+00 0. -1.
         23    2    1    2    0    0 -0.26877654713E+02 -0.44702563978E+02  0.88033457213E+02  0.13761379478E+03  0.92015973482E+02 0.  0.
        -24    2    1    2    0    0  0.36868372591E+02 -0.20106327115E+02 -0.34421064089E+03  0.35621753689E+03  0.81525621732E+02 0.  0.
         11    1    4    4    0    0  0.48576254743E+02 -0.32445977965E+02 -0.14562233404E+03  0.15690206558E+03  0.00000000000E+00 0. -1.
        -12    1    4    4    0    0 -0.11707882151E+02  0.12339650850E+02 -0.19858830685E+03  0.19931547131E+03  0.00000000000E+00 0.  1.
        -13    1    3    3    0    0 -0.18827875712E+02  0.23624897449E+02  0.51522838411E+02  0.59726271952E+02  0.00000000000E+00 0.  1.
         13    1    3    3    0    0 -0.80497790012E+01 -0.68327461427E+02  0.36510618802E+02  0.77887522828E+02  0.00000000000E+00 0. -1.
          2    1    1    2  501    0 -0.99907178784E+01  0.64808891092E+02  0.20608379123E+03  0.21626496669E+03  0.00000000000E+00 0. -1.
<scales pt_clust_5="13000.00000" pt_clust_6="13000.00000" pt_clust_7="13000.00000" pt_clust_8="13000.00000" pt_clust_9="13000.00000"></scales>
<clustering>
<clus scale="   81.526">  5  6 -1 -1</clus>
<clus scale="   65.574">  5  9 -1 -1</clus>
<clus scale="   92.016">  7  8 -1 -1</clus>
<clus scale="  105.772">  2  7  1 -1</clus>
<clus scale="  555.569">  1  5  2 -1</clus>
</clustering>
</event>
<event>
 9    1  0.4516508E-005  0.1596405E+03  0.7546771E-02  0.1195545E+00
         21   -1    0    0  501  502  0.00000000000E+00  0.00000000000E+00  0.22702480980E+02  0.22702480980E+02  0.00000000000E+00 0.  1.
          3   -1    0    0  502    0 -0.00000000000E+00 -0.00000000000E+00 -0.98305395415E+03  0.98305395415E+03  0.00000000000E+00 0. -1.
         23    2    1    2    0    0  0.29928306245E+00 -0.10479486126E+03 -0.41452929128E+03  0.43706763853E+03  0.90617519333E+02 0.  0.
        -24    2    1    2    0    0 -0.32702216883E+02  0.60420750460E+02 -0.36592091229E+03  0.38058382953E+03  0.78903961721E+02 0.  0.
         11    1    4    4    0    0 -0.52316920785E+02  0.23626706479E+02 -0.14866552336E+03  0.15936348168E+03  0.00000000000E+00 0. -1.
        -12    1    4    4    0    0  0.19614703902E+02  0.36794043981E+02 -0.21725538894E+03  0.22122034785E+03  0.00000000000E+00 0.  1.
        -11    1    3    3    0    0  0.35205569194E+02 -0.32388555527E+02 -0.81749367361E+02  0.94717525808E+02  0.00000000000E+00 0.  1.
         11    1    3    3    0    0 -0.34906286131E+02 -0.72406305730E+02 -0.33277992391E+03  0.34235011272E+03  0.00000000000E+00 0. -1.
          4    1    1    2  501    0  0.32402933821E+02  0.44374110797E+02 -0.17990126960E+03  0.18810496706E+03  0.00000000000E+00 0. -1.
<scales pt_clust_5="13000.00000" pt_clust_6="13000.00000" pt_clust_7="13000.00000" pt_clust_8="13000.00000" pt_clust_9="13000.00000"></scales>
<clustering>
<clus scale="   78.904">  5  6 -1 -1</clus>
<clus scale="   54.946">  5  9 -1 -1</clus>
<clus scale="   90.618">  7  8 -1 -1</clus>
<clus scale="  138.541">  2  7  1 -1</clus>
<clus scale="  159.641">  1  5  2 -1</clus>
</clustering>
</event>
<event>
 9    1  0.4516508E-005  0.5095117E+03  0.7546771E-02  0.1057251E+00
          1   -1    0    0  502    0 -0.00000000000E+00  0.00000000000E+00  0.14901545480E+04  0.14901545480E+04  0.00000000000E+00 0. -1.
         21   -1    0    0  501  502  0.00000000000E+00 -0.00000000000E+00 -0.80313080669E+02  0.80313080669E+02  0.00000000000E+00 0.  1.
         23    2    1    2    0    0  0.59300093396E+02 -0.71870212949E+02  0.59510845987E+03  0.60953472059E+03  0.93255927513E+02 0.  0.
        -24    2    1    2    0    0  0.91704113988E+00 -0.49578254740E+02 -0.33333608320E+02  0.10210066695E+03  0.82792345299E+02 0.  0.
         13    1    4    4    0    0  0.19629027578E+02  0.13085833809E+02 -0.27811980502E+02  0.36469768707E+02  0.00000000000E+00 0. -1.
        -14    1    4    4    0    0 -0.18711986438E+02 -0.62664088549E+02 -0.55216278179E+01  0.65630898241E+02  0.00000000000E+00 0.  1.
        -11    1    3    3    0    0 -0.22012964855E+02 -0.26105358548E+02  0.98886559194E+02  0.10461649944E+03  0.00000000000E+00 0.  1.
         11    1    3    3    0    0  0.81313058251E+02 -0.45764854401E+02  0.49622190067E+03  0.50491822115E+03  0.00000000000E+00 0. -1.
          2    1    1    2  501    0 -0.60217134536E+02  0.12144846769E+03  0.84806661582E+03  0.85883224116E+03  0.00000000000E+00 0. -1.
<scales pt_clust_5="13000.00000" pt_clust_6="13000.00000" pt_clust_7="13000.00000" pt_clust_8="13000.00000" pt_clust_9="13000.00000"></scales>
<clustering>
<clus scale="   82.792">  5  6 -1 -1</clus>
<clus scale="   93.256">  7  8 -1 -1</clus>
<clus scale="  131.828">  1  7  2 -1</clus>
<clus scale="   52.460">  5  9 -1 -1</clus>
<clus scale="  509.512">  2  5  1 -1</clus>
</clustering>
</event>
<event>
 9    1  0.4516508E-005  0.3464059E+03  0.7546771E-02  0.1107341E+00
         21   -1    0    0  501  502  0.00000000000E+00  0.00000000000E+00  0.41585244545E+03  0.41585244545E+03  0.00000000000E+00 0.  1.
         -4   -1    0    0    0  501 -0.00000000000E+00 -0.00000000000E+00 -0.16686236828E+03  0.16686236828E+03  0.00000000000E+00 0.  1.
         23    2    1    2    0    0  0.26672180772E+02  0.50315805222E+02 -0.54466920741E+02  0.12218988828E+03  0.93384355546E+02 0.  0.
        -24    2    1    2    0    0 -0.15227267488E+03 -0.59458993606E+02  0.70976317122E+02  0.19612683742E+03  0.81888700866E+02 0.  0.
         11    1    4    4    0    0 -0.95259823524E+02 -0.75514781982E+02  0.33709284914E+02  0.12614766016E+03  0.00000000000E+00 0. -1.
        -12    1    4    4    0    0 -0.57012851354E+02  0.16055788376E+02  0.37267032208E+02  0.69979177257E+02  0.00000000000E+00 0.  1.
        -13    1    3    3    0    0  0.32886548687E+02  0.73623107088E+02 -0.55756266715E+02  0.98033913825E+02  0.00000000000E+00 0.  1.
         13    1    3    3    0    0 -0.62143679150E+01 -0.23307301866E+02  0.12893459746E+01  0.24155974456E+02  0.00000000000E+00 0. -1.
         -3    1    1    2    0  502  0.12560049411E+03  0.91431883844E+01  0.23248068079E+03  0.26439808803E+03  0.00000000000E+00 0.  1.
<scales pt_clust_5="13000.00000" pt_clust_6="13000.00000" pt_clust_7="13000.00000" pt_clust_8="13000.00000" pt_clust_9="13000.00000"></scales>
<clustering>
<clus scale="   81.889">  5  6 -1 -1</clus>
<clus scale="   93.384">  7  8 -1 -1</clus>
<clus scale="  109.379">  2  7  1 -1</clus>
<clus scale="  132.444">  5  9 -1 -1</clus>
<clus scale="  346.406">  1  5  2 -1</clus>
</clustering>
</event>
<event>
 9    1  0.4516508E-005  0.1658868E+03  0.7546771E-02  0.1207308E+00
         21   -1    0    0  501  502  0.00000000000E+00  0.00000000000E+00  0.13923862630E+03  0.13923862630E+03  0.00000000000E+00 0. -1.
          1   -1    0    0  502    0 -0.00000000000E+00 -0.00000000000E+00 -0.26665828403E+03  0.26665828403E+03  0.00000000000E+00 0. -1.
         23    2    1    2    0    0 -0.95920613999E+01  0.32147000060E+02 -0.20237713920E+03  0.22386108477E+03  0.89620541992E+02 0.  0.
        -24    2    1    2    0    0 -0.28532655136E+02  0.31498985666E+02  0.34683038198E+02  0.97618195355E+02  0.80747138765E+02 0.  0.
         13    1    4    4    0    0 -0.11179866773E+02  0.28976046004E+02  0.59566369775E+02  0.67177027853E+02  0.00000000000E+00 0. -1.
        -14    1    4    4    0    0 -0.17352788363E+02  0.25229396626E+01 -0.24883331577E+02  0.30441167502E+02  0.00000000000E+00 0.  1.
        -11    1    3    3    0    0  0.17811242079E+01 -0.29402039389E+02 -0.38774091400E+02  0.48693762307E+02  0.00000000000E+00 0.  1.
         11    1    3    3    0    0 -0.11373185608E+02  0.61549039449E+02 -0.16360304780E+03  0.17516732246E+03  0.00000000000E+00 0. -1.
          2    1    1    2  501    0  0.38124716536E+02 -0.63645985726E+02  0.40274443271E+02  0.84417630213E+02  0.00000000000E+00 0. -1.
<scales pt_clust_5="13000.00000" pt_clust_6="13000.00000" pt_clust_7="13000.00000" pt_clust_8="13000.00000" pt_clust_9="13000.00000"></scales>
<clustering>
<clus scale="   80.747">  5  6 -1 -1</clus>
<clus scale="   74.191">  5  9 -1 -1</clus>
<clus scale="   89.621">  7  8 -1 -1</clus>
<clus scale="   95.694">  2  7  1 -1</clus>
<clus scale="  165.887">  1  5  2 -1</clus>
</clustering>
</event>
<event>
 9    1  0.4516508E-005  0.4324215E+03  0.7546771E-02  0.1078169E+00
         -2   -1    0    0    0  501 -0.00000000000E+00  0.00000000000E+00  0.73363874306E+02  0.73363874306E+02  0.00000000000E+00 0.  1.
         21   -1    0    0  501  502  0.00000000000E+00 -0.00000000000E+00 -0.11054536454E+04  0.11054536454E+04  0.00000000000E+00 0.  1.
         23    2    1    2    0    0  0.68717384408E+02 -0.36510688380E+02 -0.12569598631E+03  0.17455756138E+03  0.92821075059E+02 0.  0.
        -24    2    1    2    0    0 -0.60476416995E+01  0.22217957176E+03 -0.51589897243E+03  0.56735421405E+03  0.79616068526E+02 0.  0.
         11    1    4    4    0    0  0.19891636104E+02  0.42583887386E+02 -0.56985007611E+02  0.73867149290E+02  0.00000000000E+00 0. -1.
        -12    1    4    4    0    0 -0.25939277804E+02  0.17959568437E+03 -0.45891396482E+03  0.49348706476E+03  0.00000000000E+00 0.  1.
        -11    1    3    3    0    0  0.91396401024E+01 -0.44463799940E+02 -0.98758097334E+02  0.10869095784E+03  0.00000000000E+00 0.  1.
         11    1    3    3    0    0  0.59577744306E+02  0.79531115598E+01 -0.26937888974E+02  0.65866603544E+02  0.00000000000E+00 0. -1.
         -1    1    1    2    0  502 -0.62669742709E+02 -0.18566888338E+03 -0.39049481237E+03  0.43690574429E+03  0.00000000000E+00 0.  1.
<scales pt_clust_5="13000.00000" pt_clust_6="13000.00000" pt_clust_7="13000.00000" pt_clust_8="13000.00000" pt_clust_9="13000.00000"></scales>
<clustering>
<clus scale="   79.616">  5  6 -1 -1</clus>
<clus scale="   92.821">  7  8 -1 -1</clus>
<clus scale="  121.123">  1  7  2 -1</clus>
<clus scale="  205.200">  5  9 -1 -1</clus>
<clus scale="  432.422">  2  5  1 -1</clus>
</clustering>
</event>
<event>
 9    1  0.4516508E-005  0.2090235E+03  0.7546771E-02  0.1163895E+00
         21   -1    0    0  501  502  0.00000000000E+00  0.00000000000E+00  0.27633598756E+03  0.27633598756E+03  0.00000000000E+00 0.  1.
          1   -1    0    0  502    0 -0.00000000000E+00 -0.00000000000E+00 -0.33037969328E+03  0.33037969328E+03  0.00000000000E+00 0. -1.
         23    2    1    2    0    0 -0.39338889361E+02  0.76950232412E+02 -0.27509645079E+03  0.30248689207E+03  0.91385864059E+02 0.  0.
        -24    2    1    2    0    0 -0.45744910764E+02 -0.35937418527E+02  0.56777675877E+02  0.11473577490E+03  0.80972209139E+02 0.  0.
         11    1    4    4    0    0 -0.29868109219E+02 -0.46605221427E+02  0.56480679988E+00  0.55357651859E+02  0.00000000000E+00 0. -1.
        -12    1    4    4    0    0 -0.15876801545E+02  0.10667802900E+02  0.56212869077E+02  0.59378123041E+02  0.00000000000E+00 0.  1.
        -13    1    3    3    0    0  0.18140204218E+02  0.94054200771E+01 -0.96156057408E+01  0.22582931822E+02  0.00000000000E+00 0. -1.
         13    1    3    3    0    0 -0.57479093579E+02  0.67544812335E+02 -0.26548084505E+03  0.27990396024E+03  0.00000000000E+00 0.  1.
          2    1    1    2  501    0  0.85083800125E+02 -0.41012813885E+02  0.16427506920E+03  0.18949301387E+03  0.00000000000E+00 0. -1.
<scales pt_clust_5="13000.00000" pt_clust_6="13000.00000" pt_clust_7="13000.00000" pt_clust_8="13000.00000" pt_clust_9="13000.00000"></scales>
<clustering>
<clus scale="   80.972">  5  6 -1 -1</clus>
<clus scale="   91.386">  7  8 -1 -1</clus>
<clus scale="   94.453">  5  9 -1 -1</clus>
<clus scale="  125.779">  2  7  1 -1</clus>
<clus scale="  209.024">  1  5  2 -1</clus>
</clustering>
</event>
<event>
 9    1  0.4516508E-005  0.2337131E+03  0.7546771E-02  0.1146683E+00
         21   -1    0    0  501  502  0.00000000000E+00  0.00000000000E+00  0.10998496497E+03  0.10998496497E+03  0.00000000000E+00 0. -1.
          1   -1    0    0  502    0 -0.00000000000E+00 -0.00000000000E+00 -0.31340696974E+03  0.31340696974E+03  0.00000000000E+00 0. -1.
         23    2    1    2    0    0  0.83166366314E+02  0.26368153767E+02 -0.49668075711E+02  0.14363832620E+03  0.10272841374E+03 0.  0.
        -24    2    1    2    0    0 -0.12502266517E+02  0.71808293949E+02 -0.97359375454E+02  0.14629059654E+03  0.81297926790E+02 0.  0.
         13    1    4    4    0    0 -0.12751045780E+02  0.46366043315E+02 -0.25811923582E+01  0.48156637083E+02  0.00000000000E+00 0. -1.
        -14    1    4    4    0    0  0.24877926281E+00  0.25442250634E+02 -0.94778183096E+02  0.98133959461E+02  0.00000000000E+00 0.  1.
        -13    1    3    3    0    0  0.63878097579E+02  0.63308820882E+02 -0.19061959774E+02  0.91933543728E+02  0.00000000000E+00 0. -1.
         13    1    3    3    0    0  0.19288268735E+02 -0.36940667116E+02 -0.30606115937E+02  0.51704782472E+02  0.00000000000E+00 0.  1.
          2    1    1    2  501    0 -0.70664099797E+02 -0.98176447716E+02 -0.56394553605E+02  0.13346301196E+03  0.00000000000E+00 0. -1.
<scales pt_clust_5="13000.00000" pt_clust_6="13000.00000" pt_clust_7="13000.00000" pt_clust_8="13000.00000" pt_clust_9="13000.00000"></scales>
<clustering>
<clus scale="   81.298">  5  6 -1 -1</clus>
<clus scale="  102.728">  7  8 -1 -1</clus>
<clus scale="  120.963">  5  9 -1 -1</clus>
<clus scale="  134.778">  2  7  1 -1</clus>
<clus scale="  233.713">  1  5  2 -1</clus>
</clustering>
</event>
<event>
 9    1  0.4516508E-005  0.2182602E+03  0.7546771E-02  0.1161147E+00
         21   -1    0    0  501  502  0.00000000000E+00  0.00000000000E+00  0.11689965259E+03  0.11689965259E+03  0.00000000000E+00 0. -1.
          3   -1    0    0  502    0 -0.00000000000E+00 -0.00000000000E+00 -0.29326963424E+03  0.29326963424E+03  0.00000000000E+00 0. -1.
         23    2    1    2    0    0  0.17370916877E+01 -0.77394920580E+02  0.16513458000E+02  0.11889356580E+03  0.88712989315E+02 0.  0.
        -24    2    1    2    0    0 -0.80691497223E+02  0.13683167878E+02 -0.89372928444E+02  0.14633638368E+03  0.82027251822E+02 0.  0.
         11    1    4    4    0    0 -0.84692386514E+02 -0.81301095819E+01 -0.43890999621E+02  0.95735671842E+02  0.00000000000E+00 0. -1.
        -12    1    4    4    0    0  0.40008892914E+01  0.21813277460E+02 -0.45481928823E+02  0.50600711834E+02  0.00000000000E+00 0.  1.
        -13    1    3    3    0    0 -0.39364102434E+02 -0.60886554004E+02  0.17518511269E+02  0.74589565329E+02  0.00000000000E+00 0. -1.
         13    1    3    3    0    0  0.41101194122E+02 -0.16508366576E+02 -0.10050532693E+01  0.44304000466E+02  0.00000000000E+00 0.  1.
          4    1    1    2  501    0  0.78954405535E+02  0.63711752702E+02 -0.10351051120E+03  0.14493933736E+03  0.00000000000E+00 0. -1.
<scales pt_clust_5="13000.00000" pt_clust_6="13000.00000" pt_clust_7="13000.00000" pt_clust_8="13000.00000" pt_clust_9="13000.00000"></scales>
<clustering>
<clus scale="   82.027">  5  6 -1 -1</clus>
<clus scale="   88.713">  7  8 -1 -1</clus>
<clus scale="  101.454">  5  9 -1 -1</clus>
<clus scale="  117.741">  2  7  1 -1</clus>
<clus scale="  218.260">  1  5  2 -1</clus>
</clustering>
</event>
<event>
 9    1  0.4516508E-005  0.5270417E+03  0.7546771E-02  0.1049498E+00
         21   -1    0    0  501  502  0.00000000000E+00  0.00000000000E+00  0.13543654402E+03  0.13543654402E+03  0.00000000000E+00 0. -1.
          1   -1    0    0  502    0 -0.00000000000E+00 -0.00000000000E+00 -0.84540781446E+03  0.84540781446E+03  0.00000000000E+00 0. -1.
         23    2    1    2    0    0 -0.47792304804E+02  0.10707093037E+03 -0.13126697725E+03  0.19811093262E+03  0.90932028350E+02 0.  0.
        -24    2    1    2    0    0  0.88333481180E+02  0.16667816843E+03 -0.93390753496E+02  0.22406412486E+03  0.76801585144E+02 0.  0.
         13    1    4    4    0    0  0.81007015131E+02  0.79873439384E+02 -0.71067195001E+02  0.13413593487E+03  0.00000000000E+00 0. -1.
        -14    1    4    4    0    0  0.73264660497E+01  0.86804729048E+02 -0.22323558495E+02  0.89928189984E+02  0.00000000000E+00 0.  1.
        -13    1    3    3    0    0 -0.53422413189E+02  0.82277351705E+02 -0.14024323426E+03  0.17114812763E+03  0.00000000000E+00 0. -1.
         13    1    3    3    0    0  0.56301083848E+01  0.24793578662E+02  0.89762570102E+01  0.26962804995E+02  0.00000000000E+00 0.  1.
          2    1    1    2  501    0 -0.40541176376E+02 -0.27374909880E+03 -0.48531353969E+03  0.55866930100E+03  0.00000000000E+00 0. -1.
<scales pt_clust_5="13000.00000" pt_clust_6="13000.00000" pt_clust_7="13000.00000" pt_clust_8="13000.00000" pt_clust_9="13000.00000"></scales>
<clustering>
<clus scale="   76.802">  5  6 -1 -1</clus>
<clus scale="   90.932">  7  8 -1 -1</clus>
<clus scale="  148.381">  2  7  1 -1</clus>
<clus scale="  206.606">  5  9 -1 -1</clus>
<clus scale="  527.042">  1  5  2 -1</clus>
</clustering>
</event>
<event>
 9    1  0.4516508E-005  0.1778563E+03  0.7546771E-02  0.1190575E+00
         21   -1    0    0  501  502  0.00000000000E+00  0.00000000000E+00  0.21910255688E+03  0.21910255688E+03  0.00000000000E+00 0. -1.
          1   -1    0    0  502    0 -0.00000000000E+00 -0.00000000000E+00 -0.10460732959E+03  0.10460732959E+03  0.00000000000E+00 0. -1.
         23    2    1    2    0    0  0.62198271435E+02  0.21754865317E+02 -0.80224889451E+00  0.11175144406E+03  0.90254321294E+02 0.  0.
        -24    2    1    2    0    0  0.27472540977E+02  0.59500407163E+01  0.51413816746E+02  0.98426339639E+02  0.79083628457E+02 0.  0.
         13    1    4    4    0    0  0.23325597195E+02 -0.30236036586E+02  0.48721783147E+02  0.61904067281E+02  0.00000000000E+00 0. -1.
        -14    1    4    4    0    0  0.41469437819E+01  0.36186077302E+02  0.26920335991E+01  0.36522272357E+02  0.00000000000E+00 0.  1.
        -11    1    3    3    0    0  0.63925543678E+02  0.41879128608E+02 -0.24836789973E+02  0.80356721460E+02  0.00000000000E+00 0. -1.
         11    1    3    3    0    0 -0.17272722432E+01 -0.20124263291E+02  0.24034541079E+02  0.31394722602E+02  0.00000000000E+00 0.  1.
          2    1    1    2  501    0 -0.89670812412E+02 -0.27704906034E+02  0.63883659436E+02  0.11353210277E+03  0.00000000000E+00 0. -1.
<scales pt_clust_5="13000.00000" pt_clust_6="13000.00000" pt_clust_7="13000.00000" pt_clust_8="13000.00000" pt_clust_9="13000.00000"></scales>
<clustering>
<clus scale="   79.084">  5  6 -1 -1</clus>
<clus scale="   90.254">  7  8 -1 -1</clus>
<clus scale="   93.853">  5  9 -1 -1</clus>
<clus scale="  111.749">  2  7  1 -1</clus>
<clus scale="  177.856">  1  5  2 -1</clus>
</clustering>
</event>
<event>
 9    1  0.4516508E-005  0.1503920E+03  0.7546771E-02  0.1223025E+00
         21   -1    0    0  501  502  0.00000000000E+00  0.00000000000E+00  0.17743103622E+02  0.17743103622E+02  0.00000000000E+00 0. -1.
          1   -1    0    0  502    0 -0.00000000000E+00 -0.00000000000E+00 -0.82860478897E+03  0.82860478897E+03  0.00000000000E+00 0. -1.
         23    2    1    2    0    0 -0.16621669805E+02  0.13088454705E+02 -0.31495060667E+03  0.32813406942E+03  0.89613030945E+02 0.  0.
        -24    2    1    2    0    0 -0.19335673788E+02  0.27052206679E+02 -0.38446798823E+03  0.39442462469E+03  0.81544223687E+02 0.  0.
         11    1    4    4    0    0 -0.75559558626E+01  0.55802244772E+02 -0.22343659031E+03  0.23042329067E+03  0.00000000000E+00 0. -1.
        -12    1    4    4    0    0 -0.11779717926E+02 -0.28750038093E+02 -0.16103139792E+03  0.16400133402E+03  0.00000000000E+00 0.  1.
        -13    1    3    3    0    0  0.20727006391E+02  0.39736165004E+02 -0.18396920914E+03  0.18934952209E+03  0.00000000000E+00 0.  1.
         13    1    3    3    0    0 -0.37348676197E+02 -0.26647710299E+02 -0.13098139753E+03  0.13878454733E+03  0.00000000000E+00 0. -1.
          2    1    1    2  501    0  0.35957343594E+02 -0.40140661384E+02 -0.11144309044E+03  0.12378919848E+03  0.00000000000E+00 0. -1.
<scales pt_clust_5="13000.00000" pt_clust_6="13000.00000" pt_clust_7="13000.00000" pt_clust_8="13000.00000" pt_clust_9="13000.00000"></scales>
<clustering>
<clus scale="   81.544">  5  6 -1 -1</clus>
<clus scale="   53.891">  5  9 -1 -1</clus>
<clus scale="   89.613">  7  8 -1 -1</clus>
<clus scale="   92.077">  2  7  1 -1</clus>
<clus scale="  150.392">  1  5  2 -1</clus>
</clustering>
</event>
<event>
 9    1  0.4516508E-005  0.2880935E+03  0.7546771E-02  0.1134018E+00
          1   -1    0    0  502    0 -0.00000000000E+00  0.00000000000E+00  0.53021783419E+03  0.53021783419E+03  0.00000000000E+00 0. -1.
         21   -1    0    0  501  502  0.00000000000E+00 -0.00000000000E+00 -0.71556963092E+02  0.71556963092E+02  0.00000000000E+00 0.  1.
         23    2    1    2    0    0  0.28682928375E+02  0.33241596661E+01  0.81615550350E+02  0.12726344075E+03  0.93279820297E+02 0.  0.
        -24    2    1    2    0    0  0.42768551017E+02 -0.87089227826E+02  0.62452590115E+02  0.14120896122E+03  0.81400013259E+02 0.  0.
         13    1    4    4    0    0 -0.24460349129E+02 -0.21703168821E+02  0.13029338237E+02  0.35200850434E+02  0.00000000000E+00 0. -1.
        -14    1    4    4    0    0  0.67228900146E+02 -0.65386059004E+02  0.49423251878E+02  0.10600811079E+03  0.00000000000E+00 0.  1.
        -13    1    3    3    0    0  0.57145480381E+02 -0.15614566530E+02  0.68707632320E+02  0.90720225721E+02  0.00000000000E+00 0. -1.
         13    1    3    3    0    0 -0.28462552007E+02  0.18938726196E+02  0.12907918030E+02  0.36543215028E+02  0.00000000000E+00 0.  1.
          2    1    1    2  501    0 -0.71451479392E+02  0.83765068160E+02  0.31459273063E+03  0.33330239531E+03  0.00000000000E+00 0. -1.
<scales pt_clust_5="13000.00000" pt_clust_6="13000.00000" pt_clust_7="13000.00000" pt_clust_8="13000.00000" pt_clust_9="13000.00000"></scales>
<clustering>
<clus scale="   81.400">  5  6 -1 -1</clus>
<clus scale="   93.280">  7  8 -1 -1</clus>
<clus scale="   97.647">  1  7  2 -1</clus>
<clus scale="   99.547">  5  9 -1 -1</clus>
<clus scale="  288.093">  2  5  1 -1</clus>
</clustering>
</event>
<event>
 9    1  0.4516508E-005  0.3199827E+03  0.7546771E-02  0.1088551E+00
         21   -1    0    0  501  502  0.00000000000E+00  0.00000000000E+00  0.56816391601E+02  0.56816391601E+02  0.00000000000E+00 0. -1.
          1   -1    0    0  502    0 -0.00000000000E+00 -0.00000000000E+00 -0.16211732805E+04  0.16211732805E+04  0.00000000000E+00 0. -1.
         23    2    1    2    0    0 -0.97150662829E+02 -0.18387147718E+03 -0.10347003759E+04  0.10591803892E+04  0.89505628375E+02 0.  0.
        -24    2    1    2    0    0 -0.61473355548E+02  0.56394234354E+02 -0.15694353705E+03  0.19416002874E+03  0.78150878595E+02 0.  0.
         13    1    4    4    0    0 -0.57633796065E+02  0.63346466650E+02 -0.81249417972E+02  0.11805040113E+03  0.00000000000E+00 0. -1.
        -14    1    4    4    0    0 -0.38395594828E+01 -0.69522322963E+01 -0.75694119082E+02  0.76109627608E+02  0.00000000000E+00 0.  1.
        -11    1    3    3    0    0 -0.98133087020E+02 -0.15390611649E+03 -0.97951275773E+03  0.99637464741E+03  0.00000000000E+00 0. -1.
         11    1    3    3    0    0  0.98242419072E+00 -0.29965360684E+02 -0.55187618194E+02  0.62805741776E+02  0.00000000000E+00 0.  1.
          2    1    1    2  501    0  0.15862401838E+03  0.12747724282E+03 -0.37271297590E+03  0.42464925414E+03  0.00000000000E+00 0. -1.
<scales pt_clust_5="13000.00000" pt_clust_6="13000.00000" pt_clust_7="13000.00000" pt_clust_8="13000.00000" pt_clust_9="13000.00000"></scales>
<clustering>
<clus scale="   78.151">  5  6 -1 -1</clus>
<clus scale="   89.506">  7  8 -1 -1</clus>
<clus scale="  203.500">  5  9 -1 -1</clus>
<clus scale="  226.403">  2  7  1 -1</clus>
<clus scale="  319.983">  1  5  2 -1</clus>
</clustering>
</event>
<event>
 9    1  0.4516508E-005  0.2410191E+03  0.7546771E-02  0.1133161E+00
          1   -1    0    0  502    0 -0.00000000000E+00  0.00000000000E+00  0.13914847321E+04  0.13914847321E+04  0.00000000000E+00 0. -1.
         21   -1    0    0  501  502  0.00000000000E+00 -0.00000000000E+00 -0.30423063338E+02  0.30423063338E+02  0.00000000000E+00 0. -1.
         23    2    1    2    0    0  0.93273051999E+02  0.10972696204E+03  0.58507568346E+03  0.60935351113E+03  0.90875066542E+02 0.  0.
        -24    2    1    2    0    0 -0.46051608584E+02  0.28569755241E+02  0.33759987774E+03  0.35045231934E+03  0.76851604465E+02 0.  0.
         11    1    4    4    0    0 -0.63788546046E+02  0.45862763765E+01  0.24190744160E+03  0.25021835032E+03  0.00000000000E+00 0. -1.
        -12    1    4    4    0    0  0.17736937462E+02  0.23983478865E+02  0.95692436143E+02  0.10023396901E+03  0.00000000000E+00 0.  1.
        -11    1    3    3    0    0  0.34957052110E+02 -0.20684701256E+01  0.61135904564E+02  0.70454757737E+02  0.00000000000E+00 0.  1.
         11    1    3    3    0    0  0.58315999889E+02  0.11179543217E+03  0.52393977889E+03  0.53889875339E+03  0.00000000000E+00 0. -1.
          2    1    1    2  501    0 -0.47221443414E+02 -0.13829671729E+03  0.43838610752E+03  0.46210196493E+03  0.00000000000E+00 0. -1.
<scales pt_clust_5="13000.00000" pt_clust_6="13000.00000" pt_clust_7="13000.00000" pt_clust_8="13000.00000" pt_clust_9="13000.00000"></scales>
<clustering>
<clus scale="   76.852">  5  6 -1 -1</clus>
<clus scale="   90.875">  7  8 -1 -1</clus>
<clus scale="  146.136">  5  9 -1 -1</clus>
<clus scale="  170.288">  1  7  2 -1</clus>
<clus scale="  241.019">  2  5  1 -1</clus>
</clustering>
</event>
<event>
 9    1  0.4516508E-005  0.1078805E+04  0.7546771E-02  0.9753817E-01
          3   -1    0    0  502    0 -0.00000000000E+00  0.00000000000E+00  0.16341619478E+03  0.16341619478E+03  0.00000000000E+00 0. -1.
         21   -1    0    0  501  502  0.00000000000E+00 -0.00000000000E+00 -0.25015688414E+04  0.25015688414E+04  0.00000000000E+00 0. -1.
         23    2    1    2    0    0 -0.40378485619E+01  0.14219313411E+03 -0.56128938015E+03  0.58626845272E+03  0.91813608879E+02 0.  0.
        -24    2    1    2    0    0 -0.82972893462E+02 -0.60040214958E+03 -0.96062226645E+03  0.11386231087E+04  0.79373816188E+02 0.  0.
         11    1    4    4    0    0 -0.40573309608E+02 -0.50039996600E+03 -0.76947481118E+03  0.91876972331E+03  0.00000000000E+00 0. -1.
        -12    1    4    4    0    0 -0.42399583854E+02 -0.10000218358E+03 -0.19114745527E+03  0.21985338544E+03  0.00000000000E+00 0.  1.
        -13    1    3    3    0    0  0.31330766423E+02  0.22996868868E+02 -0.21144665073E+03  0.21498874158E+03  0.00000000000E+00 0.  1.
         13    1    3    3    0    0 -0.35368614985E+02  0.11919626524E+03 -0.34984272943E+03  0.37127971114E+03  0.00000000000E+00 0. -1.
          4    1    1    2  501    0  0.87010742024E+02  0.45820901547E+03 -0.81624100003E+03  0.94009347472E+03  0.00000000000E+00 0. -1.
<scales pt_clust_5="13000.00000" pt_clust_6="13000.00000" pt_clust_7="13000.00000" pt_clust_8="13000.00000" pt_clust_9="13000.00000"></scales>
<clustering>
<clus scale="   79.374">  5  6 -1 -1</clus>
<clus scale="   91.814">  7  8 -1 -1</clus>
<clus scale="  169.307">  1  7  2 -1</clus>
<clus scale="  523.556">  5  9 -1 -1</clus>
<clus scale=" 1078.805">  2  5  1 -1</clus>
</clustering>
</event>
<event>
 9    1  0.4516508E-005  0.2588808E+03  0.7546771E-02  0.1134961E+00
         21   -1    0    0  501  502  0.00000000000E+00  0.00000000000E+00  0.56400694643E+02  0.56400694643E+02  0.00000000000E+00 0. -1.
          1   -1    0    0  502    0 -0.00000000000E+00 -0.00000000000E+00 -0.67864446652E+03  0.67864446652E+03  0.00000000000E+00 0. -1.
         23    2    1    2    0    0  0.96276726392E+02 -0.21920179053E+02 -0.23345038452E+03  0.26794821239E+03  0.86876119825E+02 0.  0.
        -24    2    1    2    0    0  0.43824929713E+02 -0.81439345627E+01 -0.62498793040E+02  0.11072567152E+03  0.79794279667E+02 0.  0.
         13    1    4    4    0    0  0.22040030820E+02  0.33966268148E+02 -0.13846076000E+02  0.42792337527E+02  0.00000000000E+00 0. -1.
        -14    1    4    4    0    0  0.21784898893E+02 -0.42110202710E+02 -0.48652717040E+02  0.67933333993E+02  0.00000000000E+00 0.  1.
        -11    1    3    3    0    0  0.77968870427E+01 -0.31724712577E+02 -0.24532165508E+02  0.40854326334E+02  0.00000000000E+00 0.  1.
         11    1    3    3    0    0  0.88479839350E+02  0.98045335243E+01 -0.20891821901E+03  0.22709388606E+03  0.00000000000E+00 0. -1.
          2    1    1    2  501    0 -0.14010165611E+03  0.30064113615E+02 -0.32629459432E+03  0.35637127726E+03  0.00000000000E+00 0. -1.
<scales pt_clust_5="13000.00000" pt_clust_6="13000.00000" pt_clust_7="13000.00000" pt_clust_8="13000.00000" pt_clust_9="13000.00000"></scales>
<clustering>
<clus scale="   79.794">  5  6 -1 -1</clus>
<clus scale="   86.876">  7  8 -1 -1</clus>
<clus scale="  131.519">  2  7  1 -1</clus>
<clus scale="   64.548">  5  9 -1 -1</clus>
<clus scale="  258.881">  1  5  2 -1</clus>
</clustering>
</event>
<event>
 9    1  0.4516508E-005  0.3160576E+03  0.7546771E-02  0.1118576E+00
          1   -1    0    0  502    0 -0.00000000000E+00  0.00000000000E+00  0.46024115616E+03  0.46024115616E+03  0.00000000000E+00 0. -1.
         21   -1    0    0  501  502  0.00000000000E+00 -0.00000000000E+00 -0.20870008232E+03  0.20870008232E+03  0.00000000000E+00 0. -1.
         23    2    1    2    0    0 -0.51797077791E+02 -0.17623453438E+02  0.32659458761E+03  0.34409449361E+03  0.93506537204E+02 0.  0.
        -24    2    1    2    0    0  0.35458855136E+02 -0.13393440015E+03 -0.13493282648E+02  0.16044971765E+03  0.79789029745E+02 0.  0.
         13    1    4    4    0    0  0.59063174449E+02 -0.72951309206E+02 -0.14922084050E+02  0.95042204748E+02  0.00000000000E+00 0. -1.
        -14    1    4    4    0    0 -0.23604319313E+02 -0.60983090940E+02  0.14288014021E+01  0.65407512904E+02  0.00000000000E+00 0.  1.
        -13    1    3    3    0    0  0.26458424840E+02 -0.56756447751E+01  0.56637763425E+02  0.62770195431E+02  0.00000000000E+00 0.  1.
         13    1    3    3    0    0 -0.78255502630E+02 -0.11947808663E+02  0.26995682418E+03  0.28132429818E+03  0.00000000000E+00 0. -1.
          2    1    1    2  501    0  0.16338222655E+02  0.15155785358E+03 -0.61560231121E+02  0.16439702722E+03  0.00000000000E+00 0. -1.
<scales pt_clust_5="13000.00000" pt_clust_6="13000.00000" pt_clust_7="13000.00000" pt_clust_8="13000.00000" pt_clust_9="13000.00000"></scales>
<clustering>
<clus scale="   79.789">  5  6 -1 -1</clus>
<clus scale="   93.507">  7  8 -1 -1</clus>
<clus scale="  108.337">  1  7  2 -1</clus>
<clus scale="  144.389">  5  9 -1 -1</clus>
<clus scale="  316.058">  2  5  1 -1</clus>
</clustering>
</event>
<event>
 9    1  0.4516508E-005  0.2483066E+03  0.7546771E-02  0.1154651E+00
         21   -1    0    0  501  502  0.00000000000E+00  0.00000000000E+00  0.14907174007E+03  0.14907174007E+03  0.00000000000E+00 0.  1.
         -4   -1    0    0    0  501 -0.00000000000E+00 -0.00000000000E+00 -0.20161941889E+03  0.20161941889E+03  0.00000000000E+00 0.  1.
         23    2    1    2    0    0 -0.21966373047E+02  0.11611952386E+02  0.12761417116E+02  0.93939453143E+02  0.89690624410E+02 0.  0.
        -24    2    1    2    0    0 -0.25425354072E+02 -0.30982002452E+01 -0.14264649338E+03  0.16564993405E+03  0.80223631835E+02 0.  0.
         13    1    4    4    0    0  0.13810827500E+02  0.15416160536E+02 -0.49515376621E+01  0.21281792385E+02  0.00000000000E+00 0. -1.
        -14    1    4    4    0    0 -0.39236181572E+02 -0.18514360781E+02 -0.13769495571E+03  0.14436814167E+03  0.00000000000E+00 0.  1.
        -13    1    3    3    0    0  0.29438533609E+02 -0.56577967024E+01  0.24189885394E+02  0.38519975077E+02  0.00000000000E+00 0. -1.
         13    1    3    3    0    0 -0.51404906656E+02  0.17269749088E+02 -0.11428468278E+02  0.55419478066E+02  0.00000000000E+00 0.  1.
         -3    1    1    2    0  502  0.47391727119E+02 -0.85137521406E+01  0.77337397445E+02  0.91101771763E+02  0.00000000000E+00 0.  1.
<scales pt_clust_5="13000.00000" pt_clust_6="13000.00000" pt_clust_7="13000.00000" pt_clust_8="13000.00000" pt_clust_9="13000.00000"></scales>
<clustering>
<clus scale="   80.224">  5  6 -1 -1</clus>
<clus scale="   48.150">  5  9 -1 -1</clus>
<clus scale="   89.691">  7  8 -1 -1</clus>
<clus scale="   93.069">  2  7  1 -1</clus>
<clus scale="  248.307">  1  5  2 -1</clus>
</clustering>
</event>
<event>
 9    1  0.4516508E-005  0.2361712E+03  0.7546771E-02  0.1156947E+00
         21   -1    0    0  501  502  0.00000000000E+00  0.00000000000E+00  0.40885121405E+02  0.40885121405E+02  0.00000000000E+00 0. -1.
          1   -1    0    0  502    0 -0.00000000000E+00 -0.00000000000E+00 -0.70842179302E+03  0.70842179302E+03  0.00000000000E+00 0. -1.
         23    2    1    2    0    0 -0.96164517287E+01  0.45252252245E+02 -0.16886549462E+03  0.19753722130E+03  0.91461227036E+02 0.  0.
        -24    2    1    2    0    0  0.62493501624E+02 -0.96870444424E+02 -0.20102105461E+03  0.24508416114E+03  0.79796371448E+02 0.  0.
         13    1    4    4    0    0  0.57209540827E+02 -0.10510511392E+03 -0.14401270773E+03  0.18724229363E+03  0.00000000000E+00 0. -1.
        -14    1    4    4    0    0  0.52839607969E+01  0.82346694990E+01 -0.57008346876E+02  0.57841867510E+02  0.00000000000E+00 0.  1.
        -13    1    3    3    0    0 -0.71249967920E+01 -0.27835469218E+02 -0.38208750404E+02  0.47806772881E+02  0.00000000000E+00 0.  1.
         13    1    3    3    0    0 -0.24914549367E+01  0.73087721463E+02 -0.13065674421E+03  0.14973044842E+03  0.00000000000E+00 0. -1.
          2    1    1    2  501    0 -0.52877049895E+02  0.51618192179E+02 -0.29765012239E+03  0.30668553198E+03  0.00000000000E+00 0. -1.
<scales pt_clust_5="13000.00000" pt_clust_6="13000.00000" pt_clust_7="13000.00000" pt_clust_8="13000.00000" pt_clust_9="13000.00000"></scales>
<clustering>
<clus scale="   79.796">  5  6 -1 -1</clus>
<clus scale="   73.895">  5  9 -1 -1</clus>
<clus scale="   91.461">  7  8 -1 -1</clus>
<clus scale="  102.496">  2  7  1 -1</clus>
<clus scale="  236.171">  1  5  2 -1</clus>
</clustering>
</event>
<event>
 9    1  0.4516508E-005  0.1880916E+03  0.7546771E-02  0.1186814E+00
          1   -1    0    0  502    0 -0.00000000000E+00  0.00000000000E+00  0.59747848900E+03  0.59747848900E+03  0.00000000000E+00 0. -1.
         21   -1    0    0  501  502  0.00000000000E+00 -0.00000000000E+00 -0.36184976666E+02  0.36184976666E+02  0.00000000000E+00 0. -1.
         23    2    1    2    0    0  0.30401671689E+02 -0.33983084834E+02  0.15478526966E+03  0.18574894427E+03  0.92005863379E+02 0.  0.
        -24    2    1    2    0    0 -0.65705225256E+02  0.41665733636E+02  0.39455472147E+03  0.40985863281E+03  0.79104112815E+02 0.  0.
         11    1    4    4    0    0 -0.43538624050E+02  0.47232859489E+02  0.13723118117E+03  0.15152211682E+03  0.00000000000E+00 0. -1.
        -12    1    4    4    0    0 -0.22166601205E+02 -0.55671258525E+01  0.25732354030E+03  0.25833651599E+03  0.00000000000E+00 0.  1.
        -11    1    3    3    0    0 -0.11532169203E+02 -0.20471306425E+02 -0.13324155772E+01  0.23533819166E+02  0.00000000000E+00 0.  1.
         11    1    3    3    0    0  0.41933840891E+02 -0.13511778409E+02  0.15611768524E+03  0.16221512510E+03  0.00000000000E+00 0. -1.
          2    1    1    2  501    0  0.35303553567E+02 -0.76826488022E+01  0.11953521194E+02  0.38055888585E+02  0.00000000000E+00 0. -1.
<scales pt_clust_5="13000.00000" pt_clust_6="13000.00000" pt_clust_7="13000.00000" pt_clust_8="13000.00000" pt_clust_9="13000.00000"></scales>
<clustering>
<clus scale="   79.104">  5  6 -1 -1</clus>
<clus scale="   36.130">  5  9 -1 -1</clus>
<clus scale="   92.006">  7  8 -1 -1</clus>
<clus scale="  102.685">  1  7  2 -1</clus>
<clus scale="  188.092">  2  5  1 -1</clus>
</clustering>
</event>
<event>
 9    1  0.4516508E-005  0.2171441E+03  0.7546771E-02  0.1161247E+00
         21   -1    0    0  501  502  0.00000000000E+00  0.00000000000E+00  0.13707355583E+03  0.13707355583E+03  0.00000000000E+00 0. -1.
          1   -1    0    0  502    0 -0.00000000000E+00 -0.00000000000E+00 -0.27074094061E+03  0.27074094061E+03  0.00000000000E+00 0. -1.
         23    2    1    2    0    0 -0.62516623719E+02 -0.38178783926E+02 -0.14812888170E+03  0.19018933093E+03  0.94148118540E+02 0.  0.
        -24    2    1    2    0    0 -0.57692077622E+02  0.13574853505E+02 -0.13801709954E+02  0.91711329359E+02  0.68613615755E+02 0.  0.
         13    1    4    4    0    0 -0.40626932437E+02  0.28855084139E+02  0.17595232613E+02  0.52846529977E+02  0.00000000000E+00 0. -1.
        -14    1    4    4    0    0 -0.17065145186E+02 -0.15280230634E+02 -0.31396942567E+02  0.38864799382E+02  0.00000000000E+00 0.  1.
        -11    1    3    3    0    0 -0.34258255062E+02  0.11596337823E+02 -0.56020626501E+01  0.36598991745E+02  0.00000000000E+00 0.  1.
         11    1    3    3    0    0 -0.28258368656E+02 -0.49775121749E+02 -0.14252681905E+03  0.15359033919E+03  0.00000000000E+00 0. -1.
          2    1    1    2  501    0  0.12020870134E+03  0.24603930421E+02  0.28263206873E+02  0.12591383615E+03  0.00000000000E+00 0. -1.
<scales pt_clust_5="13000.00000" pt_clust_6="13000.00000" pt_clust_7="13000.00000" pt_clust_8="13000.00000" pt_clust_9="13000.00000"></scales>
<clustering>
<clus scale="   68.614">  5  6 -1 -1</clus>
<clus scale="   94.148">  7  8 -1 -1</clus>
<clus scale="  119.289">  2  7  1 -1</clus>
<clus scale="   90.377">  5  9 -1 -1</clus>
<clus scale="  217.144">  1  5  2 -1</clus>
</clustering>
</event>
<event>
 9    1  0.4516508E-005  0.1534015E+03  0.7546771E-02  0.1219162E+00
          1   -1    0    0  502    0 -0.00000000000E+00  0.00000000000E+00  0.64056363471E+03  0.64056363471E+03  0.00000000000E+00 0. -1.
         21   -1    0    0  501  502  0.00000000000E+00 -0.00000000000E+00 -0.24227218348E+02  0.24227218348E+02  0.00000000000E+00 0. -1.
         23    2    1    2    0    0  0.14559838639E+02  0.80915721911E+01  0.19797513189E+03  0.21919216488E+03  0.92593681505E+02 0.  0.
        -24    2    1    2    0    0 -0.51309094993E+02 -0.42827278127E+02  0.29271502819E+03  0.31015844739E+03  0.77777733156E+02 0.  0.
         13    1    4    4    0    0 -0.62657283194E+02 -0.55175693273E+02  0.26419645982E+03  0.27707410858E+03  0.00000000000E+00 0. -1.
        -14    1    4    4    0    0  0.11348188201E+02  0.12348415146E+02  0.28518568371E+02  0.33084338802E+02  0.00000000000E+00 0.  1.
        -11    1    3    3    0    0 -0.28354373060E+02  0.33616822001E+02  0.99315407755E+02  0.10861680998E+03  0.00000000000E+00 0.  1.
         11    1    3    3    0    0  0.42914211699E+02 -0.25525249810E+02  0.98659724136E+02  0.11057535490E+03  0.00000000000E+00 0. -1.
          2    1    1    2  501    0  0.36749256354E+02  0.34735705936E+02  0.12564625628E+03  0.13544024080E+03  0.00000000000E+00 0. -1.
<scales pt_clust_5="13000.00000" pt_clust_6="13000.00000" pt_clust_7="13000.00000" pt_clust_8="13000.00000" pt_clust_9="13000.00000"></scales>
<clustering>
<clus scale="   77.778">  5  6 -1 -1</clus>
<clus scale="   50.568">  5  9 -1 -1</clus>
<clus scale="   92.594">  7  8 -1 -1</clus>
<clus scale="   94.080">  1  7  2 -1</clus>
<clus scale="  153.402">  2  5  1 -1</clus>
</clustering>
</event>
<event>
 9    1  0.4516508E-005  0.2308547E+03  0.7546771E-02  0.1160527E+00
         -2   -1    0    0    0  501 -0.00000000000E+00  0.00000000000E+00  0.36432008996E+03  0.36432008996E+03  0.00000000000E+00 0.  1.
         21   -1    0    0  501  502  0.00000000000E+00 -0.00000000000E+00 -0.80299967238E+02  0.80299967238E+02  0.00000000000E+00 0.  1.
         23    2    1    2    0    0  0.55746183680E+01  0.47670426739E+02  0.13973645988E+03  0.17238544403E+03  0.88808316815E+02 0.  0.
        -24    2    1    2    0    0 -0.38249659057E+02 -0.10047447745E+03  0.23192029596E+02  0.13614967757E+03  0.80254018150E+02 0.  0.
         11    1    4    4    0    0 -0.19569518367E+02 -0.22027440519E+02  0.43919849068E+02  0.52887875048E+02  0.00000000000E+00 0. -1.
        -12    1    4    4    0    0 -0.18680140690E+02 -0.78447036933E+02 -0.20727819472E+02  0.83261802526E+02  0.00000000000E+00 0.  1.
        -13    1    3    3    0    0  0.10525404261E+02 -0.25286025254E+02  0.31229387667E+02  0.41538438368E+02  0.00000000000E+00 0. -1.
         13    1    3    3    0    0 -0.49507858935E+01  0.72956451993E+02  0.10850707222E+03  0.13084700566E+03  0.00000000000E+00 0.  1.
         -1    1    1    2    0  502  0.32675040689E+02  0.52804050714E+02  0.12109163325E+03  0.13608493560E+03  0.00000000000E+00 0.  1.
<scales pt_clust_5="13000.00000" pt_clust_6="13000.00000" pt_clust_7="13000.00000" pt_clust_8="13000.00000" pt_clust_9="13000.00000"></scales>
<clustering>
<clus scale="   80.254">  5  6 -1 -1</clus>
<clus scale="   62.096">  5  9 -1 -1</clus>
<clus scale="   88.808">  7  8 -1 -1</clus>
<clus scale="  100.948">  1  7  2 -1</clus>
<clus scale="  230.855">  2  5  1 -1</clus>
</clustering>
</event>
<event>
 9    1  0.4516508E-005  0.2813740E+03  0.7546771E-02  0.1121321E+00
         21   -1    0    0  501  502  0.00000000000E+00  0.00000000000E+00  0.61438018415E+02  0.61438018415E+02  0.00000000000E+00 0. -1.
          1   -1    0    0  502    0 -0.00000000000E+00 -0.00000000000E+00 -0.86373650715E+03  0.86373650715E+03  0.00000000000E+00 0. -1.
         23    2    1    2    0    0  0.87745685694E+02 -0.67787504188E+02 -0.46137650455E+03  0.48313476438E+03  0.90865122700E+02 0.  0.
        -24    2    1    2    0    0 -0.56589684226E+02 -0.53214071099E+02 -0.28404000948E+03  0.30475306592E+03  0.78495697212E+02 0.  0.
         11    1    4    4    0    0 -0.36341587993E+02 -0.58586789168E+02 -0.11254247401E+03  0.13198079913E+03  0.00000000000E+00 0. -1.
        -12    1    4    4    0    0 -0.20248096233E+02  0.53727180689E+01 -0.17149753547E+03  0.17277226679E+03  0.00000000000E+00 0.  1.
        -11    1    3    3    0    0  0.29219394129E+02 -0.76053977119E+02 -0.21926335632E+03  0.23391109391E+03  0.00000000000E+00 0. -1.
         11    1    3    3    0    0  0.58526291565E+02  0.82664729312E+01 -0.24211314823E+03  0.24922367047E+03  0.00000000000E+00 0.  1.
          2    1    1    2  501    0 -0.31156001468E+02  0.12100157529E+03 -0.56881974712E+02  0.13728669526E+03  0.00000000000E+00 0. -1.
<scales pt_clust_5="13000.00000" pt_clust_6="13000.00000" pt_clust_7="13000.00000" pt_clust_8="13000.00000" pt_clust_9="13000.00000"></scales>
<clustering>
<clus scale="   78.496">  5  6 -1 -1</clus>
<clus scale="   90.865">  7  8 -1 -1</clus>
<clus scale="  124.948">  5  9 -1 -1</clus>
<clus scale="  143.356">  2  7  1 -1</clus>
<clus scale="  281.374">  1  5  2 -1</clus>
</clustering>
</event>
<event>
 9    1  0.4516508E-005  0.4638077E+03  0.7546771E-02  0.1072521E+00
         21   -1    0    0  501  502  0.00000000000E+00  0.00000000000E+00  0.98901401844E+02  0.98901401844E+02  0.00000000000E+00 0.  1.
          1   -1    0    0  502    0 -0.00000000000E+00 -0.00000000000E+00 -0.84981125473E+03  0.84981125473E+03  0.00000000000E+00 0. -1.
         23    2    1    2    0    0  0.32492077301E+02 -0.60043147768E+02 -0.12204036438E+03  0.16730725487E+03  0.91852884072E+02 0.  0.
        -24    2    1    2    0    0  0.15908499814E+03  0.14528241597E+03 -0.20389772428E+03  0.30751880233E+03  0.81108043956E+02 0.  0.
         11    1    4    4    0    0  0.47884461765E+02  0.98427142588E+02 -0.10096786249E+03  0.14891384533E+03  0.00000000000E+00 0. -1.
        -12    1    4    4    0    0  0.11120053638E+03  0.46855273380E+02 -0.10292986179E+03  0.15860495699E+03  0.00000000000E+00 0.  1.
        -11    1    3    3    0    0  0.49740922149E+02 -0.27702041574E+02 -0.11724978439E+03  0.13034214355E+03  0.00000000000E+00 0.  1.
         11    1    3    3    0    0 -0.17248844848E+02 -0.32341106194E+02 -0.47905799851E+01  0.36965111322E+02  0.00000000000E+00 0. -1.
          2    1    1    2  501    0 -0.19157707545E+03 -0.85239268200E+02 -0.42497176423E+03  0.47388659938E+03  0.00000000000E+00 0. -1.
<scales pt_clust_5="13000.00000" pt_clust_6="13000.00000" pt_clust_7="13000.00000" pt_clust_8="13000.00000" pt_clust_9="13000.00000"></scales>
<clustering>
<clus scale="   81.108">  5  6 -1 -1</clus>
<clus scale="   91.853">  7  8 -1 -1</clus>
<clus scale="  114.446">  2  7  1 -1</clus>
<clus scale="  210.832">  5  9 -1 -1</clus>
<clus scale="  463.808">  1  5  2 -1</clus>
</clustering>
</event>
<event>
 9    1  0.4516508E-005  0.1722886E+03  0.7546771E-02  0.1202055E+00
         21   -1    0    0  501  502  0.00000000000E+00  0.00000000000E+00  0.14434778520E+03  0.14434778520E+03  0.00000000000E+00 0. -1.
          1   -1    0    0  502    0 -0.00000000000E+00 -0.00000000000E+00 -0.34821961114E+03  0.34821961114E+03  0.00000000000E+00 0. -1.
         23    2    1    2    0    0  0.29255519296E+02  0.50356835611E+01 -0.28609644423E+03  0.30166363968E+03  0.90931471939E+02 0.  0.
        -24    2    1    2    0    0 -0.28098094141E+01  0.19005070356E+02  0.11564497174E+03  0.14197264747E+03  0.80083615135E+02 0.  0.
         13    1    4    4    0    0 -0.74185505374E+01  0.43897996573E+02  0.10584336073E+03  0.11482545887E+03  0.00000000000E+00 0. -1.
        -14    1    4    4    0    0  0.46087411234E+01 -0.24892926217E+02  0.98016110140E+01  0.27147188600E+02  0.00000000000E+00 0.  1.
        -13    1    3    3    0    0  0.46435261059E+02  0.17991494411E+02 -0.27060701562E+03  0.27515102079E+03  0.00000000000E+00 0. -1.
         13    1    3    3    0    0 -0.17179741763E+02 -0.12955810850E+02 -0.15489428608E+02  0.26512618891E+02  0.00000000000E+00 0.  1.
          2    1    1    2  501    0 -0.26445709882E+02 -0.24040753917E+02 -0.33420353460E+02  0.48931109179E+02  0.00000000000E+00 0. -1.
<scales pt_clust_5="13000.00000" pt_clust_6="13000.00000" pt_clust_7="13000.00000" pt_clust_8="13000.00000" pt_clust_9="13000.00000"></scales>
<clustering>
<clus scale="   80.084">  5  6 -1 -1</clus>
<clus scale="   35.740">  5  9 -1 -1</clus>
<clus scale="   90.931">  7  8 -1 -1</clus>
<clus scale="   95.654">  2  7  1 -1</clus>
<clus scale="  172.289">  1  5  2 -1</clus>
</clustering>
</event>
<event>
 9    1  0.4516508E-005  0.2373241E+03  0.7546771E-02  0.1142404E+00
         21   -1    0    0  501  502  0.00000000000E+00  0.00000000000E+00  0.85728544522E+02  0.85728544522E+02  0.00000000000E+00 0.  1.
          1   -1    0    0  502    0 -0.00000000000E+00 -0.00000000000E+00 -0.77431921953E+03  0.77431921953E+03  0.00000000000E+00 0. -1.
         23    2    1    2    0    0 -0.10386582519E+02 -0.10936774478E+03 -0.12065737854E+02  0.14310373440E+03  0.90906061810E+02 0.  0.
        -24    2    1    2    0    0 -0.23529318816E+02  0.14838726220E+03 -0.39055758118E+03  0.42634096741E+03  0.81602621569E+02 0.  0.
         11    1    4    4    0    0 -0.77229925351E+01  0.12135201831E+03 -0.20652955890E+03  0.23966730203E+03  0.00000000000E+00 0. -1.
        -12    1    4    4    0    0 -0.15806326281E+02  0.27035243888E+02 -0.18402802228E+03  0.18667366538E+03  0.00000000000E+00 0.  1.
        -13    1    3    3    0    0 -0.31229119916E+02 -0.40389842267E+02  0.30442410692E+02  0.59441884709E+02  0.00000000000E+00 0. -1.
         13    1    3    3    0    0  0.20842537397E+02 -0.68977902517E+02 -0.42508148547E+02  0.83661849691E+02  0.00000000000E+00 0.  1.
          2    1    1    2  501    0  0.33915901335E+02 -0.39019517415E+02 -0.28596735597E+03  0.29060306224E+03  0.00000000000E+00 0. -1.
<scales pt_clust_5="13000.00000" pt_clust_6="13000.00000" pt_clust_7="13000.00000" pt_clust_8="13000.00000" pt_clust_9="13000.00000"></scales>
<clustering>
<clus scale="   81.603">  5  6 -1 -1</clus>
<clus scale="   51.699">  5  9 -1 -1</clus>
<clus scale="   90.906">  7  8 -1 -1</clus>
<clus scale="  142.594">  2  7  1 -1</clus>
<clus scale="  237.324">  1  5  2 -1</clus>
</clustering>
</event>
<event>
 9    1  0.4516508E-005  0.1708554E+03  0.7546771E-02  0.1204579E+00
         21   -1    0    0  501  502  0.00000000000E+00  0.00000000000E+00  0.36192644758E+03  0.36192644758E+03  0.00000000000E+00 0. -1.
          1   -1    0    0  502    0 -0.00000000000E+00 -0.00000000000E+00 -0.11521564997E+03  0.11521564997E+03  0.00000000000E+00 0. -1.
         23    2    1    2    0    0  0.81573565131E+01  0.18996602376E+02 -0.70661297074E+02  0.11670260178E+03  0.90548688510E+02 0.  0.
        -24    2    1    2    0    0  0.11498573812E+01  0.29755438184E+02  0.76382450663E+02  0.11439195116E+03  0.79778013556E+02 0.  0.
         11    1    4    4    0    0  0.38095249300E+02  0.24159074103E+02  0.27384118868E+02  0.52771193343E+02  0.00000000000E+00 0. -1.
        -12    1    4    4    0    0 -0.36945391918E+02  0.55963640804E+01  0.48998331795E+02  0.61620757814E+02  0.00000000000E+00 0.  1.
        -13    1    3    3    0    0  0.33121955330E+02  0.29181716723E+02 -0.34418766711E+01  0.44277342183E+02  0.00000000000E+00 0.  1.
         13    1    3    3    0    0 -0.24964598817E+02 -0.10185114347E+02 -0.67219420403E+02  0.72425259597E+02  0.00000000000E+00 0. -1.
          2    1    1    2  501    0 -0.93072138943E+01 -0.48752040560E+02  0.24098964402E+03  0.24604754462E+03  0.00000000000E+00 0. -1.
<scales pt_clust_5="13000.00000" pt_clust_6="13000.00000" pt_clust_7="13000.00000" pt_clust_8="13000.00000" pt_clust_9="13000.00000"></scales>
<clustering>
<clus scale="   79.778">  5  6 -1 -1</clus>
<clus scale="   49.633">  5  9 -1 -1</clus>
<clus scale="   90.549">  7  8 -1 -1</clus>
<clus scale="   92.879">  2  7  1 -1</clus>
<clus scale="  170.855">  1  5  2 -1</clus>
</clustering>
</event>
<event>
 9    1  0.4516508E-005  0.3137837E+03  0.7546771E-02  0.1115502E+00
          1   -1    0    0  502    0 -0.00000000000E+00  0.00000000000E+00  0.11019132171E+04  0.11019132171E+04  0.00000000000E+00 0. -1.
         21   -1    0    0  501  502  0.00000000000E+00 -0.00000000000E+00 -0.55414650039E+02  0.55414650039E+02  0.00000000000E+00 0. -1.
         23    2    1    2    0    0  0.67504608617E+01  0.78832392308E+02  0.59872001396E+03  0.61055018213E+03  0.89698132588E+02 0.  0.
        -24    2    1    2    0    0 -0.26635694727E+02  0.81058783150E+02  0.32072739186E+03  0.34158848428E+03  0.80849527795E+02 0.  0.
         11    1    4    4    0    0 -0.53246711764E+02  0.67804371790E+02  0.26101903663E+03  0.27488830938E+03  0.00000000000E+00 0. -1.
        -12    1    4    4    0    0  0.26611017037E+02  0.13254411360E+02  0.59708355225E+02  0.66700174902E+02  0.00000000000E+00 0.  1.
        -11    1    3    3    0    0 -0.55959117919E+01 -0.19372528084E+02  0.82646889049E+02  0.85071248625E+02  0.00000000000E+00 0.  1.
         11    1    3    3    0    0  0.12346372654E+02  0.98204920392E+02  0.51607312491E+03  0.52547893351E+03  0.00000000000E+00 0. -1.
          2    1    1    2  501    0  0.19885233865E+02 -0.15989117546E+03  0.12705116121E+03  0.20518920069E+03  0.00000000000E+00 0. -1.
<scales pt_clust_5="13000.00000" pt_clust_6="13000.00000" pt_clust_7="13000.00000" pt_clust_8="13000.00000" pt_clust_9="13000.00000"></scales>
<clustering>
<clus scale="   80.850">  5  6 -1 -1</clus>
<clus scale="   89.698">  7  8 -1 -1</clus>
<clus scale="  119.607">  1  7  2 -1</clus>
<clus scale="  135.379">  5  9 -1 -1</clus>
<clus scale="  313.784">  2  5  1 -1</clus>
</clustering>
</event>
<event>
 9    1  0.4516508E-005  0.4576763E+03  0.7546771E-02  0.1058228E+00
          1   -1    0    0  502    0 -0.00000000000E+00  0.00000000000E+00  0.77968282245E+03  0.77968282245E+03  0.00000000000E+00 0. -1.
         21   -1    0    0  501  502  0.00000000000E+00 -0.00000000000E+00 -0.16568704862E+03  0.16568704862E+03  0.00000000000E+00 0. -1.
         23    2    1    2    0    0 -0.91162110759E+02  0.12237585815E+03  0.40551865149E+03  0.44244809829E+03  0.89602242602E+02 0.  0.
        -24    2    1    2    0    0  0.17709292919E+03 -0.22511478156E+03  0.59966517221E+02  0.30293479378E+03  0.78325830020E+02 0.  0.
         11    1    4    4    0    0  0.17317773220E+03 -0.23128075333E+03  0.61659193927E+02  0.29543725220E+03  0.00000000000E+00 0. -1.
        -12    1    4    4    0    0  0.39151969869E+01  0.61659717691E+01 -0.16926767060E+01  0.74975415794E+01  0.00000000000E+00 0.  1.
        -13    1    3    3    0    0 -0.69019611934E+02  0.13455041245E+03  0.35802393032E+03  0.38864978452E+03  0.00000000000E+00 0. -1.
         13    1    3    3    0    0 -0.22142498825E+02 -0.12174554291E+02  0.47494721169E+02  0.53798313777E+02  0.00000000000E+00 0.  1.
          2    1    1    2  501    0 -0.85930818430E+02  0.10273892340E+03  0.14851060512E+03  0.19998697900E+03  0.00000000000E+00 0. -1.
<scales pt_clust_5="13000.00000" pt_clust_6="13000.00000" pt_clust_7="13000.00000" pt_clust_8="13000.00000" pt_clust_9="13000.00000"></scales>
<clustering>
<clus scale="   78.326">  5  6 -1 -1</clus>
<clus scale="   89.602">  7  8 -1 -1</clus>
<clus scale="  133.938">  5  9 -1 -1</clus>
<clus scale="  176.960">  1  7  2 -1</clus>
<clus scale="  457.676">  2  5  1 -1</clus>
</clustering>
</event>
<event>
 9    1  0.4516508E-005  0.1617311E+03  0.7546771E-02  0.1205350E+00
          1   -1    0    0  502    0 -0.00000000000E+00  0.00000000000E+00  0.21397784558E+03  0.21397784558E+03  0.00000000000E+00 0. -1.
         21   -1    0    0  501  502  0.00000000000E+00 -0.00000000000E+00 -0.12804524555E+03  0.12804524555E+03  0.00000000000E+00 0. -1.
         23    2    1    2    0    0 -0.46240366511E+02  0.32837047637E+02  0.13529465186E+03  0.17292675939E+03  0.91556420296E+02 0.  0.
        -24    2    1    2    0    0  0.14659623858E+02 -0.23631808176E+02 -0.85148861944E+02  0.12048794236E+03  0.80583178363E+02 0.  0.
         11    1    4    4    0    0  0.39623954599E+01 -0.21674728245E+02 -0.99821655557E+02  0.10222454373E+03  0.00000000000E+00 0. -1.
        -12    1    4    4    0    0  0.10697228398E+02 -0.19570799314E+01  0.14672793613E+02  0.18263398634E+02  0.00000000000E+00 0.  1.
        -11    1    3    3    0    0  0.16390511496E+02  0.23085564091E+02  0.60149868376E+01  0.28944294830E+02  0.00000000000E+00 0.  1.
         11    1    3    3    0    0 -0.62630878008E+02  0.97514835452E+01  0.12927966503E+03  0.14398246456E+03  0.00000000000E+00 0. -1.
          2    1    1    2  501    0  0.31580742654E+02 -0.92052394604E+01  0.35786810104E+02  0.48608389374E+02  0.00000000000E+00 0. -1.
<scales pt_clust_5="13000.00000" pt_clust_6="13000.00000" pt_clust_7="13000.00000" pt_clust_8="13000.00000" pt_clust_9="13000.00000"></scales>
<clustering>
<clus scale="   80.583">  5  6 -1 -1</clus>
<clus scale="   32.895">  5  9 -1 -1</clus>
<clus scale="   91.556">  7  8 -1 -1</clus>
<clus scale="  107.699">  1  7  2 -1</clus>
<clus scale="  161.731">  2  5  1 -1</clus>
</clustering>
</event>
<event>
 9    1  0.4516508E-005  0.2879480E+03  0.7546771E-02  0.1119145E+00
         21   -1    0    0  501  502  0.00000000000E+00  0.00000000000E+00  0.16497746221E+03  0.16497746221E+03  0.00000000000E+00 0. -1.
          1   -1    0    0  502    0 -0.00000000000E+00 -0.00000000000E+00 -0.28379739397E+03  0.28379739397E+03  0.00000000000E+00 0. -1.
         23    2    1    2    0    0 -0.14832182379E+02 -0.10949296898E+03 -0.66511771418E+02  0.15611429670E+03  0.87972461642E+02 0.  0.
        -24    2    1    2    0    0  0.57119134811E+02 -0.53291299530E+02  0.10439769684E+02  0.11314953713E+03  0.81186641727E+02 0.  0.
         11    1    4    4    0    0 -0.44877234643E+01 -0.43862475859E+02  0.22759956368E+02  0.49619271098E+02  0.00000000000E+00 0. -1.
        -12    1    4    4    0    0  0.61606858275E+02 -0.94288236710E+01 -0.12320186685E+02  0.63530266034E+02  0.00000000000E+00 0.  1.
        -11    1    3    3    0    0 -0.48267606647E+02 -0.70638797987E+02 -0.59878137237E+02  0.10442697425E+03  0.00000000000E+00 0. -1.
         11    1    3    3    0    0  0.33435424269E+02 -0.38854170993E+02 -0.66336341810E+01  0.51687322450E+02  0.00000000000E+00 0.  1.
          2    1    1    2  501    0 -0.42286952432E+02  0.16278426851E+03 -0.62747930027E+02  0.17951102234E+03  0.00000000000E+00 0. -1.
<scales pt_clust_5="13000.00000" pt_clust_6="13000.00000" pt_clust_7="13000.00000" pt_clust_8="13000.00000" pt_clust_9="13000.00000"></scales>
<clustering>
<clus scale="   81.187">  5  6 -1 -1</clus>
<clus scale="   87.972">  7  8 -1 -1</clus>
<clus scale="  141.237">  2  7  1 -1</clus>
<clus scale="  100.772">  5  9 -1 -1</clus>
<clus scale="  287.948">  1  5  2 -1</clus>
</clustering>
</event>
<event>
 9    1  0.4516508E-005  0.1896229E+03  0.7546771E-02  0.1188110E+00
         21   -1    0    0  501  502  0.00000000000E+00  0.00000000000E+00  0.83049487364E+02  0.83049487364E+02  0.00000000000E+00 0. -1.
         -2   -1    0    0    0  501 -0.00000000000E+00 -0.00000000000E+00 -0.29153320997E+03  0.29153320997E+03  0.00000000000E+00 0.  1.
         23    2    1    2    0    0 -0.11119385319E+02  0.34687340959E+02 -0.65857532779E+01  0.97599595908E+02  0.90307566807E+02 0.  0.
        -24    2    1    2    0    0  0.40759370343E+02  0.37367249817E+02 -0.57608016721E+02  0.11300144639E+03  0.79956273465E+02 0.  0.
         13    1    4    4    0    0  0.59349517384E+02  0.63369534227E+01 -0.44794530319E+02  0.74626216163E+02  0.00000000000E+00 0. -1.
        -14    1    4    4    0    0 -0.18590147040E+02  0.31030296395E+02 -0.12813486401E+02  0.38375230228E+02  0.00000000000E+00 0.  1.
        -13    1    3    3    0    0  0.23606074414E+02 -0.33365776494E+01 -0.32216992544E+02  0.40078848640E+02  0.00000000000E+00 0.  1.
         13    1    3    3    0    0 -0.34725459733E+02  0.38023918608E+02  0.25631239266E+02  0.57520747269E+02  0.00000000000E+00 0. -1.
         -1    1    1    2    0  502 -0.29639985025E+02 -0.72054590776E+02 -0.14428995261E+03  0.16398165503E+03  0.00000000000E+00 0.  1.
<scales pt_clust_5="13000.00000" pt_clust_6="13000.00000" pt_clust_7="13000.00000" pt_clust_8="13000.00000" pt_clust_9="13000.00000"></scales>
<clustering>
<clus scale="   79.956">  5  6 -1 -1</clus>
<clus scale="   77.913">  5  9 -1 -1</clus>
<clus scale="   90.308">  7  8 -1 -1</clus>
<clus scale="   97.377">  2  7  1 -1</clus>
<clus scale="  189.623">  1  5  2 -1</clus>
</clustering>
</event>
<event>
 9    1  0.4516508E-005  0.5473324E+03  0.7546771E-02  0.1015124E+00
          1   -1    0    0  502    0 -0.00000000000E+00  0.00000000000E+00  0.38212485974E+03  0.38212485974E+03  0.00000000000E+00 0. -1.
         21   -1    0    0  501  502  0.00000000000E+00 -0.00000000000E+00 -0.58893006497E+03  0.58893006497E+03  0.00000000000E+00 0. -1.
         23    2    1    2    0    0  0.32471204834E+03  0.14127539559E+03  0.45034570765E+02  0.36856344740E+03  0.91729223582E+02 0.  0.
        -24    2    1    2    0    0  0.72991947602E+02 -0.70753498446E+01 -0.11968597039E+03  0.16244290158E+03  0.81762337150E+02 0.  0.
         13    1    4    4    0    0  0.55666382526E+02 -0.19300580574E+02 -0.12700932109E+03  0.14000937896E+03  0.00000000000E+00 0. -1.
        -14    1    4    4    0    0  0.17325565076E+02  0.12225230729E+02  0.73233507006E+01  0.22433522619E+02  0.00000000000E+00 0.  1.
        -13    1    3    3    0    0  0.91470943916E+02  0.13773623262E+01  0.29581806519E+02  0.96145275416E+02  0.00000000000E+00 0.  1.
         13    1    3    3    0    0  0.23324110442E+03  0.13989803327E+03  0.15452764246E+02  0.27241817198E+03  0.00000000000E+00 0. -1.
          2    1    1    2  501    0 -0.39770399594E+03 -0.13420004575E+03 -0.13215380561E+03  0.44004857573E+03  0.00000000000E+00 0. -1.
<scales pt_clust_5="13000.00000" pt_clust_6="13000.00000" pt_clust_7="13000.00000" pt_clust_8="13000.00000" pt_clust_9="13000.00000"></scales>
<clustering>
<clus scale="   81.762">  5  6 -1 -1</clus>
<clus scale="   91.729">  7  8 -1 -1</clus>
<clus scale="  365.802">  1  7  2 -1</clus>
<clus scale="  113.043">  5  9 -1 -1</clus>
<clus scale="  547.332">  2  5  1 -1</clus>
</clustering>
</event>
<event>
 9    1  0.4516508E-005  0.1502384E+03  0.7546771E-02  0.1206942E+00
         21   -1    0    0  501  502  0.00000000000E+00  0.00000000000E+00  0.30704012973E+02  0.30704012973E+02  0.00000000000E+00 0. -1.
          3   -1    0    0  502    0 -0.00000000000E+00 -0.00000000000E+00 -0.71712388442E+03  0.71712388442E+03  0.00000000000E+00 0. -1.
         23    2    1    2    0    0 -0.49126653171E+02 -0.82131382859E+02 -0.44431707111E+03  0.46289750233E+03  0.87735089219E+02 0.  0.
        -24    2    1    2    0    0  0.45732209144E+02  0.54195391311E+02 -0.12662697560E+03  0.16607498723E+03  0.80733729255E+02 0.  0.
         13    1    4    4    0    0  0.38627612936E+02  0.45725959678E+02 -0.26707349786E+02  0.65545697053E+02  0.00000000000E+00 0. -1.
        -14    1    4    4    0    0  0.71045962080E+01  0.84694316335E+01 -0.99919625816E+02  0.10052929017E+03  0.00000000000E+00 0.  1.
        -11    1    3    3    0    0 -0.18614284615E+02  0.16037558389E+02 -0.12662415506E+03  0.12898593534E+03  0.00000000000E+00 0.  1.
         11    1    3    3    0    0 -0.30512368556E+02 -0.98168941248E+02 -0.31769291605E+03  0.33391156699E+03  0.00000000000E+00 0. -1.
          4    1    1    2  501    0  0.33944440270E+01  0.27935991548E+02 -0.11547582473E+03  0.11885540784E+03  0.00000000000E+00 0. -1.
<scales pt_clust_5="13000.00000" pt_clust_6="13000.00000" pt_clust_7="13000.00000" pt_clust_8="13000.00000" pt_clust_9="13000.00000"></scales>
<clustering>
<clus scale="   80.734">  5  6 -1 -1</clus>
<clus scale="   28.141">  5  9 -1 -1</clus>
<clus scale="   87.735">  7  8 -1 -1</clus>
<clus scale="  129.832">  2  7  1 -1</clus>
<clus scale="  150.238">  1  5  2 -1</clus>
</clustering>
</event>
<event>
 9    1  0.4516508E-005  0.2849080E+03  0.7546771E-02  0.1111769E+00
          1   -1    0    0  502    0 -0.00000000000E+00  0.00000000000E+00  0.88272490635E+02  0.88272490635E+02  0.00000000000E+00 0. -1.
         21   -1    0    0  501  502  0.00000000000E+00 -0.00000000000E+00 -0.61270463460E+03  0.61270463460E+03  0.00000000000E+00 0. -1.
         23    2    1    2    0    0  0.29716040474E+02  0.14645749441E+03 -0.15339896128E+03  0.23317567061E+03  0.92232376703E+02 0.  0.
        -24    2    1    2    0    0  0.80100436577E+02 -0.11221504476E+03 -0.25020340313E+03  0.30097208186E+03  0.94732016296E+02 0.  0.
         13    1    4    4    0    0  0.73784987296E+02 -0.72160573989E+02 -0.23672020766E+03  0.25823986815E+03  0.00000000000E+00 0. -1.
        -14    1    4    4    0    0  0.63154492812E+01 -0.40054470769E+02 -0.13483195469E+02  0.42732213707E+02  0.00000000000E+00 0.  1.
        -11    1    3    3    0    0 -0.13284736051E+02  0.12102424833E+03 -0.85053869972E+02  0.14851772182E+03  0.00000000000E+00 0. -1.
         11    1    3    3    0    0  0.43000776525E+02  0.25433246076E+02 -0.68345091311E+02  0.84657948794E+02  0.00000000000E+00 0.  1.
          2    1    1    2  501    0 -0.10981647705E+03 -0.34242449651E+02 -0.12082977956E+03  0.16682937277E+03  0.00000000000E+00 0. -1.
<scales pt_clust_5="13000.00000" pt_clust_6="13000.00000" pt_clust_7="13000.00000" pt_clust_8="13000.00000" pt_clust_9="13000.00000"></scales>
<clustering>
<clus scale="   92.232">  7  8 -1 -1</clus>
<clus scale="   94.732">  5  6 -1 -1</clus>
<clus scale="  115.031">  5  9 -1 -1</clus>
<clus scale="  175.612">  1  7  2 -1</clus>
<clus scale="  284.908">  2  5  1 -1</clus>
</clustering>
</event>
<event>
 9    1  0.4516508E-005  0.2422330E+03  0.7546771E-02  0.1140908E+00
          3   -1    0    0  502    0 -0.00000000000E+00  0.00000000000E+00  0.18186122260E+04  0.18186122260E+04  0.00000000000E+00 0. -1.
         21   -1    0    0  501  502  0.00000000000E+00 -0.00000000000E+00 -0.33389542173E+02  0.33389542173E+02  0.00000000000E+00 0. -1.
         23    2    1    2    0    0  0.20648221918E+02 -0.10386561123E+03  0.17419368992E+03  0.22286357927E+03  0.90057310033E+02 0.  0.
        -24    2    1    2    0    0 -0.64049348192E+02 -0.23567013283E+02  0.59512874262E+03  0.60435721127E+03  0.80073062954E+02 0.  0.
         11    1    4    4    0    0 -0.51232890851E+02 -0.21719549453E+01  0.14985878450E+03  0.15838933609E+03  0.00000000000E+00 0. -1.
        -12    1    4    4    0    0 -0.12816457341E+02 -0.21395058337E+02  0.44526995811E+03  0.44596787519E+03  0.00000000000E+00 0.  1.
        -13    1    3    3    0    0  0.74728139944E+01 -0.26916719697E+02  0.13038322547E+03  0.13334218474E+03  0.00000000000E+00 0.  1.
         13    1    3    3    0    0  0.13175407923E+02 -0.76948891533E+02  0.43810464456E+02  0.89521394526E+02  0.00000000000E+00 0. -1.
          4    1    1    2  501    0  0.43401126274E+02  0.12743262451E+03  0.10159002513E+04  0.10247809777E+04  0.00000000000E+00 0. -1.
<scales pt_clust_5="13000.00000" pt_clust_6="13000.00000" pt_clust_7="13000.00000" pt_clust_8="13000.00000" pt_clust_9="13000.00000"></scales>
<clustering>
<clus scale="   80.073">  5  6 -1 -1</clus>
<clus scale="   90.057">  7  8 -1 -1</clus>
<clus scale="  134.621">  5  9 -1 -1</clus>
<clus scale="  139.013">  1  7  2 -1</clus>
<clus scale="  242.233">  2  5  1 -1</clus>
</clustering>
</event>
<event>
 9    1  0.4516508E-005  0.2298220E+03  0.7546771E-02  0.1158158E+00
         21   -1    0    0  501  502  0.00000000000E+00  0.00000000000E+00  0.79173296777E+02  0.79173296777E+02  0.00000000000E+00 0. -1.
          1   -1    0    0  502    0 -0.00000000000E+00 -0.00000000000E+00 -0.39576976986E+03  0.39576976986E+03  0.00000000000E+00 0. -1.
         23    2    1    2    0    0  0.64067613206E+01  0.57849487224E+02 -0.17281163257E+03  0.20384853765E+03  0.91119461081E+02 0.  0.
        -24    2    1    2    0    0  0.64103829970E+02  0.22016657901E+02 -0.19300509104E+02  0.10724492298E+03  0.80838911498E+02 0.  0.
         11    1    4    4    0    0  0.73269409876E+02  0.40698455421E+02 -0.98510930569E+01  0.84390845070E+02  0.00000000000E+00 0. -1.
        -12    1    4    4    0    0 -0.91655799064E+01 -0.18681797521E+02 -0.94494160471E+01  0.22854077913E+02  0.00000000000E+00 0.  1.
        -11    1    3    3    0    0 -0.25418069721E+01 -0.24349913469E+02 -0.28913994313E+02  0.37886648516E+02  0.00000000000E+00 0.  1.
         11    1    3    3    0    0  0.89485682926E+01  0.82199400693E+02 -0.14389763826E+03  0.16596188914E+03  0.00000000000E+00 0. -1.
          2    1    1    2  501    0 -0.70510591290E+02 -0.79866145125E+02 -0.12448433141E+03  0.16384960600E+03  0.00000000000E+00 0. -1.
<scales pt_clust_5="13000.00000" pt_clust_6="13000.00000" pt_clust_7="13000.00000" pt_clust_8="13000.00000" pt_clust_9="13000.00000"></scales>
<clustering>
<clus scale="   80.839">  5  6 -1 -1</clus>
<clus scale="   91.119">  7  8 -1 -1</clus>
<clus scale="  106.538">  5  9 -1 -1</clus>
<clus scale="  108.122">  2  7  1 -1</clus>
<clus scale="  229.822">  1  5  2 -1</clus>
</clustering>
</event>
<event>
 9    1  0.4516508E-005  0.1409814E+03  0.7546771E-02  0.1226585E+00
         21   -1    0    0  501  502  0.00000000000E+00  0.00000000000E+00  0.25693026737E+03  0.25693026737E+03  0.00000000000E+00 0.  1.
          1   -1    0    0  502    0 -0.00000000000E+00 -0.00000000000E+00 -0.96930698937E+02  0.96930698937E+02  0.00000000000E+00 0. -1.
         23    2    1    2    0    0 -0.18454800710E+02  0.49652774217E+02  0.18361362648E+03  0.21091556312E+03  0.89249276072E+02 0.  0.
        -24    2    1    2    0    0 -0.89772226101E+01 -0.50914240696E+01  0.95081286193E+01  0.81015530913E+02  0.79790968251E+02 0.  0.
         11    1    4    4    0    0 -0.39470083925E+02 -0.21436284050E+02  0.11489062248E+02  0.46361625837E+02  0.00000000000E+00 0. -1.
        -12    1    4    4    0    0  0.30492861315E+02  0.16344859981E+02 -0.19809336291E+01  0.34653905076E+02  0.00000000000E+00 0.  1.
        -13    1    3    3    0    0 -0.47373459669E+02  0.56745171645E+02  0.13477721690E+03  0.15371778486E+03  0.00000000000E+00 0.  1.
         13    1    3    3    0    0  0.28918658959E+02 -0.70923974281E+01  0.48836409579E+02  0.57197778259E+02  0.00000000000E+00 0. -1.
          2    1    1    2  501    0  0.27432023320E+02 -0.44561350147E+02 -0.33122186668E+02  0.61929872276E+02  0.00000000000E+00 0. -1.
<scales pt_clust_5="13000.00000" pt_clust_6="13000.00000" pt_clust_7="13000.00000" pt_clust_8="13000.00000" pt_clust_9="13000.00000"></scales>
<clustering>
<clus scale="   79.791">  5  6 -1 -1</clus>
<clus scale="   52.328">  5  9 -1 -1</clus>
<clus scale="   89.249">  7  8 -1 -1</clus>
<clus scale="  103.785">  2  7  1 -1</clus>
<clus scale="  140.981">  1  5  2 -1</clus>
</clustering>
</event>
<event>
 9    1  0.4516508E-005  0.3646503E+03  0.7546771E-02  0.1096951E+00
          1   -1    0    0  502    0 -0.00000000000E+00  0.00000000000E+00  0.13759851823E+03  0.13759851823E+03  0.00000000000E+00 0. -1.
         21   -1    0    0  501  502  0.00000000000E+00 -0.00000000000E+00 -0.81896934003E+03  0.81896934003E+03  0.00000000000E+00 0. -1.
         23    2    1    2    0    0  0.76918412500E+02 -0.26711920401E+02  0.55332568521E+02  0.13455707697E+03  0.91727558299E+02 0.  0.
        -24    2    1    2    0    0  0.76123282291E+02 -0.45175872749E+02 -0.57497033287E+03  0.58802959182E+03  0.85745574782E+02 0.  0.
         11    1    4    4    0    0  0.87893964770E+02 -0.23661293863E+02 -0.51901205899E+03  0.52693331954E+03  0.00000000000E+00 0. -1.
        -12    1    4    4    0    0 -0.11770682479E+02 -0.21514578886E+02 -0.55958273877E+02  0.61096272276E+02  0.00000000000E+00 0.  1.
        -13    1    3    3    0    0  0.85554629716E+02 -0.48080925489E+02  0.52601651434E+02  0.11134767081E+03  0.00000000000E+00 0. -1.
         13    1    3    3    0    0 -0.86362172161E+01  0.21369005088E+02  0.27309170868E+01  0.23209406162E+02  0.00000000000E+00 0.  1.
          2    1    1    2  501    0 -0.15304169479E+03  0.71887793150E+02 -0.16173305746E+03  0.23398118947E+03  0.00000000000E+00 0. -1.
<scales pt_clust_5="13000.00000" pt_clust_6="13000.00000" pt_clust_7="13000.00000" pt_clust_8="13000.00000" pt_clust_9="13000.00000"></scales>
<clustering>
<clus scale="   85.746">  5  6 -1 -1</clus>
<clus scale="   91.728">  7  8 -1 -1</clus>
<clus scale="  122.654">  1  7  2 -1</clus>
<clus scale="  100.763">  5  9 -1 -1</clus>
<clus scale="  364.650">  2  5  1 -1</clus>
</clustering>
</event>
<event>
 9    1  0.4516508E-005  0.1483029E+03  0.7546771E-02  0.1224629E+00
         21   -1    0    0  501  502  0.00000000000E+00  0.00000000000E+00  0.35847298255E+03  0.35847298255E+03  0.00000000000E+00 0. -1.
          1   -1    0    0  502    0 -0.00000000000E+00 -0.00000000000E+00 -0.74777118179E+02  0.74777118179E+02  0.00000000000E+00 0. -1.
         23    2    1    2    0    0  0.14434365872E+02  0.13814504780E+02 -0.20257286210E+02  0.95047099461E+02  0.90688488856E+02 0.  0.
        -24    2    1    2    0    0 -0.65646989527E+01  0.41567094636E+02  0.15432356078E+03  0.17845924597E+03  0.79126622782E+02 0.  0.
         13    1    4    4    0    0  0.71185950481E+00  0.35287122386E+02  0.16222290330E+03  0.16601794513E+03  0.00000000000E+00 0. -1.
        -14    1    4    4    0    0 -0.72765584575E+01  0.62799722496E+01 -0.78993425198E+01  0.12441300844E+02  0.00000000000E+00 0.  1.
        -13    1    3    3    0    0  0.40718521712E+01 -0.35290993532E+02  0.94059728594E+01  0.36749238495E+02  0.00000000000E+00 0.  1.
         13    1    3    3    0    0  0.10362513701E+02  0.49105498311E+02 -0.29663259069E+02  0.58297860966E+02  0.00000000000E+00 0. -1.
          2    1    1    2  501    0 -0.78696669197E+01 -0.55381599415E+02  0.14962958980E+03  0.15974375530E+03  0.00000000000E+00 0. -1.
<scales pt_clust_5="13000.00000" pt_clust_6="13000.00000" pt_clust_7="13000.00000" pt_clust_8="13000.00000" pt_clust_9="13000.00000"></scales>
<clustering>
<clus scale="   79.127">  5  6 -1 -1</clus>
<clus scale="   55.938">  5  9 -1 -1</clus>
<clus scale="   90.688">  7  8 -1 -1</clus>
<clus scale="   92.863">  2  7  1 -1</clus>
<clus scale="  148.303">  1  5  2 -1</clus>
</clustering>
</event>
<event>
 9    1  0.4516508E-005  0.8385927E+03  0.7546771E-02  0.9970045E-01
          1   -1    0    0  502    0 -0.00000000000E+00  0.00000000000E+00  0.18288853093E+03  0.18288853093E+03  0.00000000000E+00 0. -1.
         21   -1    0    0  501  502  0.00000000000E+00 -0.00000000000E+00 -0.14762107192E+04  0.14762107192E+04  0.00000000000E+00 0.  1.
         23    2    1    2    0    0 -0.61541252689E+02  0.14128254221E+03 -0.37532810399E+03  0.41573655376E+03  0.90651056082E+02 0.  0.
        -24    2    1    2    0    0  0.38406478561E+03 -0.19779093059E+03 -0.26495615463E+03  0.51283332339E+03  0.78544521982E+02 0.  0.
         13    1    4    4    0    0  0.52691276043E+02 -0.84662321816E+01 -0.11206938504E+02  0.54531120739E+02  0.00000000000E+00 0. -1.
        -14    1    4    4    0    0  0.33137350956E+03 -0.18932469841E+03 -0.25374921613E+03  0.45830220265E+03  0.00000000000E+00 0.  1.
        -11    1    3    3    0    0 -0.28302793591E+02  0.13776739575E+03 -0.25926176576E+03  0.29495349911E+03  0.00000000000E+00 0.  1.
         11    1    3    3    0    0 -0.33238459098E+02  0.35151464625E+01 -0.11606633824E+03  0.12078305465E+03  0.00000000000E+00 0. -1.
          2    1    1    2  501    0 -0.32252353292E+03  0.56508388380E+02 -0.65303792969E+03  0.73052937303E+03  0.00000000000E+00 0. -1.
<scales pt_clust_5="13000.00000" pt_clust_6="13000.00000" pt_clust_7="13000.00000" pt_clust_8="13000.00000" pt_clust_9="13000.00000"></scales>
<clustering>
<clus scale="   78.545">  5  6 -1 -1</clus>
<clus scale="   90.651">  7  8 -1 -1</clus>
<clus scale="  178.790">  1  7  2 -1</clus>
<clus scale="  349.026">  5  9 -1 -1</clus>
<clus scale="  838.593">  2  5  1 -1</clus>
</clustering>
</event>
<event>
 9    1  0.4516508E-005  0.1821723E+03  0.7546771E-02  0.1186684E+00
         21   -1    0    0  501  502  0.00000000000E+00  0.00000000000E+00  0.19629462771E+03  0.19629462771E+03  0.00000000000E+00 0. -1.
          1   -1    0    0  502    0 -0.00000000000E+00 -0.00000000000E+00 -0.37955681694E+03  0.37955681694E+03  0.00000000000E+00 0. -1.
         23    2    1    2    0    0  0.46340848576E+02  0.53837227005E+02 -0.32553578616E+03  0.34470534250E+03  0.88330650502E+02 0.  0.
        -24    2    1    2    0    0 -0.28746536303E+01 -0.64452881981E+02  0.15301839554E+03  0.18513031213E+03  0.81830101222E+02 0.  0.
         11    1    4    4    0    0  0.10862998209E+02 -0.70894147879E+02  0.15404478259E+03  0.16992286478E+03  0.00000000000E+00 0. -1.
        -12    1    4    4    0    0 -0.13737651839E+02  0.64412658980E+01 -0.10263870467E+01  0.15207447346E+02  0.00000000000E+00 0.  1.
        -13    1    3    3    0    0  0.29235588140E+02  0.65902969008E+02 -0.31093394551E+03  0.31918308133E+03  0.00000000000E+00 0. -1.
         13    1    3    3    0    0  0.17105260436E+02 -0.12065742003E+02 -0.14601840647E+02  0.25522261165E+02  0.00000000000E+00 0.  1.
          2    1    1    2  501    0 -0.43466194946E+02  0.10615654976E+02 -0.10744798617E+02  0.46015790018E+02  0.00000000000E+00 0. -1.
<scales pt_clust_5="13000.00000" pt_clust_6="13000.00000" pt_clust_7="13000.00000" pt_clust_8="13000.00000" pt_clust_9="13000.00000"></scales>
<clustering>
<clus scale="   81.830">  5  6 -1 -1</clus>
<clus scale="   44.744">  5  9 -1 -1</clus>
<clus scale="   88.331">  7  8 -1 -1</clus>
<clus scale="  113.350">  2  7  1 -1</clus>
<clus scale="  182.172">  1  5  2 -1</clus>
</clustering>
</event>
<event>
 9    1  0.4516508E-005  0.2822263E+03  0.7546771E-02  0.1133900E+00
          1   -1    0    0  502    0 -0.00000000000E+00  0.00000000000E+00  0.65743444235E+03  0.65743444235E+03  0.00000000000E+00 0. -1.
         21   -1    0    0  501  502  0.00000000000E+00 -0.00000000000E+00 -0.57052103806E+02  0.57052103806E+02  0.00000000000E+00 0. -1.
         23    2    1    2    0    0 -0.49711565993E+02  0.52074863104E+01  0.14032203948E+03  0.17475774062E+03  0.91387282683E+02 0.  0.
        -24    2    1    2    0    0  0.92267242030E+01  0.99703799784E+02  0.10101771375E+03  0.16348821969E+03  0.80609176628E+02 0.  0.
         13    1    4    4    0    0 -0.67998676308E+01  0.10079235186E+03  0.55595266595E+02  0.11530901986E+03  0.00000000000E+00 0. -1.
        -14    1    4    4    0    0  0.16026591834E+02 -0.10885520739E+01  0.45422447151E+02  0.48179199834E+02  0.00000000000E+00 0.  1.
        -13    1    3    3    0    0  0.25671188495E+02  0.59502567690E+01  0.21363612545E+02  0.33923729385E+02  0.00000000000E+00 0.  1.
         13    1    3    3    0    0 -0.75382754488E+02 -0.74277045862E+00  0.11895842694E+03  0.14083401124E+03  0.00000000000E+00 0. -1.
          2    1    1    2  501    0  0.40484841790E+02 -0.10491128609E+03  0.35904258532E+03  0.37624058585E+03  0.00000000000E+00 0. -1.
<scales pt_clust_5="13000.00000" pt_clust_6="13000.00000" pt_clust_7="13000.00000" pt_clust_8="13000.00000" pt_clust_9="13000.00000"></scales>
<clustering>
<clus scale="   80.609">  5  6 -1 -1</clus>
<clus scale="   91.387">  7  8 -1 -1</clus>
<clus scale="  104.163">  1  7  2 -1</clus>
<clus scale="  101.158">  5  9 -1 -1</clus>
<clus scale="  282.226">  2  5  1 -1</clus>
</clustering>
</event>
<event>
 9    1  0.4516508E-005  0.2141646E+03  0.7546771E-02  0.1173600E+00
         21   -1    0    0  501  502  0.00000000000E+00  0.00000000000E+00  0.97451051955E+02  0.97451051955E+02  0.00000000000E+00 0. -1.
          1   -1    0    0  502    0 -0.00000000000E+00 -0.00000000000E+00 -0.24991317431E+03  0.24991317431E+03  0.00000000000E+00 0. -1.
         23    2    1    2    0    0 -0.34507069204E+01  0.21582015051E+02 -0.73825381998E+02  0.11921907957E+03  0.91023684574E+02 0.  0.
        -24    2    1    2    0    0 -0.32235809537E+02 -0.79346406506E+02  0.62823453631E+01  0.11941840897E+03  0.82983666443E+02 0.  0.
         13    1    4    4    0    0 -0.46050838039E+02 -0.90058594848E+02  0.96730952336E+01  0.10161101791E+03  0.00000000000E+00 0. -1.
        -14    1    4    4    0    0  0.13815028502E+02  0.10712188343E+02 -0.33907498705E+01  0.17807391058E+02  0.00000000000E+00 0.  1.
        -13    1    3    3    0    0 -0.32390034559E+02 -0.14930390715E+02 -0.61389340507E+02  0.70997760764E+02  0.00000000000E+00 0.  1.
         13    1    3    3    0    0  0.28939327638E+02  0.36512405766E+02 -0.12436041491E+02  0.48221318801E+02  0.00000000000E+00 0. -1.
          2    1    1    2  501    0  0.35686516457E+02  0.57764391455E+02 -0.84919085719E+02  0.10872673773E+03  0.00000000000E+00 0. -1.
<scales pt_clust_5="13000.00000" pt_clust_6="13000.00000" pt_clust_7="13000.00000" pt_clust_8="13000.00000" pt_clust_9="13000.00000"></scales>
<clustering>
<clus scale="   82.984">  5  6 -1 -1</clus>
<clus scale="   67.899">  5  9 -1 -1</clus>
<clus scale="   91.024">  7  8 -1 -1</clus>
<clus scale="   93.611">  2  7  1 -1</clus>
<clus scale="  214.165">  1  5  2 -1</clus>
</clustering>
</event>
<event>
 9    1  0.4516508E-005  0.1983835E+03  0.7546771E-02  0.1183426E+00
          3   -1    0    0  502    0 -0.00000000000E+00  0.00000000000E+00  0.44551490773E+03  0.44551490773E+03  0.00000000000E+00 0. -1.
         21   -1    0    0  501  502  0.00000000000E+00 -0.00000000000E+00 -0.48114436034E+02  0.48114436034E+02  0.00000000000E+00 0. -1.
         23    2    1    2    0    0  0.18940547775E+02  0.13886688278E+02  0.12371076072E+03  0.15560258370E+03  0.91412402207E+02 0.  0.
        -24    2    1    2    0    0 -0.63220001751E+02 -0.60571444170E+02  0.11019398101E+03  0.16232533663E+03  0.80877271162E+02 0.  0.
         11    1    4    4    0    0 -0.49857818859E+02 -0.71695776931E+02  0.52106492411E+02  0.10169155856E+03  0.00000000000E+00 0. -1.
        -12    1    4    4    0    0 -0.13362182893E+02  0.11124332761E+02  0.58087488601E+02  0.60633778070E+02  0.00000000000E+00 0.  1.
        -13    1    3    3    0    0  0.35910589681E+02  0.45768502711E+02  0.79588241442E+02  0.98583033365E+02  0.00000000000E+00 0. -1.
         13    1    3    3    0    0 -0.16970041905E+02 -0.31881814434E+02  0.44122519274E+02  0.57019550340E+02  0.00000000000E+00 0.  1.
          4    1    1    2  501    0  0.44279453976E+02  0.46684755892E+02  0.16349572997E+03  0.17570142343E+03  0.00000000000E+00 0. -1.
<scales pt_clust_5="13000.00000" pt_clust_6="13000.00000" pt_clust_7="13000.00000" pt_clust_8="13000.00000" pt_clust_9="13000.00000"></scales>
<clustering>
<clus scale="   80.877">  5  6 -1 -1</clus>
<clus scale="   64.344">  5  9 -1 -1</clus>
<clus scale="   91.412">  7  8 -1 -1</clus>
<clus scale="   94.381">  1  7  2 -1</clus>
<clus scale="  198.384">  2  5  1 -1</clus>
</clustering>
</event>
<event>
 9    1  0.4516508E-005  0.3349451E+03  0.7546771E-02  0.1090320E+00
         21   -1    0    0  501  502  0.00000000000E+00  0.00000000000E+00  0.27547188484E+03  0.27547188484E+03  0.00000000000E+00 0. -1.
          1   -1    0    0  502    0 -0.00000000000E+00 -0.00000000000E+00 -0.46750743111E+03  0.46750743111E+03  0.00000000000E+00 0. -1.
         23    2    1    2    0    0  0.15421896410E+03  0.89644794302E+00 -0.33060558241E+03  0.38050188322E+03  0.10815423941E+03 0.  0.
        -24    2    1    2    0    0 -0.14530714665E+02  0.12017177484E+03  0.87932868338E+02  0.17081511416E+03  0.82420972797E+02 0.  0.
         11    1    4    4    0    0 -0.96159468499E+01  0.12636392137E+03  0.96402980559E+02  0.15922889725E+03  0.00000000000E+00 0. -1.
        -12    1    4    4    0    0 -0.49147678151E+01 -0.61921465359E+01 -0.84701122203E+01  0.11586216916E+02  0.00000000000E+00 0.  1.
        -11    1    3    3    0    0  0.44695654755E+02  0.30788034083E+02 -0.36930588026E+02  0.65646575910E+02  0.00000000000E+00 0.  1.
         11    1    3    3    0    0  0.10952330935E+03 -0.29891586140E+02 -0.29367499438E+03  0.31485530731E+03  0.00000000000E+00 0. -1.
          2    1    1    2  501    0 -0.13968824944E+03 -0.12106822278E+03  0.50637167802E+02  0.19166231857E+03  0.00000000000E+00 0. -1.
<scales pt_clust_5="13000.00000" pt_clust_6="13000.00000" pt_clust_7="13000.00000" pt_clust_8="13000.00000" pt_clust_9="13000.00000"></scales>
<clustering>
<clus scale="   82.421">  5  6 -1 -1</clus>
<clus scale="  108.154">  7  8 -1 -1</clus>
<clus scale="  184.852">  5  9 -1 -1</clus>
<clus scale="  188.366">  2  7  1 -1</clus>
<clus scale="  334.945">  1  5  2 -1</clus>
</clustering>
</event>
<event>
 9    1  0.4516508E-005  0.3320323E+03  0.7546771E-02  0.1083029E+00
         21   -1    0    0  501  502  0.00000000000E+00  0.00000000000E+00  0.54184923199E+02  0.54184923199E+02  0.00000000000E+00 0. -1.
          1   -1    0    0  502    0 -0.00000000000E+00 -0.00000000000E+00 -0.14852973099E+04  0.14852973099E+04  0.00000000000E+00 0. -1.
         23    2    1    2    0    0  0.20960963991E+03 -0.50056691248E+02 -0.62764712754E+03  0.67011358357E+03  0.93109745405E+02 0.  0.
        -24    2    1    2    0    0  0.15020555983E+02  0.50109201592E+02 -0.35179423589E+03  0.36492297264E+03  0.81688691833E+02 0.  0.
         11    1    4    4    0    0  0.20313916312E+01  0.57726100791E+02 -0.12579409079E+03  0.13842175603E+03  0.00000000000E+00 0. -1.
        -12    1    4    4    0    0  0.12989164352E+02 -0.76168991982E+01 -0.22600014510E+03  0.22650121662E+03  0.00000000000E+00 0.  1.
        -13    1    3    3    0    0  0.13444317903E+03 -0.74308042397E+02 -0.36963377471E+03  0.40028212670E+03  0.00000000000E+00 0. -1.
         13    1    3    3    0    0  0.75166460879E+02  0.24251351149E+02 -0.25801335283E+03  0.26983145687E+03  0.00000000000E+00 0.  1.
          2    1    1    2  501    0 -0.22463019589E+03 -0.52510344145E-01 -0.45167102324E+03  0.50444567685E+03  0.00000000000E+00 0. -1.
<scales pt_clust_5="13000.00000" pt_clust_6="13000.00000" pt_clust_7="13000.00000" pt_clust_8="13000.00000" pt_clust_9="13000.00000"></scales>
<clustering>
<clus scale="   81.689">  5  6 -1 -1</clus>
<clus scale="   93.110">  7  8 -1 -1</clus>
<clus scale="  224.630">  5  9 -1 -1</clus>
<clus scale="  234.758">  2  7  1 -1</clus>
<clus scale="  332.032">  1  5  2 -1</clus>
</clustering>
</event>
<event>
 9    1  0.4516508E-005  0.2355184E+03  0.7546771E-02  0.1148188E+00
          1   -1    0    0  502    0 -0.00000000000E+00  0.00000000000E+00  0.45844879425E+03  0.45844879425E+03  0.00000000000E+00 0. -1.
         21   -1    0    0  501  502  0.00000000000E+00 -0.00000000000E+00 -0.73644259596E+02  0.73644259596E+02  0.00000000000E+00 0. -1.
         23    2    1    2    0    0  0.10986332231E+01 -0.89569175360E+02  0.17776862621E+03  0.21851249037E+03  0.90123136948E+02 0.  0.
        -24    2    1    2    0    0 -0.77631377894E+02  0.47441256899E+01  0.14415125313E+03  0.18316955960E+03  0.81990037327E+02 0.  0.
         13    1    4    4    0    0 -0.32593704964E+02  0.17757839056E+02  0.64069583712E+01  0.37666159438E+02  0.00000000000E+00 0. -1.
        -14    1    4    4    0    0 -0.45037672931E+02 -0.13013713366E+02  0.13774429476E+03  0.14550340016E+03  0.00000000000E+00 0.  1.
        -11    1    3    3    0    0  0.29033583778E+02  0.32141076378E+01  0.30557436799E+02  0.42273353529E+02  0.00000000000E+00 0.  1.
         11    1    3    3    0    0 -0.27934950555E+02 -0.92783282997E+02  0.14721118941E+03  0.17623913684E+03  0.00000000000E+00 0. -1.
          2    1    1    2  501    0  0.76532744671E+02  0.84825049670E+02  0.62884655303E+02  0.13041100387E+03  0.00000000000E+00 0. -1.
<scales pt_clust_5="13000.00000" pt_clust_6="13000.00000" pt_clust_7="13000.00000" pt_clust_8="13000.00000" pt_clust_9="13000.00000"></scales>
<clustering>
<clus scale="   81.990">  5  6 -1 -1</clus>
<clus scale="   90.123">  7  8 -1 -1</clus>
<clus scale="  114.248">  5  9 -1 -1</clus>
<clus scale="  127.067">  1  7  2 -1</clus>
<clus scale="  235.518">  2  5  1 -1</clus>
</clustering>
</event>
<event>
 9    1  0.4516508E-005  0.1405858E+03  0.7546771E-02  0.1215454E+00
         -4   -1    0    0    0  501 -0.00000000000E+00  0.00000000000E+00  0.41015765357E+03  0.41015765357E+03  0.00000000000E+00 0.  1.
         21   -1    0    0  501  502  0.00000000000E+00 -0.00000000000E+00 -0.49664523566E+02  0.49664523566E+02  0.00000000000E+00 0.  1.
         23    2    1    2    0    0 -0.44984548726E+02  0.46839412620E+02  0.11755486081E+03  0.18325804055E+03  0.12468690359E+03 0.  0.
        -24    2    1    2    0    0  0.45831927269E+02 -0.65724359800E+01  0.15754914972E+03  0.18215307165E+03  0.78830479272E+02 0.  0.
         11    1    4    4    0    0  0.54376478115E+00 -0.36045139417E+02  0.78732361094E+02  0.86592912176E+02  0.00000000000E+00 0. -1.
        -12    1    4    4    0    0  0.45288162488E+02  0.29472703437E+02  0.78816788629E+02  0.95560159476E+02  0.00000000000E+00 0.  1.
        -13    1    3    3    0    0 -0.83908773465E+02  0.47553779318E+02  0.10447977063E+03  0.14219024813E+03  0.00000000000E+00 0.  1.
         13    1    3    3    0    0  0.38924224739E+02 -0.71436669841E+00  0.13075090185E+02  0.41067792425E+02  0.00000000000E+00 0. -1.
         -3    1    1    2    0  502 -0.84737854346E+00 -0.40266976640E+02  0.85389119470E+02  0.94411064934E+02  0.00000000000E+00 0.  1.
<scales pt_clust_5="13000.00000" pt_clust_6="13000.00000" pt_clust_7="13000.00000" pt_clust_8="13000.00000" pt_clust_9="13000.00000"></scales>
<clustering>
<clus scale="   78.830">  5  6 -1 -1</clus>
<clus scale="   40.276">  5  9 -1 -1</clus>
<clus scale="  124.687">  7  8 -1 -1</clus>
<clus scale="  132.169">  2  5  1 -1</clus>
<clus scale="  132.169">  2  5  1 -1</clus>
</clustering>
</event>
<event>
 9    1  0.4516508E-005  0.2537803E+03  0.7546771E-02  0.1145542E+00
          1   -1    0    0  502    0 -0.00000000000E+00  0.00000000000E+00  0.27789600657E+03  0.27789600657E+03  0.00000000000E+00 0. -1.
         21   -1    0    0  501  502  0.00000000000E+00 -0.00000000000E+00 -0.20793843839E+03  0.20793843839E+03  0.00000000000E+00 0. -1.
         23    2    1    2    0    0  0.51865440713E+02 -0.18093317380E+02  0.17937835578E+03  0.20946989618E+03  0.93186108460E+02 0.  0.
        -24    2    1    2    0    0  0.55670405046E-01  0.53717610503E+02  0.47448590356E+02  0.10732936374E+03  0.79891418917E+02 0.  0.
         11    1    4    4    0    0  0.22546154241E+02  0.37826116555E+02 -0.86122167779E+01  0.44869972616E+02  0.00000000000E+00 0. -1.
        -12    1    4    4    0    0 -0.22490483836E+02  0.15891493948E+02  0.56060807133E+02  0.62459391123E+02  0.00000000000E+00 0.  1.
        -13    1    3    3    0    0 -0.13735199377E+01  0.24900772119E+02  0.10698113805E+03  0.10984943745E+03  0.00000000000E+00 0.  1.
         13    1    3    3    0    0  0.53238960651E+02 -0.42994089500E+02  0.72397217724E+02  0.99620458728E+02  0.00000000000E+00 0. -1.
          2    1    1    2  501    0 -0.51921111118E+02 -0.35624293123E+02 -0.15686937795E+03  0.16903518503E+03  0.00000000000E+00 0. -1.
<scales pt_clust_5="13000.00000" pt_clust_6="13000.00000" pt_clust_7="13000.00000" pt_clust_8="13000.00000" pt_clust_9="13000.00000"></scales>
<clustering>
<clus scale="   79.891">  5  6 -1 -1</clus>
<clus scale="   62.967">  5  9 -1 -1</clus>
<clus scale="   93.186">  7  8 -1 -1</clus>
<clus scale="  108.171">  1  7  2 -1</clus>
<clus scale="  253.780">  2  5  1 -1</clus>
</clustering>
</event>
<event>
 9    1  0.4516508E-005  0.2967669E+03  0.7546771E-02  0.1125958E+00
         21   -1    0    0  501  502  0.00000000000E+00  0.00000000000E+00  0.13824791242E+03  0.13824791242E+03  0.00000000000E+00 0.  1.
          1   -1    0    0  502    0 -0.00000000000E+00 -0.00000000000E+00 -0.44000053320E+03  0.44000053320E+03  0.00000000000E+00 0. -1.
         23    2    1    2    0    0 -0.25010249764E+02 -0.24547584888E+02  0.48477929419E+02  0.11919284245E+03  0.10309572025E+03 0.  0.
        -24    2    1    2    0    0 -0.84244196781E+02 -0.41477517060E+01 -0.32316234601E+03  0.34289776180E+03  0.77657482812E+02 0.  0.
         11    1    4    4    0    0 -0.78416955336E+02  0.26945918683E+01 -0.14806625993E+03  0.16757117008E+03  0.00000000000E+00 0. -1.
        -12    1    4    4    0    0 -0.58272414445E+01 -0.68423435743E+01 -0.17509608607E+03  0.17532659173E+03  0.00000000000E+00 0.  1.
        -13    1    3    3    0    0 -0.60017152757E+02 -0.18510439520E+02  0.54507549946E+02  0.83161096658E+02  0.00000000000E+00 0.  1.
         13    1    3    3    0    0  0.35006902992E+02 -0.60371453673E+01 -0.60296205265E+01  0.36031745795E+02  0.00000000000E+00 0. -1.
          2    1    1    2  501    0  0.10925444655E+03  0.28695336594E+02 -0.27068204188E+02  0.11615784136E+03  0.00000000000E+00 0. -1.
<scales pt_clust_5="13000.00000" pt_clust_6="13000.00000" pt_clust_7="13000.00000" pt_clust_8="13000.00000" pt_clust_9="13000.00000"></scales>
<clustering>
<clus scale="   77.657">  5  6 -1 -1</clus>
<clus scale="  103.096">  7  8 -1 -1</clus>
<clus scale="  108.889">  2  7  1 -1</clus>
<clus scale="  107.619">  5  9 -1 -1</clus>
<clus scale="  296.767">  1  5  2 -1</clus>
</clustering>
</event>
<event>
 9    1  0.4516508E-005  0.1936122E+03  0.7546771E-02  0.1181438E+00
          1   -1    0    0  502    0 -0.00000000000E+00  0.00000000000E+00  0.31275290560E+03  0.31275290560E+03  0.00000000000E+00 0. -1.
         21   -1    0    0  501  502  0.00000000000E+00 -0.00000000000E+00 -0.73386755423E+02  0.73386755423E+02  0.00000000000E+00 0. -1.
         23    2    1    2    0    0  0.18784987235E+01 -0.43208234507E+02  0.58570297306E+02  0.12123810722E+03  0.96941831161E+02 0.  0.
        -24    2    1    2    0    0  0.36845238285E+02 -0.26087483531E+02  0.15935407134E+03  0.18267519342E+03  0.77060871122E+02 0.  0.
         11    1    4    4    0    0 -0.21559128513E+02 -0.21444915033E+02  0.47362289929E+02  0.56283806821E+02  0.00000000000E+00 0. -1.
        -12    1    4    4    0    0  0.58404366798E+02 -0.46425684983E+01  0.11199178141E+03  0.12639138660E+03  0.00000000000E+00 0.  1.
        -13    1    3    3    0    0 -0.47142538887E+02 -0.14664479177E+02  0.25304533628E+02  0.55477791452E+02  0.00000000000E+00 0.  1.
         13    1    3    3    0    0  0.49021037610E+02 -0.28543755330E+02  0.33265763678E+02  0.65760315768E+02  0.00000000000E+00 0. -1.
          2    1    1    2  501    0 -0.38723737009E+02  0.69295718039E+02  0.21441781533E+02  0.82226360382E+02  0.00000000000E+00 0. -1.
<scales pt_clust_5="13000.00000" pt_clust_6="13000.00000" pt_clust_7="13000.00000" pt_clust_8="13000.00000" pt_clust_9="13000.00000"></scales>
<clustering>
<clus scale="   77.061">  5  6 -1 -1</clus>
<clus scale="   79.382">  5  9 -1 -1</clus>
<clus scale="   96.942">  7  8 -1 -1</clus>
<clus scale="  106.152">  1  7  2 -1</clus>
<clus scale="  193.612">  2  5  1 -1</clus>
</clustering>
</event>
<event>
 9    1  0.4516508E-005  0.2163953E+03  0.7546771E-02  0.1155400E+00
         21   -1    0    0  501  502  0.00000000000E+00  0.00000000000E+00  0.15701031781E+03  0.15701031781E+03  0.00000000000E+00 0. -1.
         -2   -1    0    0    0  501 -0.00000000000E+00 -0.00000000000E+00 -0.20332174599E+03  0.20332174599E+03  0.00000000000E+00 0.  1.
         23    2    1    2    0    0 -0.11768925305E+02 -0.96002083880E+02 -0.40037040732E+02  0.14384584195E+03  0.98659788682E+02 0.  0.
        -24    2    1    2    0    0 -0.47402870194E+02 -0.46743645821E+01  0.15133158969E+02  0.97762459691E+02  0.84021451056E+02 0.  0.
         11    1    4    4    0    0 -0.41409554850E+02 -0.41610302038E+02  0.13878992135E+02  0.60322424448E+02  0.00000000000E+00 0. -1.
        -12    1    4    4    0    0 -0.59933153443E+01  0.36935937456E+02  0.12541668338E+01  0.37440035243E+02  0.00000000000E+00 0.  1.
        -11    1    3    3    0    0 -0.50557974910E+02 -0.23524955979E+02 -0.12449503027E+02  0.57136000091E+02  0.00000000000E+00 0.  1.
         11    1    3    3    0    0  0.38789049605E+02 -0.72477127901E+02 -0.27587537705E+02  0.86709841856E+02  0.00000000000E+00 0. -1.
         -1    1    1    2    0  502  0.59171795499E+02  0.10067644846E+03 -0.21407546412E+02  0.11872376216E+03  0.00000000000E+00 0.  1.
<scales pt_clust_5="13000.00000" pt_clust_6="13000.00000" pt_clust_7="13000.00000" pt_clust_8="13000.00000" pt_clust_9="13000.00000"></scales>
<clustering>
<clus scale="   84.021">  5  6 -1 -1</clus>
<clus scale="   98.660">  7  8 -1 -1</clus>
<clus scale="  116.778">  5  9 -1 -1</clus>
<clus scale="  138.162">  2  7  1 -1</clus>
<clus scale="  216.395">  1  5  2 -1</clus>
</clustering>
</event>
<event>
 9    1  0.4516508E-005  0.2023775E+03  0.7546771E-02  0.1177330E+00
         21   -1    0    0  501  502  0.00000000000E+00  0.00000000000E+00  0.73945674923E+03  0.73945674923E+03  0.00000000000E+00 0. -1.
          3   -1    0    0  502    0 -0.00000000000E+00 -0.00000000000E+00 -0.33738941191E+02  0.33738941191E+02  0.00000000000E+00 0. -1.
         23    2    1    2    0    0  0.38122645812E+02  0.18459573858E+02  0.14648293220E+03  0.17846862239E+03  0.92734609300E+02 0.  0.
        -24    2    1    2    0    0  0.43909825560E+02 -0.46142806913E+02  0.40664187550E+03  0.41928388206E+03  0.79900734855E+02 0.  0.
         13    1    4    4    0    0  0.26628051078E+02 -0.58656354246E+02  0.37863409220E+03  0.38407472811E+03  0.00000000000E+00 0. -1.
        -14    1    4    4    0    0  0.17281774483E+02  0.12513547333E+02  0.28007783306E+02  0.35209153950E+02  0.00000000000E+00 0.  1.
        -13    1    3    3    0    0 -0.24725829000E+02 -0.98009100102E+01  0.73167511209E+02  0.77851841040E+02  0.00000000000E+00 0.  1.
         13    1    3    3    0    0  0.62848474812E+02  0.28260483868E+02  0.73315420994E+02  0.10061678136E+03  0.00000000000E+00 0. -1.
          4    1    1    2  501    0 -0.82032471373E+02  0.27683233055E+02  0.15259300033E+03  0.17544318597E+03  0.00000000000E+00 0. -1.
<scales pt_clust_5="13000.00000" pt_clust_6="13000.00000" pt_clust_7="13000.00000" pt_clust_8="13000.00000" pt_clust_9="13000.00000"></scales>
<clustering>
<clus scale="   79.901">  5  6 -1 -1</clus>
<clus scale="   86.578">  5  9 -1 -1</clus>
<clus scale="   92.735">  7  8 -1 -1</clus>
<clus scale="  101.950">  2  7  1 -1</clus>
<clus scale="  202.377">  1  5  2 -1</clus>
</clustering>
</event>
<event>
 9    1  0.4516508E-005  0.2717510E+03  0.7546771E-02  0.1112176E+00
         21   -1    0    0  501  502  0.00000000000E+00  0.00000000000E+00  0.64325486546E+02  0.64325486546E+02  0.00000000000E+00 0. -1.
          1   -1    0    0  502    0 -0.00000000000E+00 -0.00000000000E+00 -0.86719260194E+03  0.86719260194E+03  0.00000000000E+00 0. -1.
         23    2    1    2    0    0 -0.16456494752E+03  0.68897477130E+02 -0.32381449014E+03  0.38075495351E+03  0.91049581489E+02 0.  0.
        -24    2    1    2    0    0 -0.15555086075E+02 -0.17169174146E+02 -0.15202070602E+03  0.17384282505E+03  0.81082004912E+02 0.  0.
         11    1    4    4    0    0 -0.47401586433E+02 -0.23020039888E+01 -0.69583940989E+02  0.84226684978E+02  0.00000000000E+00 0. -1.
        -12    1    4    4    0    0  0.31846500359E+02 -0.14867170157E+02 -0.82436765029E+02  0.89616140076E+02  0.00000000000E+00 0.  1.
        -11    1    3    3    0    0 -0.81394335315E+02 -0.26333079801E+01 -0.19644927868E+03  0.21266003674E+03  0.00000000000E+00 0.  1.
         11    1    3    3    0    0 -0.83170612209E+02  0.71530785110E+02 -0.12736521146E+03  0.16809491677E+03  0.00000000000E+00 0. -1.
          2    1    1    2  501    0  0.18012003360E+03 -0.51728302984E+02 -0.32703191923E+03  0.37692030992E+03  0.00000000000E+00 0. -1.
<scales pt_clust_5="13000.00000" pt_clust_6="13000.00000" pt_clust_7="13000.00000" pt_clust_8="13000.00000" pt_clust_9="13000.00000"></scales>
<clustering>
<clus scale="   81.082">  5  6 -1 -1</clus>
<clus scale="   91.050">  7  8 -1 -1</clus>
<clus scale="  187.401">  5  9 -1 -1</clus>
<clus scale="  200.296">  2  7  1 -1</clus>
<clus scale="  271.751">  1  5  2 -1</clus>
</clustering>
</event>
<event>
 9    1  0.4516508E-005  0.3112524E+03  0.7546771E-02  0.1116751E+00
          1   -1    0    0  502    0 -0.00000000000E+00  0.00000000000E+00  0.69515444150E+02  0.69515444150E+02  0.00000000000E+00 0. -1.
         21   -1    0    0  501  502  0.00000000000E+00 -0.00000000000E+00 -0.73219310744E+03  0.73219310744E+03  0.00000000000E+00 0. -1.
         23    2    1    2    0    0 -0.73896671279E+02 -0.11970681144E+01 -0.30647111608E+03  0.32867454012E+03  0.92952984559E+02 0.  0.
        -24    2    1    2    0    0 -0.70883019777E+02 -0.40492978280E+01 -0.21717555734E+02  0.10851848543E+03  0.79144236353E+02 0.  0.
         11    1    4    4    0    0 -0.62094685197E+02 -0.36873981619E+02 -0.12311641582E+02  0.73259927441E+02  0.00000000000E+00 0. -1.
        -12    1    4    4    0    0 -0.87883345801E+01  0.32824683791E+02 -0.94059141521E+01  0.35258557992E+02  0.00000000000E+00 0.  1.
        -13    1    3    3    0    0  0.93554944001E+01  0.24587716097E+02 -0.36559349634E+02  0.45040727170E+02  0.00000000000E+00 0.  1.
         13    1    3    3    0    0 -0.83252165679E+02 -0.25784784211E+02 -0.26991176644E+03  0.28363381295E+03  0.00000000000E+00 0. -1.
          2    1    1    2  501    0  0.14477969106E+03  0.52463659423E+01 -0.33448899148E+03  0.36451552604E+03  0.00000000000E+00 0. -1.
<scales pt_clust_5="13000.00000" pt_clust_6="13000.00000" pt_clust_7="13000.00000" pt_clust_8="13000.00000" pt_clust_9="13000.00000"></scales>
<clustering>
<clus scale="   79.144">  5  6 -1 -1</clus>
<clus scale="   92.953">  7  8 -1 -1</clus>
<clus scale="  118.754">  1  7  2 -1</clus>
<clus scale="  125.884">  5  9 -1 -1</clus>
<clus scale="  311.252">  2  5  1 -1</clus>
</clustering>
</event>
<event>
 9    1  0.4516508E-005  0.1237053E+03  0.7546771E-02  0.1244140E+00
         21   -1    0    0  501  502  0.00000000000E+00  0.00000000000E+00  0.15831099136E+02  0.15831099136E+02  0.00000000000E+00 0. -1.
          1   -1    0    0  502    0 -0.00000000000E+00 -0.00000000000E+00 -0.98718743980E+03  0.98718743980E+03  0.00000000000E+00 0. -1.
         23    2    1    2    0    0  0.53534218047E+02 -0.15513809130E+02 -0.26448988497E+03  0.28540919086E+03  0.91634688833E+02 0.  0.
        -24    2    1    2    0    0 -0.52820670186E+02  0.36639804920E+02 -0.56470885100E+03  0.57388878094E+03  0.79496842583E+02 0.  0.
         11    1    4    4    0    0 -0.49034106179E+02  0.57281106371E+02 -0.34305978198E+03  0.35124846296E+03  0.00000000000E+00 0. -1.
        -12    1    4    4    0    0 -0.37865640069E+01 -0.20641301450E+02 -0.22164906902E+03  0.22264031798E+03  0.00000000000E+00 0.  1.
        -11    1    3    3    0    0  0.18498073015E+02 -0.52596239478E+02 -0.15158996478E+03  0.16151798827E+03  0.00000000000E+00 0.  1.
         11    1    3    3    0    0  0.35036145032E+02  0.37082430349E+02 -0.11289992019E+03  0.12389120259E+03  0.00000000000E+00 0. -1.
          2    1    1    2  501    0 -0.71354786069E+00 -0.21125995791E+02 -0.14215760469E+03  0.14372056714E+03  0.00000000000E+00 0. -1.
<scales pt_clust_5="13000.00000" pt_clust_6="13000.00000" pt_clust_7="13000.00000" pt_clust_8="13000.00000" pt_clust_9="13000.00000"></scales>
<clustering>
<clus scale="   79.497">  5  6 -1 -1</clus>
<clus scale="   21.138">  5  9 -1 -1</clus>
<clus scale="   91.635">  7  8 -1 -1</clus>
<clus scale="  107.254">  2  7  1 -1</clus>
<clus scale="  123.705">  1  5  2 -1</clus>
</clustering>
</event>
<event>
 9    1  0.4516508E-005  0.2619784E+03  0.7546771E-02  0.1140862E+00
         21   -1    0    0  501  502  0.00000000000E+00  0.00000000000E+00  0.74550697231E+02  0.74550697231E+02  0.00000000000E+00 0. -1.
          1   -1    0    0  502    0 -0.00000000000E+00 -0.00000000000E+00 -0.46761729688E+03  0.46761729688E+03  0.00000000000E+00 0. -1.
         23    2    1    2    0    0  0.30180376802E+01 -0.54254338575E+02 -0.13852585298E+03  0.17689591459E+03  0.95656211763E+02 0.  0.
        -24    2    1    2    0    0 -0.76367792287E+02 -0.35433858087E+02 -0.39714244794E+02  0.12119302465E+03  0.77607538201E+02 0.  0.
         13    1    4    4    0    0 -0.80848083692E+02 -0.35329599066E+02 -0.73676134044E+01  0.88537421095E+02  0.00000000000E+00 0. -1.
        -14    1    4    4    0    0  0.44802914058E+01 -0.10425902108E+00 -0.32346631389E+02  0.32655603551E+02  0.00000000000E+00 0.  1.
        -11    1    3    3    0    0 -0.21497889684E+02  0.19955300699E+02 -0.22343100964E+02  0.36872583955E+02  0.00000000000E+00 0. -1.
         11    1    3    3    0    0  0.24515927364E+02 -0.74209639274E+02 -0.11618275202E+03  0.14002333063E+03  0.00000000000E+00 0.  1.
          2    1    1    2  501    0  0.73349754606E+02  0.89688196662E+02 -0.21482650187E+03  0.24407905488E+03  0.00000000000E+00 0. -1.
<scales pt_clust_5="13000.00000" pt_clust_6="13000.00000" pt_clust_7="13000.00000" pt_clust_8="13000.00000" pt_clust_9="13000.00000"></scales>
<clustering>
<clus scale="   77.608">  5  6 -1 -1</clus>
<clus scale="   95.656">  7  8 -1 -1</clus>
<clus scale="  110.013">  2  7  1 -1</clus>
<clus scale="   90.361">  5  9 -1 -1</clus>
<clus scale="  261.978">  1  5  2 -1</clus>
</clustering>
</event>
<event>
 9    1  0.4516508E-005  0.2128893E+03  0.7546771E-02  0.1173742E+00
          3   -1    0    0  502    0 -0.00000000000E+00  0.00000000000E+00  0.12686265621E+03  0.12686265621E+03  0.00000000000E+00 0. -1.
         21   -1    0    0  501  502  0.00000000000E+00 -0.00000000000E+00 -0.47665724966E+03  0.47665724966E+03  0.00000000000E+00 0. -1.
         23    2    1    2    0    0  0.24073268232E+02  0.25687411942E-02  0.79801389260E+02  0.12406754327E+03  0.91896525045E+02 0.  0.
        -24    2    1    2    0    0  0.64164690085E+02 -0.30783791831E+01 -0.12243174757E+03  0.15985063349E+03  0.80225359717E+02 0.  0.
         11    1    4    4    0    0  0.41528040676E+02  0.17767598838E+02 -0.12087441916E+03  0.12903833127E+03  0.00000000000E+00 0. -1.
        -12    1    4    4    0    0  0.22636649409E+02 -0.20845978021E+02 -0.15573284127E+01  0.30812302217E+02  0.00000000000E+00 0.  1.
        -13    1    3    3    0    0 -0.20154611998E+02  0.30832111617E+02  0.51096211793E+02  0.62989287590E+02  0.00000000000E+00 0.  1.
         13    1    3    3    0    0  0.44227880230E+02 -0.30829542876E+02  0.28705177468E+02  0.61078255681E+02  0.00000000000E+00 0. -1.
          4    1    1    2  501    0 -0.88237958317E+02  0.30758104419E+01 -0.30716423514E+03  0.31960172911E+03  0.00000000000E+00 0. -1.
<scales pt_clust_5="13000.00000" pt_clust_6="13000.00000" pt_clust_7="13000.00000" pt_clust_8="13000.00000" pt_clust_9="13000.00000"></scales>
<clustering>
<clus scale="   80.225">  5  6 -1 -1</clus>
<clus scale="   88.292">  5  9 -1 -1</clus>
<clus scale="   91.897">  7  8 -1 -1</clus>
<clus scale="   94.997">  1  7  2 -1</clus>
<clus scale="  212.889">  2  5  1 -1</clus>
</clustering>
</event>
<event>
 9    1  0.4516508E-005  0.2778771E+03  0.7546771E-02  0.1138146E+00
         21   -1    0    0  501  502  0.00000000000E+00  0.00000000000E+00  0.13631842455E+03  0.13631842455E+03  0.00000000000E+00 0.  1.
         -2   -1    0    0    0  501 -0.00000000000E+00 -0.00000000000E+00 -0.26666461149E+03  0.26666461149E+03  0.00000000000E+00 0.  1.
         23    2    1    2    0    0 -0.24490505509E+02 -0.26554593543E+02 -0.63620962087E+02  0.11720705478E+03  0.91569293841E+02 0.  0.
        -24    2    1    2    0    0 -0.94295357932E+02 -0.70660870022E+01  0.31147087359E+02  0.12823417408E+03  0.80822758166E+02 0.  0.
         11    1    4    4    0    0 -0.36001710018E+02  0.36359460948E+02  0.70364510610E+01  0.51649251381E+02  0.00000000000E+00 0. -1.
        -12    1    4    4    0    0 -0.58293647913E+02 -0.43425547951E+02  0.24110636298E+02  0.76584922697E+02  0.00000000000E+00 0.  1.
        -13    1    3    3    0    0 -0.51975263480E+02  0.42757182584E+01 -0.16840521543E+02  0.54802490329E+02  0.00000000000E+00 0. -1.
         13    1    3    3    0    0  0.27484757971E+02 -0.30830311802E+02 -0.46780440544E+02  0.62404564449E+02  0.00000000000E+00 0.  1.
         -1    1    1    2    0  502  0.11878586344E+03  0.33620680545E+02 -0.97872312215E+02  0.15754180719E+03  0.00000000000E+00 0.  1.
<scales pt_clust_5="13000.00000" pt_clust_6="13000.00000" pt_clust_7="13000.00000" pt_clust_8="13000.00000" pt_clust_9="13000.00000"></scales>
<clustering>
<clus scale="   80.823">  5  6 -1 -1</clus>
<clus scale="   91.569">  7  8 -1 -1</clus>
<clus scale="   98.437">  2  7  1 -1</clus>
<clus scale="  102.059">  5  9 -1 -1</clus>
<clus scale="  277.877">  1  5  2 -1</clus>
</clustering>
</event>
<event>
 9    1  0.4516508E-005  0.1472896E+03  0.7546771E-02  0.1224304E+00
          3   -1    0    0  502    0 -0.00000000000E+00  0.00000000000E+00  0.11605530631E+03  0.11605530631E+03  0.00000000000E+00 0. -1.
         21   -1    0    0  501  502  0.00000000000E+00 -0.00000000000E+00 -0.16775943563E+03  0.16775943563E+03  0.00000000000E+00 0.  1.
         23    2    1    2    0    0  0.32250265690E+02  0.17276161870E+02 -0.90476113139E+02  0.13150748948E+03  0.88146170277E+02 0.  0.
        -24    2    1    2    0    0  0.69926650090E+01 -0.36393134094E+02 -0.12828244823E+02  0.84719902815E+02  0.75096874067E+02 0.  0.
         13    1    4    4    0    0 -0.27941062927E+02  0.43218465344E+01  0.38621080033E+01  0.28535893769E+02  0.00000000000E+00 0. -1.
        -14    1    4    4    0    0  0.34933727936E+02 -0.40714980628E+02 -0.16690352826E+02  0.56184009046E+02  0.00000000000E+00 0.  1.
        -11    1    3    3    0    0 -0.89117569056E+01 -0.30261958684E+02 -0.21537904916E+02  0.38197996056E+02  0.00000000000E+00 0.  1.
         11    1    3    3    0    0  0.41162022595E+02  0.47538120554E+02 -0.68938208224E+02  0.93309493424E+02  0.00000000000E+00 0. -1.
          4    1    1    2  501    0 -0.39242930699E+02  0.19116972224E+02  0.51600228642E+02  0.67587349650E+02  0.00000000000E+00 0. -1.
<scales pt_clust_5="13000.00000" pt_clust_6="13000.00000" pt_clust_7="13000.00000" pt_clust_8="13000.00000" pt_clust_9="13000.00000"></scales>
<clustering>
<clus scale="   75.097">  5  6 -1 -1</clus>
<clus scale="   43.652">  5  9 -1 -1</clus>
<clus scale="   88.146">  7  8 -1 -1</clus>
<clus scale="   95.437">  1  7  2 -1</clus>
<clus scale="  147.290">  2  5  1 -1</clus>
</clustering>
</event>
<event>
 9    1  0.4516508E-005  0.1637578E+03  0.7546771E-02  0.1207814E+00
         -4   -1    0    0    0  501 -0.00000000000E+00  0.00000000000E+00  0.23716104855E+02  0.23716104855E+02  0.00000000000E+00 0.  1.
         21   -1    0    0  501  502  0.00000000000E+00 -0.00000000000E+00 -0.73907234005E+03  0.73907234005E+03  0.00000000000E+00 0. -1.
         23    2    1    2    0    0 -0.34470771932E+02  0.12021275242E+02 -0.21834019891E+03  0.23948972846E+03  0.91379113597E+02 0.  0.
        -24    2    1    2    0    0  0.78898636090E+02 -0.16514659169E+02 -0.40877364893E+03  0.42440106966E+03  0.80762882125E+02 0.  0.
         13    1    4    4    0    0  0.73301882205E+01 -0.38529938736E+02 -0.13816161655E+03  0.14362075103E+03  0.00000000000E+00 0. -1.
        -14    1    4    4    0    0  0.71568447869E+02  0.22015279566E+02 -0.27061203237E+03  0.28078031863E+03  0.00000000000E+00 0.  1.
        -11    1    3    3    0    0 -0.36436912066E+02 -0.34693994466E+02 -0.93432622849E+02  0.10611774981E+03  0.00000000000E+00 0. -1.
         11    1    3    3    0    0  0.19661401339E+01  0.46715269707E+02 -0.12490757606E+03  0.13337197864E+03  0.00000000000E+00 0.  1.
         -3    1    1    2    0  502 -0.44427864157E+02  0.44933839274E+01 -0.88242387368E+02  0.98897646792E+02  0.00000000000E+00 0.  1.
<scales pt_clust_5="13000.00000" pt_clust_6="13000.00000" pt_clust_7="13000.00000" pt_clust_8="13000.00000" pt_clust_9="13000.00000"></scales>
<clustering>
<clus scale="   80.763">  5  6 -1 -1</clus>
<clus scale="   44.655">  5  9 -1 -1</clus>
<clus scale="   91.379">  7  8 -1 -1</clus>
<clus scale="   98.402">  1  7  2 -1</clus>
<clus scale="  163.758">  2  5  1 -1</clus>
</clustering>
</event>
<event>
 9    1  0.4516508E-005  0.4488379E+03  0.7546771E-02  0.1082447E+00
         21   -1    0    0  501  502  0.00000000000E+00  0.00000000000E+00  0.87741476022E+02  0.87741476022E+02  0.00000000000E+00 0.  1.
          1   -1    0    0  502    0 -0.00000000000E+00 -0.00000000000E+00 -0.84750495581E+03  0.84750495581E+03  0.00000000000E+00 0. -1.
         23    2    1    2    0    0 -0.25515772602E+02 -0.17765748285E+02 -0.13158094236E+03  0.16319152405E+03  0.91385188428E+02 0.  0.
        -24    2    1    2    0    0 -0.93553327539E+02 -0.16464038238E+03 -0.43252772533E+03  0.47925761850E+03  0.82152000060E+02 0.  0.
         11    1    4    4    0    0  0.97959744414E+00 -0.78496288292E+02 -0.16143061923E+03  0.17950618851E+03  0.00000000000E+00 0. -1.
        -12    1    4    4    0    0 -0.94532924984E+02 -0.86144094089E+02 -0.27109710609E+03  0.29975143000E+03  0.00000000000E+00 0.  1.
        -11    1    3    3    0    0  0.19846882034E+02 -0.31944837184E+02 -0.21573744035E+02  0.43356634797E+02  0.00000000000E+00 0.  1.
         11    1    3    3    0    0 -0.45362654636E+02  0.14179088899E+02 -0.11000719833E+03  0.11983488925E+03  0.00000000000E+00 0. -1.
          2    1    1    2  501    0  0.11906910014E+03  0.18240613067E+03 -0.19565481210E+03  0.29279728928E+03  0.00000000000E+00 0. -1.
<scales pt_clust_5="13000.00000" pt_clust_6="13000.00000" pt_clust_7="13000.00000" pt_clust_8="13000.00000" pt_clust_9="13000.00000"></scales>
<clustering>
<clus scale="   82.152">  5  6 -1 -1</clus>
<clus scale="   91.385">  7  8 -1 -1</clus>
<clus scale="   96.529">  2  7  1 -1</clus>
<clus scale="  207.814">  5  9 -1 -1</clus>
<clus scale="  448.838">  1  5  2 -1</clus>
</clustering>
</event>
<event>
 9    1  0.4516508E-005  0.2972411E+03  0.7546771E-02  0.1117680E+00
          1   -1    0    0  502    0 -0.00000000000E+00  0.00000000000E+00  0.15778099021E+03  0.15778099021E+03  0.00000000000E+00 0. -1.
         21   -1    0    0  501  502  0.00000000000E+00 -0.00000000000E+00 -0.40154789275E+03  0.40154789275E+03  0.00000000000E+00 0. -1.
         23    2    1    2    0    0  0.80577179439E+02  0.99754596690E+01  0.49177254905E+02  0.14199379061E+03  0.10560133773E+03 0.  0.
        -24    2    1    2    0    0 -0.74254844188E+02  0.12170578087E+03 -0.18662363738E+03  0.24797165467E+03  0.79595731747E+02 0.  0.
         13    1    4    4    0    0 -0.54629595686E+02  0.42232929909E+02 -0.39348631146E+02  0.79475328666E+02  0.00000000000E+00 0. -1.
        -14    1    4    4    0    0 -0.19625248503E+02  0.79472850957E+02 -0.14727500623E+03  0.16849632601E+03  0.00000000000E+00 0.  1.
        -11    1    3    3    0    0  0.19527976030E+02 -0.45572190191E+02  0.97807284577E+01  0.50535423376E+02  0.00000000000E+00 0.  1.
         11    1    3    3    0    0  0.61049203409E+02  0.55547649860E+02  0.39396526447E+02  0.91458367239E+02  0.00000000000E+00 0. -1.
          2    1    1    2  501    0 -0.63223352507E+01 -0.13168124053E+03 -0.10632052007E+03  0.16936343767E+03  0.00000000000E+00 0. -1.
<scales pt_clust_5="13000.00000" pt_clust_6="13000.00000" pt_clust_7="13000.00000" pt_clust_8="13000.00000" pt_clust_9="13000.00000"></scales>
<clustering>
<clus scale="   79.596">  5  6 -1 -1</clus>
<clus scale="  105.601">  7  8 -1 -1</clus>
<clus scale="  131.833">  5  9 -1 -1</clus>
<clus scale="  133.206">  1  7  2 -1</clus>
<clus scale="  297.241">  2  5  1 -1</clus>
</clustering>
</event>
<event>
 9    1  0.4516508E-005  0.2904265E+03  0.7546771E-02  0.1101790E+00
         21   -1    0    0  501  502  0.00000000000E+00  0.00000000000E+00  0.13379862635E+03  0.13379862635E+03  0.00000000000E+00 0. -1.
          3   -1    0    0  502    0 -0.00000000000E+00 -0.00000000000E+00 -0.62201732461E+03  0.62201732461E+03  0.00000000000E+00 0. -1.
         23    2    1    2    0    0  0.17954832900E+03 -0.74689835658E+02 -0.34141622912E+02  0.21680431904E+03  0.89567228050E+02 0.  0.
        -24    2    1    2    0    0 -0.13464185962E+03 -0.32357960473E+02 -0.18256269068E+03  0.24372214223E+03  0.83041427108E+02 0.  0.
         11    1    4    4    0    0 -0.11366243677E+03 -0.49110681900E+01 -0.90444837184E+02  0.14533938453E+03  0.00000000000E+00 0. -1.
        -12    1    4    4    0    0 -0.20979422850E+02 -0.27446892283E+02 -0.92117853498E+02  0.98382757698E+02  0.00000000000E+00 0.  1.
        -13    1    3    3    0    0  0.60020461425E+02  0.18079347162E+02 -0.13178143275E+02  0.64054523991E+02  0.00000000000E+00 0.  1.
         13    1    3    3    0    0  0.11952786758E+03 -0.92769182820E+02 -0.20963479636E+02  0.15274979505E+03  0.00000000000E+00 0. -1.
          4    1    1    2  501    0 -0.44906469384E+02  0.10704779613E+03 -0.27151438466E+03  0.29528948970E+03  0.00000000000E+00 0. -1.
<scales pt_clust_5="13000.00000" pt_clust_6="13000.00000" pt_clust_7="13000.00000" pt_clust_8="13000.00000" pt_clust_9="13000.00000"></scales>
<clustering>
<clus scale="   83.041">  5  6 -1 -1</clus>
<clus scale="   89.567">  7  8 -1 -1</clus>
<clus scale="  116.085">  5  9 -1 -1</clus>
<clus scale="  214.099">  2  7  1 -1</clus>
<clus scale="  290.426">  1  5  2 -1</clus>
</clustering>
</event>
<event>
 9    1  0.4516508E-005  0.3587897E+03  0.7546771E-02  0.1108788E+00
          1   -1    0    0  502    0 -0.00000000000E+00  0.00000000000E+00  0.19855787694E+03  0.19855787694E+03  0.00000000000E+00 0. -1.
         21   -1    0    0  501  502  0.00000000000E+00 -0.00000000000E+00 -0.36046934037E+03  0.36046934037E+03  0.00000000000E+00 0. -1.
         23    2    1    2    0    0 -0.27973980691E+02  0.78063863599E+01  0.81824366171E+02  0.12527937524E+03  0.90311747280E+02 0.  0.
        -24    2    1    2    0    0 -0.50609594717E+02 -0.13317351343E+03 -0.17549614363E+02  0.16346558436E+03  0.78208008213E+02 0.  0.
         11    1    4    4    0    0 -0.57965301487E+02 -0.10480635432E+03 -0.40299650097E+02  0.12636617380E+03  0.00000000000E+00 0. -1.
        -12    1    4    4    0    0  0.73557067704E+01 -0.28367159109E+02  0.22750035734E+02  0.37099410560E+02  0.00000000000E+00 0.  1.
        -11    1    3    3    0    0  0.13759874429E+02  0.26847882202E+02 -0.14530031141E+01  0.30203545174E+02  0.00000000000E+00 0.  1.
         11    1    3    3    0    0 -0.41733855119E+02 -0.19041495842E+02  0.83277369285E+02  0.95075830062E+02  0.00000000000E+00 0. -1.
          2    1    1    2  501    0  0.78583575407E+02  0.12536712707E+03 -0.22618621523E+03  0.27028225771E+03  0.00000000000E+00 0. -1.
<scales pt_clust_5="13000.00000" pt_clust_6="13000.00000" pt_clust_7="13000.00000" pt_clust_8="13000.00000" pt_clust_9="13000.00000"></scales>
<clustering>
<clus scale="   78.208">  5  6 -1 -1</clus>
<clus scale="   90.312">  7  8 -1 -1</clus>
<clus scale="   94.867">  1  7  2 -1</clus>
<clus scale="  146.191">  5  9 -1 -1</clus>
<clus scale="  358.790">  2  5  1 -1</clus>
</clustering>
</event>
<event>
 9    1  0.4516508E-005  0.7597522E+03  0.7546771E-02  0.9794850E-01
         21   -1    0    0  501  502  0.00000000000E+00  0.00000000000E+00  0.11897899170E+04  0.11897899170E+04  0.00000000000E+00 0. -1.
          1   -1    0    0  502    0 -0.00000000000E+00 -0.00000000000E+00 -0.29614986443E+03  0.29614986443E+03  0.00000000000E+00 0. -1.
         23    2    1    2    0    0  0.41279395375E+03  0.25439640809E+02  0.38007906506E+03  0.56889654643E+03  0.90206215255E+02 0.  0.
        -24    2    1    2    0    0  0.74453732328E+02  0.23667085599E+02  0.39832644086E+03  0.41395201178E+03  0.81171579808E+02 0.  0.
         11    1    4    4    0    0  0.23082836615E+02  0.26022726283E+02  0.44870187962E+02  0.56774407942E+02  0.00000000000E+00 0. -1.
        -12    1    4    4    0    0  0.51370895713E+02 -0.23556406843E+01  0.35345625290E+03  0.35717760384E+03  0.00000000000E+00 0.  1.
        -11    1    3    3    0    0  0.27932345547E+03 -0.46928654696E+01  0.20407829487E+03  0.34596468924E+03  0.00000000000E+00 0.  1.
         11    1    3    3    0    0  0.13347049828E+03  0.30132506279E+02  0.17600077019E+03  0.22293185720E+03  0.00000000000E+00 0. -1.
          2    1    1    2  501    0 -0.48724768608E+03 -0.49106726408E+02  0.11523454667E+03  0.50309122325E+03  0.00000000000E+00 0. -1.
<scales pt_clust_5="13000.00000" pt_clust_6="13000.00000" pt_clust_7="13000.00000" pt_clust_8="13000.00000" pt_clust_9="13000.00000"></scales>
<clustering>
<clus scale="   81.172">  5  6 -1 -1</clus>
<clus scale="   90.206">  7  8 -1 -1</clus>
<clus scale="  423.301">  2  7  1 -1</clus>
<clus scale="   93.740">  5  9 -1 -1</clus>
<clus scale="  759.752">  1  5  2 -1</clus>
</clustering>
</event>
<event>
 9    1  0.4516508E-005  0.1895651E+03  0.7546771E-02  0.1190556E+00
         21   -1    0    0  501  502  0.00000000000E+00  0.00000000000E+00  0.41390166533E+03  0.41390166533E+03  0.00000000000E+00 0.  1.
         -2   -1    0    0    0  501 -0.00000000000E+00 -0.00000000000E+00 -0.58184044819E+02  0.58184044819E+02  0.00000000000E+00 0.  1.
         23    2    1    2    0    0  0.10709639445E+02  0.13138809085E+02  0.33462403915E+02  0.98209590889E+02  0.90763795566E+02 0.  0.
        -24    2    1    2    0    0  0.17885723225E+02  0.65157618687E+02  0.17638077207E+03  0.20586606321E+03  0.81885559516E+02 0.  0.
         13    1    4    4    0    0  0.48840664617E+02  0.36241472770E+02  0.79223366361E+02  0.99875906235E+02  0.00000000000E+00 0. -1.
        -14    1    4    4    0    0 -0.30954941392E+02  0.28916145916E+02  0.97157405711E+02  0.10599015698E+03  0.00000000000E+00 0.  1.
        -11    1    3    3    0    0 -0.34635802056E+02  0.21177849805E+02  0.32735623608E+02  0.52151329412E+02  0.00000000000E+00 0. -1.
         11    1    3    3    0    0  0.45345441501E+02 -0.80390407199E+01  0.72678030703E+00  0.46058261477E+02  0.00000000000E+00 0.  1.
         -1    1    1    2    0  502 -0.28595362670E+02 -0.78296427772E+02  0.14587444452E+03  0.16801005605E+03  0.00000000000E+00 0.  1.
<scales pt_clust_5="13000.00000" pt_clust_6="13000.00000" pt_clust_7="13000.00000" pt_clust_8="13000.00000" pt_clust_9="13000.00000"></scales>
<clustering>
<clus scale="   81.886">  5  6 -1 -1</clus>
<clus scale="   83.355">  5  9 -1 -1</clus>
<clus scale="   90.764">  7  8 -1 -1</clus>
<clus scale="   92.333">  2  7  1 -1</clus>
<clus scale="  189.565">  1  5  2 -1</clus>
</clustering>
</event>
<event>
 9    1  0.4516508E-005  0.1509291E+03  0.7546771E-02  0.1216300E+00
          1   -1    0    0  502    0 -0.00000000000E+00  0.00000000000E+00  0.85535327523E+03  0.85535327523E+03  0.00000000000E+00 0. -1.
         21   -1    0    0  501  502  0.00000000000E+00 -0.00000000000E+00 -0.25916963086E+02  0.25916963086E+02  0.00000000000E+00 0. -1.
         23    2    1    2    0    0  0.11614091826E+02  0.59931648054E+02  0.58240784878E+03  0.59178336723E+03  0.85334411839E+02 0.  0.
        -24    2    1    2    0    0 -0.18821371821E+02 -0.87734119520E+02  0.21698514209E+03  0.24792338401E+03  0.79573442089E+02 0.  0.
         11    1    4    4    0    0  0.29070054288E+01 -0.69102772095E+02  0.70851441890E+02  0.99012982026E+02  0.00000000000E+00 0. -1.
        -12    1    4    4    0    0 -0.21728377250E+02 -0.18631347425E+02  0.14613370020E+03  0.14891040199E+03  0.00000000000E+00 0.  1.
        -11    1    3    3    0    0 -0.32290067599E+02  0.50577042001E+02  0.32653879355E+03  0.33200642966E+03  0.00000000000E+00 0. -1.
         11    1    3    3    0    0  0.43904159425E+02  0.93546060533E+01  0.25586905523E+03  0.25977693757E+03  0.00000000000E+00 0.  1.
          2    1    1    2  501    0  0.72072799949E+01  0.27802471466E+02  0.30043321269E+02  0.41563487070E+02  0.00000000000E+00 0. -1.
<scales pt_clust_5="13000.00000" pt_clust_6="13000.00000" pt_clust_7="13000.00000" pt_clust_8="13000.00000" pt_clust_9="13000.00000"></scales>
<clustering>
<clus scale="   79.573">  5  6 -1 -1</clus>
<clus scale="   28.721">  5  9 -1 -1</clus>
<clus scale="   85.334">  7  8 -1 -1</clus>
<clus scale="  104.922">  1  7  2 -1</clus>
<clus scale="  150.929">  2  5  1 -1</clus>
</clustering>
</event>
<event>
 9    1  0.4516508E-005  0.2192099E+03  0.7546771E-02  0.1146299E+00
         21   -1    0    0  501  502  0.00000000000E+00  0.00000000000E+00  0.61924216406E+03  0.61924216406E+03  0.00000000000E+00 0.  1.
         -4   -1    0    0    0  501 -0.00000000000E+00 -0.00000000000E+00 -0.73799013238E+02  0.73799013238E+02  0.00000000000E+00 0.  1.
         23    2    1    2    0    0  0.13618097665E+03  0.27623184202E+02  0.90525227949E+02  0.18806266959E+03  0.88681746103E+02 0.  0.
        -24    2    1    2    0    0 -0.29036949664E+02 -0.30723702961E+02  0.29146835212E+03  0.30951695672E+03  0.95183274998E+02 0.  0.
         13    1    4    4    0    0 -0.44982340738E+02  0.82736719429E+01  0.66959243734E+02  0.81088870673E+02  0.00000000000E+00 0. -1.
        -14    1    4    4    0    0  0.15945391074E+02 -0.38997374904E+02  0.22450910839E+03  0.22842808605E+03  0.00000000000E+00 0.  1.
        -13    1    3    3    0    0  0.83790730144E+02  0.59324117588E+02  0.46861729665E+02  0.11285503574E+03  0.00000000000E+00 0.  1.
         13    1    3    3    0    0  0.52390246506E+02 -0.31700933386E+02  0.43663498284E+02  0.75207633847E+02  0.00000000000E+00 0. -1.
         -3    1    1    2    0  502 -0.10714402699E+03  0.31005187592E+01  0.16344957075E+03  0.19546155099E+03  0.00000000000E+00 0.  1.
<scales pt_clust_5="13000.00000" pt_clust_6="13000.00000" pt_clust_7="13000.00000" pt_clust_8="13000.00000" pt_clust_9="13000.00000"></scales>
<clustering>
<clus scale="   88.682">  7  8 -1 -1</clus>
<clus scale="   95.183">  5  6 -1 -1</clus>
<clus scale="  107.189">  5  9 -1 -1</clus>
<clus scale="  164.842">  2  7  1 -1</clus>
<clus scale="  219.210">  1  5  2 -1</clus>
</clustering>
</event>
<event>
 9    1  0.4516508E-005  0.1953162E+03  0.7546771E-02  0.1170082E+00
          1   -1    0    0  502    0 -0.00000000000E+00  0.00000000000E+00  0.22664791035E+03  0.22664791035E+03  0.00000000000E+00 0. -1.
         21   -1    0    0  501  502  0.00000000000E+00 -0.00000000000E+00 -0.13911864626E+03  0.13911864626E+03  0.00000000000E+00 0. -1.
         23    2    1    2    0    0 -0.17064947710E+02  0.97343617865E+02 -0.31045361598E+02  0.13727506185E+03  0.90075722307E+02 0.  0.
        -24    2    1    2    0    0 -0.49560978227E+02 -0.27462948475E+02  0.48305418341E+02  0.10907590339E+03  0.79709693002E+02 0.  0.
         13    1    4    4    0    0 -0.51257500538E+02 -0.21448021798E+02  0.68346564820E+02  0.88082926400E+02  0.00000000000E+00 0. -1.
        -14    1    4    4    0    0  0.16965223114E+01 -0.60149266775E+01 -0.20041146479E+02  0.20992976995E+02  0.00000000000E+00 0.  1.
        -11    1    3    3    0    0 -0.31869140882E+02  0.45057267210E+01  0.11374582322E+02  0.34136854525E+02  0.00000000000E+00 0.  1.
         11    1    3    3    0    0  0.14804193172E+02  0.92837891144E+02 -0.42419943920E+02  0.10313820732E+03  0.00000000000E+00 0. -1.
          2    1    1    2  501    0  0.66625925937E+02 -0.69880669390E+02  0.70269207341E+02  0.11941559137E+03  0.00000000000E+00 0. -1.
<scales pt_clust_5="13000.00000" pt_clust_6="13000.00000" pt_clust_7="13000.00000" pt_clust_8="13000.00000" pt_clust_9="13000.00000"></scales>
<clustering>
<clus scale="   79.710">  5  6 -1 -1</clus>
<clus scale="   90.076">  7  8 -1 -1</clus>
<clus scale="   96.552">  5  9 -1 -1</clus>
<clus scale="  133.719">  1  7  2 -1</clus>
<clus scale="  195.316">  2  5  1 -1</clus>
</clustering>
</event>
<event>
 9    1  0.4516508E-005  0.2519389E+03  0.7546771E-02  0.1137590E+00
          3   -1    0    0  502    0 -0.00000000000E+00  0.00000000000E+00  0.10958629062E+04  0.10958629062E+04  0.00000000000E+00 0. -1.
         21   -1    0    0  501  502  0.00000000000E+00 -0.00000000000E+00 -0.42884544981E+02  0.42884544981E+02  0.00000000000E+00 0. -1.
         23    2    1    2    0    0 -0.76814166935E+02  0.61679219657E+02  0.64888187731E+03  0.66254666020E+03  0.90640188990E+02 0.  0.
        -24    2    1    2    0    0  0.29101141489E+02  0.67471532763E+02  0.21844307368E+03  0.24506524984E+03  0.83308559412E+02 0.  0.
         13    1    4    4    0    0 -0.17781849805E+01  0.40167989259E+02  0.25148013957E+02  0.47424170092E+02  0.00000000000E+00 0. -1.
        -14    1    4    4    0    0  0.30879326470E+02  0.27303543504E+02  0.19329505972E+03  0.19764107975E+03  0.00000000000E+00 0.  1.
        -11    1    3    3    0    0 -0.27573752724E+02 -0.22060282324E+02  0.13362091481E+03  0.13820823698E+03  0.00000000000E+00 0.  1.
         11    1    3    3    0    0 -0.49240414212E+02  0.83739501980E+02  0.51526096250E+03  0.52433842322E+03  0.00000000000E+00 0. -1.
          4    1    1    2  501    0  0.47713025446E+02 -0.12915075242E+03  0.18565341022E+03  0.23113554113E+03  0.00000000000E+00 0. -1.
<scales pt_clust_5="13000.00000" pt_clust_6="13000.00000" pt_clust_7="13000.00000" pt_clust_8="13000.00000" pt_clust_9="13000.00000"></scales>
<clustering>
<clus scale="   83.309">  5  6 -1 -1</clus>
<clus scale="   90.640">  7  8 -1 -1</clus>
<clus scale="  133.867">  1  7  2 -1</clus>
<clus scale="  100.590">  5  9 -1 -1</clus>
<clus scale="  251.939">  2  5  1 -1</clus>
</clustering>
</event>
<event>
 9    1  0.4516508E-005  0.2855686E+03  0.7546771E-02  0.1128598E+00
         21   -1    0    0  501  502  0.00000000000E+00  0.00000000000E+00  0.88225670694E+02  0.88225670694E+02  0.00000000000E+00 0. -1.
          1   -1    0    0  502    0 -0.00000000000E+00 -0.00000000000E+00 -0.45410246097E+03  0.45410246097E+03  0.00000000000E+00 0. -1.
         23    2    1    2    0    0 -0.35980172869E+02 -0.58351219187E+02 -0.96143748399E+02  0.14951092047E+03  0.91708545742E+02 0.  0.
        -24    2    1    2    0    0  0.10030743125E+00  0.12037691663E+03 -0.33287801757E+02  0.14575263773E+03  0.75134156944E+02 0.  0.
         11    1    4    4    0    0  0.92604139628E+01  0.12898229411E+03 -0.29675982020E+02  0.13267573768E+03  0.00000000000E+00 0. -1.
        -12    1    4    4    0    0 -0.91601065316E+01 -0.86053774733E+01 -0.36118197371E+01  0.13076900051E+02  0.00000000000E+00 0.  1.
        -13    1    3    3    0    0 -0.32943988555E+02  0.18360936732E+02 -0.30696472010E+02  0.48628219929E+02  0.00000000000E+00 0.  1.
         13    1    3    3    0    0 -0.30361843135E+01 -0.76712155919E+02 -0.65447276388E+02  0.10088270054E+03  0.00000000000E+00 0. -1.
          2    1    1    2  501    0  0.35879865438E+02 -0.62025697447E+02 -0.23644524012E+03  0.24706457347E+03  0.00000000000E+00 0. -1.
<scales pt_clust_5="13000.00000" pt_clust_6="13000.00000" pt_clust_7="13000.00000" pt_clust_8="13000.00000" pt_clust_9="13000.00000"></scales>
<clustering>
<clus scale="   75.134">  5  6 -1 -1</clus>
<clus scale="   71.656">  5  9 -1 -1</clus>
<clus scale="   91.709">  7  8 -1 -1</clus>
<clus scale="  114.499">  2  7  1 -1</clus>
<clus scale="  285.569">  1  5  2 -1</clus>
</clustering>
</event>
<event>
 9    1  0.4516508E-005  0.3775903E+03  0.7546771E-02  0.1089572E+00
         21   -1    0    0  501  502  0.00000000000E+00  0.00000000000E+00  0.51167730432E+02  0.51167730432E+02  0.00000000000E+00 0.  1.
          1   -1    0    0  502    0 -0.00000000000E+00 -0.00000000000E+00 -0.12809718770E+04  0.12809718770E+04  0.00000000000E+00 0. -1.
         23    2    1    2    0    0 -0.73218497661E+02 -0.57029385519E+02 -0.34386471556E+03  0.36909075078E+03  0.96807750180E+02 0.  0.
        -24    2    1    2    0    0 -0.44431468893E+02 -0.12743054840E+03 -0.41375869845E+03  0.44264360490E+03  0.80773760098E+02 0.  0.
         13    1    4    4    0    0 -0.14053935745E+02 -0.12519532541E+03 -0.31371744559E+03  0.33806806753E+03  0.00000000000E+00 0. -1.
        -14    1    4    4    0    0 -0.30377533149E+02 -0.22352229843E+01 -0.10004125286E+03  0.10457553737E+03  0.00000000000E+00 0.  1.
        -11    1    3    3    0    0 -0.11957881901E+02  0.26829237035E+02 -0.59491291500E+02  0.66347665096E+02  0.00000000000E+00 0. -1.
         11    1    3    3    0    0 -0.61260615760E+02 -0.83858622554E+02 -0.28437342406E+03  0.30274308568E+03  0.00000000000E+00 0.  1.
          2    1    1    2  501    0  0.11764996655E+03  0.18445993392E+03 -0.47218073255E+03  0.52040525175E+03  0.00000000000E+00 0. -1.
<scales pt_clust_5="13000.00000" pt_clust_6="13000.00000" pt_clust_7="13000.00000" pt_clust_8="13000.00000" pt_clust_9="13000.00000"></scales>
<clustering>
<clus scale="   80.774">  5  6 -1 -1</clus>
<clus scale="   96.808">  7  8 -1 -1</clus>
<clus scale="  134.108">  2  7  1 -1</clus>
<clus scale="  172.645">  5  9 -1 -1</clus>
<clus scale="  377.590">  1  5  2 -1</clus>
</clustering>
</event>
<event>
 9    1  0.4516508E-005  0.1453467E+03  0.7546771E-02  0.1217730E+00
          1   -1    0    0  502    0 -0.00000000000E+00  0.00000000000E+00  0.13978347250E+03  0.13978347250E+03  0.00000000000E+00 0. -1.
         21   -1    0    0  501  502  0.00000000000E+00 -0.00000000000E+00 -0.17282359453E+03  0.17282359453E+03  0.00000000000E+00 0. -1.
         23    2    1    2    0    0 -0.18149784306E+02  0.59888723120E+01 -0.10087089450E+03  0.15221169589E+03  0.11237518297E+03 0.  0.
        -24    2    1    2    0    0  0.22991807773E+02  0.17646011051E+02 -0.18069231091E+01  0.86696921031E+02  0.81688960175E+02 0.  0.
         13    1    4    4    0    0  0.10094734358E+02  0.32117392886E+02 -0.34806979179E+02  0.48424749737E+02  0.00000000000E+00 0. -1.
        -14    1    4    4    0    0  0.12897073415E+02 -0.14471381835E+02  0.33000056070E+02  0.38272171294E+02  0.00000000000E+00 0.  1.
        -11    1    3    3    0    0 -0.56014608198E+02 -0.13361549395E+02 -0.92365814798E+02  0.10884673205E+03  0.00000000000E+00 0. -1.
         11    1    3    3    0    0  0.37864823893E+02  0.19350421707E+02 -0.85050797015E+01  0.43364963846E+02  0.00000000000E+00 0.  1.
          2    1    1    2  501    0 -0.48420234675E+01 -0.23634883363E+02  0.69637695574E+02  0.73698450103E+02  0.00000000000E+00 0. -1.
<scales pt_clust_5="13000.00000" pt_clust_6="13000.00000" pt_clust_7="13000.00000" pt_clust_8="13000.00000" pt_clust_9="13000.00000"></scales>
<clustering>
<clus scale="   81.689">  5  6 -1 -1</clus>
<clus scale="   24.126">  5  9 -1 -1</clus>
<clus scale="  112.375">  7  8 -1 -1</clus>
<clus scale="  113.989">  1  7  2 -1</clus>
<clus scale="  145.347">  2  5  1 -1</clus>
</clustering>
</event>
<event>
 9    1  0.4516508E-005  0.5413579E+03  0.7546771E-02  0.1062674E+00
         21   -1    0    0  501  502  0.00000000000E+00  0.00000000000E+00  0.19669716679E+03  0.19669716679E+03  0.00000000000E+00 0. -1.
          1   -1    0    0  502    0 -0.00000000000E+00 -0.00000000000E+00 -0.53185967433E+03  0.53185967433E+03  0.00000000000E+00 0. -1.
         23    2    1    2    0    0  0.20696598206E+02 -0.95004697926E+01 -0.52111202334E+01  0.94572373892E+02  0.91641530028E+02 0.  0.
        -24    2    1    2    0    0 -0.18316299677E+03  0.20125814495E+03 -0.13421779376E+03  0.31542838694E+03  0.86180779918E+02 0.  0.
         11    1    4    4    0    0 -0.18819986252E+03  0.18901380050E+03 -0.11142470765E+03  0.28906897189E+03  0.00000000000E+00 0. -1.
        -12    1    4    4    0    0  0.50368657443E+01  0.12244344451E+02 -0.22793086107E+02  0.26359415051E+02  0.00000000000E+00 0.  1.
        -13    1    3    3    0    0  0.63854058640E+01 -0.44186237730E+02  0.20458800906E+02  0.49109668572E+02  0.00000000000E+00 0. -1.
         13    1    3    3    0    0  0.14311192342E+02  0.34685767937E+02 -0.25669921140E+02  0.45462705320E+02  0.00000000000E+00 0.  1.
          2    1    1    2  501    0  0.16246639857E+03 -0.19175767516E+03 -0.19573359355E+03  0.31855608029E+03  0.00000000000E+00 0. -1.
<scales pt_clust_5="13000.00000" pt_clust_6="13000.00000" pt_clust_7="13000.00000" pt_clust_8="13000.00000" pt_clust_9="13000.00000"></scales>
<clustering>
<clus scale="   86.181">  5  6 -1 -1</clus>
<clus scale="   91.642">  7  8 -1 -1</clus>
<clus scale="   94.429">  2  7  1 -1</clus>
<clus scale="  262.385">  5  9 -1 -1</clus>
<clus scale="  541.358">  1  5  2 -1</clus>
</clustering>
</event>
<event>
 9    1  0.4516508E-005  0.7115143E+03  0.7546771E-02  0.1004711E+00
         21   -1    0    0  501  502  0.00000000000E+00  0.00000000000E+00  0.78819661458E+03  0.78819661458E+03  0.00000000000E+00 0.  1.
         -2   -1    0    0    0  501 -0.00000000000E+00 -0.00000000000E+00 -0.59803343126E+03  0.59803343126E+03  0.00000000000E+00 0.  1.
         23    2    1    2    0    0  0.20686001144E+03 -0.33273179004E+02 -0.40037052389E+03  0.46157732881E+03  0.94121757815E+02 0.  0.
        -24    2    1    2    0    0 -0.13080367441E+03 -0.17983033591E+03 -0.53274167537E+02  0.24224063180E+03  0.79961464560E+02 0.  0.
         11    1    4    4    0    0 -0.10250212751E+03 -0.87900699788E+02 -0.62530805058E+01  0.13517514633E+03  0.00000000000E+00 0. -1.
        -12    1    4    4    0    0 -0.28301546900E+02 -0.91929636126E+02 -0.47021087031E+02  0.10706548548E+03  0.00000000000E+00 0.  1.
        -11    1    3    3    0    0  0.38082438454E+02 -0.46765685885E+02 -0.10044931739E+03  0.11716384621E+03  0.00000000000E+00 0. -1.
         11    1    3    3    0    0  0.16877757299E+03  0.13492506881E+02 -0.29992120650E+03  0.34441348260E+03  0.00000000000E+00 0.  1.
         -1    1    1    2    0  502 -0.76056337026E+02  0.21310351492E+03  0.64380787475E+03  0.68241208522E+03  0.00000000000E+00 0.  1.
<scales pt_clust_5="13000.00000" pt_clust_6="13000.00000" pt_clust_7="13000.00000" pt_clust_8="13000.00000" pt_clust_9="13000.00000"></scales>
<clustering>
<clus scale="   79.961">  5  6 -1 -1</clus>
<clus scale="   94.122">  7  8 -1 -1</clus>
<clus scale="  226.269">  5  9 -1 -1</clus>
<clus scale="  229.689">  2  7  1 -1</clus>
<clus scale="  711.514">  1  5  2 -1</clus>
</clustering>
</event>
<event>
 9    1  0.4516508E-005  0.5334852E+03  0.7546771E-02  0.1048110E+00
          1   -1    0    0  502    0 -0.00000000000E+00  0.00000000000E+00  0.30824414620E+03  0.30824414620E+03  0.00000000000E+00 0. -1.
         21   -1    0    0  501  502  0.00000000000E+00 -0.00000000000E+00 -0.43930856443E+03  0.43930856443E+03  0.00000000000E+00 0. -1.
         23    2    1    2    0    0  0.78528787547E+02  0.68083803440E+02 -0.15319394973E+03  0.21360876484E+03  0.10657459086E+03 0.  0.
        -24    2    1    2    0    0  0.27335654126E+00  0.21255898289E+03  0.70494843549E+02  0.23846238148E+03  0.81935270079E+02 0.  0.
         11    1    4    4    0    0 -0.42304993332E+01  0.95404567572E+02  0.74550065252E+02  0.12115131393E+03  0.00000000000E+00 0. -1.
        -12    1    4    4    0    0  0.45038558745E+01  0.11715441532E+03 -0.40552217033E+01  0.11731106755E+03  0.00000000000E+00 0.  1.
        -13    1    3    3    0    0 -0.27454251169E+01 -0.25063965879E+02 -0.27557754909E+02  0.37351969162E+02  0.00000000000E+00 0.  1.
         13    1    3    3    0    0  0.81274212664E+02  0.93147769319E+02 -0.12563619483E+03  0.17625679568E+03  0.00000000000E+00 0. -1.
          2    1    1    2  501    0 -0.78802144088E+02 -0.28064278633E+03 -0.48365312043E+02  0.29548156430E+03  0.00000000000E+00 0. -1.
<scales pt_clust_5="13000.00000" pt_clust_6="13000.00000" pt_clust_7="13000.00000" pt_clust_8="13000.00000" pt_clust_9="13000.00000"></scales>
<clustering>
<clus scale="   81.935">  5  6 -1 -1</clus>
<clus scale="  106.575">  7  8 -1 -1</clus>
<clus scale="  148.863">  1  7  2 -1</clus>
<clus scale="  254.207">  5  9 -1 -1</clus>
<clus scale="  533.485">  2  5  1 -1</clus>
</clustering>
</event>
<event>
 9    1  0.4516508E-005  0.2679912E+03  0.7546771E-02  0.1123387E+00
          1   -1    0    0  502    0 -0.00000000000E+00  0.00000000000E+00  0.41147563505E+03  0.41147563505E+03  0.00000000000E+00 0. -1.
         21   -1    0    0  501  502  0.00000000000E+00 -0.00000000000E+00 -0.11358123509E+03  0.11358123509E+03  0.00000000000E+00 0. -1.
         23    2    1    2    0    0  0.64095848337E+02  0.11237046657E+03  0.15628710507E+03  0.22195310734E+03  0.90011794318E+02 0.  0.
        -24    2    1    2    0    0  0.11633244219E+02 -0.14164787330E+03  0.32275648653E+02  0.16692200604E+03  0.81374358508E+02 0.  0.
         13    1    4    4    0    0  0.16691210729E+02 -0.13341843729E+03  0.12889666230E+01  0.13446463237E+03  0.00000000000E+00 0. -1.
        -14    1    4    4    0    0 -0.50579665102E+01 -0.82294360164E+01  0.30986682030E+02  0.32457373671E+02  0.00000000000E+00 0.  1.
        -11    1    3    3    0    0  0.49258854010E+02  0.12590428509E+03  0.12142546791E+03  0.18172085175E+03  0.00000000000E+00 0. -1.
         11    1    3    3    0    0  0.14836994327E+02 -0.13533818525E+02  0.34861637161E+02  0.40232255593E+02  0.00000000000E+00 0.  1.
          2    1    1    2  501    0 -0.75729092556E+02  0.29277406736E+02  0.10933164624E+03  0.13618175676E+03  0.00000000000E+00 0. -1.
<scales pt_clust_5="13000.00000" pt_clust_6="13000.00000" pt_clust_7="13000.00000" pt_clust_8="13000.00000" pt_clust_9="13000.00000"></scales>
<clustering>
<clus scale="   81.374">  5  6 -1 -1</clus>
<clus scale="   81.192">  5  9 -1 -1</clus>
<clus scale="   90.012">  7  8 -1 -1</clus>
<clus scale="  157.599">  1  7  2 -1</clus>
<clus scale="  267.991">  2  5  1 -1</clus>
</clustering>
</event>
<event>
 9    1  0.4516508E-005  0.3242366E+03  0.7546771E-02  0.1110718E+00
          3   -1    0    0  502    0 -0.00000000000E+00  0.00000000000E+00  0.55658646335E+02  0.55658646335E+02  0.00000000000E+00 0. -1.
         21   -1    0    0  501  502  0.00000000000E+00 -0.00000000000E+00 -0.90380301626E+03  0.90380301626E+03  0.00000000000E+00 0. -1.
         23    2    1    2    0    0 -0.10557790215E+02  0.80830293024E+02 -0.19403701566E+03  0.22940287976E+03  0.91270557072E+02 0.  0.
        -24    2    1    2    0    0 -0.11645672346E+03 -0.70758692187E+02 -0.52456903199E+03  0.54836040430E+03  0.83411646188E+02 0.  0.
         11    1    4    4    0    0 -0.82496469701E+02 -0.88012945849E+02 -0.37007153430E+03  0.38923628640E+03  0.00000000000E+00 0. -1.
        -12    1    4    4    0    0 -0.33960253759E+02  0.17254253662E+02 -0.15449749769E+03  0.15912411790E+03  0.00000000000E+00 0.  1.
        -13    1    3    3    0    0  0.20885660338E+02 -0.64667445284E+01 -0.77018233170E+02  0.80061462847E+02  0.00000000000E+00 0.  1.
         13    1    3    3    0    0 -0.31443450554E+02  0.87297037552E+02 -0.11701878249E+03  0.14934141691E+03  0.00000000000E+00 0. -1.
          4    1    1    2  501    0  0.12701451368E+03 -0.10071600837E+02 -0.12953832227E+03  0.18169837854E+03  0.00000000000E+00 0. -1.
<scales pt_clust_5="13000.00000" pt_clust_6="13000.00000" pt_clust_7="13000.00000" pt_clust_8="13000.00000" pt_clust_9="13000.00000"></scales>
<clustering>
<clus scale="   83.412">  5  6 -1 -1</clus>
<clus scale="   91.271">  7  8 -1 -1</clus>
<clus scale="  122.374">  1  7  2 -1</clus>
<clus scale="  128.094">  5  9 -1 -1</clus>
<clus scale="  324.237">  2  5  1 -1</clus>
</clustering>
</event>
<event>
 9    1  0.4516508E-005  0.2615068E+03  0.7546771E-02  0.1124589E+00
          3   -1    0    0  502    0 -0.00000000000E+00  0.00000000000E+00  0.74064185779E+02  0.74064185779E+02  0.00000000000E+00 0. -1.
         21   -1    0    0  501  502  0.00000000000E+00 -0.00000000000E+00 -0.85210733531E+03  0.85210733531E+03  0.00000000000E+00 0. -1.
         23    2    1    2    0    0 -0.88979916446E+02  0.10446779077E+03 -0.84674632779E+02  0.18512786379E+03  0.90948269227E+02 0.  0.
        -24    2    1    2    0    0 -0.49444927545E+02 -0.70204498105E+02 -0.28532396958E+03  0.30879863057E+03  0.81076224698E+02 0.  0.
         11    1    4    4    0    0 -0.60051376072E+02 -0.82157637438E+02 -0.25416394048E+03  0.27377975418E+03  0.00000000000E+00 0. -1.
        -12    1    4    4    0    0  0.10606448527E+02  0.11953139333E+02 -0.31160029101E+02  0.35018876393E+02  0.00000000000E+00 0.  1.
        -13    1    3    3    0    0 -0.66686839666E+02  0.58149121128E+02 -0.97992438883E+02  0.13202641005E+03  0.00000000000E+00 0.  1.
         13    1    3    3    0    0 -0.22293076780E+02  0.46318669639E+02  0.13317806104E+02  0.53101453736E+02  0.00000000000E+00 0. -1.
          4    1    1    2  501    0  0.13842484399E+03 -0.34263292662E+02 -0.40804454717E+03  0.43224502673E+03  0.00000000000E+00 0. -1.
<scales pt_clust_5="13000.00000" pt_clust_6="13000.00000" pt_clust_7="13000.00000" pt_clust_8="13000.00000" pt_clust_9="13000.00000"></scales>
<clustering>
<clus scale="   81.076">  5  6 -1 -1</clus>
<clus scale="   90.948">  7  8 -1 -1</clus>
<clus scale="  142.602">  5  9 -1 -1</clus>
<clus scale="  164.628">  1  7  2 -1</clus>
<clus scale="  261.507">  2  5  1 -1</clus>
</clustering>
</event>
<event>
 9    1  0.4516508E-005  0.5132710E+03  0.7546771E-02  0.1068782E+00
         -2   -1    0    0    0  501 -0.00000000000E+00  0.00000000000E+00  0.73330842198E+03  0.73330842198E+03  0.00000000000E+00 0.  1.
         21   -1    0    0  501  502  0.00000000000E+00 -0.00000000000E+00 -0.14638217456E+03  0.14638217456E+03  0.00000000000E+00 0.  1.
         23    2    1    2    0    0  0.14175226728E+02  0.38965754926E+01  0.24683499661E+03  0.26397219696E+03  0.92399593419E+02 0.  0.
        -24    2    1    2    0    0  0.23530787701E+03 -0.10516794573E+02  0.98397003575E+02  0.26829681778E+03  0.82588208421E+02 0.  0.
         13    1    4    4    0    0  0.41297844240E+02  0.10185384101E+02  0.53028801681E+02  0.67980201499E+02  0.00000000000E+00 0. -1.
        -14    1    4    4    0    0  0.19401003277E+03 -0.20702178675E+02  0.45368201894E+02  0.20031661628E+03  0.00000000000E+00 0.  1.
        -13    1    3    3    0    0  0.35301017678E+02  0.38981131155E+02  0.13619459846E+03  0.14599540775E+03  0.00000000000E+00 0.  1.
         13    1    3    3    0    0 -0.21125790950E+02 -0.35084555663E+02  0.11064039814E+03  0.11797678920E+03  0.00000000000E+00 0. -1.
         -1    1    1    2    0  502 -0.24948310374E+03  0.66202190807E+01  0.24169424724E+03  0.34742158180E+03  0.00000000000E+00 0.  1.
<scales pt_clust_5="13000.00000" pt_clust_6="13000.00000" pt_clust_7="13000.00000" pt_clust_8="13000.00000" pt_clust_9="13000.00000"></scales>
<clustering>
<clus scale="   82.588">  5  6 -1 -1</clus>
<clus scale="   92.400">  7  8 -1 -1</clus>
<clus scale="   93.562">  1  7  2 -1</clus>
<clus scale="  240.915">  5  9 -1 -1</clus>
<clus scale="  513.271">  2  5  1 -1</clus>
</clustering>
</event>
<event>
 9    1  0.4516508E-005  0.2354629E+03  0.7546771E-02  0.1160648E+00
          1   -1    0    0  502    0 -0.00000000000E+00  0.00000000000E+00  0.46976764081E+03  0.46976764081E+03  0.00000000000E+00 0. -1.
         21   -1    0    0  501  502  0.00000000000E+00 -0.00000000000E+00 -0.58196153359E+02  0.58196153359E+02  0.00000000000E+00 0. -1.
         23    2    1    2    0    0  0.11388437292E+02  0.20636908625E+02  0.12949545437E+03  0.16052718304E+03  0.91893010019E+02 0.  0.
        -24    2    1    2    0    0  0.53346496913E+02 -0.88587018649E+02  0.10473774288E+03  0.16679589161E+03  0.78468885987E+02 0.  0.
         11    1    4    4    0    0  0.73601912109E+02 -0.76171403017E+02  0.88391714470E+02  0.13795803453E+03  0.00000000000E+00 0. -1.
        -12    1    4    4    0    0 -0.20255415196E+02 -0.12415615632E+02  0.16346028410E+02  0.28837857081E+02  0.00000000000E+00 0.  1.
        -13    1    3    3    0    0  0.47664876073E+02  0.30944557318E+02  0.84268124865E+02  0.10163967192E+03  0.00000000000E+00 0.  1.
         13    1    3    3    0    0 -0.36276438781E+02 -0.10307648693E+02  0.45227329501E+02  0.58887511121E+02  0.00000000000E+00 0. -1.
          2    1    1    2  501    0 -0.64734934205E+02  0.67950110024E+02  0.17733829020E+03  0.20064071953E+03  0.00000000000E+00 0. -1.
<scales pt_clust_5="13000.00000" pt_clust_6="13000.00000" pt_clust_7="13000.00000" pt_clust_8="13000.00000" pt_clust_9="13000.00000"></scales>
<clustering>
<clus scale="   78.469">  5  6 -1 -1</clus>
<clus scale="   91.893">  7  8 -1 -1</clus>
<clus scale="   93.850">  5  9 -1 -1</clus>
<clus scale="   94.868">  1  7  2 -1</clus>
<clus scale="  235.463">  2  5  1 -1</clus>
</clustering>
</event>
<event>
 9    1  0.4516508E-005  0.7224334E+03  0.7546771E-02  0.1030429E+00
          1   -1    0    0  502    0 -0.00000000000E+00  0.00000000000E+00  0.29352260016E+03  0.29352260016E+03  0.00000000000E+00 0. -1.
         21   -1    0    0  501  502  0.00000000000E+00 -0.00000000000E+00 -0.57905683892E+03  0.57905683892E+03  0.00000000000E+00 0. -1.
         23    2    1    2    0    0  0.41600341206E+02 -0.90392908879E+01 -0.16590267077E+02  0.10170922590E+03  0.90869315516E+02 0.  0.
        -24    2    1    2    0    0  0.18856716494E+03 -0.40258232925E+02 -0.43522112709E+03  0.48267684209E+03  0.79882434952E+02 0.  0.
         11    1    4    4    0    0  0.18031100728E+03 -0.57770030687E+02 -0.39351565914E+03  0.43669670228E+03  0.00000000000E+00 0. -1.
        -12    1    4    4    0    0  0.82561576531E+01  0.17511797763E+02 -0.41705467944E+02  0.45980139805E+02  0.00000000000E+00 0.  1.
        -13    1    3    3    0    0 -0.22112460036E+02 -0.21019805037E+02 -0.20508866611E+02  0.36761483951E+02  0.00000000000E+00 0. -1.
         13    1    3    3    0    0  0.63712801242E+02  0.11980514149E+02  0.39185995338E+01  0.64947741944E+02  0.00000000000E+00 0.  1.
          2    1    1    2  501    0 -0.23016750614E+03  0.49297523812E+02  0.16627715540E+03  0.28819337110E+03  0.00000000000E+00 0. -1.
<scales pt_clust_5="13000.00000" pt_clust_6="13000.00000" pt_clust_7="13000.00000" pt_clust_8="13000.00000" pt_clust_9="13000.00000"></scales>
<clustering>
<clus scale="   79.882">  5  6 -1 -1</clus>
<clus scale="   90.869">  7  8 -1 -1</clus>
<clus scale="  100.347">  1  7  2 -1</clus>
<clus scale="  196.842">  5  9 -1 -1</clus>
<clus scale="  722.433">  2  5  1 -1</clus>
</clustering>
</event>
<event>
 9    1  0.4516508E-005  0.3227821E+03  0.7546771E-02  0.1101791E+00
          1   -1    0    0  502    0 -0.00000000000E+00  0.00000000000E+00  0.31232546518E+03  0.31232546518E+03  0.00000000000E+00 0. -1.
         21   -1    0    0  501  502  0.00000000000E+00 -0.00000000000E+00 -0.18786246426E+03  0.18786246426E+03  0.00000000000E+00 0. -1.
         23    2    1    2    0    0  0.10203277614E+03 -0.74095075008E+02  0.77043339853E+02  0.17394126088E+03  0.91755754449E+02 0.  0.
        -24    2    1    2    0    0 -0.11787276188E+03 -0.81571760867E+02  0.20014551073E+01  0.16331759696E+03  0.78234848300E+02 0.  0.
         11    1    4    4    0    0 -0.70785583378E+02 -0.52685561467E+02  0.39369207908E+02  0.96624540012E+02  0.00000000000E+00 0. -1.
        -12    1    4    4    0    0 -0.47087178506E+02 -0.28886199400E+02 -0.37367752801E+02  0.66693056946E+02  0.00000000000E+00 0.  1.
        -11    1    3    3    0    0  0.21176631775E+02 -0.42802360043E+02 -0.12436737907E+02  0.49347382994E+02  0.00000000000E+00 0.  1.
         11    1    3    3    0    0  0.80856144367E+02 -0.31292714965E+02  0.89480077760E+02  0.12459387789E+03  0.00000000000E+00 0. -1.
          2    1    1    2  501    0  0.15839985742E+02  0.15566683587E+03  0.45418205961E+02  0.16292907160E+03  0.00000000000E+00 0. -1.
<scales pt_clust_5="13000.00000" pt_clust_6="13000.00000" pt_clust_7="13000.00000" pt_clust_8="13000.00000" pt_clust_9="13000.00000"></scales>
<clustering>
<clus scale="   78.235">  5  6 -1 -1</clus>
<clus scale="   91.756">  7  8 -1 -1</clus>
<clus scale="  155.948">  1  7  2 -1</clus>
<clus scale="  135.523">  5  9 -1 -1</clus>
<clus scale="  322.782">  2  5  1 -1</clus>
</clustering>
</event>
<event>
 9    1  0.4516508E-005  0.2779457E+03  0.7546771E-02  0.1132856E+00
          1   -1    0    0  502    0 -0.00000000000E+00  0.00000000000E+00  0.11996852510E+04  0.11996852510E+04  0.00000000000E+00 0. -1.
         21   -1    0    0  501  502  0.00000000000E+00 -0.00000000000E+00 -0.39234713901E+02  0.39234713901E+02  0.00000000000E+00 0. -1.
         23    2    1    2    0    0 -0.60745376780E+02 -0.19511696981E+02  0.12934235651E+03  0.17100709575E+03  0.91887292327E+02 0.  0.
        -24    2    1    2    0    0 -0.81333515766E+02  0.36030301871E+02  0.31264025706E+03  0.33534517046E+03  0.82456834635E+02 0.  0.
         11    1    4    4    0    0 -0.40543187510E+02 -0.24478131958E+01  0.40030497617E+02  0.57027910556E+02  0.00000000000E+00 0. -1.
        -12    1    4    4    0    0 -0.40790328256E+02  0.38478115067E+02  0.27260975944E+03  0.27831725991E+03  0.00000000000E+00 0.  1.
        -13    1    3    3    0    0 -0.28954996398E+02 -0.70125617321E+00 -0.69601138351E+01  0.29788030503E+02  0.00000000000E+00 0. -1.
         13    1    3    3    0    0 -0.31790380381E+02 -0.18810440808E+02  0.13630247034E+03  0.14121906525E+03  0.00000000000E+00 0.  1.
          2    1    1    2  501    0  0.14207889255E+03 -0.16518604890E+02  0.71846792351E+03  0.73256769866E+03  0.00000000000E+00 0. -1.
<scales pt_clust_5="13000.00000" pt_clust_6="13000.00000" pt_clust_7="13000.00000" pt_clust_8="13000.00000" pt_clust_9="13000.00000"></scales>
<clustering>
<clus scale="   82.457">  5  6 -1 -1</clus>
<clus scale="   91.887">  7  8 -1 -1</clus>
<clus scale="  111.866">  1  7  2 -1</clus>
<clus scale="  104.488">  5  9 -1 -1</clus>
<clus scale="  277.946">  2  5  1 -1</clus>
</clustering>
</event>
<event>
 9    1  0.4516508E-005  0.2772547E+03  0.7546771E-02  0.1113548E+00
          3   -1    0    0  502    0 -0.00000000000E+00  0.00000000000E+00  0.63981179156E+03  0.63981179156E+03  0.00000000000E+00 0. -1.
         21   -1    0    0  501  502  0.00000000000E+00 -0.00000000000E+00 -0.82755524106E+02  0.82755524106E+02  0.00000000000E+00 0. -1.
         23    2    1    2    0    0  0.15819187965E+03 -0.30621799391E+02  0.24182472425E+03  0.30275655775E+03  0.84970410264E+02 0.  0.
        -24    2    1    2    0    0 -0.11585390206E+03  0.65172113396E+02  0.73016453163E+02  0.17150776077E+03  0.80087318507E+02 0.  0.
         11    1    4    4    0    0 -0.12228673949E+03  0.39176492000E+02  0.60433368785E+02  0.14191911867E+03  0.00000000000E+00 0. -1.
        -12    1    4    4    0    0  0.64328374307E+01  0.25995621395E+02  0.12583084378E+02  0.29588642105E+02  0.00000000000E+00 0.  1.
        -11    1    3    3    0    0  0.97608245037E+02 -0.58574932009E+02  0.13254826248E+03  0.17472101775E+03  0.00000000000E+00 0. -1.
         11    1    3    3    0    0  0.60583634611E+02  0.27953132618E+02  0.10927646177E+03  0.12803554000E+03  0.00000000000E+00 0.  1.
          4    1    1    2  501    0 -0.42337977587E+02 -0.34550314004E+02  0.24221509004E+03  0.24830299714E+03  0.00000000000E+00 0. -1.
<scales pt_clust_5="13000.00000" pt_clust_6="13000.00000" pt_clust_7="13000.00000" pt_clust_8="13000.00000" pt_clust_9="13000.00000"></scales>
<clustering>
<clus scale="   80.087">  5  6 -1 -1</clus>
<clus scale="   54.646">  5  9 -1 -1</clus>
<clus scale="   84.970">  7  8 -1 -1</clus>
<clus scale="  182.160">  1  7  2 -1</clus>
<clus scale="  277.255">  2  5  1 -1</clus>
</clustering>
</event>
<event>
 9    1  0.4516508E-005  0.1484795E+03  0.7546771E-02  0.1219084E+00
          3   -1    0    0  502    0 -0.00000000000E+00  0.00000000000E+00  0.34454584317E+02  0.34454584317E+02  0.00000000000E+00 0. -1.
         21   -1    0    0  501  502  0.00000000000E+00 -0.00000000000E+00 -0.68100273707E+03  0.68100273707E+03  0.00000000000E+00 0. -1.
         23    2    1    2    0    0  0.43835640384E+02  0.24965545237E+02 -0.83941301283E+02  0.13358738095E+03  0.90854853869E+02 0.  0.
        -24    2    1    2    0    0 -0.64740801704E+01 -0.46303201158E+02 -0.29696724875E+03  0.31276850923E+03  0.86305813167E+02 0.  0.
         11    1    4    4    0    0  0.18660913615E+02 -0.12281482555E+02 -0.13371985762E+02  0.26036023389E+02  0.00000000000E+00 0. -1.
        -12    1    4    4    0    0 -0.25134993785E+02 -0.34021718603E+02 -0.28359526299E+03  0.28673248585E+03  0.00000000000E+00 0.  1.
        -11    1    3    3    0    0  0.99703673392E+01  0.45267893275E+02 -0.66939607584E+01  0.46833743146E+02  0.00000000000E+00 0. -1.
         11    1    3    3    0    0  0.33865273045E+02 -0.20302348038E+02 -0.77247340525E+02  0.86753637805E+02  0.00000000000E+00 0.  1.
          4    1    1    2  501    0 -0.37361560214E+02  0.21337655921E+02 -0.26563960272E+03  0.26910143120E+03  0.00000000000E+00 0. -1.
<scales pt_clust_5="13000.00000" pt_clust_6="13000.00000" pt_clust_7="13000.00000" pt_clust_8="13000.00000" pt_clust_9="13000.00000"></scales>
<clustering>
<clus scale="   86.306">  5  6 -1 -1</clus>
<clus scale="   43.025">  5  9 -1 -1</clus>
<clus scale="   90.855">  7  8 -1 -1</clus>
<clus scale="  103.920">  1  7  2 -1</clus>
<clus scale="  148.479">  2  5  1 -1</clus>
</clustering>
</event>
<event>
 9    1  0.4516508E-005  0.2530026E+03  0.7546771E-02  0.1148266E+00
         21   -1    0    0  501  502  0.00000000000E+00  0.00000000000E+00  0.97072353484E+02  0.97072353484E+02  0.00000000000E+00 0. -1.
          1   -1    0    0  502    0 -0.00000000000E+00 -0.00000000000E+00 -0.33106558023E+03  0.33106558023E+03  0.00000000000E+00 0. -1.
         23    2    1    2    0    0 -0.49436181871E+02 -0.11347923594E+02 -0.42286795823E+02  0.11070816499E+03  0.88856137926E+02 0.  0.
        -24    2    1    2    0    0  0.96240476442E+02 -0.64914544790E+02 -0.48576789474E+02  0.14863195968E+03  0.79092525140E+02 0.  0.
         13    1    4    4    0    0  0.43650166775E+02 -0.68506685595E+02 -0.70685045495E+01  0.81538130879E+02  0.00000000000E+00 0. -1.
        -14    1    4    4    0    0  0.52590309667E+02  0.35921408050E+01 -0.41508284925E+02  0.67093828806E+02  0.00000000000E+00 0.  1.
        -13    1    3    3    0    0 -0.21789901814E+01 -0.27606381698E+02 -0.52815781669E+02  0.59635284035E+02  0.00000000000E+00 0.  1.
         13    1    3    3    0    0 -0.47257191690E+02  0.16258458105E+02  0.10528985846E+02  0.51072880958E+02  0.00000000000E+00 0. -1.
          2    1    1    2  501    0 -0.46804294570E+02  0.76262468384E+02 -0.14312964145E+03  0.16879780904E+03  0.00000000000E+00 0. -1.
<scales pt_clust_5="13000.00000" pt_clust_6="13000.00000" pt_clust_7="13000.00000" pt_clust_8="13000.00000" pt_clust_9="13000.00000"></scales>
<clustering>
<clus scale="   79.093">  5  6 -1 -1</clus>
<clus scale="   88.856">  7  8 -1 -1</clus>
<clus scale="   89.480">  5  9 -1 -1</clus>
<clus scale="  102.314">  2  7  1 -1</clus>
<clus scale="  253.003">  1  5  2 -1</clus>
</clustering>
</event>
<event>
 9    1  0.4516508E-005  0.2770362E+03  0.7546771E-02  0.1124557E+00
         21   -1    0    0  501  502  0.00000000000E+00  0.00000000000E+00  0.90548118949E+02  0.90548118949E+02  0.00000000000E+00 0.  1.
          3   -1    0    0  502    0 -0.00000000000E+00 -0.00000000000E+00 -0.69386778445E+03  0.69386778445E+03  0.00000000000E+00 0. -1.
         23    2    1    2    0    0 -0.65208417888E+01  0.10029195389E+03 -0.44336643146E+03  0.46451887734E+03  0.95409629825E+02 0.  0.
        -24    2    1    2    0    0  0.11082688449E+03 -0.89643429938E+02 -0.60806080991E+02  0.17559422095E+03  0.82567597087E+02 0.  0.
         13    1    4    4    0    0  0.22516541405E+02 -0.70632928100E+02 -0.32339534381E+02  0.80881707776E+02  0.00000000000E+00 0. -1.
        -14    1    4    4    0    0  0.88310343082E+02 -0.19010501838E+02 -0.28466546611E+02  0.94712513172E+02  0.00000000000E+00 0.  1.
        -11    1    3    3    0    0 -0.36497452922E+02  0.75728902761E+02 -0.38757993896E+03  0.39659190596E+03  0.00000000000E+00 0.  1.
         11    1    3    3    0    0  0.29976611133E+02  0.24563051133E+02 -0.55786492503E+02  0.67926971387E+02  0.00000000000E+00 0. -1.
          4    1    1    2  501    0 -0.10430604270E+03 -0.10648523956E+02 -0.99147153047E+02  0.14430280511E+03  0.00000000000E+00 0. -1.
<scales pt_clust_5="13000.00000" pt_clust_6="13000.00000" pt_clust_7="13000.00000" pt_clust_8="13000.00000" pt_clust_9="13000.00000"></scales>
<clustering>
<clus scale="   82.568">  5  6 -1 -1</clus>
<clus scale="   95.410">  7  8 -1 -1</clus>
<clus scale="  104.848">  5  9 -1 -1</clus>
<clus scale="  138.578">  2  7  1 -1</clus>
<clus scale="  277.036">  1  5  2 -1</clus>
</clustering>
</event>
<event>
 9    1  0.4516508E-005  0.1859364E+03  0.7546771E-02  0.1189808E+00
          1   -1    0    0  502    0 -0.00000000000E+00  0.00000000000E+00  0.65771122851E+03  0.65771122851E+03  0.00000000000E+00 0. -1.
         21   -1    0    0  501  502  0.00000000000E+00 -0.00000000000E+00 -0.39509200254E+02  0.39509200254E+02  0.00000000000E+00 0. -1.
         23    2    1    2    0    0 -0.29528668317E+02  0.12592526911E+02  0.39191251198E+03  0.40433941384E+03  0.94151104900E+02 0.  0.
        -24    2    1    2    0    0 -0.48495392137E+01 -0.32633487717E+02  0.32677109590E+02  0.95221546931E+02  0.83131744584E+02 0.  0.
         13    1    4    4    0    0 -0.25071107646E+02 -0.21093281732E+02 -0.19470161101E+02  0.38112650736E+02  0.00000000000E+00 0. -1.
        -14    1    4    4    0    0  0.20221568433E+02 -0.11540205985E+02  0.52147270691E+02  0.57108896195E+02  0.00000000000E+00 0.  1.
        -11    1    3    3    0    0 -0.10518525079E+02 -0.41142836130E+02  0.16991398241E+03  0.17514032589E+03  0.00000000000E+00 0. -1.
         11    1    3    3    0    0 -0.19010143238E+02  0.53735363040E+02  0.22199852957E+03  0.22919908795E+03  0.00000000000E+00 0.  1.
          2    1    1    2  501    0  0.34378207530E+02  0.20040960806E+02  0.19361240669E+03  0.19765946799E+03  0.00000000000E+00 0. -1.
<scales pt_clust_5="13000.00000" pt_clust_6="13000.00000" pt_clust_7="13000.00000" pt_clust_8="13000.00000" pt_clust_9="13000.00000"></scales>
<clustering>
<clus scale="   83.132">  5  6 -1 -1</clus>
<clus scale="   39.793">  5  9 -1 -1</clus>
<clus scale="   94.151">  7  8 -1 -1</clus>
<clus scale="   99.473">  1  7  2 -1</clus>
<clus scale="  185.936">  2  5  1 -1</clus>
</clustering>
</event>
<event>
 9    1  0.8183183E-005  0.7448089E+03  0.7546771E-02  0.9711088E-01
         21   -1    0    0  501  502  0.00000000000E+00  0.00000000000E+00  0.10810715810E+04  0.10810715810E+04  0.00000000000E+00 0. -1.
         -4   -1    0    0    0  501 -0.00000000000E+00 -0.00000000000E+00 -0.50355424911E+03  0.50355424911E+03  0.00000000000E+00 0.  1.
         23    2    1    2    0    0 -0.30812704873E+03 -0.49846100295E+03  0.59424506576E+03  0.83962905960E+03  0.91891838176E+02 0.  0.
        -24    2    1    2    0    0 -0.55435273595E+02 -0.15364617644E+02  0.53924045247E+02  0.11160431356E+03  0.78984676458E+02 0.  0.
         13    1    4    4    0    0 -0.46427210649E+02  0.25242820066E+02  0.44186990656E+02  0.68885237872E+02  0.00000000000E+00 0. -1.
        -14    1    4    4    0    0 -0.90080629453E+01 -0.40607437709E+02  0.97370545916E+01  0.42719075686E+02  0.00000000000E+00 0.  1.
        -11    1    3    3    0    0 -0.28133543578E+03 -0.43234570145E+03  0.47804016104E+03  0.70327436222E+03  0.00000000000E+00 0. -1.
         11    1    3    3    0    0 -0.26791612950E+02 -0.66115301505E+02  0.11620490472E+03  0.13635469738E+03  0.00000000000E+00 0.  1.
         -3    1    1    2    0  502  0.36356232233E+03  0.51382562060E+03 -0.70651779137E+02  0.63339245693E+03  0.00000000000E+00 0.  1.
<scales pt_clust_5="13000.00000" pt_clust_6="13000.00000" pt_clust_7="13000.00000" pt_clust_8="13000.00000" pt_clust_9="13000.00000"></scales>
<clustering>
<clus scale="   78.985">  5  6 -1 -1</clus>
<clus scale="   91.892">  7  8 -1 -1</clus>
<clus scale="  593.170">  2  7  1 -1</clus>
<clus scale="   95.000">  5  9 -1 -1</clus>
<clus scale="  744.809">  1  5  2 -1</clus>
</clustering>
</event>
<event>
 9    1  0.4516508E-005  0.4558226E+03  0.7546771E-02  0.1062058E+00
         21   -1    0    0  501  502  0.00000000000E+00  0.00000000000E+00  0.12591961347E+03  0.12591961347E+03  0.00000000000E+00 0. -1.
          1   -1    0    0  502    0 -0.00000000000E+00 -0.00000000000E+00 -0.84824382548E+03  0.84824382548E+03  0.00000000000E+00 0. -1.
         23    2    1    2    0    0 -0.12149982873E+03 -0.50025971927E+02 -0.35138210275E+03  0.38647957979E+03  0.92910049028E+02 0.  0.
        -24    2    1    2    0    0  0.10399997285E+03 -0.16076648047E+03 -0.29954096468E+03  0.36443998715E+03  0.80186402348E+02 0.  0.
         13    1    4    4    0    0  0.93466645578E+02 -0.11716421908E+03 -0.16640785112E+03  0.22395321159E+03  0.00000000000E+00 0. -1.
        -14    1    4    4    0    0  0.10533327268E+02 -0.43602261386E+02 -0.13313311356E+03  0.14048677556E+03  0.00000000000E+00 0.  1.
        -11    1    3    3    0    0  0.18017862770E+01 -0.27566499228E+02 -0.26581335544E+02  0.38337001875E+02  0.00000000000E+00 0.  1.
         11    1    3    3    0    0 -0.12330161501E+03 -0.22459472699E+02 -0.32480076721E+03  0.34814257791E+03  0.00000000000E+00 0. -1.
          2    1    1    2  501    0  0.17499855883E+02  0.21079245239E+03 -0.71401144575E+02  0.22324387201E+03  0.00000000000E+00 0. -1.
<scales pt_clust_5="13000.00000" pt_clust_6="13000.00000" pt_clust_7="13000.00000" pt_clust_8="13000.00000" pt_clust_9="13000.00000"></scales>
<clustering>
<clus scale="   80.186">  5  6 -1 -1</clus>
<clus scale="   92.910">  7  8 -1 -1</clus>
<clus scale="  160.926">  2  7  1 -1</clus>
<clus scale="  196.422">  5  9 -1 -1</clus>
<clus scale="  455.823">  1  5  2 -1</clus>
</clustering>
</event>
<event>
 9    1  0.4516508E-005  0.1729742E+03  0.7546771E-02  0.1197781E+00
          3   -1    0    0  502    0 -0.00000000000E+00  0.00000000000E+00  0.24015936441E+03  0.24015936441E+03  0.00000000000E+00 0. -1.
         21   -1    0    0  501  502  0.00000000000E+00 -0.00000000000E+00 -0.79781983065E+02  0.79781983065E+02  0.00000000000E+00 0. -1.
         23    2    1    2    0    0 -0.69765938780E+01  0.49576701021E+02  0.55039062196E+02  0.11741667277E+03  0.90834214533E+02 0.  0.
        -24    2    1    2    0    0  0.93876727945E+01  0.19061230320E+02  0.10346267518E+03  0.13381880189E+03  0.82167436867E+02 0.  0.
         11    1    4    4    0    0 -0.19138346805E+02  0.34409224492E+02  0.90925589146E+02  0.99084478149E+02  0.00000000000E+00 0. -1.
        -12    1    4    4    0    0  0.28526019599E+02 -0.15347994172E+02  0.12537086032E+02  0.34734323737E+02  0.00000000000E+00 0.  1.
        -13    1    3    3    0    0  0.36439484786E+02  0.47090645399E+02  0.25083757206E+02  0.64610833543E+02  0.00000000000E+00 0. -1.
         13    1    3    3    0    0 -0.43416078664E+02  0.24860556222E+01  0.29955304990E+02  0.52805839224E+02  0.00000000000E+00 0.  1.
          4    1    1    2  501    0 -0.24110789165E+01 -0.68637931341E+02  0.18756439726E+01  0.68705872825E+02  0.00000000000E+00 0. -1.
<scales pt_clust_5="13000.00000" pt_clust_6="13000.00000" pt_clust_7="13000.00000" pt_clust_8="13000.00000" pt_clust_9="13000.00000"></scales>
<clustering>
<clus scale="   82.167">  5  6 -1 -1</clus>
<clus scale="   68.680">  5  9 -1 -1</clus>
<clus scale="   90.834">  7  8 -1 -1</clus>
<clus scale="  103.718">  1  7  2 -1</clus>
<clus scale="  172.974">  2  5  1 -1</clus>
</clustering>
</event>
<event>
 9    1  0.4516508E-005  0.6492187E+03  0.7546771E-02  0.1042366E+00
          1   -1    0    0  502    0 -0.00000000000E+00  0.00000000000E+00  0.35922758424E+03  0.35922758424E+03  0.00000000000E+00 0. -1.
         21   -1    0    0  501  502  0.00000000000E+00 -0.00000000000E+00 -0.43008030238E+03  0.43008030238E+03  0.00000000000E+00 0. -1.
         23    2    1    2    0    0 -0.19299614632E+01 -0.40320257345E+02 -0.99735396145E+02  0.13944698973E+03  0.88706627698E+02 0.  0.
        -24    2    1    2    0    0  0.68949743419E+02 -0.30289010974E+02 -0.29307915763E+03  0.31350283834E+03  0.81958194882E+02 0.  0.
         11    1    4    4    0    0  0.27135032239E+02 -0.55990550795E+02 -0.16496018794E+03  0.17630404238E+03  0.00000000000E+00 0. -1.
        -12    1    4    4    0    0  0.41814711180E+02  0.25701539821E+02 -0.12811896969E+03  0.13719879596E+03  0.00000000000E+00 0.  1.
        -11    1    3    3    0    0  0.42493430790E+02 -0.24563290080E+02 -0.61945261072E+02  0.79033298357E+02  0.00000000000E+00 0.  1.
         11    1    3    3    0    0 -0.44423392254E+02 -0.15756967265E+02 -0.37790135073E+02  0.60413691375E+02  0.00000000000E+00 0. -1.
          2    1    1    2  501    0 -0.67019781956E+02  0.70609268319E+02  0.32196183563E+03  0.33635805854E+03  0.00000000000E+00 0. -1.
<scales pt_clust_5="13000.00000" pt_clust_6="13000.00000" pt_clust_7="13000.00000" pt_clust_8="13000.00000" pt_clust_9="13000.00000"></scales>
<clustering>
<clus scale="   81.958">  5  6 -1 -1</clus>
<clus scale="   88.707">  7  8 -1 -1</clus>
<clus scale="   97.352">  5  9 -1 -1</clus>
<clus scale="   97.459">  1  7  2 -1</clus>
<clus scale="  649.219">  2  5  1 -1</clus>
</clustering>
</event>
<event>
 9    1  0.4516508E-005  0.2655807E+03  0.7546771E-02  0.1123271E+00
         21   -1    0    0  501  502  0.00000000000E+00  0.00000000000E+00  0.24425423769E+03  0.24425423769E+03  0.00000000000E+00 0. -1.
          3   -1    0    0  502    0 -0.00000000000E+00 -0.00000000000E+00 -0.18747417671E+03  0.18747417671E+03  0.00000000000E+00 0. -1.
         23    2    1    2    0    0  0.47252167053E+02  0.12557713541E+03  0.21350666944E+02  0.16379490442E+03  0.91490630694E+02 0.  0.
        -24    2    1    2    0    0 -0.11494405585E+03 -0.66201643289E+02 -0.27658173204E+02  0.15798951507E+03  0.81246038545E+02 0.  0.
         11    1    4    4    0    0 -0.11285614807E+03 -0.47496735867E+02  0.24667204301E+01  0.12246850528E+03  0.00000000000E+00 0. -1.
        -12    1    4    4    0    0 -0.20879077794E+01 -0.18704907422E+02 -0.30124893634E+02  0.35521009797E+02  0.00000000000E+00 0.  1.
        -13    1    3    3    0    0  0.22579526821E+02 -0.26379176980E+01  0.24191377810E+02  0.33196632383E+02  0.00000000000E+00 0.  1.
         13    1    3    3    0    0  0.24672640232E+02  0.12821505311E+03 -0.28407108666E+01  0.13059827204E+03  0.00000000000E+00 0. -1.
          4    1    1    2  501    0  0.67691888796E+02 -0.59375492125E+02  0.63087567246E+02  0.10994399490E+03  0.00000000000E+00 0. -1.
<scales pt_clust_5="13000.00000" pt_clust_6="13000.00000" pt_clust_7="13000.00000" pt_clust_8="13000.00000" pt_clust_9="13000.00000"></scales>
<clustering>
<clus scale="   81.246">  5  6 -1 -1</clus>
<clus scale="   90.042">  5  9 -1 -1</clus>
<clus scale="   91.491">  7  8 -1 -1</clus>
<clus scale="  162.397">  2  7  1 -1</clus>
<clus scale="  265.581">  1  5  2 -1</clus>
</clustering>
</event>
<event>
 9    1  0.4516508E-005  0.4803614E+03  0.7546771E-02  0.1071619E+00
         21   -1    0    0  501  502  0.00000000000E+00  0.00000000000E+00  0.41908565123E+03  0.41908565123E+03  0.00000000000E+00 0. -1.
          1   -1    0    0  502    0 -0.00000000000E+00 -0.00000000000E+00 -0.20976421629E+03  0.20976421629E+03  0.00000000000E+00 0. -1.
         23    2    1    2    0    0  0.26551748757E+01  0.54759485225E+02  0.76734952119E+02  0.13052641791E+03  0.90239912017E+02 0.  0.
        -24    2    1    2    0    0  0.17377735327E+02 -0.24930279624E+03  0.78361831797E+00  0.26248364710E+03  0.80269427805E+02 0.  0.
         11    1    4    4    0    0 -0.14936803583E+02 -0.21196410326E+03  0.76552321447E+01  0.21262758934E+03  0.00000000000E+00 0. -1.
        -12    1    4    4    0    0  0.32314538910E+02 -0.37338692983E+02 -0.68716138267E+01  0.49856057759E+02  0.00000000000E+00 0.  1.
        -13    1    3    3    0    0  0.44016197712E+02  0.41635877097E+02  0.33330407457E+02  0.69151196547E+02  0.00000000000E+00 0.  1.
         13    1    3    3    0    0 -0.41361022836E+02  0.13123608128E+02  0.43404544662E+02  0.61375221365E+02  0.00000000000E+00 0. -1.
          2    1    1    2  501    0 -0.20032910202E+02  0.19454331102E+03  0.13180286451E+03  0.23583980250E+03  0.00000000000E+00 0. -1.
<scales pt_clust_5="13000.00000" pt_clust_6="13000.00000" pt_clust_7="13000.00000" pt_clust_8="13000.00000" pt_clust_9="13000.00000"></scales>
<clustering>
<clus scale="   80.269">  5  6 -1 -1</clus>
<clus scale="   90.240">  7  8 -1 -1</clus>
<clus scale="  105.588">  2  7  1 -1</clus>
<clus scale="  211.003">  5  9 -1 -1</clus>
<clus scale="  480.361">  1  5  2 -1</clus>
</clustering>
</event>
<event>
 9    1  0.4516508E-005  0.5323003E+03  0.7546771E-02  0.1065425E+00
          1   -1    0    0  502    0 -0.00000000000E+00  0.00000000000E+00  0.49148947631E+03  0.49148947631E+03  0.00000000000E+00 0. -1.
         21   -1    0    0  501  502  0.00000000000E+00 -0.00000000000E+00 -0.31731834362E+03  0.31731834362E+03  0.00000000000E+00 0.  1.
         23    2    1    2    0    0 -0.37756267449E+01  0.14247357122E+02  0.25436519018E+03  0.27050061602E+03  0.90838817420E+02 0.  0.
        -24    2    1    2    0    0  0.18589858831E+03 -0.37386903351E+02 -0.22413521907E+03  0.30501924939E+03  0.82728957392E+02 0.  0.
         11    1    4    4    0    0  0.22862713105E+02  0.10890943552E+01  0.26862254557E+01  0.23045728112E+02  0.00000000000E+00 0. -1.
        -12    1    4    4    0    0  0.16303587521E+03 -0.38475997706E+02 -0.22682144452E+03  0.28197352127E+03  0.00000000000E+00 0.  1.
        -13    1    3    3    0    0  0.24218427831E+02 -0.30682814254E+02  0.10808597250E+03  0.11493713407E+03  0.00000000000E+00 0.  1.
         13    1    3    3    0    0 -0.27994054576E+02  0.44930171376E+02  0.14627921768E+03  0.15556348195E+03  0.00000000000E+00 0. -1.
          2    1    1    2  501    0 -0.18212296156E+03  0.23139546229E+02  0.14394116159E+03  0.23328795453E+03  0.00000000000E+00 0. -1.
<scales pt_clust_5="13000.00000" pt_clust_6="13000.00000" pt_clust_7="13000.00000" pt_clust_8="13000.00000" pt_clust_9="13000.00000"></scales>
<clustering>
<clus scale="   82.729">  5  6 -1 -1</clus>
<clus scale="   90.839">  7  8 -1 -1</clus>
<clus scale="   92.027">  1  7  2 -1</clus>
<clus scale="  188.486">  5  9 -1 -1</clus>
<clus scale="  532.300">  2  5  1 -1</clus>
</clustering>
</event>
<event>
 9    1  0.4516508E-005  0.1892470E+03  0.7546771E-02  0.1191837E+00
         21   -1    0    0  501  502  0.00000000000E+00  0.00000000000E+00  0.42770879968E+02  0.42770879968E+02  0.00000000000E+00 0. -1.
          1   -1    0    0  502    0 -0.00000000000E+00 -0.00000000000E+00 -0.47883894068E+03  0.47883894068E+03  0.00000000000E+00 0. -1.
         23    2    1    2    0    0  0.12263009420E+02  0.35744759991E+01 -0.91512759465E+02  0.12850322964E+03  0.89304740098E+02 0.  0.
        -24    2    1    2    0    0  0.47896640065E+02 -0.55920141839E+02 -0.21538023016E+03  0.24129930809E+03  0.80097204360E+02 0.  0.
         13    1    4    4    0    0  0.59558769792E+02 -0.58067310011E+02 -0.21370594266E+03  0.22932354759E+03  0.00000000000E+00 0. -1.
        -14    1    4    4    0    0 -0.11662129728E+02  0.21471681721E+01 -0.16742875062E+01  0.11975760502E+02  0.00000000000E+00 0.  1.
        -11    1    3    3    0    0 -0.34897229104E+02  0.83343068956E+01 -0.15859671080E+02  0.39227623396E+02  0.00000000000E+00 0. -1.
         11    1    3    3    0    0  0.47160238524E+02 -0.47598308965E+01 -0.75653088385E+02  0.89275606243E+02  0.00000000000E+00 0.  1.
          2    1    1    2  501    0 -0.60159649485E+02  0.52345665839E+02 -0.12917507109E+03  0.15180728293E+03  0.00000000000E+00 0. -1.
<scales pt_clust_5="13000.00000" pt_clust_6="13000.00000" pt_clust_7="13000.00000" pt_clust_8="13000.00000" pt_clust_9="13000.00000"></scales>
<clustering>
<clus scale="   80.097">  5  6 -1 -1</clus>
<clus scale="   79.745">  5  9 -1 -1</clus>
<clus scale="   89.305">  7  8 -1 -1</clus>
<clus scale="   90.214">  2  7  1 -1</clus>
<clus scale="  189.247">  1  5  2 -1</clus>
</clustering>
</event>
<event>
 9    1  0.4516508E-005  0.3568074E+03  0.7546771E-02  0.1111209E+00
          3   -1    0    0  502    0 -0.00000000000E+00  0.00000000000E+00  0.38972124538E+03  0.38972124538E+03  0.00000000000E+00 0. -1.
         21   -1    0    0  501  502  0.00000000000E+00 -0.00000000000E+00 -0.13368625100E+03  0.13368625100E+03  0.00000000000E+00 0.  1.
         23    2    1    2    0    0 -0.43973165442E+01  0.34819691397E+01  0.96912077293E+02  0.13272652905E+03  0.90514751758E+02 0.  0.
        -24    2    1    2    0    0  0.82559164927E+02 -0.14378706786E+03  0.13442351644E+03  0.22818525767E+03  0.80672755315E+02 0.  0.
         11    1    4    4    0    0 -0.49782112609E+01 -0.44112842330E+02  0.64297800472E+02  0.78134068058E+02  0.00000000000E+00 0. -1.
        -12    1    4    4    0    0  0.87537376188E+02 -0.99674225526E+02  0.70125715967E+02  0.15005118961E+03  0.00000000000E+00 0.  1.
        -13    1    3    3    0    0 -0.24716669185E+02 -0.35235262508E+02  0.67413065818E+02  0.79980990883E+02  0.00000000000E+00 0.  1.
         13    1    3    3    0    0  0.20319352641E+02  0.38717231648E+02  0.29499011474E+02  0.52745538164E+02  0.00000000000E+00 0. -1.
          4    1    1    2  501    0 -0.78161848383E+02  0.14030509872E+03  0.24699400648E+02  0.16249570967E+03  0.00000000000E+00 0. -1.
<scales pt_clust_5="13000.00000" pt_clust_6="13000.00000" pt_clust_7="13000.00000" pt_clust_8="13000.00000" pt_clust_9="13000.00000"></scales>
<clustering>
<clus scale="   80.673">  5  6 -1 -1</clus>
<clus scale="   90.515">  7  8 -1 -1</clus>
<clus scale="   90.688">  1  7  2 -1</clus>
<clus scale="  162.374">  5  9 -1 -1</clus>
<clus scale="  356.807">  2  5  1 -1</clus>
</clustering>
</event>
<event>
 9    1  0.4516508E-005  0.3094306E+03  0.7546771E-02  0.1106724E+00
          1   -1    0    0  502    0 -0.00000000000E+00  0.00000000000E+00  0.91512987123E+03  0.91512987123E+03  0.00000000000E+00 0. -1.
         21   -1    0    0  501  502  0.00000000000E+00 -0.00000000000E+00 -0.60390914203E+02  0.60390914203E+02  0.00000000000E+00 0.  1.
         23    2    1    2    0    0  0.82397098871E+02  0.94495419881E+02  0.22332519289E+03  0.27236316022E+03  0.92676226641E+02 0.  0.
        -24    2    1    2    0    0  0.65995693898E+02  0.36405959577E+02  0.20970480294E+03  0.23733143441E+03  0.81665659092E+02 0.  0.
         11    1    4    4    0    0  0.59412732267E+02  0.40405458366E+02  0.80516741167E+02  0.10791394455E+03  0.00000000000E+00 0. -1.
        -12    1    4    4    0    0  0.65829616303E+01 -0.39994987882E+01  0.12918806178E+03  0.12941748985E+03  0.00000000000E+00 0.  1.
        -13    1    3    3    0    0  0.14280224293E+02  0.66506624035E+02  0.51175986508E+02  0.85123659704E+02  0.00000000000E+00 0.  1.
         13    1    3    3    0    0  0.68116874578E+02  0.27988795846E+02  0.17214920638E+03  0.18723950051E+03  0.00000000000E+00 0. -1.
          2    1    1    2  501    0 -0.14839279277E+03 -0.13090137946E+03  0.42170896119E+03  0.46582619080E+03  0.00000000000E+00 0. -1.
<scales pt_clust_5="13000.00000" pt_clust_6="13000.00000" pt_clust_7="13000.00000" pt_clust_8="13000.00000" pt_clust_9="13000.00000"></scales>
<clustering>
<clus scale="   81.666">  5  6 -1 -1</clus>
<clus scale="   92.676">  7  8 -1 -1</clus>
<clus scale="  155.909">  1  7  2 -1</clus>
<clus scale="  115.725">  5  9 -1 -1</clus>
<clus scale="  309.431">  2  5  1 -1</clus>
</clustering>
</event>
<event>
 9    1  0.4516508E-005  0.1630691E+03  0.7546771E-02  0.1199199E+00
         -4   -1    0    0    0  501 -0.00000000000E+00  0.00000000000E+00  0.34162721909E+02  0.34162721909E+02  0.00000000000E+00 0.  1.
         21   -1    0    0  501  502  0.00000000000E+00 -0.00000000000E+00 -0.60826961939E+03  0.60826961939E+03  0.00000000000E+00 0.  1.
         23    2    1    2    0    0  0.72743627420E+02 -0.14379651320E+02 -0.30510061772E+03  0.32785977208E+03  0.94378141098E+02 0.  0.
        -24    2    1    2    0    0  0.14669568647E+02 -0.12674353903E+02 -0.13329334175E+03  0.15089304212E+03  0.68012937846E+02 0.  0.
         11    1    4    4    0    0 -0.14980856874E+02 -0.20438341905E+02 -0.16724785952E+02  0.30362318054E+02  0.00000000000E+00 0. -1.
        -12    1    4    4    0    0  0.29650425520E+02  0.77639880017E+01 -0.11656855580E+03  0.12053072406E+03  0.00000000000E+00 0.  1.
        -11    1    3    3    0    0  0.10911847102E+02 -0.46194218326E+02 -0.89276696645E+02  0.10111034951E+03  0.00000000000E+00 0.  1.
         11    1    3    3    0    0  0.61831780318E+02  0.31814567006E+02 -0.21582392107E+03  0.22674942257E+03  0.00000000000E+00 0. -1.
         -3    1    1    2    0  502 -0.87413196067E+02  0.27054005223E+02 -0.13571293801E+03  0.16367952709E+03  0.00000000000E+00 0.  1.
<scales pt_clust_5="13000.00000" pt_clust_6="13000.00000" pt_clust_7="13000.00000" pt_clust_8="13000.00000" pt_clust_9="13000.00000"></scales>
<clustering>
<clus scale="   68.013">  5  6 -1 -1</clus>
<clus scale="   91.504">  5  9 -1 -1</clus>
<clus scale="   94.378">  7  8 -1 -1</clus>
<clus scale="  120.024">  1  7  2 -1</clus>
<clus scale="  163.069">  2  5  1 -1</clus>
</clustering>
</event>
<event>
 9    1  0.4516508E-005  0.3512245E+03  0.7546771E-02  0.1063515E+00
         21   -1    0    0  501  502  0.00000000000E+00  0.00000000000E+00  0.72284400704E+03  0.72284400704E+03  0.00000000000E+00 0. -1.
          1   -1    0    0  502    0 -0.00000000000E+00 -0.00000000000E+00 -0.29756151806E+03  0.29756151806E+03  0.00000000000E+00 0. -1.
         23    2    1    2    0    0 -0.15681229457E+03 -0.28318991050E+03 -0.13118785595E+03  0.36236457655E+03  0.96494619836E+02 0.  0.
        -24    2    1    2    0    0  0.52338759063E+02  0.88642403403E+02  0.21720494240E+03  0.25323918782E+03  0.79719996630E+02 0.  0.
         11    1    4    4    0    0  0.94206822712E+01  0.73169591331E+02  0.17944346196E+03  0.19401673739E+03  0.00000000000E+00 0. -1.
        -12    1    4    4    0    0  0.42918076792E+02  0.15472812072E+02  0.37761480439E+02  0.59222450421E+02  0.00000000000E+00 0.  1.
        -13    1    3    3    0    0 -0.50012142570E+02 -0.81577915446E+02 -0.88324147758E+02  0.13022029707E+03  0.00000000000E+00 0.  1.
         13    1    3    3    0    0 -0.10680015200E+03 -0.20161199505E+03 -0.42863708193E+02  0.23214427948E+03  0.00000000000E+00 0. -1.
          2    1    1    2  501    0  0.10447353551E+03  0.19454750709E+03  0.33926540253E+03  0.40480176073E+03  0.00000000000E+00 0. -1.
<scales pt_clust_5="13000.00000" pt_clust_6="13000.00000" pt_clust_7="13000.00000" pt_clust_8="13000.00000" pt_clust_9="13000.00000"></scales>
<clustering>
<clus scale="   79.720">  5  6 -1 -1</clus>
<clus scale="   96.495">  7  8 -1 -1</clus>
<clus scale="  220.825">  5  9 -1 -1</clus>
<clus scale="  337.784">  2  7  1 -1</clus>
<clus scale="  351.224">  1  5  2 -1</clus>
</clustering>
</event>
<event>
 9    1  0.4516508E-005  0.2925850E+03  0.7546771E-02  0.1101964E+00
          1   -1    0    0  502    0 -0.00000000000E+00  0.00000000000E+00  0.23489041507E+03  0.23489041507E+03  0.00000000000E+00 0. -1.
         21   -1    0    0  501  502  0.00000000000E+00 -0.00000000000E+00 -0.29150407441E+03  0.29150407441E+03  0.00000000000E+00 0. -1.
         23    2    1    2    0    0 -0.18341045655E+03  0.37809292885E+02 -0.98978749663E+02  0.23075822361E+03  0.91562146540E+02 0.  0.
        -24    2    1    2    0    0  0.19996309451E+03 -0.60918250199E+02 -0.21866552594E+02  0.22539583816E+03  0.81417844250E+02 0.  0.
         11    1    4    4    0    0  0.14852223046E+03 -0.70855324274E+02 -0.41052651371E+02  0.16960144488E+03  0.00000000000E+00 0. -1.
        -12    1    4    4    0    0  0.51440864052E+02  0.99370740749E+01  0.19186098778E+02  0.55794393284E+02  0.00000000000E+00 0.  1.
        -13    1    3    3    0    0 -0.16145904301E+03  0.54554022773E+02 -0.55465064540E+02  0.17922482349E+03  0.00000000000E+00 0. -1.
         13    1    3    3    0    0 -0.21951413547E+02 -0.16744729888E+02 -0.43513685123E+02  0.51533400127E+02  0.00000000000E+00 0.  1.
          2    1    1    2  501    0 -0.16552637961E+02  0.23108957314E+02  0.64231642923E+02  0.70240427705E+02  0.00000000000E+00 0. -1.
<scales pt_clust_5="13000.00000" pt_clust_6="13000.00000" pt_clust_7="13000.00000" pt_clust_8="13000.00000" pt_clust_9="13000.00000"></scales>
<clustering>
<clus scale="   81.418">  5  6 -1 -1</clus>
<clus scale="   28.426">  5  9 -1 -1</clus>
<clus scale="   91.562">  7  8 -1 -1</clus>
<clus scale="  208.453">  1  7  2 -1</clus>
<clus scale="  292.585">  2  5  1 -1</clus>
</clustering>
</event>
<event>
 9    1  0.4516508E-005  0.1182090E+03  0.7546771E-02  0.1257169E+00
          1   -1    0    0  502    0 -0.00000000000E+00  0.00000000000E+00  0.15057950972E+03  0.15057950972E+03  0.00000000000E+00 0. -1.
         21   -1    0    0  501  502  0.00000000000E+00 -0.00000000000E+00 -0.75636073207E+02  0.75636073207E+02  0.00000000000E+00 0. -1.
         23    2    1    2    0    0  0.23669465208E+01  0.25646540503E+02  0.40707198221E+02  0.10314854782E+03  0.91209645628E+02 0.  0.
        -24    2    1    2    0    0 -0.24260076679E+02 -0.70186435130E+01  0.43012110733E+02  0.93011692291E+02  0.78506818531E+02 0.  0.
         13    1    4    4    0    0 -0.25334127600E+02 -0.75857179840E+01  0.65424106175E+02  0.70566810948E+02  0.00000000000E+00 0. -1.
        -14    1    4    4    0    0  0.10740509213E+01  0.56707447101E+00 -0.22411995441E+02  0.22444881343E+02  0.00000000000E+00 0.  1.
        -13    1    3    3    0    0  0.38783215423E+02  0.60814827250E+01  0.47103109767E+02  0.61317413354E+02  0.00000000000E+00 0.  1.
         13    1    3    3    0    0 -0.36416268902E+02  0.19565057778E+02 -0.63959115463E+01  0.41831134470E+02  0.00000000000E+00 0. -1.
          2    1    1    2  501    0  0.21893130158E+02 -0.18627896990E+02 -0.87758724425E+01  0.30055342811E+02  0.00000000000E+00 0. -1.
<scales pt_clust_5="13000.00000" pt_clust_6="13000.00000" pt_clust_7="13000.00000" pt_clust_8="13000.00000" pt_clust_9="13000.00000"></scales>
<clustering>
<clus scale="   78.507">  5  6 -1 -1</clus>
<clus scale="   28.746">  5  9 -1 -1</clus>
<clus scale="   91.210">  7  8 -1 -1</clus>
<clus scale="   94.776">  1  7  2 -1</clus>
<clus scale="  118.209">  2  5  1 -1</clus>
</clustering>
</event>
<event>
 9    1  0.4516508E-005  0.2860547E+03  0.7546771E-02  0.1126701E+00
         -4   -1    0    0    0  501 -0.00000000000E+00  0.00000000000E+00  0.82372395343E+02  0.82372395343E+02  0.00000000000E+00 0.  1.
         21   -1    0    0  501  502  0.00000000000E+00 -0.00000000000E+00 -0.50135003252E+03  0.50135003252E+03  0.00000000000E+00 0.  1.
         23    2    1    2    0    0  0.22663686231E+02 -0.77720859914E+02 -0.14252172740E+03  0.18590942264E+03  0.87725115592E+02 0.  0.
        -24    2    1    2    0    0  0.41536165979E+02 -0.30758839326E+02 -0.25177805976E+03  0.26936666447E+03  0.80590627668E+02 0.  0.
         11    1    4    4    0    0  0.21960274696E+02 -0.50938165930E+02 -0.94351213418E+02  0.10944908353E+03  0.00000000000E+00 0. -1.
        -12    1    4    4    0    0  0.19575891283E+02  0.20179326604E+02 -0.15742684634E+03  0.15991758093E+03  0.00000000000E+00 0.  1.
        -11    1    3    3    0    0  0.25310008255E+01 -0.47166355260E+02 -0.14163946623E+03  0.14930776747E+03  0.00000000000E+00 0.  1.
         11    1    3    3    0    0  0.20132685405E+02 -0.30554504654E+02 -0.88226117266E+00  0.36601655168E+02  0.00000000000E+00 0. -1.
         -3    1    1    2    0  502 -0.64199852210E+02  0.10847969924E+03 -0.24677850006E+02  0.12844634075E+03  0.00000000000E+00 0.  1.
<scales pt_clust_5="13000.00000" pt_clust_6="13000.00000" pt_clust_7="13000.00000" pt_clust_8="13000.00000" pt_clust_9="13000.00000"></scales>
<clustering>
<clus scale="   80.591">  5  6 -1 -1</clus>
<clus scale="   87.725">  7  8 -1 -1</clus>
<clus scale="  119.373">  1  7  2 -1</clus>
<clus scale="   61.440">  5  9 -1 -1</clus>
<clus scale="  286.055">  2  5  1 -1</clus>
</clustering>
</event>
<event>
 9    1  0.4516508E-005  0.2143095E+03  0.7546771E-02  0.1168909E+00
          1   -1    0    0  502    0 -0.00000000000E+00  0.00000000000E+00  0.86367771716E+03  0.86367771716E+03  0.00000000000E+00 0. -1.
         21   -1    0    0  501  502  0.00000000000E+00 -0.00000000000E+00 -0.30037982732E+02  0.30037982732E+02  0.00000000000E+00 0. -1.
         23    2    1    2    0    0  0.41161481522E+02  0.34485143176E+02  0.34046039898E+03  0.35598488587E+03  0.89041917268E+02 0.  0.
        -24    2    1    2    0    0 -0.97699435567E+02 -0.47912484278E+02  0.22058303407E+03  0.25900948858E+03  0.81168062638E+02 0.  0.
         11    1    4    4    0    0 -0.95802236704E+02 -0.27993735135E+02  0.11826082212E+03  0.15474928049E+03  0.00000000000E+00 0. -1.
        -12    1    4    4    0    0 -0.18971988629E+01 -0.19918749143E+02  0.10232221195E+03  0.10426020809E+03  0.00000000000E+00 0.  1.
        -13    1    3    3    0    0 -0.17458722791E+02 -0.15089896529E+02  0.12835595025E+03  0.13041381040E+03  0.00000000000E+00 0.  1.
         13    1    3    3    0    0  0.58620204314E+02  0.49575039706E+02  0.21210444873E+03  0.22557107547E+03  0.00000000000E+00 0. -1.
          2    1    1    2  501    0  0.56537954045E+02  0.13427341102E+02  0.27259630137E+03  0.27872132545E+03  0.00000000000E+00 0. -1.
<scales pt_clust_5="13000.00000" pt_clust_6="13000.00000" pt_clust_7="13000.00000" pt_clust_8="13000.00000" pt_clust_9="13000.00000"></scales>
<clustering>
<clus scale="   81.168">  5  6 -1 -1</clus>
<clus scale="   58.111">  5  9 -1 -1</clus>
<clus scale="   89.042">  7  8 -1 -1</clus>
<clus scale="  103.981">  1  7  2 -1</clus>
<clus scale="  214.310">  2  5  1 -1</clus>
</clustering>
</event>
<event>
 9    1  0.4516508E-005  0.2856486E+03  0.7546771E-02  0.1102705E+00
          1   -1    0    0  502    0 -0.00000000000E+00  0.00000000000E+00  0.90785145544E+03  0.90785145544E+03  0.00000000000E+00 0. -1.
         21   -1    0    0  501  502  0.00000000000E+00 -0.00000000000E+00 -0.13118408918E+03  0.13118408918E+03  0.00000000000E+00 0. -1.
         23    2    1    2    0    0 -0.15218473612E+03 -0.12914440882E+03  0.71337672922E+03  0.74645939845E+03  0.91960880313E+02 0.  0.
        -24    2    1    2    0    0  0.58414672871E+02  0.14869179913E+03  0.78923119251E+02  0.19552306931E+03  0.80491532132E+02 0.  0.
         11    1    4    4    0    0  0.45699311332E+02  0.15048976618E+03  0.51923473922E+02  0.16562500997E+03  0.00000000000E+00 0. -1.
        -12    1    4    4    0    0  0.12715361539E+02 -0.17979670540E+01  0.26999645329E+02  0.29898059343E+02  0.00000000000E+00 0.  1.
        -13    1    3    3    0    0 -0.44189912805E+02 -0.35729625956E+02  0.86292933506E+02  0.10332388367E+03  0.00000000000E+00 0.  1.
         13    1    3    3    0    0 -0.10799482331E+03 -0.93414782865E+02  0.62708379571E+03  0.64313551477E+03  0.00000000000E+00 0. -1.
          2    1    1    2  501    0  0.93770063245E+02 -0.19547390309E+02 -0.15632482214E+02  0.97053076865E+02  0.00000000000E+00 0. -1.
<scales pt_clust_5="13000.00000" pt_clust_6="13000.00000" pt_clust_7="13000.00000" pt_clust_8="13000.00000" pt_clust_9="13000.00000"></scales>
<clustering>
<clus scale="   80.492">  5  6 -1 -1</clus>
<clus scale="   91.961">  7  8 -1 -1</clus>
<clus scale="   95.786">  5  9 -1 -1</clus>
<clus scale="  219.762">  1  7  2 -1</clus>
<clus scale="  285.649">  2  5  1 -1</clus>
</clustering>
</event>
<event>
 9    1  0.4516508E-005  0.1390365E+03  0.7546771E-02  0.1232771E+00
         21   -1    0    0  501  502  0.00000000000E+00  0.00000000000E+00  0.21540662503E+02  0.21540662503E+02  0.00000000000E+00 0.  1.
         -2   -1    0    0    0  501 -0.00000000000E+00 -0.00000000000E+00 -0.84246875675E+03  0.84246875675E+03  0.00000000000E+00 0.  1.
         23    2    1    2    0    0 -0.62847817138E+01 -0.29463272573E+02 -0.14186541019E+03  0.17085916298E+03  0.90329818192E+02 0.  0.
        -24    2    1    2    0    0 -0.80643695544E+01 -0.68331307491E+01 -0.58805892609E+03  0.59413000076E+03  0.84056121271E+02 0.  0.
         13    1    4    4    0    0  0.26600785543E+02  0.45374534312E+01 -0.73803023837E+02  0.78581655637E+02  0.00000000000E+00 0. -1.
        -14    1    4    4    0    0 -0.34665155098E+02 -0.11370584180E+02 -0.51425590225E+03  0.51554834513E+03  0.00000000000E+00 0.  1.
        -13    1    3    3    0    0  0.18899098937E+02  0.15465623816E+02 -0.10427129488E+03  0.10709278406E+03  0.00000000000E+00 0. -1.
         13    1    3    3    0    0 -0.25183880650E+02 -0.44928896389E+02 -0.37594115306E+02  0.63766378923E+02  0.00000000000E+00 0.  1.
         -1    1    1    2    0  502  0.14349151268E+02  0.36296403322E+02 -0.91003757968E+02  0.99020255506E+02  0.00000000000E+00 0.  1.
<scales pt_clust_5="13000.00000" pt_clust_6="13000.00000" pt_clust_7="13000.00000" pt_clust_8="13000.00000" pt_clust_9="13000.00000"></scales>
<clustering>
<clus scale="   84.056">  5  6 -1 -1</clus>
<clus scale="   39.030">  5  9 -1 -1</clus>
<clus scale="   90.330">  7  8 -1 -1</clus>
<clus scale="   95.221">  2  7  1 -1</clus>
<clus scale="  139.037">  1  5  2 -1</clus>
</clustering>
</event>
<event>
 9    1  0.1076238E-004  0.1686960E+04  0.7546771E-02  0.9397005E-01
         21   -1    0    0  501  502  0.00000000000E+00  0.00000000000E+00  0.69763430921E+03  0.69763430921E+03  0.00000000000E+00 0.  1.
         -4   -1    0    0    0  501 -0.00000000000E+00 -0.00000000000E+00 -0.12130996764E+04  0.12130996764E+04  0.00000000000E+00 0.  1.
         23    2    1    2    0    0 -0.98821087386E+02  0.70666922066E+02 -0.64780449966E+02  0.16460987800E+03  0.90224631066E+02 0.  0.
        -24    2    1    2    0    0  0.76759948825E+02  0.33124106332E+03 -0.10033354741E+04  0.10624287365E+04  0.80374217598E+02 0.  0.
         13    1    4    4    0    0  0.57684233455E+02  0.87481716522E+02 -0.28966849845E+03  0.30803954374E+03  0.00000000000E+00 0. -1.
        -14    1    4    4    0    0  0.19075715370E+02  0.24375934679E+03 -0.71366697565E+03  0.75438919279E+03  0.00000000000E+00 0.  1.
        -13    1    3    3    0    0 -0.10609194115E+03  0.35795402501E+02 -0.32631268757E+02  0.11662594273E+03  0.00000000000E+00 0. -1.
         13    1    3    3    0    0  0.72708537665E+01  0.34871519565E+02 -0.32149181209E+02  0.47983935267E+02  0.00000000000E+00 0.  1.
         -3    1    1    2    0  502  0.22061138562E+02 -0.40190798538E+03  0.55265055682E+03  0.68369537113E+03  0.00000000000E+00 0.  1.
<scales pt_clust_5="13000.00000" pt_clust_6="13000.00000" pt_clust_7="13000.00000" pt_clust_8="13000.00000" pt_clust_9="13000.00000"></scales>
<clustering>
<clus scale="   80.374">  5  6 -1 -1</clus>
<clus scale="   90.225">  7  8 -1 -1</clus>
<clus scale="  151.327">  2  7  1 -1</clus>
<clus scale="  398.021">  5  9 -1 -1</clus>
<clus scale=" 1686.960">  1  5  2 -1</clus>
</clustering>
</event>
<event>
 9    1  0.4516508E-005  0.3103945E+03  0.7546771E-02  0.1098313E+00
         21   -1    0    0  501  502  0.00000000000E+00  0.00000000000E+00  0.95331309239E+02  0.95331309239E+02  0.00000000000E+00 0. -1.
          1   -1    0    0  502    0 -0.00000000000E+00 -0.00000000000E+00 -0.67005901634E+03  0.67005901634E+03  0.00000000000E+00 0. -1.
         23    2    1    2    0    0 -0.54734408292E+02 -0.16211849794E+03 -0.17898378379E+03  0.26244101819E+03  0.86958785298E+02 0.  0.
        -24    2    1    2    0    0  0.56077617497E+02 -0.15756624137E+02 -0.26386022369E+03  0.28151156559E+03  0.78952983040E+02 0.  0.
         11    1    4    4    0    0  0.74291789180E+02 -0.33044172546E+01 -0.17906705301E+03  0.19389481320E+03  0.00000000000E+00 0. -1.
        -12    1    4    4    0    0 -0.18214171683E+02 -0.12452206882E+02 -0.84793170680E+02  0.87616752395E+02  0.00000000000E+00 0.  1.
        -11    1    3    3    0    0  0.18683466854E+02 -0.10941892050E+02 -0.34901203900E+02  0.41071778255E+02  0.00000000000E+00 0.  1.
         11    1    3    3    0    0 -0.73417875146E+02 -0.15117660589E+03 -0.14408257989E+03  0.22136923993E+03  0.00000000000E+00 0. -1.
          2    1    1    2  501    0 -0.13432092049E+01  0.17787512208E+03 -0.13188369962E+03  0.22143774179E+03  0.00000000000E+00 0. -1.
<scales pt_clust_5="13000.00000" pt_clust_6="13000.00000" pt_clust_7="13000.00000" pt_clust_8="13000.00000" pt_clust_9="13000.00000"></scales>
<clustering>
<clus scale="   78.953">  5  6 -1 -1</clus>
<clus scale="   86.959">  7  8 -1 -1</clus>
<clus scale="  177.880">  5  9 -1 -1</clus>
<clus scale="  191.938">  2  7  1 -1</clus>
<clus scale="  310.395">  1  5  2 -1</clus>
</clustering>
</event>
<event>
 9    1  0.4516508E-005  0.8491945E+03  0.7546771E-02  0.9666315E-01
         21   -1    0    0  501  502  0.00000000000E+00  0.00000000000E+00  0.19459070400E+03  0.19459070400E+03  0.00000000000E+00 0.  1.
          1   -1    0    0  502    0 -0.00000000000E+00 -0.00000000000E+00 -0.29769715557E+04  0.29769715557E+04  0.00000000000E+00 0. -1.
         23    2    1    2    0    0 -0.30407822877E+03  0.33618654015E+03 -0.31420310693E+03  0.56138360652E+03  0.10460880590E+03 0.  0.
        -24    2    1    2    0    0 -0.15057518460E+03  0.91986688803E+02 -0.33521160911E+03  0.38766058214E+03  0.82337518338E+02 0.  0.
         11    1    4    4    0    0 -0.67341766204E+02 -0.24170207787E+01 -0.14035645785E+03  0.15569422187E+03  0.00000000000E+00 0. -1.
        -12    1    4    4    0    0 -0.83233418394E+02  0.94403709582E+02 -0.19485515126E+03  0.23196636026E+03  0.00000000000E+00 0.  1.
        -11    1    3    3    0    0 -0.27778621384E+03  0.25344384181E+03 -0.23211358293E+03  0.44190007573E+03  0.00000000000E+00 0.  1.
         11    1    3    3    0    0 -0.26292014924E+02  0.82742698339E+02 -0.82089524005E+02  0.11948353078E+03  0.00000000000E+00 0. -1.
          2    1    1    2  501    0  0.45465341336E+03 -0.42817322895E+03 -0.21329661356E+04  0.22225180710E+04  0.00000000000E+00 0. -1.
<scales pt_clust_5="13000.00000" pt_clust_6="13000.00000" pt_clust_7="13000.00000" pt_clust_8="13000.00000" pt_clust_9="13000.00000"></scales>
<clustering>
<clus scale="   82.338">  5  6 -1 -1</clus>
<clus scale="  104.609">  7  8 -1 -1</clus>
<clus scale="  465.218">  2  7  1 -1</clus>
<clus scale="  239.033">  5  9 -1 -1</clus>
<clus scale="  849.194">  1  5  2 -1</clus>
</clustering>
</event>
<event>
 9    1  0.4516508E-005  0.2067679E+03  0.7546771E-02  0.1155505E+00
         21   -1    0    0  501  502  0.00000000000E+00  0.00000000000E+00  0.73143791444E+02  0.73143791444E+02  0.00000000000E+00 0. -1.
          1   -1    0    0  502    0 -0.00000000000E+00 -0.00000000000E+00 -0.49647169614E+03  0.49647169614E+03  0.00000000000E+00 0. -1.
         23    2    1    2    0    0 -0.79786064898E+02  0.10103387242E+03 -0.10382921873E+03  0.18904699603E+03  0.91567464305E+02 0.  0.
        -24    2    1    2    0    0 -0.11399887940E+02 -0.15446531779E+02 -0.10044384397E+03  0.12832833877E+03  0.77528342887E+02 0.  0.
         13    1    4    4    0    0 -0.30089922620E+02 -0.38799732762E+02 -0.71265122833E+02  0.86542131000E+02  0.00000000000E+00 0. -1.
        -14    1    4    4    0    0  0.18690034680E+02  0.23353200984E+02 -0.29178721140E+02  0.41786207771E+02  0.00000000000E+00 0.  1.
        -13    1    3    3    0    0 -0.46885118478E+02  0.17327080817E+02  0.21707792899E+01  0.50031533527E+02  0.00000000000E+00 0.  1.
         13    1    3    3    0    0 -0.32900946420E+02  0.83706791603E+02 -0.10599999802E+03  0.13901546251E+03  0.00000000000E+00 0. -1.
          2    1    1    2  501    0  0.91185952838E+02 -0.85587340641E+02 -0.21905484199E+03  0.25224015278E+03  0.00000000000E+00 0. -1.
<scales pt_clust_5="13000.00000" pt_clust_6="13000.00000" pt_clust_7="13000.00000" pt_clust_8="13000.00000" pt_clust_9="13000.00000"></scales>
<clustering>
<clus scale="   77.528">  5  6 -1 -1</clus>
<clus scale="   91.567">  7  8 -1 -1</clus>
<clus scale="  125.060">  5  9 -1 -1</clus>
<clus scale="  157.982">  2  7  1 -1</clus>
<clus scale="  206.768">  1  5  2 -1</clus>
</clustering>
</event>
<event>
 9    1  0.4516508E-005  0.1368546E+03  0.7546771E-02  0.1226941E+00
          1   -1    0    0  502    0 -0.00000000000E+00  0.00000000000E+00  0.23710699684E+03  0.23710699684E+03  0.00000000000E+00 0. -1.
         21   -1    0    0  501  502  0.00000000000E+00 -0.00000000000E+00 -0.78760528152E+02  0.78760528152E+02  0.00000000000E+00 0.  1.
         23    2    1    2    0    0 -0.63363867785E+02  0.22021276935E+02  0.85210535818E+01  0.11294673784E+03  0.90467899590E+02 0.  0.
        -24    2    1    2    0    0  0.47524848828E+02 -0.46408002892E+02  0.88883537695E+02  0.13539672221E+03  0.77586565347E+02 0.  0.
         13    1    4    4    0    0  0.40038871150E+02  0.96562849913E+00  0.72279041196E+01  0.40697496720E+02  0.00000000000E+00 0. -1.
        -14    1    4    4    0    0  0.74859776784E+01 -0.47373631391E+02  0.81655633576E+02  0.94699225486E+02  0.00000000000E+00 0.  1.
        -11    1    3    3    0    0 -0.44968066208E+02  0.30009824138E+02 -0.35429067676E+02  0.64636950420E+02  0.00000000000E+00 0.  1.
         11    1    3    3    0    0 -0.18395801577E+02 -0.79885472032E+01  0.43950121257E+02  0.48309787420E+02  0.00000000000E+00 0. -1.
          2    1    1    2  501    0  0.15839018956E+02  0.24386725957E+02  0.60941877414E+02  0.67524064948E+02  0.00000000000E+00 0. -1.
<scales pt_clust_5="13000.00000" pt_clust_6="13000.00000" pt_clust_7="13000.00000" pt_clust_8="13000.00000" pt_clust_9="13000.00000"></scales>
<clustering>
<clus scale="   77.587">  5  6 -1 -1</clus>
<clus scale="   29.079">  5  9 -1 -1</clus>
<clus scale="   90.468">  7  8 -1 -1</clus>
<clus scale="  112.625">  1  7  2 -1</clus>
<clus scale="  136.855">  2  5  1 -1</clus>
</clustering>
</event>
<event>
 9    1  0.4516508E-005  0.7916981E+03  0.7546771E-02  0.1024354E+00
          1   -1    0    0  502    0 -0.00000000000E+00  0.00000000000E+00  0.10876533425E+04  0.10876533425E+04  0.00000000000E+00 0. -1.
         21   -1    0    0  501  502  0.00000000000E+00 -0.00000000000E+00 -0.20622757546E+03  0.20622757546E+03  0.00000000000E+00 0. -1.
         23    2    1    2    0    0  0.76619278253E+01  0.49818793178E+01  0.29448848477E+03  0.30834491423E+03  0.90937309221E+02 0.  0.
        -24    2    1    2    0    0  0.19202534546E+03  0.23397774293E+03  0.59706903542E+03  0.67396039393E+03  0.78178398787E+02 0.  0.
         13    1    4    4    0    0  0.16817125907E+03  0.15339166959E+03  0.41180532910E+03  0.47052545707E+03  0.00000000000E+00 0. -1.
        -14    1    4    4    0    0  0.23854086395E+02  0.80586073343E+02  0.18526370632E+03  0.20343493686E+03  0.00000000000E+00 0.  1.
        -11    1    3    3    0    0 -0.13200078522E+02  0.37864932030E+02  0.22625267305E+03  0.22977873534E+03  0.00000000000E+00 0. -1.
         11    1    3    3    0    0  0.20862006347E+02 -0.32883052712E+02  0.68235811722E+02  0.78566178892E+02  0.00000000000E+00 0.  1.
          2    1    1    2  501    0 -0.19968727329E+03 -0.23895962225E+03 -0.10131753189E+02  0.31157560977E+03  0.00000000000E+00 0. -1.
<scales pt_clust_5="13000.00000" pt_clust_6="13000.00000" pt_clust_7="13000.00000" pt_clust_8="13000.00000" pt_clust_9="13000.00000"></scales>
<clustering>
<clus scale="   78.178">  5  6 -1 -1</clus>
<clus scale="   90.937">  7  8 -1 -1</clus>
<clus scale="   91.395">  1  7  2 -1</clus>
<clus scale="  309.737">  5  9 -1 -1</clus>
<clus scale="  791.698">  2  5  1 -1</clus>
</clustering>
</event>
<event>
 9    1  0.4516508E-005  0.2011732E+03  0.7546771E-02  0.1183024E+00
         -2   -1    0    0    0  501 -0.00000000000E+00  0.00000000000E+00  0.61224214343E+02  0.61224214343E+02  0.00000000000E+00 0.  1.
         21   -1    0    0  501  502  0.00000000000E+00 -0.00000000000E+00 -0.35474433874E+03  0.35474433874E+03  0.00000000000E+00 0.  1.
         23    2    1    2    0    0  0.14371791112E+02  0.31016952862E+02 -0.11627330484E+03  0.14785088752E+03  0.84686502927E+02 0.  0.
        -24    2    1    2    0    0 -0.32515981616E+02 -0.93056727589E+02 -0.15351248835E+03  0.19925937793E+03  0.80133463696E+02 0.  0.
         11    1    4    4    0    0  0.15418295276E+02 -0.13913526857E+02 -0.89896706487E+00  0.20787452961E+02  0.00000000000E+00 0. -1.
        -12    1    4    4    0    0 -0.47934276892E+02 -0.79143200732E+02 -0.15261352129E+03  0.17847192497E+03  0.00000000000E+00 0.  1.
        -11    1    3    3    0    0  0.27844178328E+02 -0.21995626066E+02 -0.57463066948E+02  0.67535989634E+02  0.00000000000E+00 0.  1.
         11    1    3    3    0    0 -0.13472387216E+02  0.53012578927E+02 -0.58810237887E+02  0.80314897884E+02  0.00000000000E+00 0. -1.
         -1    1    1    2    0  502  0.18144190504E+02  0.62039774728E+02 -0.23734331206E+02  0.68858287628E+02  0.00000000000E+00 0.  1.
<scales pt_clust_5="13000.00000" pt_clust_6="13000.00000" pt_clust_7="13000.00000" pt_clust_8="13000.00000" pt_clust_9="13000.00000"></scales>
<clustering>
<clus scale="   80.133">  5  6 -1 -1</clus>
<clus scale="   64.639">  5  9 -1 -1</clus>
<clus scale="   84.687">  7  8 -1 -1</clus>
<clus scale="   91.326">  1  7  2 -1</clus>
<clus scale="  201.173">  2  5  1 -1</clus>
</clustering>
</event>
<event>
 9    1  0.4516508E-005  0.2219430E+03  0.7546771E-02  0.1166858E+00
          1   -1    0    0  502    0 -0.00000000000E+00  0.00000000000E+00  0.72993609193E+02  0.72993609193E+02  0.00000000000E+00 0. -1.
         21   -1    0    0  501  502  0.00000000000E+00 -0.00000000000E+00 -0.65170676779E+03  0.65170676779E+03  0.00000000000E+00 0. -1.
         23    2    1    2    0    0  0.13369704395E+02 -0.31984406477E+02  0.69694940818E+01  0.98375504988E+02  0.91800952504E+02 0.  0.
        -24    2    1    2    0    0 -0.68433826770E+02 -0.15613949269E+02 -0.14815417297E+03  0.18278363197E+03  0.80828293879E+02 0.  0.
         11    1    4    4    0    0 -0.74935759582E+02 -0.12996179267E+02 -0.15520750631E+03  0.17283992234E+03  0.00000000000E+00 0. -1.
        -12    1    4    4    0    0  0.65019328117E+01 -0.26177700012E+01  0.70533333409E+01  0.99437096340E+01  0.00000000000E+00 0.  1.
        -13    1    3    3    0    0 -0.36699675090E+02 -0.30081365828E+01 -0.98742860533E+01  0.38123700797E+02  0.00000000000E+00 0.  1.
         13    1    3    3    0    0  0.50069379485E+02 -0.28976269894E+02  0.16843780135E+02  0.60251804191E+02  0.00000000000E+00 0. -1.
          2    1    1    2  501    0  0.55064122375E+02  0.47598355745E+02 -0.43752847971E+03  0.44354124002E+03  0.00000000000E+00 0. -1.
<scales pt_clust_5="13000.00000" pt_clust_6="13000.00000" pt_clust_7="13000.00000" pt_clust_8="13000.00000" pt_clust_9="13000.00000"></scales>
<clustering>
<clus scale="   80.828">  5  6 -1 -1</clus>
<clus scale="   72.785">  5  9 -1 -1</clus>
<clus scale="   91.801">  7  8 -1 -1</clus>
<clus scale="   98.128">  1  7  2 -1</clus>
<clus scale="  221.943">  2  5  1 -1</clus>
</clustering>
</event>
<event>
 9    1  0.4516508E-005  0.2428951E+03  0.7546771E-02  0.1130881E+00
         21   -1    0    0  501  502  0.00000000000E+00  0.00000000000E+00  0.10365416073E+03  0.10365416073E+03  0.00000000000E+00 0. -1.
          1   -1    0    0  502    0 -0.00000000000E+00 -0.00000000000E+00 -0.44021523133E+03  0.44021523133E+03  0.00000000000E+00 0. -1.
         23    2    1    2    0    0 -0.94607832336E+02  0.11564760285E+03 -0.19543944099E+03  0.26295423586E+03  0.92861967890E+02 0.  0.
        -24    2    1    2    0    0 -0.28446511271E+02 -0.68224978152E+02 -0.56861853571E+02  0.12441919244E+03  0.82359051768E+02 0.  0.
         11    1    4    4    0    0 -0.15385555868E+02 -0.82366427972E+02 -0.25437210181E+02  0.87567091125E+02  0.00000000000E+00 0. -1.
        -12    1    4    4    0    0 -0.13060955403E+02  0.14141449820E+02 -0.31424643390E+02  0.36852101314E+02  0.00000000000E+00 0.  1.
        -13    1    3    3    0    0 -0.10054931622E+03  0.56496820716E+02 -0.14272207528E+03  0.18349835562E+03  0.00000000000E+00 0. -1.
         13    1    3    3    0    0  0.59414838831E+01  0.59150782137E+02 -0.52717365704E+02  0.79455880241E+02  0.00000000000E+00 0.  1.
          2    1    1    2  501    0  0.12305434361E+03 -0.47422624701E+02 -0.84259776047E+02  0.15649596376E+03  0.00000000000E+00 0. -1.
<scales pt_clust_5="13000.00000" pt_clust_6="13000.00000" pt_clust_7="13000.00000" pt_clust_8="13000.00000" pt_clust_9="13000.00000"></scales>
<clustering>
<clus scale="   82.359">  5  6 -1 -1</clus>
<clus scale="   92.862">  7  8 -1 -1</clus>
<clus scale="  131.876">  5  9 -1 -1</clus>
<clus scale="  175.921">  2  7  1 -1</clus>
<clus scale="  242.895">  1  5  2 -1</clus>
</clustering>
</event>
<event>
 9    1  0.4516508E-005  0.2715853E+03  0.7546771E-02  0.1113064E+00
          1   -1    0    0  502    0 -0.00000000000E+00  0.00000000000E+00  0.55212518194E+03  0.55212518194E+03  0.00000000000E+00 0. -1.
         21   -1    0    0  501  502  0.00000000000E+00 -0.00000000000E+00 -0.14145909445E+03  0.14145909445E+03  0.00000000000E+00 0. -1.
         23    2    1    2    0    0  0.12746899960E+03 -0.11574305092E+03  0.37023394804E+03  0.41900576324E+03  0.94063030194E+02 0.  0.
        -24    2    1    2    0    0 -0.47316915294E+02  0.89485417057E+02  0.10610054052E+03  0.16768530078E+03  0.81329607522E+02 0.  0.
         13    1    4    4    0    0 -0.41059259654E+02  0.10509703273E+03  0.89099659683E+02  0.14377064529E+03  0.00000000000E+00 0. -1.
        -14    1    4    4    0    0 -0.62576556394E+01 -0.15611615670E+02  0.17000880835E+02  0.23914655487E+02  0.00000000000E+00 0.  1.
        -13    1    3    3    0    0  0.51210890447E+02 -0.51852149786E+00  0.56870961067E+02  0.76531891246E+02  0.00000000000E+00 0.  1.
         13    1    3    3    0    0  0.76258109153E+02 -0.11522452942E+03  0.31336298697E+03  0.34247387199E+03  0.00000000000E+00 0. -1.
          2    1    1    2  501    0 -0.80152084307E+02  0.26257633864E+02 -0.65668401060E+02  0.10689321238E+03  0.00000000000E+00 0. -1.
<scales pt_clust_5="13000.00000" pt_clust_6="13000.00000" pt_clust_7="13000.00000" pt_clust_8="13000.00000" pt_clust_9="13000.00000"></scales>
<clustering>
<clus scale="   81.330">  5  6 -1 -1</clus>
<clus scale="   84.344">  5  9 -1 -1</clus>
<clus scale="   94.063">  7  8 -1 -1</clus>
<clus scale="  196.195">  1  7  2 -1</clus>
<clus scale="  271.585">  2  5  1 -1</clus>
</clustering>
</event>
<event>
 9    1  0.4516508E-005  0.1771809E+03  0.7546771E-02  0.1183051E+00
         21   -1    0    0  501  502  0.00000000000E+00  0.00000000000E+00  0.11519819792E+03  0.11519819792E+03  0.00000000000E+00 0. -1.
          3   -1    0    0  502    0 -0.00000000000E+00 -0.00000000000E+00 -0.28900281671E+03  0.28900281671E+03  0.00000000000E+00 0. -1.
         23    2    1    2    0    0 -0.25445974119E+02 -0.92755903370E+02 -0.18323998076E+03  0.22676908079E+03  0.92715534002E+02 0.  0.
        -24    2    1    2    0    0  0.28114566266E+01 -0.26923369610E+01  0.32009315637E+01  0.79138718979E+02  0.78978085012E+02 0.  0.
         13    1    4    4    0    0  0.39316322144E+02  0.67310478018E+01 -0.59834353557E+01  0.40334621482E+02  0.00000000000E+00 0. -1.
        -14    1    4    4    0    0 -0.36504865518E+02 -0.94233847629E+01  0.91843669194E+01  0.38804097497E+02  0.00000000000E+00 0.  1.
        -13    1    3    3    0    0 -0.52681789681E+02 -0.37340884909E+02 -0.56557349955E+02  0.85839655660E+02  0.00000000000E+00 0. -1.
         13    1    3    3    0    0  0.27235815562E+02 -0.55415018460E+02 -0.12668263081E+03  0.14092942513E+03  0.00000000000E+00 0.  1.
          4    1    1    2  501    0  0.22634517492E+02  0.95448240331E+02  0.62344304149E+01  0.98293214857E+02  0.00000000000E+00 0. -1.
<scales pt_clust_5="13000.00000" pt_clust_6="13000.00000" pt_clust_7="13000.00000" pt_clust_8="13000.00000" pt_clust_9="13000.00000"></scales>
<clustering>
<clus scale="   78.978">  5  6 -1 -1</clus>
<clus scale="   92.716">  7  8 -1 -1</clus>
<clus scale="   98.095">  5  9 -1 -1</clus>
<clus scale="  133.594">  2  7  1 -1</clus>
<clus scale="  177.181">  1  5  2 -1</clus>
</clustering>
</event>
<event>
 9    1  0.5221515E-005  0.5644001E+03  0.7546771E-02  0.1042295E+00
          1   -1    0    0  502    0 -0.00000000000E+00  0.00000000000E+00  0.64787210586E+03  0.64787210586E+03  0.00000000000E+00 0. -1.
         21   -1    0    0  501  502  0.00000000000E+00 -0.00000000000E+00 -0.22779069487E+03  0.22779069487E+03  0.00000000000E+00 0. -1.
         23    2    1    2    0    0 -0.10756763868E+03 -0.45339436146E+02 -0.32580388493E+02  0.15216423260E+03  0.92010926568E+02 0.  0.
        -24    2    1    2    0    0 -0.28657540246E+02  0.33018335514E+02  0.54980730107E+03  0.55572980651E+03  0.68088798202E+02 0.  0.
         11    1    4    4    0    0 -0.39447469593E+02  0.13149730316E+02  0.16157585760E+03  0.16684057067E+03  0.00000000000E+00 0. -1.
        -12    1    4    4    0    0  0.10789929347E+02  0.19868605198E+02  0.38823144348E+03  0.38888923584E+03  0.00000000000E+00 0.  1.
        -13    1    3    3    0    0 -0.94431632803E+02 -0.26766723278E+02  0.15126997759E+02  0.99310708436E+02  0.00000000000E+00 0. -1.
         13    1    3    3    0    0 -0.13136005876E+02 -0.18572712868E+02 -0.47707386252E+02  0.52853524165E+02  0.00000000000E+00 0.  1.
          2    1    1    2  501    0  0.13622517892E+03  0.12321100632E+02 -0.97145501595E+02  0.16776876162E+03  0.00000000000E+00 0. -1.
<scales pt_clust_5="13000.00000" pt_clust_6="13000.00000" pt_clust_7="13000.00000" pt_clust_8="13000.00000" pt_clust_9="13000.00000"></scales>
<clustering>
<clus scale="   68.089">  5  6 -1 -1</clus>
<clus scale="   92.011">  7  8 -1 -1</clus>
<clus scale="  136.781">  5  9 -1 -1</clus>
<clus scale="  148.635">  1  7  2 -1</clus>
<clus scale="  564.400">  2  5  1 -1</clus>
</clustering>
</event>
<event>
 9    1  0.4516508E-005  0.1300110E+03  0.7546771E-02  0.1242621E+00
         21   -1    0    0  501  502  0.00000000000E+00  0.00000000000E+00  0.26586279957E+03  0.26586279957E+03  0.00000000000E+00 0. -1.
          3   -1    0    0  502    0 -0.00000000000E+00 -0.00000000000E+00 -0.49075518300E+02  0.49075518300E+02  0.00000000000E+00 0. -1.
         23    2    1    2    0    0  0.24881596956E+02 -0.10985424887E+02  0.66316037279E+02  0.11608042022E+03  0.91307577620E+02 0.  0.
        -24    2    1    2    0    0  0.15497048314E+02 -0.25274796210E+01  0.61328981297E+02  0.10006834061E+03  0.77497626967E+02 0.  0.
         13    1    4    4    0    0  0.29453222923E+02  0.15347901990E+02  0.68629940269E+02  0.76243813764E+02  0.00000000000E+00 0. -1.
        -14    1    4    4    0    0 -0.13956174609E+02 -0.17875381611E+02 -0.73009589716E+01  0.23824526844E+02  0.00000000000E+00 0.  1.
        -11    1    3    3    0    0  0.28231837442E+02  0.17034874712E+02 -0.10209457975E+02  0.34517483019E+02  0.00000000000E+00 0.  1.
         11    1    3    3    0    0 -0.33502404856E+01 -0.28020299600E+02  0.76525495253E+02  0.81562937200E+02  0.00000000000E+00 0. -1.
          4    1    1    2  501    0 -0.40378645271E+02  0.13512904508E+02  0.89142262693E+02  0.98789557041E+02  0.00000000000E+00 0. -1.
<scales pt_clust_5="13000.00000" pt_clust_6="13000.00000" pt_clust_7="13000.00000" pt_clust_8="13000.00000" pt_clust_9="13000.00000"></scales>
<clustering>
<clus scale="   77.498">  5  6 -1 -1</clus>
<clus scale="   42.580">  5  9 -1 -1</clus>
<clus scale="   91.308">  7  8 -1 -1</clus>
<clus scale="   95.272">  2  7  1 -1</clus>
<clus scale="  130.011">  1  5  2 -1</clus>
</clustering>
</event>
<event>
 9    1  0.4516508E-005  0.2932514E+03  0.7546771E-02  0.1108006E+00
         21   -1    0    0  501  502  0.00000000000E+00  0.00000000000E+00  0.17193884485E+04  0.17193884485E+04  0.00000000000E+00 0. -1.
          1   -1    0    0  502    0 -0.00000000000E+00 -0.00000000000E+00 -0.53045349114E+02  0.53045349114E+02  0.00000000000E+00 0. -1.
         23    2    1    2    0    0 -0.14918293867E+03  0.28510167548E+02  0.16315996835E+03  0.24091301748E+03  0.91375751013E+02 0.  0.
        -24    2    1    2    0    0  0.11452028356E+03  0.92378672108E+02  0.86834615836E+03  0.88434723843E+03  0.79976702726E+02 0.  0.
         11    1    4    4    0    0  0.12235535255E+03  0.90361048116E+02  0.85710663957E+03  0.87049855997E+03  0.00000000000E+00 0. -1.
        -12    1    4    4    0    0 -0.78350689853E+01  0.20176239921E+01  0.11239518790E+02  0.13848678464E+02  0.00000000000E+00 0.  1.
        -13    1    3    3    0    0 -0.10511907441E+03 -0.19652428851E+02  0.72510008369E+02  0.12920502729E+03  0.00000000000E+00 0. -1.
         13    1    3    3    0    0 -0.44063864258E+02  0.48162596399E+02  0.90649959986E+02  0.11170799018E+03  0.00000000000E+00 0.  1.
          2    1    1    2  501    0  0.34662655105E+02 -0.12088883966E+03  0.63483697269E+03  0.64717354172E+03  0.00000000000E+00 0. -1.
<scales pt_clust_5="13000.00000" pt_clust_6="13000.00000" pt_clust_7="13000.00000" pt_clust_8="13000.00000" pt_clust_9="13000.00000"></scales>
<clustering>
<clus scale="   79.977">  5  6 -1 -1</clus>
<clus scale="   91.376">  7  8 -1 -1</clus>
<clus scale="  125.760">  5  9 -1 -1</clus>
<clus scale="  177.251">  2  7  1 -1</clus>
<clus scale="  293.251">  1  5  2 -1</clus>
</clustering>
</event>
<event>
 9    1  0.4516508E-005  0.7208024E+03  0.7546771E-02  0.9840319E-01
         21   -1    0    0  501  502  0.00000000000E+00  0.00000000000E+00  0.46451015308E+03  0.46451015308E+03  0.00000000000E+00 0. -1.
          1   -1    0    0  502    0 -0.00000000000E+00 -0.00000000000E+00 -0.12078141826E+04  0.12078141826E+04  0.00000000000E+00 0. -1.
         23    2    1    2    0    0  0.36139064388E+03 -0.20848492391E+03 -0.84261909856E+03  0.94471206158E+03  0.91677549412E+02 0.  0.
        -24    2    1    2    0    0  0.62843205421E+02  0.25788847207E+03  0.11586956537E+03  0.30019079497E+03  0.78949507349E+02 0.  0.
         13    1    4    4    0    0  0.70599961137E+02  0.12451946150E+03  0.65509729054E+02  0.15741974275E+03  0.00000000000E+00 0. -1.
        -14    1    4    4    0    0 -0.77567557159E+01  0.13336901057E+03  0.50359836315E+02  0.14277105222E+03  0.00000000000E+00 0.  1.
        -13    1    3    3    0    0  0.28310121306E+02  0.77517385581E+01 -0.45419246502E+02  0.54078280038E+02  0.00000000000E+00 0.  1.
         13    1    3    3    0    0  0.33308052258E+03 -0.21623666247E+03 -0.79719985205E+03  0.89063378155E+03  0.00000000000E+00 0. -1.
          2    1    1    2  501    0 -0.42423384930E+03 -0.49403548160E+02 -0.16554496317E+02  0.42742147912E+03  0.00000000000E+00 0. -1.
<scales pt_clust_5="13000.00000" pt_clust_6="13000.00000" pt_clust_7="13000.00000" pt_clust_8="13000.00000" pt_clust_9="13000.00000"></scales>
<clustering>
<clus scale="   78.950">  5  6 -1 -1</clus>
<clus scale="   91.678">  7  8 -1 -1</clus>
<clus scale="  427.101">  5  9 -1 -1</clus>
<clus scale="  427.170">  2  7  1 -1</clus>
<clus scale="  720.802">  1  5  2 -1</clus>
</clustering>
</event>
<event>
 9    1  0.4516508E-005  0.2757168E+03  0.7546771E-02  0.1106845E+00
          1   -1    0    0  502    0 -0.00000000000E+00  0.00000000000E+00  0.10548956543E+04  0.10548956543E+04  0.00000000000E+00 0. -1.
         21   -1    0    0  501  502  0.00000000000E+00 -0.00000000000E+00 -0.23749951940E+03  0.23749951940E+03  0.00000000000E+00 0. -1.
         23    2    1    2    0    0  0.12042786676E+03 -0.16021845760E+03  0.95802003599E+03  0.98288778573E+03  0.89962129424E+02 0.  0.
        -24    2    1    2    0    0 -0.89973095737E+02  0.90675052944E+01 -0.52259395800E+02  0.13179304061E+03  0.80380243181E+02 0.  0.
         13    1    4    4    0    0 -0.89978485487E+02  0.69141621631E+01 -0.69820683227E+02  0.11410022478E+03  0.00000000000E+00 0. -1.
        -14    1    4    4    0    0  0.53897491613E-02  0.21533431313E+01  0.17561287427E+02  0.17692815824E+02  0.00000000000E+00 0.  1.
        -13    1    3    3    0    0  0.89965618909E+02 -0.46186779900E+02  0.40803935149E+03  0.42038451873E+03  0.00000000000E+00 0.  1.
         13    1    3    3    0    0  0.30462247854E+02 -0.11403167769E+03  0.54998068450E+03  0.56250326700E+03  0.00000000000E+00 0. -1.
          2    1    1    2  501    0 -0.30454771025E+02  0.15115095230E+03 -0.88364505294E+02  0.17771434735E+03  0.00000000000E+00 0. -1.
<scales pt_clust_5="13000.00000" pt_clust_6="13000.00000" pt_clust_7="13000.00000" pt_clust_8="13000.00000" pt_clust_9="13000.00000"></scales>
<clustering>
<clus scale="   80.380">  5  6 -1 -1</clus>
<clus scale="   89.962">  7  8 -1 -1</clus>
<clus scale="  154.189">  5  9 -1 -1</clus>
<clus scale="  219.695">  1  7  2 -1</clus>
<clus scale="  275.717">  2  5  1 -1</clus>
</clustering>
</event>
<event>
 9    1  0.4516508E-005  0.3186655E+03  0.7546771E-02  0.1114911E+00
         -4   -1    0    0    0  501 -0.00000000000E+00  0.00000000000E+00  0.55116628116E+03  0.55116628116E+03  0.00000000000E+00 0.  1.
         21   -1    0    0  501  502  0.00000000000E+00 -0.00000000000E+00 -0.10337960179E+03  0.10337960179E+03  0.00000000000E+00 0.  1.
         23    2    1    2    0    0  0.43987038235E+02 -0.56419370830E+02  0.25999759694E+03  0.28466422992E+03  0.91197414686E+02 0.  0.
        -24    2    1    2    0    0  0.74098526219E+02 -0.51815543032E+02 -0.75181777821E+01  0.11728726869E+03  0.74325892606E+02 0.  0.
         13    1    4    4    0    0  0.35880097711E+02  0.90256862181E+01  0.17866105885E+02  0.41085790280E+02  0.00000000000E+00 0. -1.
        -14    1    4    4    0    0  0.38218428508E+02 -0.60841229250E+02 -0.25384283667E+02  0.76201478408E+02  0.00000000000E+00 0.  1.
        -11    1    3    3    0    0 -0.11727372490E+02 -0.35906962045E+02  0.33414076588E+02  0.50431554637E+02  0.00000000000E+00 0. -1.
         11    1    3    3    0    0  0.55714410725E+02 -0.20512408785E+02  0.22658352035E+03  0.23423267529E+03  0.00000000000E+00 0.  1.
         -3    1    1    2    0  502 -0.11808556445E+03  0.10823491386E+03  0.19530726021E+03  0.25259438434E+03  0.00000000000E+00 0.  1.
<scales pt_clust_5="13000.00000" pt_clust_6="13000.00000" pt_clust_7="13000.00000" pt_clust_8="13000.00000" pt_clust_9="13000.00000"></scales>
<clustering>
<clus scale="   74.326">  5  6 -1 -1</clus>
<clus scale="   91.197">  7  8 -1 -1</clus>
<clus scale="  115.909">  1  7  2 -1</clus>
<clus scale="  103.960">  5  9 -1 -1</clus>
<clus scale="  318.665">  2  5  1 -1</clus>
</clustering>
</event>
<event>
 9    1  0.4516508E-005  0.1833532E+03  0.7546771E-02  0.1180805E+00
         -2   -1    0    0    0  501 -0.00000000000E+00  0.00000000000E+00  0.16376029047E+03  0.16376029047E+03  0.00000000000E+00 0.  1.
         21   -1    0    0  501  502  0.00000000000E+00 -0.00000000000E+00 -0.15609886243E+03  0.15609886243E+03  0.00000000000E+00 0.  1.
         23    2    1    2    0    0 -0.30004087061E+02 -0.84646959473E+02  0.41536134663E+02  0.13340299136E+03  0.89474882685E+02 0.  0.
        -24    2    1    2    0    0  0.77335217721E+02  0.57690179149E+02 -0.44923005510E+02  0.13087766891E+03  0.76170828570E+02 0.  0.
         11    1    4    4    0    0  0.48538783221E+02 -0.93680668392E+01 -0.12320903073E+02  0.50946823310E+02  0.00000000000E+00 0. -1.
        -12    1    4    4    0    0  0.28796434501E+02  0.67058245988E+02 -0.32602102437E+02  0.79930845600E+02  0.00000000000E+00 0.  1.
        -11    1    3    3    0    0  0.25617694806E+02 -0.56517740238E+02  0.78346527728E+01  0.62545207913E+02  0.00000000000E+00 0.  1.
         11    1    3    3    0    0 -0.55621781868E+02 -0.28129219235E+02  0.33701481891E+02  0.70857783444E+02  0.00000000000E+00 0. -1.
         -1    1    1    2    0  502 -0.47331130660E+02  0.26956780324E+02  0.11048298886E+02  0.55578492632E+02  0.00000000000E+00 0.  1.
<scales pt_clust_5="13000.00000" pt_clust_6="13000.00000" pt_clust_7="13000.00000" pt_clust_8="13000.00000" pt_clust_9="13000.00000"></scales>
<clustering>
<clus scale="   76.171">  5  6 -1 -1</clus>
<clus scale="   54.469">  5  9 -1 -1</clus>
<clus scale="   89.475">  7  8 -1 -1</clus>
<clus scale="  126.772">  1  7  2 -1</clus>
<clus scale="  183.353">  2  5  1 -1</clus>
</clustering>
</event>
<event>
 9    1  0.4516508E-005  0.2955033E+03  0.7546771E-02  0.1103715E+00
         21   -1    0    0  501  502  0.00000000000E+00  0.00000000000E+00  0.70428365596E+02  0.70428365596E+02  0.00000000000E+00 0.  1.
          1   -1    0    0  502    0 -0.00000000000E+00 -0.00000000000E+00 -0.93518555606E+03  0.93518555606E+03  0.00000000000E+00 0. -1.
         23    2    1    2    0    0  0.34363302922E+02 -0.16421883525E+03 -0.20039172399E+03  0.27849378683E+03  0.96193990560E+02 0.  0.
        -24    2    1    2    0    0 -0.30318038970E+02 -0.16327528281E+02 -0.38230573569E+03  0.39220067395E+03  0.80485535568E+02 0.  0.
         11    1    4    4    0    0  0.23906494231E+02 -0.12594079380E+02 -0.66983526502E+02  0.72228277873E+02  0.00000000000E+00 0. -1.
        -12    1    4    4    0    0 -0.54224533201E+02 -0.37334489007E+01 -0.31532220919E+03  0.31997239607E+03  0.00000000000E+00 0.  1.
        -11    1    3    3    0    0 -0.24419121500E+02 -0.82027704318E+02 -0.12884799426E+03  0.15468239523E+03  0.00000000000E+00 0. -1.
         11    1    3    3    0    0  0.58782424422E+02 -0.82191130934E+02 -0.71543729728E+02  0.12381139159E+03  0.00000000000E+00 0.  1.
          2    1    1    2  501    0 -0.40452639520E+01  0.18054636353E+03 -0.28205973079E+03  0.33491946088E+03  0.00000000000E+00 0. -1.
<scales pt_clust_5="13000.00000" pt_clust_6="13000.00000" pt_clust_7="13000.00000" pt_clust_8="13000.00000" pt_clust_9="13000.00000"></scales>
<clustering>
<clus scale="   80.486">  5  6 -1 -1</clus>
<clus scale="   96.194">  7  8 -1 -1</clus>
<clus scale="  180.592">  5  9 -1 -1</clus>
<clus scale="  193.396">  2  7  1 -1</clus>
<clus scale="  295.503">  1  5  2 -1</clus>
</clustering>
</event>
<event>
 9    1  0.4516508E-005  0.1847025E+03  0.7546771E-02  0.1171125E+00
          1   -1    0    0  502    0 -0.00000000000E+00  0.00000000000E+00  0.57242406737E+03  0.57242406737E+03  0.00000000000E+00 0. -1.
         21   -1    0    0  501  502  0.00000000000E+00 -0.00000000000E+00 -0.54935845454E+02  0.54935845454E+02  0.00000000000E+00 0.  1.
         23    2    1    2    0    0  0.77004585006E+01 -0.12501842221E+03  0.32917130096E+03  0.36358298731E+03  0.90277019972E+02 0.  0.
        -24    2    1    2    0    0  0.95254347400E+01  0.84098141949E+02  0.18526797927E+03  0.21927415278E+03  0.81201592035E+02 0.  0.
         13    1    4    4    0    0 -0.28094523011E+02  0.51123101532E+02  0.14055023486E+03  0.15217503821E+03  0.00000000000E+00 0. -1.
        -14    1    4    4    0    0  0.37619957751E+02  0.32975040417E+02  0.44717744406E+02  0.67099114572E+02  0.00000000000E+00 0.  1.
        -11    1    3    3    0    0  0.51201469526E+01 -0.60270239059E+02  0.54654752468E+02  0.81522141706E+02  0.00000000000E+00 0.  1.
         11    1    3    3    0    0  0.25803115480E+01 -0.64748183156E+02  0.27451654849E+03  0.28206084561E+03  0.00000000000E+00 0. -1.
          2    1    1    2  501    0 -0.17225893241E+02  0.40920280266E+02  0.30489416858E+01  0.44502772727E+02  0.00000000000E+00 0. -1.
<scales pt_clust_5="13000.00000" pt_clust_6="13000.00000" pt_clust_7="13000.00000" pt_clust_8="13000.00000" pt_clust_9="13000.00000"></scales>
<clustering>
<clus scale="   81.202">  5  6 -1 -1</clus>
<clus scale="   44.398">  5  9 -1 -1</clus>
<clus scale="   90.277">  7  8 -1 -1</clus>
<clus scale="  154.398">  1  7  2 -1</clus>
<clus scale="  184.702">  2  5  1 -1</clus>
</clustering>
</event>
<event>
 9    1  0.4516508E-005  0.1849053E+03  0.7546771E-02  0.1190736E+00
          1   -1    0    0  502    0 -0.00000000000E+00  0.00000000000E+00  0.35760137457E+03  0.35760137457E+03  0.00000000000E+00 0. -1.
         21   -1    0    0  501  502  0.00000000000E+00 -0.00000000000E+00 -0.69592493434E+02  0.69592493434E+02  0.00000000000E+00 0. -1.
         23    2    1    2    0    0  0.32433463702E+02 -0.28974021525E+02  0.19828745837E+03  0.22167033854E+03  0.89041559664E+02 0.  0.
        -24    2    1    2    0    0 -0.65376443560E+02 -0.25039822468E+02  0.94204665756E+02  0.14209770877E+03  0.80100984417E+02 0.  0.
         11    1    4    4    0    0 -0.77094406996E+02 -0.38395682524E+02  0.88366770274E+02  0.12339555144E+03  0.00000000000E+00 0. -1.
        -12    1    4    4    0    0  0.11717963437E+02  0.13355860056E+02  0.58378954819E+01  0.18702157325E+02  0.00000000000E+00 0.  1.
        -11    1    3    3    0    0 -0.12628684435E+02 -0.47484719891E+02  0.11706293408E+03  0.12695673606E+03  0.00000000000E+00 0. -1.
         11    1    3    3    0    0  0.45062148137E+02  0.18510698365E+02  0.81224524288E+02  0.94713602479E+02  0.00000000000E+00 0.  1.
          2    1    1    2  501    0  0.32942979857E+02  0.54013843993E+02 -0.44832429879E+01  0.63425820708E+02  0.00000000000E+00 0. -1.
<scales pt_clust_5="13000.00000" pt_clust_6="13000.00000" pt_clust_7="13000.00000" pt_clust_8="13000.00000" pt_clust_9="13000.00000"></scales>
<clustering>
<clus scale="   80.101">  5  6 -1 -1</clus>
<clus scale="   63.267">  5  9 -1 -1</clus>
<clus scale="   89.042">  7  8 -1 -1</clus>
<clus scale="   99.095">  1  7  2 -1</clus>
<clus scale="  184.905">  2  5  1 -1</clus>
</clustering>
</event>
<event>
 9    1  0.4516508E-005  0.2578785E+03  0.7546771E-02  0.1141365E+00
          1   -1    0    0  502    0 -0.00000000000E+00  0.00000000000E+00  0.28396924735E+03  0.28396924735E+03  0.00000000000E+00 0. -1.
         21   -1    0    0  501  502  0.00000000000E+00 -0.00000000000E+00 -0.23451457007E+03  0.23451457007E+03  0.00000000000E+00 0. -1.
         23    2    1    2    0    0 -0.66046861952E+02  0.44195619597E+00  0.19241622309E+03  0.22362903284E+03  0.92863114986E+02 0.  0.
        -24    2    1    2    0    0 -0.67574535735E+02 -0.42753209679E+02 -0.89094511242E+02  0.14469960649E+03  0.81277237697E+02 0.  0.
         11    1    4    4    0    0 -0.68028164541E+02 -0.58290295860E+01 -0.82666494990E+02  0.10721734072E+03  0.00000000000E+00 0. -1.
        -12    1    4    4    0    0  0.45362880546E+00 -0.36924180093E+02 -0.64280162526E+01  0.37482265774E+02  0.00000000000E+00 0.  1.
        -11    1    3    3    0    0 -0.96900903973E+01  0.36278056909E+02  0.30149210223E+02  0.48155686498E+02  0.00000000000E+00 0.  1.
         11    1    3    3    0    0 -0.56356771554E+02 -0.35836100713E+02  0.16226701286E+03  0.17547334635E+03  0.00000000000E+00 0. -1.
          2    1    1    2  501    0  0.13362139769E+03  0.42311253483E+02 -0.53867034567E+02  0.15015517808E+03  0.00000000000E+00 0. -1.
<scales pt_clust_5="13000.00000" pt_clust_6="13000.00000" pt_clust_7="13000.00000" pt_clust_8="13000.00000" pt_clust_9="13000.00000"></scales>
<clustering>
<clus scale="   81.277">  5  6 -1 -1</clus>
<clus scale="   92.863">  7  8 -1 -1</clus>
<clus scale="  113.956">  1  7  2 -1</clus>
<clus scale="  101.157">  5  9 -1 -1</clus>
<clus scale="  257.879">  2  5  1 -1</clus>
</clustering>
</event>
<event>
 9    1  0.4516508E-005  0.1364743E+03  0.7546771E-02  0.1236024E+00
          1   -1    0    0  502    0 -0.00000000000E+00  0.00000000000E+00  0.52943240095E+02  0.52943240095E+02  0.00000000000E+00 0. -1.
         21   -1    0    0  501  502  0.00000000000E+00 -0.00000000000E+00 -0.26635991376E+03  0.26635991376E+03  0.00000000000E+00 0. -1.
         23    2    1    2    0    0  0.52760140028E+01  0.28773460259E+02 -0.50825776587E+02  0.10702727772E+03  0.89531169271E+02 0.  0.
        -24    2    1    2    0    0 -0.14930782241E+02  0.21916549731E+02 -0.98583955569E+02  0.13005920980E+03  0.80581253074E+02 0.  0.
         13    1    4    4    0    0 -0.17240557945E+02  0.45783942629E+02 -0.93531905671E+02  0.10555388965E+03  0.00000000000E+00 0. -1.
        -14    1    4    4    0    0  0.23097757037E+01 -0.23867392898E+02 -0.50520498978E+01  0.24505320151E+02  0.00000000000E+00 0.  1.
        -13    1    3    3    0    0  0.36480284314E+02  0.45828581425E+02 -0.29882619423E+02  0.65757440359E+02  0.00000000000E+00 0.  1.
         13    1    3    3    0    0 -0.31204270311E+02 -0.17055121166E+02 -0.20943157165E+02  0.41269837359E+02  0.00000000000E+00 0. -1.
          2    1    1    2  501    0  0.96547682383E+01 -0.50690009990E+02 -0.64006941504E+02  0.82216666335E+02  0.00000000000E+00 0. -1.
<scales pt_clust_5="13000.00000" pt_clust_6="13000.00000" pt_clust_7="13000.00000" pt_clust_8="13000.00000" pt_clust_9="13000.00000"></scales>
<clustering>
<clus scale="   80.581">  5  6 -1 -1</clus>
<clus scale="   51.601">  5  9 -1 -1</clus>
<clus scale="   89.531">  7  8 -1 -1</clus>
<clus scale="   94.189">  1  7  2 -1</clus>
<clus scale="  136.474">  2  5  1 -1</clus>
</clustering>
</event>
<event>
 9    1  0.4516508E-005  0.1409292E+03  0.7546771E-02  0.1228690E+00
         21   -1    0    0  501  502  0.00000000000E+00  0.00000000000E+00  0.37449405309E+03  0.37449405309E+03  0.00000000000E+00 0.  1.
          3   -1    0    0  502    0 -0.00000000000E+00 -0.00000000000E+00 -0.57768345058E+02  0.57768345058E+02  0.00000000000E+00 0. -1.
         23    2    1    2    0    0  0.42302831528E+02 -0.73304312707E+01  0.26344798166E+03  0.28159867137E+03  0.89720164366E+02 0.  0.
        -24    2    1    2    0    0 -0.65787097209E+02  0.25711063225E+02  0.28950243190E+02  0.11217756299E+03  0.82199076190E+02 0.  0.
         11    1    4    4    0    0 -0.81780145644E+02  0.31014360863E+02  0.35096023192E+02  0.94242313455E+02  0.00000000000E+00 0. -1.
        -12    1    4    4    0    0  0.15993048435E+02 -0.53032976385E+01 -0.61457800022E+01  0.17935249536E+02  0.00000000000E+00 0.  1.
        -11    1    3    3    0    0 -0.22868220997E+02 -0.21074586840E+02  0.11017121169E+03  0.11447615309E+03  0.00000000000E+00 0. -1.
         11    1    3    3    0    0  0.65171052525E+02  0.13744155570E+02  0.15327676998E+03  0.16712251827E+03  0.00000000000E+00 0.  1.
          4    1    1    2  501    0  0.23484265681E+02 -0.18380631954E+02  0.24327483175E+02  0.38486163790E+02  0.00000000000E+00 0. -1.
<scales pt_clust_5="13000.00000" pt_clust_6="13000.00000" pt_clust_7="13000.00000" pt_clust_8="13000.00000" pt_clust_9="13000.00000"></scales>
<clustering>
<clus scale="   82.199">  5  6 -1 -1</clus>
<clus scale="   29.822">  5  9 -1 -1</clus>
<clus scale="   89.720">  7  8 -1 -1</clus>
<clus scale="   99.463">  2  7  1 -1</clus>
<clus scale="  140.929">  1  5  2 -1</clus>
</clustering>
</event>
<event>
 9    1  0.4516508E-005  0.2951344E+03  0.7546771E-02  0.1126535E+00
          1   -1    0    0  502    0 -0.00000000000E+00  0.00000000000E+00  0.13947998999E+03  0.13947998999E+03  0.00000000000E+00 0. -1.
         21   -1    0    0  501  502  0.00000000000E+00 -0.00000000000E+00 -0.38877127223E+03  0.38877127223E+03  0.00000000000E+00 0. -1.
         23    2    1    2    0    0  0.40229518088E+02  0.51638060085E+02  0.38788379010E+02  0.11582647486E+03  0.87328864397E+02 0.  0.
        -24    2    1    2    0    0  0.10040690388E+03 -0.71664497561E+02 -0.10574110302E+03  0.18128195014E+03  0.80402848354E+02 0.  0.
         11    1    4    4    0    0  0.74951111651E+02 -0.22615772898E+02 -0.98077085136E+02  0.12549205931E+03  0.00000000000E+00 0. -1.
        -12    1    4    4    0    0  0.25455792225E+02 -0.49048724663E+02 -0.76640178821E+01  0.55789890831E+02  0.00000000000E+00 0.  1.
        -11    1    3    3    0    0 -0.58562683529E+01 -0.21502888757E+02  0.40115855703E+01  0.22644269092E+02  0.00000000000E+00 0.  1.
         11    1    3    3    0    0  0.46085786441E+02  0.73140948842E+02  0.34776793440E+02  0.93182205766E+02  0.00000000000E+00 0. -1.
          2    1    1    2  501    0 -0.14063642196E+03  0.20026437476E+02 -0.18233855823E+03  0.23114283722E+03  0.00000000000E+00 0. -1.
<scales pt_clust_5="13000.00000" pt_clust_6="13000.00000" pt_clust_7="13000.00000" pt_clust_8="13000.00000" pt_clust_9="13000.00000"></scales>
<clustering>
<clus scale="   80.403">  5  6 -1 -1</clus>
<clus scale="   87.329">  7  8 -1 -1</clus>
<clus scale="  109.139">  1  7  2 -1</clus>
<clus scale="  131.188">  5  9 -1 -1</clus>
<clus scale="  295.134">  2  5  1 -1</clus>
</clustering>
</event>
<event>
 9    1  0.4516508E-005  0.2051757E+03  0.7546771E-02  0.1171705E+00
         21   -1    0    0  501  502  0.00000000000E+00  0.00000000000E+00  0.51655603998E+03  0.51655603998E+03  0.00000000000E+00 0.  1.
         -2   -1    0    0    0  501 -0.00000000000E+00 -0.00000000000E+00 -0.10174616129E+03  0.10174616129E+03  0.00000000000E+00 0.  1.
         23    2    1    2    0    0 -0.55000477280E+02  0.32613416491E+02 -0.40972537388E+02  0.11846753497E+03  0.90923707506E+02 0.  0.
        -24    2    1    2    0    0 -0.53754956528E+01  0.17647214764E+02  0.79935536978E+02  0.11586557159E+03  0.81821882553E+02 0.  0.
         11    1    4    4    0    0  0.32899303267E+02  0.18789972171E+02  0.64034868181E+02  0.74403572176E+02  0.00000000000E+00 0. -1.
        -12    1    4    4    0    0 -0.38274798920E+02 -0.11427574077E+01  0.15900668797E+02  0.41461999409E+02  0.00000000000E+00 0.  1.
        -11    1    3    3    0    0 -0.29322081137E+01  0.54521741389E+02 -0.18089820076E+02  0.57519211738E+02  0.00000000000E+00 0.  1.
         11    1    3    3    0    0 -0.52068269166E+02 -0.21908324898E+02 -0.22882717312E+02  0.60948323237E+02  0.00000000000E+00 0. -1.
         -1    1    1    2    0  502  0.60375972933E+02 -0.50260631254E+02  0.37584687910E+03  0.38396909471E+03  0.00000000000E+00 0.  1.
<scales pt_clust_5="13000.00000" pt_clust_6="13000.00000" pt_clust_7="13000.00000" pt_clust_8="13000.00000" pt_clust_9="13000.00000"></scales>
<clustering>
<clus scale="   81.822">  5  6 -1 -1</clus>
<clus scale="   78.558">  5  9 -1 -1</clus>
<clus scale="   90.924">  7  8 -1 -1</clus>
<clus scale="  111.157">  2  7  1 -1</clus>
<clus scale="  205.176">  1  5  2 -1</clus>
</clustering>
</event>
<event>
 9    1  0.4516508E-005  0.2250034E+03  0.7546771E-02  0.1165126E+00
          1   -1    0    0  502    0 -0.00000000000E+00  0.00000000000E+00  0.54153868380E+03  0.54153868380E+03  0.00000000000E+00 0. -1.
         21   -1    0    0  501  502  0.00000000000E+00 -0.00000000000E+00 -0.49395096386E+02  0.49395096386E+02  0.00000000000E+00 0.  1.
         23    2    1    2    0    0 -0.82225379446E+01 -0.36400904498E+02  0.19465015258E+03  0.21793394923E+03  0.90630504522E+02 0.  0.
        -24    2    1    2    0    0 -0.10247848159E+02 -0.71379962957E+02  0.18044798438E+03  0.21282021919E+03  0.86780488167E+02 0.  0.
         13    1    4    4    0    0 -0.10474576093E+02 -0.21079370998E+02 -0.19445956541E+01  0.23618596026E+02  0.00000000000E+00 0. -1.
        -14    1    4    4    0    0  0.22672793380E+00 -0.50300591960E+02  0.18239258004E+03  0.18920162317E+03  0.00000000000E+00 0.  1.
        -11    1    3    3    0    0 -0.35414184119E+02 -0.12984794315E+02  0.17063645876E+03  0.17475574491E+03  0.00000000000E+00 0.  1.
         11    1    3    3    0    0  0.27191646175E+02 -0.23416110182E+02  0.24013693821E+02  0.43178204325E+02  0.00000000000E+00 0. -1.
          2    1    1    2  501    0  0.18470386104E+02  0.10778086746E+03  0.11704545045E+03  0.16017961176E+03  0.00000000000E+00 0. -1.
<scales pt_clust_5="13000.00000" pt_clust_6="13000.00000" pt_clust_7="13000.00000" pt_clust_8="13000.00000" pt_clust_9="13000.00000"></scales>
<clustering>
<clus scale="   86.780">  5  6 -1 -1</clus>
<clus scale="   90.631">  7  8 -1 -1</clus>
<clus scale="   98.013">  1  7  2 -1</clus>
<clus scale="   93.947">  5  9 -1 -1</clus>
<clus scale="  225.003">  2  5  1 -1</clus>
</clustering>
</event>
<event>
 9    1  0.4516508E-005  0.1956258E+04  0.7546771E-02  0.9335372E-01
         21   -1    0    0  501  502  0.00000000000E+00  0.00000000000E+00  0.38914030340E+03  0.38914030340E+03  0.00000000000E+00 0. -1.
          1   -1    0    0  502    0 -0.00000000000E+00 -0.00000000000E+00 -0.28194543285E+04  0.28194543285E+04  0.00000000000E+00 0. -1.
         23    2    1    2    0    0  0.76011165140E+02  0.21310422604E+02 -0.25939116747E+03  0.28629211496E+03  0.91910641331E+02 0.  0.
        -24    2    1    2    0    0 -0.49004479621E+03 -0.35982832989E+03  0.68883845897E+02  0.61953194860E+03  0.97234365447E+02 0.  0.
         11    1    4    4    0    0 -0.19817712827E+03 -0.20469309924E+03  0.23166375627E+02  0.28584982072E+03  0.00000000000E+00 0. -1.
        -12    1    4    4    0    0 -0.29186766795E+03 -0.15513523066E+03  0.45717470270E+02  0.33368212789E+03  0.00000000000E+00 0.  1.
        -13    1    3    3    0    0  0.10326068289E+02 -0.18788856436E+02 -0.71935761417E+01  0.22614074162E+02  0.00000000000E+00 0. -1.
         13    1    3    3    0    0  0.65685096851E+02  0.40099279041E+02 -0.25219759133E+03  0.26367804080E+03  0.00000000000E+00 0.  1.
          2    1    1    2  501    0  0.41403363107E+03  0.33851790729E+03 -0.22398067035E+04  0.23027705683E+04  0.00000000000E+00 0. -1.
<scales pt_clust_5="13000.00000" pt_clust_6="13000.00000" pt_clust_7="13000.00000" pt_clust_8="13000.00000" pt_clust_9="13000.00000"></scales>
<clustering>
<clus scale="   91.911">  7  8 -1 -1</clus>
<clus scale="   97.234">  5  6 -1 -1</clus>
<clus scale="  121.159">  2  7  1 -1</clus>
<clus scale="  599.984">  5  9 -1 -1</clus>
<clus scale=" 1956.258">  1  5  2 -1</clus>
</clustering>
</event>
<event>
 9    1  0.4516508E-005  0.2346252E+03  0.7546771E-02  0.1132765E+00
          1   -1    0    0  502    0 -0.00000000000E+00  0.00000000000E+00  0.88326770234E+03  0.88326770234E+03  0.00000000000E+00 0. -1.
         21   -1    0    0  501  502  0.00000000000E+00 -0.00000000000E+00 -0.63696007236E+02  0.63696007236E+02  0.00000000000E+00 0. -1.
         23    2    1    2    0    0  0.13547940415E+03 -0.89569051292E+02  0.15574688977E+03  0.24289527902E+03  0.91453479976E+02 0.  0.
        -24    2    1    2    0    0 -0.40978670811E+02  0.10534388087E+03  0.38166875032E+03  0.40608978496E+03  0.80382173268E+02 0.  0.
         13    1    4    4    0    0 -0.59238709374E+02  0.10262423060E+03  0.30449728837E+03  0.32674080862E+03  0.00000000000E+00 0. -1.
        -14    1    4    4    0    0  0.18260038563E+02  0.27196502639E+01  0.77171461955E+02  0.79348976340E+02  0.00000000000E+00 0.  1.
        -11    1    3    3    0    0  0.14373104660E+03 -0.64095907730E+02  0.11839462226E+03  0.19693700953E+03  0.00000000000E+00 0. -1.
         11    1    3    3    0    0 -0.82516424505E+01 -0.25473143562E+02  0.37352267510E+02  0.45958269486E+02  0.00000000000E+00 0.  1.
          2    1    1    2  501    0 -0.94500733339E+02 -0.15774829576E+02  0.28215605501E+03  0.29797864559E+03  0.00000000000E+00 0. -1.
<scales pt_clust_5="13000.00000" pt_clust_6="13000.00000" pt_clust_7="13000.00000" pt_clust_8="13000.00000" pt_clust_9="13000.00000"></scales>
<clustering>
<clus scale="   80.382">  5  6 -1 -1</clus>
<clus scale="   91.453">  7  8 -1 -1</clus>
<clus scale="   95.808">  5  9 -1 -1</clus>
<clus scale="  186.390">  1  7  2 -1</clus>
<clus scale="  234.625">  2  5  1 -1</clus>
</clustering>
</event>
<event>
 9    1  0.4516508E-005  0.2898471E+03  0.7546771E-02  0.1097110E+00
          1   -1    0    0  502    0 -0.00000000000E+00  0.00000000000E+00  0.94870966311E+03  0.94870966311E+03  0.00000000000E+00 0. -1.
         21   -1    0    0  501  502  0.00000000000E+00 -0.00000000000E+00 -0.78847298549E+02  0.78847298549E+02  0.00000000000E+00 0.  1.
         23    2    1    2    0    0 -0.38227676539E+02 -0.22124957920E+03  0.51360712010E+03  0.56828674574E+03  0.93513742401E+02 0.  0.
        -24    2    1    2    0    0  0.43837422531E+02  0.51203919909E+02  0.72265134308E+02  0.12821526858E+03  0.81690540648E+02 0.  0.
         13    1    4    4    0    0  0.12897967668E+02  0.57931051432E+02  0.12604116412E+02  0.60673124532E+02  0.00000000000E+00 0. -1.
        -14    1    4    4    0    0  0.30939454863E+02 -0.67271315226E+01  0.59661017895E+02  0.67542144044E+02  0.00000000000E+00 0.  1.
        -11    1    3    3    0    0 -0.79147986452E+01 -0.12707449344E+03  0.18112503008E+03  0.22139748743E+03  0.00000000000E+00 0.  1.
         11    1    3    3    0    0 -0.30312877893E+02 -0.94175085760E+02  0.33248209003E+03  0.34688925831E+03  0.00000000000E+00 0. -1.
          2    1    1    2  501    0 -0.56097459925E+01  0.17004565929E+03  0.28399011015E+03  0.33105494733E+03  0.00000000000E+00 0. -1.
<scales pt_clust_5="13000.00000" pt_clust_6="13000.00000" pt_clust_7="13000.00000" pt_clust_8="13000.00000" pt_clust_9="13000.00000"></scales>
<clustering>
<clus scale="   81.691">  5  6 -1 -1</clus>
<clus scale="   93.514">  7  8 -1 -1</clus>
<clus scale="  170.138">  5  9 -1 -1</clus>
<clus scale="  243.223">  1  7  2 -1</clus>
<clus scale="  289.847">  2  5  1 -1</clus>
</clustering>
</event>
<event>
 9    1  0.6000404E-005  0.9030750E+03  0.7546771E-02  0.9656919E-01
         21   -1    0    0  501  502  0.00000000000E+00  0.00000000000E+00  0.72768365795E+03  0.72768365795E+03  0.00000000000E+00 0. -1.
          1   -1    0    0  502    0 -0.00000000000E+00 -0.00000000000E+00 -0.58281182081E+03  0.58281182081E+03  0.00000000000E+00 0. -1.
         23    2    1    2    0    0  0.17855283203E+03 -0.34476229366E+03  0.51370044598E+02  0.40259292570E+03  0.93273948057E+02 0.  0.
        -24    2    1    2    0    0  0.26259325521E+02 -0.24862802780E+03 -0.40705090549E+02  0.26597453455E+03  0.81117817068E+02 0.  0.
         13    1    4    4    0    0 -0.61781718458E+00 -0.19388068517E+03 -0.22892018171E+01  0.19389518361E+03  0.00000000000E+00 0. -1.
        -14    1    4    4    0    0  0.26877142705E+02 -0.54747342628E+02 -0.38415888732E+02  0.72079350940E+02  0.00000000000E+00 0.  1.
        -11    1    3    3    0    0  0.16121337349E+03 -0.32793933380E+03  0.24182638311E+02  0.36622228010E+03  0.00000000000E+00 0. -1.
         11    1    3    3    0    0  0.17339458530E+02 -0.16822959861E+02  0.27187406287E+02  0.36370645598E+02  0.00000000000E+00 0.  1.
          2    1    1    2  501    0 -0.20481215755E+03  0.59339032146E+03  0.13420688310E+03  0.64192801851E+03  0.00000000000E+00 0. -1.
<scales pt_clust_5="13000.00000" pt_clust_6="13000.00000" pt_clust_7="13000.00000" pt_clust_8="13000.00000" pt_clust_9="13000.00000"></scales>
<clustering>
<clus scale="   81.118">  5  6 -1 -1</clus>
<clus scale="   93.274">  7  8 -1 -1</clus>
<clus scale="  399.302">  2  7  1 -1</clus>
<clus scale="  389.834">  5  9 -1 -1</clus>
<clus scale="  903.075">  1  5  2 -1</clus>
</clustering>
</event>
<event>
 9    1  0.4516508E-005  0.1488316E+03  0.7546771E-02  0.1224646E+00
          1   -1    0    0  502    0 -0.00000000000E+00  0.00000000000E+00  0.19335164845E+03  0.19335164845E+03  0.00000000000E+00 0. -1.
         21   -1    0    0  501  502  0.00000000000E+00 -0.00000000000E+00 -0.86962496113E+02  0.86962496113E+02  0.00000000000E+00 0.  1.
         23    2    1    2    0    0  0.25490074839E+01  0.24225863170E+02 -0.85854817552E+01  0.92244995125E+02  0.88555286365E+02 0.  0.
        -24    2    1    2    0    0  0.22236808509E+02  0.11819642601E+02  0.27798751648E+02  0.90533260450E+02  0.82397336429E+02 0.  0.
         13    1    4    4    0    0 -0.15751927004E+02 -0.26503014617E+02  0.17967300348E+02  0.35684126302E+02  0.00000000000E+00 0. -1.
        -14    1    4    4    0    0  0.37988735514E+02  0.38322657217E+02  0.98314512997E+01  0.54849134148E+02  0.00000000000E+00 0.  1.
        -11    1    3    3    0    0 -0.20730275777E+02  0.42604373591E+02 -0.29626163538E+02  0.55880108705E+02  0.00000000000E+00 0. -1.
         11    1    3    3    0    0  0.23279283261E+02 -0.18378510421E+02  0.21040681783E+02  0.36364886420E+02  0.00000000000E+00 0.  1.
          2    1    1    2  501    0 -0.24785815993E+02 -0.36045505770E+02  0.87175882439E+02  0.97535888983E+02  0.00000000000E+00 0. -1.
<scales pt_clust_5="13000.00000" pt_clust_6="13000.00000" pt_clust_7="13000.00000" pt_clust_8="13000.00000" pt_clust_9="13000.00000"></scales>
<clustering>
<clus scale="   82.397">  5  6 -1 -1</clus>
<clus scale="   43.745">  5  9 -1 -1</clus>
<clus scale="   88.555">  7  8 -1 -1</clus>
<clus scale="   91.845">  1  7  2 -1</clus>
<clus scale="  148.832">  2  5  1 -1</clus>
</clustering>
</event>
<event>
 9    1  0.4516508E-005  0.1554377E+03  0.7546771E-02  0.1213603E+00
         21   -1    0    0  501  502  0.00000000000E+00  0.00000000000E+00  0.73747112110E+02  0.73747112110E+02  0.00000000000E+00 0. -1.
          1   -1    0    0  502    0 -0.00000000000E+00 -0.00000000000E+00 -0.24294415133E+03  0.24294415133E+03  0.00000000000E+00 0. -1.
         23    2    1    2    0    0 -0.20768221170E+02 -0.38994206111E+02 -0.11144185421E+03  0.15087046648E+03  0.91601002531E+02 0.  0.
        -24    2    1    2    0    0  0.15039523931E+02  0.71057909754E+02 -0.70962759425E+02  0.13067340609E+03  0.82246045588E+02 0.  0.
         11    1    4    4    0    0  0.14973465324E+02  0.25952699776E+02  0.15066177037E+02  0.33537098563E+02  0.00000000000E+00 0. -1.
        -12    1    4    4    0    0  0.66058607399E-01  0.45105209978E+02 -0.86028936462E+02  0.97136307526E+02  0.00000000000E+00 0.  1.
        -13    1    3    3    0    0 -0.46209424509E+00 -0.58711917952E+02 -0.10723345333E+03  0.12225512813E+03  0.00000000000E+00 0. -1.
         13    1    3    3    0    0 -0.20306126925E+02  0.19717711841E+02 -0.42084008812E+01  0.28615338350E+02  0.00000000000E+00 0.  1.
          2    1    1    2  501    0  0.57286972385E+01 -0.32063703643E+02  0.13207574414E+02  0.35147390875E+02  0.00000000000E+00 0. -1.
<scales pt_clust_5="13000.00000" pt_clust_6="13000.00000" pt_clust_7="13000.00000" pt_clust_8="13000.00000" pt_clust_9="13000.00000"></scales>
<clustering>
<clus scale="   82.246">  5  6 -1 -1</clus>
<clus scale="   32.571">  5  9 -1 -1</clus>
<clus scale="   91.601">  7  8 -1 -1</clus>
<clus scale="  101.699">  2  7  1 -1</clus>
<clus scale="  155.438">  1  5  2 -1</clus>
</clustering>
</event>
<event>
 9    1  0.4516508E-005  0.2290250E+03  0.7546771E-02  0.1167024E+00
          3   -1    0    0  502    0 -0.00000000000E+00  0.00000000000E+00  0.21933435113E+03  0.21933435113E+03  0.00000000000E+00 0. -1.
         21   -1    0    0  501  502  0.00000000000E+00 -0.00000000000E+00 -0.13831617913E+03  0.13831617913E+03  0.00000000000E+00 0. -1.
         23    2    1    2    0    0 -0.75075749514E+01 -0.19958261992E+02 -0.41215279430E+02  0.98048048382E+02  0.86371434107E+02 0.  0.
        -24    2    1    2    0    0 -0.55507065943E+02 -0.48181840737E+02  0.12736354379E+03  0.16664960987E+03  0.78409795528E+02 0.  0.
         11    1    4    4    0    0 -0.37782323838E+02 -0.29130837615E+02  0.13187554461E+03  0.14024004050E+03  0.00000000000E+00 0. -1.
        -12    1    4    4    0    0 -0.17724742105E+02 -0.19051003122E+02 -0.45120008138E+01  0.26409569364E+02  0.00000000000E+00 0.  1.
        -13    1    3    3    0    0 -0.26891640106E+02 -0.27332650907E+02  0.12611211711E+02  0.40364300737E+02  0.00000000000E+00 0. -1.
         13    1    3    3    0    0  0.19384065154E+02  0.73743889144E+01 -0.53826491142E+02  0.57683747645E+02  0.00000000000E+00 0.  1.
          4    1    1    2  501    0  0.63014640894E+02  0.68140102729E+02 -0.51300923688E+01  0.92952872009E+02  0.00000000000E+00 0. -1.
<scales pt_clust_5="13000.00000" pt_clust_6="13000.00000" pt_clust_7="13000.00000" pt_clust_8="13000.00000" pt_clust_9="13000.00000"></scales>
<clustering>
<clus scale="   78.410">  5  6 -1 -1</clus>
<clus scale="   86.371">  7  8 -1 -1</clus>
<clus scale="   88.965">  1  7  2 -1</clus>
<clus scale="   88.288">  5  9 -1 -1</clus>
<clus scale="  229.025">  2  5  1 -1</clus>
</clustering>
</event>
<event>
 9    1  0.4516508E-005  0.1334020E+03  0.7546771E-02  0.1235058E+00
          1   -1    0    0  502    0 -0.00000000000E+00  0.00000000000E+00  0.58632272858E+02  0.58632272858E+02  0.00000000000E+00 0. -1.
         21   -1    0    0  501  502  0.00000000000E+00 -0.00000000000E+00 -0.23904006982E+03  0.23904006982E+03  0.00000000000E+00 0. -1.
         23    2    1    2    0    0 -0.46286940406E+02  0.30616944273E+01 -0.68905609747E+02  0.12380792924E+03  0.91807219020E+02 0.  0.
        -24    2    1    2    0    0  0.74361255792E+02 -0.76428583469E+00 -0.84990071275E+02  0.13518189074E+03  0.74301082575E+02 0.  0.
         13    1    4    4    0    0  0.79641053577E+02  0.20042260013E+02 -0.57265739098E+02  0.10011870193E+03  0.00000000000E+00 0. -1.
        -14    1    4    4    0    0 -0.52797977842E+01 -0.20806545848E+02 -0.27724332177E+02  0.35063188809E+02  0.00000000000E+00 0.  1.
        -13    1    3    3    0    0  0.23463598121E+02  0.62862137334E+01  0.18991774345E+01  0.24365216905E+02  0.00000000000E+00 0.  1.
         13    1    3    3    0    0 -0.69750538527E+02 -0.32245193061E+01 -0.70804787181E+02  0.99442712339E+02  0.00000000000E+00 0. -1.
          2    1    1    2  501    0 -0.28074315386E+02 -0.22974085926E+01 -0.26512115938E+02  0.38682522696E+02  0.00000000000E+00 0. -1.
<scales pt_clust_5="13000.00000" pt_clust_6="13000.00000" pt_clust_7="13000.00000" pt_clust_8="13000.00000" pt_clust_9="13000.00000"></scales>
<clustering>
<clus scale="   74.301">  5  6 -1 -1</clus>
<clus scale="   28.168">  5  9 -1 -1</clus>
<clus scale="   91.807">  7  8 -1 -1</clus>
<clus scale="  102.861">  1  7  2 -1</clus>
<clus scale="  133.402">  2  5  1 -1</clus>
</clustering>
</event>
<event>
 9    1  0.4516508E-005  0.1995319E+03  0.7546771E-02  0.1178240E+00
         21   -1    0    0  501  502  0.00000000000E+00  0.00000000000E+00  0.17616388156E+03  0.17616388156E+03  0.00000000000E+00 0. -1.
          1   -1    0    0  502    0 -0.00000000000E+00 -0.00000000000E+00 -0.16839672440E+03  0.16839672440E+03  0.00000000000E+00 0. -1.
         23    2    1    2    0    0  0.18924456598E+02  0.46740556954E+02 -0.75154638660E+02  0.12848424210E+03  0.91198497980E+02 0.  0.
        -24    2    1    2    0    0  0.17447361329E+02  0.75307131376E+01  0.11661476352E+03  0.14256788836E+03  0.79783943649E+02 0.  0.
         11    1    4    4    0    0  0.42714704048E+02 -0.16234118144E+02  0.80003387569E+02  0.92133786182E+02  0.00000000000E+00 0. -1.
        -12    1    4    4    0    0 -0.25267342719E+02  0.23764831281E+02  0.36611375952E+02  0.50434102183E+02  0.00000000000E+00 0.  1.
        -13    1    3    3    0    0  0.21225329688E+02  0.10873292448E+00  0.15655732825E+02  0.26374768501E+02  0.00000000000E+00 0.  1.
         13    1    3    3    0    0 -0.23008730903E+01  0.46631824029E+02 -0.90810371484E+02  0.10210947360E+03  0.00000000000E+00 0. -1.
          2    1    1    2  501    0 -0.36371817927E+02 -0.54271270091E+02 -0.33692967699E+02  0.73508475491E+02  0.00000000000E+00 0. -1.
<scales pt_clust_5="13000.00000" pt_clust_6="13000.00000" pt_clust_7="13000.00000" pt_clust_8="13000.00000" pt_clust_9="13000.00000"></scales>
<clustering>
<clus scale="   79.784">  5  6 -1 -1</clus>
<clus scale="   65.332">  5  9 -1 -1</clus>
<clus scale="   91.198">  7  8 -1 -1</clus>
<clus scale="  104.211">  2  7  1 -1</clus>
<clus scale="  199.532">  1  5  2 -1</clus>
</clustering>
</event>
<event>
 9    1  0.4516508E-005  0.7379746E+03  0.7546771E-02  0.1007449E+00
         21   -1    0    0  501  502  0.00000000000E+00  0.00000000000E+00  0.85970659029E+02  0.85970659029E+02  0.00000000000E+00 0.  1.
         -2   -1    0    0    0  501 -0.00000000000E+00 -0.00000000000E+00 -0.25266997424E+04  0.25266997424E+04  0.00000000000E+00 0.  1.
         23    2    1    2    0    0 -0.12234904874E+03  0.11204899895E+03 -0.39506987720E+03  0.43796856631E+03  0.90620027112E+02 0.  0.
        -24    2    1    2    0    0  0.36020846947E+02  0.22885010912E+03 -0.15358272522E+04  0.15553526754E+04  0.81772382304E+02 0.  0.
         13    1    4    4    0    0  0.33658360910E+02  0.73476966952E+02 -0.34010396690E+03  0.34957468191E+03  0.00000000000E+00 0. -1.
        -14    1    4    4    0    0  0.23624860371E+01  0.15537314217E+03 -0.11957232853E+04  0.12057779935E+04  0.00000000000E+00 0.  1.
        -13    1    3    3    0    0 -0.10223177464E+03  0.12664116893E+03 -0.35894827307E+03  0.39412331085E+03  0.00000000000E+00 0.  1.
         13    1    3    3    0    0 -0.20117274095E+02 -0.14592169978E+02 -0.36121604125E+02  0.43845255458E+02  0.00000000000E+00 0. -1.
         -1    1    1    2    0  502  0.86328201788E+02 -0.34089910808E+03 -0.50983195396E+03  0.61934915967E+03  0.00000000000E+00 0.  1.
<scales pt_clust_5="13000.00000" pt_clust_6="13000.00000" pt_clust_7="13000.00000" pt_clust_8="13000.00000" pt_clust_9="13000.00000"></scales>
<clustering>
<clus scale="   81.772">  5  6 -1 -1</clus>
<clus scale="   90.620">  7  8 -1 -1</clus>
<clus scale="  189.040">  2  7  1 -1</clus>
<clus scale="  315.505">  5  9 -1 -1</clus>
<clus scale="  737.975">  1  5  2 -1</clus>
</clustering>
</event>
<event>
 9    1  0.4516508E-005  0.2862918E+03  0.7546771E-02  0.1137184E+00
          1   -1    0    0  502    0 -0.00000000000E+00  0.00000000000E+00  0.12385108000E+03  0.12385108000E+03  0.00000000000E+00 0. -1.
         21   -1    0    0  501  502  0.00000000000E+00 -0.00000000000E+00 -0.40892259945E+03  0.40892259945E+03  0.00000000000E+00 0.  1.
         23    2    1    2    0    0 -0.28850061517E+02  0.29294692590E+02  0.39271748894E+02  0.10015197512E+03  0.82447818624E+02 0.  0.
        -24    2    1    2    0    0  0.32170451752E+02  0.46269854711E+02  0.82338858263E+00  0.98773863880E+02  0.81115724715E+02 0.  0.
         13    1    4    4    0    0  0.36678571029E+02 -0.12646865103E+02 -0.61235149804E+01  0.39277960810E+02  0.00000000000E+00 0. -1.
        -14    1    4    4    0    0 -0.45081192763E+01  0.58916719814E+02  0.69469035631E+01  0.59495903070E+02  0.00000000000E+00 0.  1.
        -13    1    3    3    0    0 -0.19173989148E+01 -0.27731447023E+02  0.45759092569E+01  0.28171768104E+02  0.00000000000E+00 0. -1.
         13    1    3    3    0    0 -0.26932662602E+02  0.57026139613E+02  0.34695839637E+02  0.71980207016E+02  0.00000000000E+00 0.  1.
          2    1    1    2  501    0 -0.33203902355E+01 -0.75564547300E+02 -0.32516665692E+03  0.33384784045E+03  0.00000000000E+00 0. -1.
<scales pt_clust_5="13000.00000" pt_clust_6="13000.00000" pt_clust_7="13000.00000" pt_clust_8="13000.00000" pt_clust_9="13000.00000"></scales>
<clustering>
<clus scale="   81.116">  5  6 -1 -1</clus>
<clus scale="   75.638">  5  9 -1 -1</clus>
<clus scale="   82.448">  7  8 -1 -1</clus>
<clus scale="   92.131">  1  7  2 -1</clus>
<clus scale="  286.292">  2  5  1 -1</clus>
</clustering>
</event>
<event>
 9    1  0.4516508E-005  0.3025357E+03  0.7546771E-02  0.1126682E+00
         21   -1    0    0  501  502  0.00000000000E+00  0.00000000000E+00  0.39665038569E+03  0.39665038569E+03  0.00000000000E+00 0. -1.
          1   -1    0    0  502    0 -0.00000000000E+00 -0.00000000000E+00 -0.23266494922E+03  0.23266494922E+03  0.00000000000E+00 0. -1.
         23    2    1    2    0    0  0.27913669199E+02 -0.30453493313E+02 -0.15799918735E+03  0.18749871902E+03  0.92116438549E+02 0.  0.
        -24    2    1    2    0    0  0.84389299824E+02 -0.37333374602E+02  0.40342992546E+02  0.13112541102E+03  0.83970123167E+02 0.  0.
         13    1    4    4    0    0  0.47127983572E+02 -0.54983084753E+02  0.50960343881E+02  0.88550229209E+02  0.00000000000E+00 0. -1.
        -14    1    4    4    0    0  0.37261316252E+02  0.17649710151E+02 -0.10617351335E+02  0.42575181815E+02  0.00000000000E+00 0.  1.
        -13    1    3    3    0    0  0.52551235370E+02 -0.47011607087E+02 -0.12120979967E+03  0.14022674166E+03  0.00000000000E+00 0. -1.
         13    1    3    3    0    0 -0.24637566171E+02  0.16558113775E+02 -0.36789387672E+02  0.47271977364E+02  0.00000000000E+00 0.  1.
          2    1    1    2  501    0 -0.11230296902E+03  0.67786867915E+02  0.28164163127E+03  0.31069120486E+03  0.00000000000E+00 0. -1.
<scales pt_clust_5="13000.00000" pt_clust_6="13000.00000" pt_clust_7="13000.00000" pt_clust_8="13000.00000" pt_clust_9="13000.00000"></scales>
<clustering>
<clus scale="   83.970">  5  6 -1 -1</clus>
<clus scale="   92.116">  7  8 -1 -1</clus>
<clus scale="  100.956">  2  7  1 -1</clus>
<clus scale="  121.600">  5  9 -1 -1</clus>
<clus scale="  302.536">  1  5  2 -1</clus>
</clustering>
</event>
<event>
 9    1  0.4516508E-005  0.1806028E+03  0.7546771E-02  0.1197247E+00
         -4   -1    0    0    0  501 -0.00000000000E+00  0.00000000000E+00  0.32403430232E+03  0.32403430232E+03  0.00000000000E+00 0.  1.
         21   -1    0    0  501  502  0.00000000000E+00 -0.00000000000E+00 -0.63310979436E+02  0.63310979436E+02  0.00000000000E+00 0.  1.
         23    2    1    2    0    0  0.51596633675E+01 -0.18555138895E+02  0.35820012034E+02  0.98903158513E+02  0.90154568360E+02 0.  0.
        -24    2    1    2    0    0  0.22234513253E+02 -0.53280684677E+02  0.99137455093E+02  0.14103833450E+03  0.82038843588E+02 0.  0.
         11    1    4    4    0    0 -0.23111046166E+02 -0.17796496487E+02  0.71396201403E+02  0.77124920207E+02  0.00000000000E+00 0. -1.
        -12    1    4    4    0    0  0.45345559419E+02 -0.35484188189E+02  0.27741253690E+02  0.63913414294E+02  0.00000000000E+00 0.  1.
        -11    1    3    3    0    0  0.40732889778E+02 -0.24769548250E+01  0.42921370707E+02  0.59224553002E+02  0.00000000000E+00 0. -1.
         11    1    3    3    0    0 -0.35573226411E+02 -0.16078184070E+02 -0.71013586737E+01  0.39678605511E+02  0.00000000000E+00 0.  1.
         -3    1    1    2    0  502 -0.27394176620E+02  0.71835823572E+02  0.12576585576E+03  0.14740378874E+03  0.00000000000E+00 0.  1.
<scales pt_clust_5="13000.00000" pt_clust_6="13000.00000" pt_clust_7="13000.00000" pt_clust_8="13000.00000" pt_clust_9="13000.00000"></scales>
<clustering>
<clus scale="   82.039">  5  6 -1 -1</clus>
<clus scale="   76.882">  5  9 -1 -1</clus>
<clus scale="   90.155">  7  8 -1 -1</clus>
<clus scale="   92.189">  1  7  2 -1</clus>
<clus scale="  180.603">  2  5  1 -1</clus>
</clustering>
</event>
<event>
 9    1  0.4516508E-005  0.2977346E+03  0.7546771E-02  0.1132277E+00
          3   -1    0    0  502    0 -0.00000000000E+00  0.00000000000E+00  0.95067579380E+02  0.95067579380E+02  0.00000000000E+00 0. -1.
         21   -1    0    0  501  502  0.00000000000E+00 -0.00000000000E+00 -0.48055136811E+03  0.48055136811E+03  0.00000000000E+00 0. -1.
         23    2    1    2    0    0  0.94408598280E+01  0.95603764077E+01 -0.21152561359E+03  0.23078948270E+03  0.91324528413E+02 0.  0.
        -24    2    1    2    0    0  0.20478405842E+02  0.11206831993E+03 -0.16956895154E+03  0.21949803411E+03  0.80293737076E+02 0.  0.
         11    1    4    4    0    0  0.39650080579E+02  0.10526904795E+03 -0.16314413280E+03  0.19816586339E+03  0.00000000000E+00 0. -1.
        -12    1    4    4    0    0 -0.19171674736E+02  0.67992719802E+01 -0.64248187360E+01  0.21332170716E+02  0.00000000000E+00 0.  1.
        -11    1    3    3    0    0 -0.24906627237E+02  0.39374213394E+02 -0.98798215276E+02  0.10923257803E+03  0.00000000000E+00 0.  1.
         11    1    3    3    0    0  0.34347487065E+02 -0.29813836986E+02 -0.11272739832E+03  0.12155690468E+03  0.00000000000E+00 0. -1.
          4    1    1    2  501    0 -0.29919265670E+02 -0.12162869634E+03 -0.43892235997E+01  0.12533143068E+03  0.00000000000E+00 0. -1.
<scales pt_clust_5="13000.00000" pt_clust_6="13000.00000" pt_clust_7="13000.00000" pt_clust_8="13000.00000" pt_clust_9="13000.00000"></scales>
<clustering>
<clus scale="   80.294">  5  6 -1 -1</clus>
<clus scale="   91.325">  7  8 -1 -1</clus>
<clus scale="   92.308">  1  7  2 -1</clus>
<clus scale="  117.189">  5  9 -1 -1</clus>
<clus scale="  297.735">  2  5  1 -1</clus>
</clustering>
</event>
<event>
 9    1  0.4516508E-005  0.2488306E+03  0.7546771E-02  0.1151113E+00
         -4   -1    0    0    0  501 -0.00000000000E+00  0.00000000000E+00  0.17032031449E+03  0.17032031449E+03  0.00000000000E+00 0.  1.
         21   -1    0    0  501  502  0.00000000000E+00 -0.00000000000E+00 -0.19166218629E+03  0.19166218629E+03  0.00000000000E+00 0.  1.
         23    2    1    2    0    0  0.33056774645E+02  0.23475834674E+02 -0.48607801529E+02  0.11166254245E+03  0.91988802869E+02 0.  0.
        -24    2    1    2    0    0  0.42778919616E+02  0.45700184094E+02  0.84059705336E+02  0.13300880351E+03  0.81894840873E+02 0.  0.
         11    1    4    4    0    0  0.61278737137E+02  0.11378599692E+02  0.63311662924E+02  0.88842122995E+02  0.00000000000E+00 0. -1.
        -12    1    4    4    0    0 -0.18499817522E+02  0.34321584402E+02  0.20748042412E+02  0.44166680520E+02  0.00000000000E+00 0.  1.
        -11    1    3    3    0    0  0.61715978431E+02  0.31661630932E+02 -0.25328435362E+02  0.73843418832E+02  0.00000000000E+00 0.  1.
         11    1    3    3    0    0 -0.28659203786E+02 -0.81857962580E+01 -0.23279366167E+02  0.37819123617E+02  0.00000000000E+00 0. -1.
         -3    1    1    2    0  502 -0.75835694261E+02 -0.69176018768E+02 -0.56793775605E+02  0.11731115482E+03  0.00000000000E+00 0.  1.
<scales pt_clust_5="13000.00000" pt_clust_6="13000.00000" pt_clust_7="13000.00000" pt_clust_8="13000.00000" pt_clust_9="13000.00000"></scales>
<clustering>
<clus scale="   81.895">  5  6 -1 -1</clus>
<clus scale="   91.989">  7  8 -1 -1</clus>
<clus scale="  100.528">  1  7  2 -1</clus>
<clus scale="   93.879">  5  9 -1 -1</clus>
<clus scale="  248.831">  2  5  1 -1</clus>
</clustering>
</event>
<event>
 9    1  0.5669868E-005  0.3920296E+03  0.7546771E-02  0.1060670E+00
          1   -1    0    0  502    0 -0.00000000000E+00  0.00000000000E+00  0.78908649300E+03  0.78908649300E+03  0.00000000000E+00 0. -1.
         21   -1    0    0  501  502  0.00000000000E+00 -0.00000000000E+00 -0.13844354734E+03  0.13844354734E+03  0.00000000000E+00 0. -1.
         23    2    1    2    0    0  0.17437140486E+03 -0.17216793594E+03  0.20096568685E+03  0.33095912489E+03  0.95391561767E+02 0.  0.
        -24    2    1    2    0    0 -0.79596890924E+01 -0.59074887599E+02  0.16790595595E+03  0.19587006732E+03  0.81360151375E+02 0.  0.
         11    1    4    4    0    0  0.30179690343E+02 -0.72118642536E+01  0.87676529336E+02  0.93005368079E+02  0.00000000000E+00 0. -1.
        -12    1    4    4    0    0 -0.38139379436E+02 -0.51863023345E+02  0.80229426617E+02  0.10286469924E+03  0.00000000000E+00 0.  1.
        -11    1    3    3    0    0  0.26710461381E+02  0.98073278425E+01  0.18305868297E+02  0.33833965785E+02  0.00000000000E+00 0.  1.
         11    1    3    3    0    0  0.14766094348E+03 -0.18197526379E+03  0.18265981855E+03  0.29712515910E+03  0.00000000000E+00 0. -1.
          2    1    1    2  501    0 -0.16641171577E+03  0.23124282354E+03  0.28177130286E+03  0.40070084814E+03  0.00000000000E+00 0. -1.
<scales pt_clust_5="13000.00000" pt_clust_6="13000.00000" pt_clust_7="13000.00000" pt_clust_8="13000.00000" pt_clust_9="13000.00000"></scales>
<clustering>
<clus scale="   81.360">  5  6 -1 -1</clus>
<clus scale="   95.392">  7  8 -1 -1</clus>
<clus scale="  262.958">  1  7  2 -1</clus>
<clus scale="  130.077">  5  9 -1 -1</clus>
<clus scale="  392.030">  2  5  1 -1</clus>
</clustering>
</event>
<event>
 9    1  0.4516508E-005  0.5975591E+03  0.7546771E-02  0.1003707E+00
         -4   -1    0    0    0  501 -0.00000000000E+00  0.00000000000E+00  0.16491492005E+03  0.16491492005E+03  0.00000000000E+00 0.  1.
         21   -1    0    0  501  502  0.00000000000E+00 -0.00000000000E+00 -0.16175757126E+04  0.16175757126E+04  0.00000000000E+00 0.  1.
         23    2    1    2    0    0 -0.37092794688E+03  0.12068493876E+03 -0.81903022503E+03  0.91153448691E+03  0.89062983860E+02 0.  0.
        -24    2    1    2    0    0  0.19428081690E+01 -0.20226507696E+03 -0.26639855727E+03  0.34401715413E+03  0.80403203682E+02 0.  0.
         11    1    4    4    0    0 -0.56198881888E+01 -0.26805742822E+02 -0.31578922948E+01  0.27569970534E+02  0.00000000000E+00 0. -1.
        -12    1    4    4    0    0  0.75626963579E+01 -0.17545933413E+03 -0.26324066497E+03  0.31644718360E+03  0.00000000000E+00 0.  1.
        -13    1    3    3    0    0 -0.32348051752E+03  0.86738062230E+02 -0.62701975393E+03  0.71085646123E+03  0.00000000000E+00 0.  1.
         13    1    3    3    0    0 -0.47447429362E+02  0.33946876534E+02 -0.19201047109E+03  0.20067802568E+03  0.00000000000E+00 0. -1.
         -3    1    1    2    0  502  0.36898513871E+03  0.81580138192E+02 -0.36723201031E+03  0.52693899166E+03  0.00000000000E+00 0.  1.
<scales pt_clust_5="13000.00000" pt_clust_6="13000.00000" pt_clust_7="13000.00000" pt_clust_8="13000.00000" pt_clust_9="13000.00000"></scales>
<clustering>
<clus scale="   80.403">  5  6 -1 -1</clus>
<clus scale="   89.063">  7  8 -1 -1</clus>
<clus scale="  377.896">  5  9 -1 -1</clus>
<clus scale="  400.106">  1  7  2 -1</clus>
<clus scale="  597.559">  2  5  1 -1</clus>
</clustering>
</event>
<event>
 9    1  0.4516508E-005  0.2886059E+03  0.7546771E-02  0.1129402E+00
         21   -1    0    0  501  502  0.00000000000E+00  0.00000000000E+00  0.31997034740E+02  0.31997034740E+02  0.00000000000E+00 0. -1.
          1   -1    0    0  502    0 -0.00000000000E+00 -0.00000000000E+00 -0.12595420232E+04  0.12595420232E+04  0.00000000000E+00 0. -1.
         23    2    1    2    0    0 -0.55540193629E+02 -0.17544924995E+02 -0.42446118239E+03  0.43817103384E+03  0.91836931758E+02 0.  0.
        -24    2    1    2    0    0 -0.76279000313E+02 -0.62261370424E+02 -0.45818930759E+03  0.47561471867E+03  0.81098427211E+02 0.  0.
         13    1    4    4    0    0 -0.57816691575E+02 -0.60020343714E+02 -0.19882260888E+03  0.21558209871E+03  0.00000000000E+00 0. -1.
        -14    1    4    4    0    0 -0.18462308738E+02 -0.22410267108E+01 -0.25936669871E+03  0.26003261996E+03  0.00000000000E+00 0.  1.
        -13    1    3    3    0    0  0.20130114959E+02 -0.25490219149E+02 -0.13892471489E+03  0.14267112254E+03  0.00000000000E+00 0.  1.
         13    1    3    3    0    0 -0.75670308588E+02  0.79452941535E+01 -0.28553646750E+03  0.29549991130E+03  0.00000000000E+00 0. -1.
          2    1    1    2  501    0  0.13181919394E+03  0.79806295420E+02 -0.34489449847E+03  0.37775330542E+03  0.00000000000E+00 0. -1.
<scales pt_clust_5="13000.00000" pt_clust_6="13000.00000" pt_clust_7="13000.00000" pt_clust_8="13000.00000" pt_clust_9="13000.00000"></scales>
<clustering>
<clus scale="   81.098">  5  6 -1 -1</clus>
<clus scale="   91.837">  7  8 -1 -1</clus>
<clus scale="  108.750">  2  7  1 -1</clus>
<clus scale="  129.543">  5  9 -1 -1</clus>
<clus scale="  288.606">  1  5  2 -1</clus>
</clustering>
</event>
<event>
 9    1  0.4516508E-005  0.3794945E+03  0.7546771E-02  0.1097432E+00
          3   -1    0    0  502    0 -0.00000000000E+00  0.00000000000E+00  0.46086034223E+03  0.46086034223E+03  0.00000000000E+00 0. -1.
         21   -1    0    0  501  502  0.00000000000E+00 -0.00000000000E+00 -0.39982630601E+03  0.39982630601E+03  0.00000000000E+00 0.  1.
         23    2    1    2    0    0 -0.42402953492E+02 -0.33051054522E+02  0.36119068702E+03  0.37683742778E+03  0.93044891943E+02 0.  0.
        -24    2    1    2    0    0 -0.73171633850E+01 -0.11357467426E+03  0.59426439645E+01  0.14082156469E+03  0.82720315230E+02 0.  0.
         13    1    4    4    0    0  0.17651640836E+02 -0.65024113711E+02  0.38156279759E+02  0.77431372667E+02  0.00000000000E+00 0. -1.
        -14    1    4    4    0    0 -0.24968804221E+02 -0.48550560552E+02 -0.32213635794E+02  0.63390192027E+02  0.00000000000E+00 0.  1.
        -11    1    3    3    0    0 -0.53877092576E+02  0.16612371758E+02  0.18121568195E+03  0.18978365416E+03  0.00000000000E+00 0.  1.
         11    1    3    3    0    0  0.11474139084E+02 -0.49663426280E+02  0.17997500507E+03  0.18705377363E+03  0.00000000000E+00 0. -1.
          4    1    1    2  501    0  0.49720116877E+02  0.14662572879E+03 -0.30609929477E+03  0.34302765577E+03  0.00000000000E+00 0. -1.
<scales pt_clust_5="13000.00000" pt_clust_6="13000.00000" pt_clust_7="13000.00000" pt_clust_8="13000.00000" pt_clust_9="13000.00000"></scales>
<clustering>
<clus scale="   82.720">  5  6 -1 -1</clus>
<clus scale="   93.045">  7  8 -1 -1</clus>
<clus scale="  107.460">  1  7  2 -1</clus>
<clus scale="  145.917">  5  9 -1 -1</clus>
<clus scale="  379.494">  2  5  1 -1</clus>
</clustering>
</event>
<event>
 9    1  0.4516508E-005  0.5009080E+03  0.7546771E-02  0.1056202E+00
          1   -1    0    0  502    0 -0.00000000000E+00  0.00000000000E+00  0.18169830945E+03  0.18169830945E+03  0.00000000000E+00 0. -1.
         21   -1    0    0  501  502  0.00000000000E+00 -0.00000000000E+00 -0.58225549429E+03  0.58225549429E+03  0.00000000000E+00 0. -1.
         23    2    1    2    0    0  0.11074473000E+03  0.22839675200E+02 -0.45486381443E+02  0.14996347100E+03  0.87372683106E+02 0.  0.
        -24    2    1    2    0    0 -0.13851315902E+03  0.19689875307E+03 -0.92024324299E+02  0.27011606404E+03  0.80865305337E+02 0.  0.
         11    1    4    4    0    0 -0.10678901761E+03  0.18045929392E+03 -0.10176937491E+03  0.23308036536E+03  0.00000000000E+00 0. -1.
        -12    1    4    4    0    0 -0.31724141412E+02  0.16439459150E+02  0.97450506157E+01  0.37035698684E+02  0.00000000000E+00 0.  1.
        -13    1    3    3    0    0  0.74189270065E+02 -0.14820083748E+02 -0.58798942168E+02  0.95817525929E+02  0.00000000000E+00 0.  1.
         13    1    3    3    0    0  0.36555459933E+02  0.37659758948E+02  0.13312560725E+02  0.54145945074E+02  0.00000000000E+00 0. -1.
          2    1    1    2  501    0  0.27768429023E+02 -0.21973842827E+03 -0.26304647910E+03  0.34387426870E+03  0.00000000000E+00 0. -1.
<scales pt_clust_5="13000.00000" pt_clust_6="13000.00000" pt_clust_7="13000.00000" pt_clust_8="13000.00000" pt_clust_9="13000.00000"></scales>
<clustering>
<clus scale="   80.865">  5  6 -1 -1</clus>
<clus scale="   87.373">  7  8 -1 -1</clus>
<clus scale="  142.899">  1  7  2 -1</clus>
<clus scale="  221.560">  5  9 -1 -1</clus>
<clus scale="  500.908">  2  5  1 -1</clus>
</clustering>
</event>
<event>
 9    1  0.4516508E-005  0.1455328E+03  0.7546771E-02  0.1228576E+00
          1   -1    0    0  502    0 -0.00000000000E+00  0.00000000000E+00  0.20291262307E+03  0.20291262307E+03  0.00000000000E+00 0. -1.
         21   -1    0    0  501  502  0.00000000000E+00 -0.00000000000E+00 -0.89100653777E+02  0.89100653777E+02  0.00000000000E+00 0.  1.
         23    2    1    2    0    0 -0.12349545373E+02 -0.17145180970E+02  0.11514547524E+03  0.14647435205E+03  0.88032873630E+02 0.  0.
        -24    2    1    2    0    0  0.14193944930E+02  0.44264701936E+02  0.36228014910E+02  0.99173656798E+02  0.79762856193E+02 0.  0.
         13    1    4    4    0    0  0.15075454588E+02  0.60145897305E+02  0.48794278903E+02  0.78902978063E+02  0.00000000000E+00 0. -1.
        -14    1    4    4    0    0 -0.88150965845E+00 -0.15881195369E+02 -0.12566263992E+02  0.20270678734E+02  0.00000000000E+00 0.  1.
        -13    1    3    3    0    0 -0.17575486617E+02 -0.50814072876E+02  0.52418631257E+02  0.75091148845E+02  0.00000000000E+00 0.  1.
         13    1    3    3    0    0  0.52259412437E+01  0.33668891906E+02  0.62726843985E+02  0.71383203209E+02  0.00000000000E+00 0. -1.
          2    1    1    2  501    0 -0.18443995565E+01 -0.27119520966E+02 -0.37561520859E+02  0.46365267997E+02  0.00000000000E+00 0. -1.
<scales pt_clust_5="13000.00000" pt_clust_6="13000.00000" pt_clust_7="13000.00000" pt_clust_8="13000.00000" pt_clust_9="13000.00000"></scales>
<clustering>
<clus scale="   79.763">  5  6 -1 -1</clus>
<clus scale="   27.182">  5  9 -1 -1</clus>
<clus scale="   88.033">  7  8 -1 -1</clus>
<clus scale="   90.533">  1  7  2 -1</clus>
<clus scale="  145.533">  2  5  1 -1</clus>
</clustering>
</event>
<event>
 9    1  0.4516508E-005  0.6625609E+03  0.7546771E-02  0.1006310E+00
          1   -1    0    0  502    0 -0.00000000000E+00  0.00000000000E+00  0.70123798109E+03  0.70123798109E+03  0.00000000000E+00 0. -1.
         21   -1    0    0  501  502  0.00000000000E+00 -0.00000000000E+00 -0.34098335817E+03  0.34098335817E+03  0.00000000000E+00 0. -1.
         23    2    1    2    0    0  0.24319270681E+03 -0.75926359307E+02  0.25407468629E+03  0.37120633804E+03  0.91283593829E+02 0.  0.
        -24    2    1    2    0    0 -0.54052997767E+02  0.23971527563E+01 -0.24602473487E+03  0.26453190886E+03  0.80755728760E+02 0.  0.
         13    1    4    4    0    0 -0.56648342397E+02 -0.19765269799E+02 -0.22825034119E+03  0.23600406530E+03  0.00000000000E+00 0. -1.
        -14    1    4    4    0    0  0.25953446298E+01  0.22162422555E+02 -0.17774393683E+02  0.28527843558E+02  0.00000000000E+00 0.  1.
        -13    1    3    3    0    0  0.18012832342E+03 -0.78683629935E+02  0.14169499783E+03  0.24231136772E+03  0.00000000000E+00 0. -1.
         13    1    3    3    0    0  0.63064383392E+02  0.27572706277E+01  0.11237968847E+03  0.12889497032E+03  0.00000000000E+00 0.  1.
          2    1    1    2  501    0 -0.18913970904E+03  0.73529206551E+02  0.35220467150E+03  0.40648309236E+03  0.00000000000E+00 0. -1.
<scales pt_clust_5="13000.00000" pt_clust_6="13000.00000" pt_clust_7="13000.00000" pt_clust_8="13000.00000" pt_clust_9="13000.00000"></scales>
<clustering>
<clus scale="   80.756">  5  6 -1 -1</clus>
<clus scale="   91.284">  7  8 -1 -1</clus>
<clus scale="  202.930">  5  9 -1 -1</clus>
<clus scale="  270.629">  1  7  2 -1</clus>
<clus scale="  662.561">  2  5  1 -1</clus>
</clustering>
</event>
<event>
 9    1  0.4516508E-005  0.4595882E+03  0.7546771E-02  0.1034607E+00
         21   -1    0    0  501  502  0.00000000000E+00  0.00000000000E+00  0.10722597691E+04  0.10722597691E+04  0.00000000000E+00 0.  1.
          1   -1    0    0  502    0 -0.00000000000E+00 -0.00000000000E+00 -0.16396631201E+03  0.16396631201E+03  0.00000000000E+00 0. -1.
         23    2    1    2    0    0 -0.32902809142E+03  0.46987944031E+02  0.22060141630E+03  0.40909754741E+03  0.90710895669E+02 0.  0.
        -24    2    1    2    0    0  0.43498760195E+02 -0.10613143928E+03  0.37040399700E+03  0.39620318662E+03  0.81374563288E+02 0.  0.
         11    1    4    4    0    0  0.16813152138E+02 -0.43888936066E+02  0.49606460336E+02  0.68335362009E+02  0.00000000000E+00 0. -1.
        -12    1    4    4    0    0  0.26685608057E+02 -0.62242503212E+02  0.32079753667E+03  0.32786782461E+03  0.00000000000E+00 0.  1.
        -13    1    3    3    0    0 -0.26605530809E+03  0.58279052034E+02  0.21072104558E+03  0.34436206806E+03  0.00000000000E+00 0.  1.
         13    1    3    3    0    0 -0.62972783331E+02 -0.11291108003E+02  0.98803707140E+01  0.64735479344E+02  0.00000000000E+00 0. -1.
          2    1    1    2  501    0  0.28552933123E+03  0.59143495247E+02  0.31728804375E+03  0.43092534705E+03  0.00000000000E+00 0. -1.
<scales pt_clust_5="13000.00000" pt_clust_6="13000.00000" pt_clust_7="13000.00000" pt_clust_8="13000.00000" pt_clust_9="13000.00000"></scales>
<clustering>
<clus scale="   81.375">  5  6 -1 -1</clus>
<clus scale="   90.711">  7  8 -1 -1</clus>
<clus scale="  291.591">  5  9 -1 -1</clus>
<clus scale="  344.523">  2  7  1 -1</clus>
<clus scale="  459.588">  1  5  2 -1</clus>
</clustering>
</event>
<event>
 9    1  0.4516508E-005  0.1535437E+03  0.7546771E-02  0.1219057E+00
         21   -1    0    0  501  502  0.00000000000E+00  0.00000000000E+00  0.39104229577E+02  0.39104229577E+02  0.00000000000E+00 0. -1.
          1   -1    0    0  502    0 -0.00000000000E+00 -0.00000000000E+00 -0.43274726993E+03  0.43274726993E+03  0.00000000000E+00 0. -1.
         23    2    1    2    0    0  0.26587689493E+02  0.55950451895E+01 -0.22459000101E+03  0.24347770323E+03  0.90013963656E+02 0.  0.
        -24    2    1    2    0    0 -0.68099003931E+02 -0.12931397485E+02 -0.89792357811E+02  0.13860037633E+03  0.79641078732E+02 0.  0.
         11    1    4    4    0    0 -0.83413065488E+02 -0.17168416414E+02 -0.57933429425E+02  0.10299891388E+03  0.00000000000E+00 0. -1.
        -12    1    4    4    0    0  0.15314061557E+02  0.42370189283E+01 -0.31858928385E+02  0.35601462451E+02  0.00000000000E+00 0.  1.
        -13    1    3    3    0    0 -0.12932799873E+02 -0.32499517414E+02 -0.12454340287E+03  0.12936203130E+03  0.00000000000E+00 0.  1.
         13    1    3    3    0    0  0.39520489366E+02  0.38094562603E+02 -0.10004659814E+03  0.11411567193E+03  0.00000000000E+00 0. -1.
          2    1    1    2  501    0  0.41511314438E+02  0.73363522960E+01 -0.79260681528E+02  0.89773419939E+02  0.00000000000E+00 0. -1.
<scales pt_clust_5="13000.00000" pt_clust_6="13000.00000" pt_clust_7="13000.00000" pt_clust_8="13000.00000" pt_clust_9="13000.00000"></scales>
<clustering>
<clus scale="   79.641">  5  6 -1 -1</clus>
<clus scale="   42.155">  5  9 -1 -1</clus>
<clus scale="   90.014">  7  8 -1 -1</clus>
<clus scale="   94.025">  2  7  1 -1</clus>
<clus scale="  153.544">  1  5  2 -1</clus>
</clustering>
</event>
<event>
 9    1  0.4516508E-005  0.1763110E+03  0.7546771E-02  0.1193930E+00
         -2   -1    0    0    0  501 -0.00000000000E+00  0.00000000000E+00  0.10418336559E+03  0.10418336559E+03  0.00000000000E+00 0.  1.
         21   -1    0    0  501  502  0.00000000000E+00 -0.00000000000E+00 -0.20951304900E+03  0.20951304900E+03  0.00000000000E+00 0.  1.
         23    2    1    2    0    0  0.41061286826E+02 -0.30517035156E+02 -0.84842222703E+02  0.13619908582E+03  0.93459453855E+02 0.  0.
        -24    2    1    2    0    0  0.15979389124E+02 -0.24736201764E+02  0.22366931078E+02  0.87258435829E+02  0.79035020484E+02 0.  0.
         11    1    4    4    0    0  0.34105827449E+02  0.94580247884E+01 -0.10030219809E+02  0.36786777629E+02  0.00000000000E+00 0. -1.
        -12    1    4    4    0    0 -0.18126438325E+02 -0.34194226552E+02  0.32397150887E+02  0.50471658200E+02  0.00000000000E+00 0.  1.
        -11    1    3    3    0    0  0.25162523438E+02 -0.49364963728E+02 -0.86035993161E+01  0.56072044289E+02  0.00000000000E+00 0. -1.
         11    1    3    3    0    0  0.15898763388E+02  0.18847928572E+02 -0.76238623387E+02  0.80127041532E+02  0.00000000000E+00 0.  1.
         -1    1    1    2    0  502 -0.57040675950E+02  0.55253236920E+02 -0.42854391793E+02  0.90238892940E+02  0.00000000000E+00 0.  1.
<scales pt_clust_5="13000.00000" pt_clust_6="13000.00000" pt_clust_7="13000.00000" pt_clust_8="13000.00000" pt_clust_9="13000.00000"></scales>
<clustering>
<clus scale="   79.035">  5  6 -1 -1</clus>
<clus scale="   79.414">  5  9 -1 -1</clus>
<clus scale="   93.459">  7  8 -1 -1</clus>
<clus scale="  106.546">  1  7  2 -1</clus>
<clus scale="  176.311">  2  5  1 -1</clus>
</clustering>
</event>
<event>
 9    1  0.4516508E-005  0.1602947E+03  0.7546771E-02  0.1204292E+00
         21   -1    0    0  501  502  0.00000000000E+00  0.00000000000E+00  0.35388617139E+02  0.35388617139E+02  0.00000000000E+00 0. -1.
          1   -1    0    0  502    0 -0.00000000000E+00 -0.00000000000E+00 -0.65441216217E+03  0.65441216217E+03  0.00000000000E+00 0. -1.
         23    2    1    2    0    0 -0.62776657049E+02  0.14852383821E+02 -0.11686975799E+03  0.16268332011E+03  0.92982903453E+02 0.  0.
        -24    2    1    2    0    0 -0.31090084398E+01  0.63123880757E+01 -0.17626907719E+03  0.19396627339E+03  0.80638796279E+02 0.  0.
         11    1    4    4    0    0  0.22247766231E+02 -0.29168432668E+02 -0.92878496244E+02  0.99860781247E+02  0.00000000000E+00 0. -1.
        -12    1    4    4    0    0 -0.25356774671E+02  0.35480820743E+02 -0.83390580942E+02  0.94105492147E+02  0.00000000000E+00 0.  1.
        -11    1    3    3    0    0 -0.28349866135E+02  0.54017152229E+02 -0.64531821844E+02  0.88802723355E+02  0.00000000000E+00 0. -1.
         11    1    3    3    0    0 -0.34426790914E+02 -0.39164768408E+02 -0.52337936149E+02  0.73880596759E+02  0.00000000000E+00 0.  1.
          2    1    1    2  501    0  0.65885665489E+02 -0.21164771897E+02 -0.32588470985E+03  0.33315118580E+03  0.00000000000E+00 0. -1.
<scales pt_clust_5="13000.00000" pt_clust_6="13000.00000" pt_clust_7="13000.00000" pt_clust_8="13000.00000" pt_clust_9="13000.00000"></scales>
<clustering>
<clus scale="   80.639">  5  6 -1 -1</clus>
<clus scale="   69.202">  5  9 -1 -1</clus>
<clus scale="   92.983">  7  8 -1 -1</clus>
<clus scale="  113.169">  2  7  1 -1</clus>
<clus scale="  160.295">  1  5  2 -1</clus>
</clustering>
</event>
<event>
 9    1  0.4516508E-005  0.3279918E+03  0.7546771E-02  0.1105694E+00
          1   -1    0    0  502    0 -0.00000000000E+00  0.00000000000E+00  0.78083282617E+03  0.78083282617E+03  0.00000000000E+00 0. -1.
         21   -1    0    0  501  502  0.00000000000E+00 -0.00000000000E+00 -0.74205107887E+02  0.74205107887E+02  0.00000000000E+00 0. -1.
         23    2    1    2    0    0  0.26122884052E+02 -0.94994311178E+02  0.10792608568E+03  0.17237969565E+03  0.91435197140E+02 0.  0.
        -24    2    1    2    0    0  0.78164591303E+02 -0.57605586339E+02  0.14611416787E+03  0.19378400153E+03  0.82309065646E+02 0.  0.
         13    1    4    4    0    0  0.53543552894E+02 -0.39508674339E+02  0.14890866058E+03  0.16310008155E+03  0.00000000000E+00 0. -1.
        -14    1    4    4    0    0  0.24621038409E+02 -0.18096912000E+02 -0.27944927118E+01  0.30683919987E+02  0.00000000000E+00 0.  1.
        -13    1    3    3    0    0  0.53386815688E+02 -0.55904760879E+02  0.34057555781E+02  0.84471364876E+02  0.00000000000E+00 0. -1.
         13    1    3    3    0    0 -0.27263931637E+02 -0.39089550299E+02  0.73868529894E+02  0.87908330775E+02  0.00000000000E+00 0.  1.
          2    1    1    2  501    0 -0.10428747535E+03  0.15259989752E+03  0.45258746474E+03  0.48887423687E+03  0.00000000000E+00 0. -1.
<scales pt_clust_5="13000.00000" pt_clust_6="13000.00000" pt_clust_7="13000.00000" pt_clust_8="13000.00000" pt_clust_9="13000.00000"></scales>
<clustering>
<clus scale="   82.309">  5  6 -1 -1</clus>
<clus scale="   91.435">  7  8 -1 -1</clus>
<clus scale="  134.413">  1  7  2 -1</clus>
<clus scale="  118.733">  5  9 -1 -1</clus>
<clus scale="  327.992">  2  5  1 -1</clus>
</clustering>
</event>
<event>
 9    1  0.4516508E-005  0.2645536E+03  0.7546771E-02  0.1125620E+00
         21   -1    0    0  501  502  0.00000000000E+00  0.00000000000E+00  0.32978204126E+03  0.32978204126E+03  0.00000000000E+00 0.  1.
         -2   -1    0    0    0  501 -0.00000000000E+00 -0.00000000000E+00 -0.15650887065E+03  0.15650887065E+03  0.00000000000E+00 0.  1.
         23    2    1    2    0    0  0.63706047771E+02  0.10115069907E+03 -0.23249035436E+02  0.15673122532E+03  0.98662226295E+02 0.  0.
        -24    2    1    2    0    0  0.55314160877E+01  0.43848580015E+02  0.26717554916E+02  0.95781507787E+02  0.80665822750E+02 0.  0.
         13    1    4    4    0    0  0.30933200360E+02  0.40580048522E+02  0.41886033272E+02  0.66015475503E+02  0.00000000000E+00 0. -1.
        -14    1    4    4    0    0 -0.25401784272E+02  0.32685314928E+01 -0.15168478355E+02  0.29766032285E+02  0.00000000000E+00 0.  1.
        -11    1    3    3    0    0 -0.18830116519E+02  0.10834595011E+02  0.17371030303E+02  0.27815722730E+02  0.00000000000E+00 0. -1.
         11    1    3    3    0    0  0.82536164290E+02  0.90316104062E+02 -0.40620065739E+02  0.12891550259E+03  0.00000000000E+00 0.  1.
         -1    1    1    2    0  502 -0.69237463858E+02 -0.14499927909E+03  0.16980465113E+03  0.23377817880E+03  0.00000000000E+00 0.  1.
<scales pt_clust_5="13000.00000" pt_clust_6="13000.00000" pt_clust_7="13000.00000" pt_clust_8="13000.00000" pt_clust_9="13000.00000"></scales>
<clustering>
<clus scale="   80.666">  5  6 -1 -1</clus>
<clus scale="   98.662">  7  8 -1 -1</clus>
<clus scale="  154.997">  2  7  1 -1</clus>
<clus scale="  103.804">  5  9 -1 -1</clus>
<clus scale="  264.554">  1  5  2 -1</clus>
</clustering>
</event>
<event>
 9    1  0.4516508E-005  0.2378697E+03  0.7546771E-02  0.1154257E+00
          1   -1    0    0  502    0 -0.00000000000E+00  0.00000000000E+00  0.76269039889E+02  0.76269039889E+02  0.00000000000E+00 0. -1.
         21   -1    0    0  501  502  0.00000000000E+00 -0.00000000000E+00 -0.60994124976E+03  0.60994124976E+03  0.00000000000E+00 0. -1.
         23    2    1    2    0    0  0.10693334805E+02 -0.56859181413E+02 -0.55549557110E+01  0.10699544140E+03  0.89832360691E+02 0.  0.
        -24    2    1    2    0    0 -0.22083278174E+02 -0.25527719960E+02 -0.65464105236E+02  0.10914541876E+03  0.80547114791E+02 0.  0.
         13    1    4    4    0    0 -0.19218104253E+02  0.27775394942E+02 -0.28790943200E+02  0.44381600981E+02  0.00000000000E+00 0. -1.
        -14    1    4    4    0    0 -0.28651739204E+01 -0.53303114902E+02 -0.36673162035E+02  0.64763817781E+02  0.00000000000E+00 0.  1.
        -11    1    3    3    0    0 -0.10478465619E+02 -0.22535686761E+02 -0.44476239930E+02  0.50948909094E+02  0.00000000000E+00 0.  1.
         11    1    3    3    0    0  0.21171800423E+02 -0.34323494652E+02  0.38921284219E+02  0.56046532307E+02  0.00000000000E+00 0. -1.
          2    1    1    2  501    0  0.11389943369E+02  0.82386901374E+02 -0.46265314893E+03  0.47006942949E+03  0.00000000000E+00 0. -1.
<scales pt_clust_5="13000.00000" pt_clust_6="13000.00000" pt_clust_7="13000.00000" pt_clust_8="13000.00000" pt_clust_9="13000.00000"></scales>
<clustering>
<clus scale="   80.547">  5  6 -1 -1</clus>
<clus scale="   83.171">  5  9 -1 -1</clus>
<clus scale="   89.832">  7  8 -1 -1</clus>
<clus scale="  106.851">  1  7  2 -1</clus>
<clus scale="  237.870">  2  5  1 -1</clus>
</clustering>
</event>
<event>
 9    1  0.4516508E-005  0.2203080E+03  0.7546771E-02  0.1164391E+00
         21   -1    0    0  501  502  0.00000000000E+00  0.00000000000E+00  0.33967404019E+03  0.33967404019E+03  0.00000000000E+00 0. -1.
          1   -1    0    0  502    0 -0.00000000000E+00 -0.00000000000E+00 -0.11481921275E+03  0.11481921275E+03  0.00000000000E+00 0. -1.
         23    2    1    2    0    0 -0.44691728720E+02 -0.28941401608E+02 -0.36842472794E+02  0.11240976635E+03  0.91889239994E+02 0.  0.
        -24    2    1    2    0    0 -0.15975035824E+02  0.87568638230E+02  0.21459461411E+03  0.24545909922E+03  0.79220280310E+02 0.  0.
         11    1    4    4    0    0 -0.63214267931E+01  0.77709242555E+02  0.21776477737E+03  0.23130107021E+03  0.00000000000E+00 0. -1.
        -12    1    4    4    0    0 -0.96536090310E+01  0.98593956746E+01 -0.31701632600E+01  0.14158029011E+02  0.00000000000E+00 0.  1.
        -11    1    3    3    0    0 -0.37212644964E+02  0.84152578175E+01  0.20694008926E+02  0.43403220097E+02  0.00000000000E+00 0.  1.
         11    1    3    3    0    0 -0.74790837555E+01 -0.37356659425E+02 -0.57536481720E+02  0.69006546254E+02  0.00000000000E+00 0. -1.
          2    1    1    2  501    0  0.60666764544E+02 -0.58627236622E+02  0.47102686123E+02  0.96624387368E+02  0.00000000000E+00 0. -1.
<scales pt_clust_5="13000.00000" pt_clust_6="13000.00000" pt_clust_7="13000.00000" pt_clust_8="13000.00000" pt_clust_9="13000.00000"></scales>
<clustering>
<clus scale="   79.220">  5  6 -1 -1</clus>
<clus scale="   84.366">  5  9 -1 -1</clus>
<clus scale="   91.889">  7  8 -1 -1</clus>
<clus scale="  106.201">  2  7  1 -1</clus>
<clus scale="  220.308">  1  5  2 -1</clus>
</clustering>
</event>
<event>
 9    1  0.4516508E-005  0.2268812E+03  0.7546771E-02  0.1167298E+00
          1   -1    0    0  502    0 -0.00000000000E+00  0.00000000000E+00  0.39584484510E+03  0.39584484510E+03  0.00000000000E+00 0. -1.
         21   -1    0    0  501  502  0.00000000000E+00 -0.00000000000E+00 -0.74064061726E+02  0.74064061726E+02  0.00000000000E+00 0. -1.
         23    2    1    2    0    0 -0.47579378601E+01 -0.46533865497E+01  0.21306636111E+02  0.93398890284E+02  0.90692270811E+02 0.  0.
        -24    2    1    2    0    0  0.35510427317E+02  0.70182604272E+02  0.64565447506E+02  0.12974553651E+03  0.80489867953E+02 0.  0.
         11    1    4    4    0    0  0.25699665344E+02  0.81258846687E+02  0.27047055694E+02  0.89414854389E+02  0.00000000000E+00 0. -1.
        -12    1    4    4    0    0  0.98107619729E+01 -0.11076242415E+02  0.37518391811E+02  0.40330682125E+02  0.00000000000E+00 0.  1.
        -11    1    3    3    0    0  0.17621017391E+02 -0.41570723272E+02 -0.23585087526E+00  0.45151754261E+02  0.00000000000E+00 0. -1.
         11    1    3    3    0    0 -0.22378955251E+02  0.36917336722E+02  0.21542486987E+02  0.48247136022E+02  0.00000000000E+00 0.  1.
          2    1    1    2  501    0 -0.30752489457E+02 -0.65529217722E+02  0.23590869976E+03  0.24676448003E+03  0.00000000000E+00 0. -1.
<scales pt_clust_5="13000.00000" pt_clust_6="13000.00000" pt_clust_7="13000.00000" pt_clust_8="13000.00000" pt_clust_9="13000.00000"></scales>
<clustering>
<clus scale="   80.490">  5  6 -1 -1</clus>
<clus scale="   72.386">  5  9 -1 -1</clus>
<clus scale="   90.692">  7  8 -1 -1</clus>
<clus scale="   90.936">  1  7  2 -1</clus>
<clus scale="  226.881">  2  5  1 -1</clus>
</clustering>
</event>
<event>
 9    1  0.4516508E-005  0.2281341E+03  0.7546771E-02  0.1152141E+00
         21   -1    0    0  501  502  0.00000000000E+00  0.00000000000E+00  0.39094078610E+03  0.39094078610E+03  0.00000000000E+00 0. -1.
          1   -1    0    0  502    0 -0.00000000000E+00 -0.00000000000E+00 -0.91867603189E+02  0.91867603189E+02  0.00000000000E+00 0. -1.
         23    2    1    2    0    0 -0.78110236819E+02  0.47122716212E+02  0.31439353659E+02  0.13113664903E+03  0.88806690514E+02 0.  0.
        -24    2    1    2    0    0  0.95215766234E+02  0.43797885702E+02  0.18210431340E+03  0.22567787902E+03  0.82366420272E+02 0.  0.
         13    1    4    4    0    0  0.45566678086E+02  0.14247377316E+02  0.15437838314E+03  0.16159206383E+03  0.00000000000E+00 0. -1.
        -14    1    4    4    0    0  0.49649088148E+02  0.29550508386E+02  0.27725930264E+02  0.64085815192E+02  0.00000000000E+00 0.  1.
        -11    1    3    3    0    0  0.14803501468E+02  0.14671704499E+02  0.24943194660E+02  0.32504853922E+02  0.00000000000E+00 0.  1.
         11    1    3    3    0    0 -0.92913738286E+02  0.32451011714E+02  0.64961589982E+01  0.98631795103E+02  0.00000000000E+00 0. -1.
          2    1    1    2  501    0 -0.17105529415E+02 -0.90920601914E+02  0.85529515845E+02  0.12599386124E+03  0.00000000000E+00 0. -1.
<scales pt_clust_5="13000.00000" pt_clust_6="13000.00000" pt_clust_7="13000.00000" pt_clust_8="13000.00000" pt_clust_9="13000.00000"></scales>
<clustering>
<clus scale="   82.366">  5  6 -1 -1</clus>
<clus scale="   88.807">  7  8 -1 -1</clus>
<clus scale="   92.516">  5  9 -1 -1</clus>
<clus scale="  127.312">  2  7  1 -1</clus>
<clus scale="  228.134">  1  5  2 -1</clus>
</clustering>
</event>
<event>
 9    1  0.4516508E-005  0.1697970E+03  0.7546771E-02  0.1199990E+00
         21   -1    0    0  501  502  0.00000000000E+00  0.00000000000E+00  0.56438063788E+03  0.56438063788E+03  0.00000000000E+00 0. -1.
          1   -1    0    0  502    0 -0.00000000000E+00 -0.00000000000E+00 -0.68045111413E+02  0.68045111413E+02  0.00000000000E+00 0. -1.
         23    2    1    2    0    0 -0.42655152711E+02 -0.33592867174E+02 -0.34744450801E+01  0.10456114848E+03  0.89291764602E+02 0.  0.
        -24    2    1    2    0    0 -0.35593780395E+02  0.23966949378E+02  0.26949948687E+03  0.28443396761E+03  0.80195864261E+02 0.  0.
         11    1    4    4    0    0 -0.51395123342E+02  0.37648228770E+02  0.23978883901E+03  0.24810791029E+03  0.00000000000E+00 0. -1.
        -12    1    4    4    0    0  0.15801342947E+02 -0.13681279393E+02  0.29710647860E+02  0.36326057328E+02  0.00000000000E+00 0.  1.
        -13    1    3    3    0    0  0.35948801037E+01  0.24348558081E+02  0.14106173973E+02  0.28368284892E+02  0.00000000000E+00 0.  1.
         13    1    3    3    0    0 -0.46250032815E+02 -0.57941425255E+02 -0.17580619053E+02  0.76192863591E+02  0.00000000000E+00 0. -1.
          2    1    1    2  501    0  0.78248933107E+02  0.96259177967E+01  0.23031048468E+03  0.24343063320E+03  0.00000000000E+00 0. -1.
<scales pt_clust_5="13000.00000" pt_clust_6="13000.00000" pt_clust_7="13000.00000" pt_clust_8="13000.00000" pt_clust_9="13000.00000"></scales>
<clustering>
<clus scale="   80.196">  5  6 -1 -1</clus>
<clus scale="   78.839">  5  9 -1 -1</clus>
<clus scale="   89.292">  7  8 -1 -1</clus>
<clus scale="  104.503">  2  7  1 -1</clus>
<clus scale="  169.797">  1  5  2 -1</clus>
</clustering>
</event>
<event>
 9    1  0.4516508E-005  0.3247378E+03  0.7546771E-02  0.1112330E+00
         21   -1    0    0  501  502  0.00000000000E+00  0.00000000000E+00  0.35956749959E+03  0.35956749959E+03  0.00000000000E+00 0. -1.
          1   -1    0    0  502    0 -0.00000000000E+00 -0.00000000000E+00 -0.14263198601E+03  0.14263198601E+03  0.00000000000E+00 0. -1.
         23    2    1    2    0    0  0.71388562532E+02 -0.13841648721E+02  0.10939425286E+03  0.16011794098E+03  0.91557273694E+02 0.  0.
        -24    2    1    2    0    0  0.68904245221E+02 -0.36873234103E+02  0.13922568090E+03  0.18957589316E+03  0.10221447374E+03 0.  0.
         13    1    4    4    0    0  0.64634763884E+02 -0.22258138114E+02  0.15391891870E+03  0.16841648063E+03  0.00000000000E+00 0. -1.
        -14    1    4    4    0    0  0.42694813365E+01 -0.14615095988E+02 -0.14693237796E+02  0.21159412528E+02  0.00000000000E+00 0.  1.
        -11    1    3    3    0    0  0.61612279949E+02 -0.49834831951E+02  0.68232403544E+02  0.10457171898E+03  0.00000000000E+00 0. -1.
         11    1    3    3    0    0  0.97762825825E+01  0.35993183230E+02  0.41161849313E+02  0.55546222005E+02  0.00000000000E+00 0.  1.
          2    1    1    2  501    0 -0.14029280775E+03  0.50714882824E+02 -0.31684420174E+02  0.15250565146E+03  0.00000000000E+00 0. -1.
<scales pt_clust_5="13000.00000" pt_clust_6="13000.00000" pt_clust_7="13000.00000" pt_clust_8="13000.00000" pt_clust_9="13000.00000"></scales>
<clustering>
<clus scale="   91.557">  7  8 -1 -1</clus>
<clus scale="  102.214">  5  6 -1 -1</clus>
<clus scale="  116.922">  2  7  1 -1</clus>
<clus scale="   93.179">  5  9 -1 -1</clus>
<clus scale="  324.738">  1  5  2 -1</clus>
</clustering>
</event>
<event>
 9    1  0.4516508E-005  0.2031479E+03  0.7546771E-02  0.1172942E+00
          1   -1    0    0  502    0 -0.00000000000E+00  0.00000000000E+00  0.25298683981E+03  0.25298683981E+03  0.00000000000E+00 0. -1.
         21   -1    0    0  501  502  0.00000000000E+00 -0.00000000000E+00 -0.10006643541E+03  0.10006643541E+03  0.00000000000E+00 0. -1.
         23    2    1    2    0    0 -0.16291161820E+02 -0.57435062561E+02  0.28849697550E+02  0.11501420022E+03  0.93977512415E+02 0.  0.
        -24    2    1    2    0    0  0.18756266356E+02 -0.49631899269E+01  0.14950915244E+03  0.17060960690E+03  0.79863762256E+02 0.  0.
         11    1    4    4    0    0  0.46448856070E+02  0.14054365116E+02  0.91644904568E+02  0.10370057831E+03  0.00000000000E+00 0. -1.
        -12    1    4    4    0    0 -0.27692589714E+02 -0.19017555043E+02  0.57864247872E+02  0.66909028589E+02  0.00000000000E+00 0.  1.
        -13    1    3    3    0    0 -0.37647598943E+02  0.44814737564E+01 -0.95414623934E+01  0.39095585656E+02  0.00000000000E+00 0.  1.
         13    1    3    3    0    0  0.21356437124E+02 -0.61916536317E+02  0.38391159943E+02  0.75918614568E+02  0.00000000000E+00 0. -1.
          2    1    1    2  501    0 -0.24651045368E+01  0.62398252488E+02 -0.25438445589E+02  0.67429468097E+02  0.00000000000E+00 0. -1.
<scales pt_clust_5="13000.00000" pt_clust_6="13000.00000" pt_clust_7="13000.00000" pt_clust_8="13000.00000" pt_clust_9="13000.00000"></scales>
<clustering>
<clus scale="   79.864">  5  6 -1 -1</clus>
<clus scale="   62.447">  5  9 -1 -1</clus>
<clus scale="   93.978">  7  8 -1 -1</clus>
<clus scale="  111.337">  1  7  2 -1</clus>
<clus scale="  203.148">  2  5  1 -1</clus>
</clustering>
</event>
<event>
 9    1  0.4516508E-005  0.2870824E+03  0.7546771E-02  0.1095423E+00
         21   -1    0    0  501  502  0.00000000000E+00  0.00000000000E+00  0.62857056606E+02  0.62857056606E+02  0.00000000000E+00 0. -1.
          1   -1    0    0  502    0 -0.00000000000E+00 -0.00000000000E+00 -0.11974136272E+04  0.11974136272E+04  0.00000000000E+00 0. -1.
         23    2    1    2    0    0  0.95168032683E+02  0.22723340350E+03 -0.54504258703E+03  0.60457027528E+03  0.87987623909E+02 0.  0.
        -24    2    1    2    0    0 -0.32727267424E+02 -0.15423021572E+03 -0.27658080259E+03  0.32835427620E+03  0.80383809724E+02 0.  0.
         13    1    4    4    0    0  0.93191135349E+01 -0.12455835577E+03 -0.18314337428E+03  0.22168248784E+03  0.00000000000E+00 0. -1.
        -14    1    4    4    0    0 -0.42046380959E+02 -0.29671859943E+02 -0.93437428301E+02  0.10667178836E+03  0.00000000000E+00 0.  1.
        -11    1    3    3    0    0  0.81508336020E+02  0.14987747462E+03 -0.45007180532E+03  0.48132265288E+03  0.00000000000E+00 0. -1.
         11    1    3    3    0    0  0.13659696663E+02  0.77355928886E+02 -0.94970781719E+02  0.12324762240E+03  0.00000000000E+00 0.  1.
          2    1    1    2  501    0 -0.62440765259E+02 -0.73003187786E+02 -0.31293318096E+03  0.32734613231E+03  0.00000000000E+00 0. -1.
<scales pt_clust_5="13000.00000" pt_clust_6="13000.00000" pt_clust_7="13000.00000" pt_clust_8="13000.00000" pt_clust_9="13000.00000"></scales>
<clustering>
<clus scale="   80.384">  5  6 -1 -1</clus>
<clus scale="   87.988">  7  8 -1 -1</clus>
<clus scale="   96.064">  5  9 -1 -1</clus>
<clus scale="  261.599">  2  7  1 -1</clus>
<clus scale="  287.082">  1  5  2 -1</clus>
</clustering>
</event>
<event>
 9    1  0.4516508E-005  0.2345099E+03  0.7546771E-02  0.1153714E+00
         21   -1    0    0  501  502  0.00000000000E+00  0.00000000000E+00  0.93171395909E+03  0.93171395909E+03  0.00000000000E+00 0. -1.
          1   -1    0    0  502    0 -0.00000000000E+00 -0.00000000000E+00 -0.47475089349E+02  0.47475089349E+02  0.00000000000E+00 0. -1.
         23    2    1    2    0    0  0.64759779740E+02 -0.63335091902E+01  0.72396058169E+02  0.13415434305E+03  0.92316066368E+02 0.  0.
        -24    2    1    2    0    0 -0.51339152506E+02 -0.92262472908E+02  0.52802663658E+03  0.54428081579E+03  0.79255315379E+02 0.  0.
         13    1    4    4    0    0 -0.68558494812E+02 -0.77490773206E+02  0.48183449553E+03  0.49281798691E+03  0.00000000000E+00 0. -1.
        -14    1    4    4    0    0  0.17219342306E+02 -0.14771699703E+02  0.46192141050E+02  0.51462828880E+02  0.00000000000E+00 0.  1.
        -13    1    3    3    0    0  0.33405030610E+02  0.34122724495E+02  0.28950588686E+01  0.47839709059E+02  0.00000000000E+00 0.  1.
         13    1    3    3    0    0  0.31354749130E+02 -0.40456233685E+02  0.69500999301E+02  0.86314633990E+02  0.00000000000E+00 0. -1.
          2    1    1    2  501    0 -0.13420627234E+02  0.98595982099E+02  0.28381617499E+03  0.30075388960E+03  0.00000000000E+00 0. -1.
<scales pt_clust_5="13000.00000" pt_clust_6="13000.00000" pt_clust_7="13000.00000" pt_clust_8="13000.00000" pt_clust_9="13000.00000"></scales>
<clustering>
<clus scale="   79.255">  5  6 -1 -1</clus>
<clus scale="   92.316">  7  8 -1 -1</clus>
<clus scale="   99.505">  5  9 -1 -1</clus>
<clus scale="  112.943">  2  7  1 -1</clus>
<clus scale="  234.510">  1  5  2 -1</clus>
</clustering>
</event>
<event>
 9    1  0.4516508E-005  0.1354964E+04  0.7546771E-02  0.9615967E-01
         21   -1    0    0  501  502  0.00000000000E+00  0.00000000000E+00  0.97079026207E+03  0.97079026207E+03  0.00000000000E+00 0. -1.
          1   -1    0    0  502    0 -0.00000000000E+00 -0.00000000000E+00 -0.77538650430E+03  0.77538650430E+03  0.00000000000E+00 0. -1.
         23    2    1    2    0    0 -0.32283799998E+02 -0.95481813543E+02 -0.27919227283E+03  0.31049996948E+03  0.91120169967E+02 0.  0.
        -24    2    1    2    0    0  0.49243752794E+03 -0.18841529400E+03 -0.20070647674E+03  0.57059154247E+03  0.85420001121E+02 0.  0.
         11    1    4    4    0    0  0.22414831223E+03 -0.51671023095E+02 -0.11685605349E+03  0.25800716606E+03  0.00000000000E+00 0. -1.
        -12    1    4    4    0    0  0.26828921571E+03 -0.13674427090E+03 -0.83850423251E+02  0.31258437640E+03  0.00000000000E+00 0.  1.
        -11    1    3    3    0    0 -0.58992174556E+02 -0.52124685023E+02 -0.21233437485E+03  0.22645738273E+03  0.00000000000E+00 0. -1.
         11    1    3    3    0    0  0.26708374558E+02 -0.43357128520E+02 -0.66857897981E+02  0.84042586749E+02  0.00000000000E+00 0.  1.
          2    1    1    2  501    0 -0.46015372794E+03  0.28389710754E+03  0.67530250734E+03  0.86508525443E+03  0.00000000000E+00 0. -1.
<scales pt_clust_5="13000.00000" pt_clust_6="13000.00000" pt_clust_7="13000.00000" pt_clust_8="13000.00000" pt_clust_9="13000.00000"></scales>
<clustering>
<clus scale="   85.420">  5  6 -1 -1</clus>
<clus scale="   91.120">  7  8 -1 -1</clus>
<clus scale="  135.875">  2  7  1 -1</clus>
<clus scale="  536.560">  5  9 -1 -1</clus>
<clus scale=" 1354.964">  1  5  2 -1</clus>
</clustering>
</event>
<event>
 9    1  0.4516508E-005  0.4574960E+03  0.7546771E-02  0.1055666E+00
          1   -1    0    0  502    0 -0.00000000000E+00  0.00000000000E+00  0.73596440579E+03  0.73596440579E+03  0.00000000000E+00 0. -1.
         21   -1    0    0  501  502  0.00000000000E+00 -0.00000000000E+00 -0.14826785393E+03  0.14826785393E+03  0.00000000000E+00 0. -1.
         23    2    1    2    0    0  0.15771551447E+03 -0.55402141394E+02  0.98287499190E+02  0.21428911784E+03  0.91191078236E+02 0.  0.
        -24    2    1    2    0    0 -0.48266819091E+02 -0.80408265488E+02 -0.25434836090E+02  0.12635532622E+03  0.80768574288E+02 0.  0.
         11    1    4    4    0    0 -0.49498845148E+02 -0.94325624713E+02 -0.31557979691E+02  0.11110069861E+03  0.00000000000E+00 0. -1.
        -12    1    4    4    0    0  0.12320260569E+01  0.13917359225E+02  0.61231436011E+01  0.15254627611E+02  0.00000000000E+00 0.  1.
        -11    1    3    3    0    0  0.12713880648E+01 -0.30807993679E+02  0.25430415754E+02  0.39968174184E+02  0.00000000000E+00 0.  1.
         11    1    3    3    0    0  0.15644412641E+03 -0.24594147715E+02  0.72857083435E+02  0.17432094365E+03  0.00000000000E+00 0. -1.
          2    1    1    2  501    0 -0.10944869538E+03  0.13581040688E+03  0.51484388877E+03  0.54358781566E+03  0.00000000000E+00 0. -1.
<scales pt_clust_5="13000.00000" pt_clust_6="13000.00000" pt_clust_7="13000.00000" pt_clust_8="13000.00000" pt_clust_9="13000.00000"></scales>
<clustering>
<clus scale="   80.769">  5  6 -1 -1</clus>
<clus scale="   91.191">  7  8 -1 -1</clus>
<clus scale="  174.423">  5  9 -1 -1</clus>
<clus scale="  190.419">  1  7  2 -1</clus>
<clus scale="  457.496">  2  5  1 -1</clus>
</clustering>
</event>
<event>
 9    1  0.4516508E-005  0.2042775E+03  0.7546771E-02  0.1179514E+00
         21   -1    0    0  501  502  0.00000000000E+00  0.00000000000E+00  0.37550586402E+02  0.37550586402E+02  0.00000000000E+00 0.  1.
         -4   -1    0    0    0  501 -0.00000000000E+00 -0.00000000000E+00 -0.64088953993E+03  0.64088953993E+03  0.00000000000E+00 0.  1.
         23    2    1    2    0    0  0.81560310629E+01  0.53011744335E+01 -0.11282122614E+03  0.14708624633E+03  0.93867520999E+02 0.  0.
        -24    2    1    2    0    0 -0.61979329830E+02 -0.40023808438E+02 -0.42824835242E+03  0.44202256488E+03  0.80894709012E+02 0.  0.
         13    1    4    4    0    0 -0.13484509465E+02  0.22425016724E+02 -0.61280504093E+02  0.66633426690E+02  0.00000000000E+00 0. -1.
        -14    1    4    4    0    0 -0.48494820364E+02 -0.62448825162E+02 -0.36696784832E+03  0.37538913819E+03  0.00000000000E+00 0.  1.
        -11    1    3    3    0    0 -0.40304870740E+00  0.48944748988E+02 -0.48665573033E+02  0.69022379707E+02  0.00000000000E+00 0.  1.
         11    1    3    3    0    0  0.85590797703E+01 -0.43643574555E+02 -0.64155653111E+02  0.78063866625E+02  0.00000000000E+00 0. -1.
         -3    1    1    2    0  502  0.53823298767E+02  0.34722634004E+02 -0.62269374967E+02  0.89331315120E+02  0.00000000000E+00 0.  1.
<scales pt_clust_5="13000.00000" pt_clust_6="13000.00000" pt_clust_7="13000.00000" pt_clust_8="13000.00000" pt_clust_9="13000.00000"></scales>
<clustering>
<clus scale="   80.895">  5  6 -1 -1</clus>
<clus scale="   64.052">  5  9 -1 -1</clus>
<clus scale="   93.868">  7  8 -1 -1</clus>
<clus scale="   94.370">  2  7  1 -1</clus>
<clus scale="  204.278">  1  5  2 -1</clus>
</clustering>
</event>
<event>
 9    1  0.4516508E-005  0.2390614E+03  0.7546771E-02  0.1134262E+00
         21   -1    0    0  501  502  0.00000000000E+00  0.00000000000E+00  0.59581599312E+03  0.59581599312E+03  0.00000000000E+00 0. -1.
          3   -1    0    0  502    0 -0.00000000000E+00 -0.00000000000E+00 -0.10013465821E+03  0.10013465821E+03  0.00000000000E+00 0. -1.
         23    2    1    2    0    0 -0.94571613432E+02 -0.10573879749E+03  0.30027613134E+02  0.17251610264E+03  0.93464778165E+02 0.  0.
        -24    2    1    2    0    0  0.11746378600E+03  0.16957315812E+02  0.23681854556E+03  0.27691529808E+03  0.80707912915E+02 0.  0.
         13    1    4    4    0    0  0.12401342726E+03  0.17244965168E+02  0.17739170425E+03  0.21712792474E+03  0.00000000000E+00 0. -1.
        -14    1    4    4    0    0 -0.65496412580E+01 -0.28764935629E+00  0.59426841310E+02  0.59787373339E+02  0.00000000000E+00 0.  1.
        -11    1    3    3    0    0  0.11709935336E+02 -0.46786950115E+02  0.11418392718E+02  0.49563302744E+02  0.00000000000E+00 0.  1.
         11    1    3    3    0    0 -0.10628154877E+03 -0.58951847370E+02  0.18609220416E+02  0.12295279989E+03  0.00000000000E+00 0. -1.
          4    1    1    2  501    0 -0.22892172572E+02  0.88781481674E+02  0.22883517621E+03  0.24651925062E+03  0.00000000000E+00 0. -1.
<scales pt_clust_5="13000.00000" pt_clust_6="13000.00000" pt_clust_7="13000.00000" pt_clust_8="13000.00000" pt_clust_9="13000.00000"></scales>
<clustering>
<clus scale="   80.708">  5  6 -1 -1</clus>
<clus scale="   91.685">  5  9 -1 -1</clus>
<clus scale="   93.465">  7  8 -1 -1</clus>
<clus scale="  169.883">  2  7  1 -1</clus>
<clus scale="  239.061">  1  5  2 -1</clus>
</clustering>
</event>
<event>
 9    1  0.4516508E-005  0.5925826E+03  0.7546771E-02  0.1013423E+00
         21   -1    0    0  501  502  0.00000000000E+00  0.00000000000E+00  0.11472695968E+04  0.11472695968E+04  0.00000000000E+00 0.  1.
         -4   -1    0    0    0  501 -0.00000000000E+00 -0.00000000000E+00 -0.17953533034E+03  0.17953533034E+03  0.00000000000E+00 0.  1.
         23    2    1    2    0    0 -0.19218733941E+03 -0.21699483909E+03  0.43138835853E+03  0.52754212534E+03  0.90454654421E+02 0.  0.
        -24    2    1    2    0    0 -0.14440808589E+03  0.99905285574E+02  0.34439033190E+03  0.39447472510E+03  0.78554736849E+02 0.  0.
         13    1    4    4    0    0 -0.85217997977E+02  0.68060841020E+02  0.28360592047E+03  0.30385309507E+03  0.00000000000E+00 0. -1.
        -14    1    4    4    0    0 -0.59190087915E+02  0.31844444554E+02  0.60784411431E+02  0.90621630030E+02  0.00000000000E+00 0.  1.
        -11    1    3    3    0    0 -0.14932965683E+03 -0.16984874681E+03  0.25947861791E+03  0.34420502082E+03  0.00000000000E+00 0.  1.
         11    1    3    3    0    0 -0.42857682579E+02 -0.47146092281E+02  0.17190974062E+03  0.18333710452E+03  0.00000000000E+00 0. -1.
         -3    1    1    2    0  502  0.33659542530E+03  0.11708955352E+03  0.19195557606E+03  0.40478807673E+03  0.00000000000E+00 0.  1.
<scales pt_clust_5="13000.00000" pt_clust_6="13000.00000" pt_clust_7="13000.00000" pt_clust_8="13000.00000" pt_clust_9="13000.00000"></scales>
<clustering>
<clus scale="   78.555">  5  6 -1 -1</clus>
<clus scale="   90.455">  7  8 -1 -1</clus>
<clus scale="  303.653">  2  7  1 -1</clus>
<clus scale="  190.258">  5  9 -1 -1</clus>
<clus scale="  592.583">  1  5  2 -1</clus>
</clustering>
</event>
<event>
 9    1  0.4516508E-005  0.1871194E+03  0.7546771E-02  0.1190391E+00
         21   -1    0    0  501  502  0.00000000000E+00  0.00000000000E+00  0.90174301456E+02  0.90174301456E+02  0.00000000000E+00 0.  1.
         -2   -1    0    0    0  501 -0.00000000000E+00 -0.00000000000E+00 -0.40515101733E+03  0.40515101733E+03  0.00000000000E+00 0.  1.
         23    2    1    2    0    0 -0.24631599988E+02  0.23996705633E+02 -0.29116977566E+03  0.30669752551E+03  0.90005423702E+02 0.  0.
        -24    2    1    2    0    0  0.70592674264E+01  0.59228667112E+02 -0.35919106364E+00  0.10039488286E+03  0.80753546193E+02 0.  0.
         13    1    4    4    0    0 -0.25786505257E+02  0.35934847831E+02 -0.27272251436E+02  0.51961840233E+02  0.00000000000E+00 0. -1.
        -14    1    4    4    0    0  0.32845772684E+02  0.23293819281E+02  0.26913060373E+02  0.48433042631E+02  0.00000000000E+00 0.  1.
        -11    1    3    3    0    0  0.31468754521E+01 -0.24202849451E+02 -0.25625673585E+02  0.35388640738E+02  0.00000000000E+00 0. -1.
         11    1    3    3    0    0 -0.27778475440E+02  0.48199555083E+02 -0.26554410208E+03  0.27130888477E+03  0.00000000000E+00 0.  1.
         -1    1    1    2    0  502  0.17572332561E+02 -0.83225372744E+02 -0.23447749152E+02  0.88232910415E+02  0.00000000000E+00 0.  1.
<scales pt_clust_5="13000.00000" pt_clust_6="13000.00000" pt_clust_7="13000.00000" pt_clust_8="13000.00000" pt_clust_9="13000.00000"></scales>
<clustering>
<clus scale="   80.754">  5  6 -1 -1</clus>
<clus scale="   85.060">  5  9 -1 -1</clus>
<clus scale="   90.005">  7  8 -1 -1</clus>
<clus scale="   96.351">  2  7  1 -1</clus>
<clus scale="  187.119">  1  5  2 -1</clus>
</clustering>
</event>
<event>
 9    1  0.4516508E-005  0.6166788E+03  0.7546771E-02  0.9974241E-01
         21   -1    0    0  501  502  0.00000000000E+00  0.00000000000E+00  0.24144539979E+03  0.24144539979E+03  0.00000000000E+00 0. -1.
          1   -1    0    0  502    0 -0.00000000000E+00 -0.00000000000E+00 -0.13571720397E+04  0.13571720397E+04  0.00000000000E+00 0. -1.
         23    2    1    2    0    0 -0.42004081357E+03 -0.11038274988E+03 -0.77776638901E+03  0.89540347642E+03  0.90599079266E+02 0.  0.
        -24    2    1    2    0    0 -0.52697382873E+02  0.84407811171E+01 -0.16646851216E+03  0.19010287979E+03  0.74693228700E+02 0.  0.
         13    1    4    4    0    0 -0.57381664954E+01  0.36598932583E+02 -0.67287382898E+02  0.76811459550E+02  0.00000000000E+00 0. -1.
        -14    1    4    4    0    0 -0.46959216377E+02 -0.28158151466E+02 -0.99181129264E+02  0.11329142024E+03  0.00000000000E+00 0.  1.
        -13    1    3    3    0    0 -0.27605326375E+03 -0.34648456643E+02 -0.53751101312E+03  0.60524706460E+03  0.00000000000E+00 0. -1.
         13    1    3    3    0    0 -0.14398754982E+03 -0.75734293240E+02 -0.24025537589E+03  0.29015641182E+03  0.00000000000E+00 0.  1.
          2    1    1    2  501    0  0.47273819644E+03  0.10194196877E+03 -0.17149173878E+03  0.51311108334E+03  0.00000000000E+00 0. -1.
<scales pt_clust_5="13000.00000" pt_clust_6="13000.00000" pt_clust_7="13000.00000" pt_clust_8="13000.00000" pt_clust_9="13000.00000"></scales>
<clustering>
<clus scale="   74.693">  5  6 -1 -1</clus>
<clus scale="   90.599">  7  8 -1 -1</clus>
<clus scale="  443.652">  2  7  1 -1</clus>
<clus scale="  198.730">  5  9 -1 -1</clus>
<clus scale="  616.679">  1  5  2 -1</clus>
</clustering>
</event>
<event>
 9    1  0.4516508E-005  0.6625976E+03  0.7546771E-02  0.1037774E+00
         -4   -1    0    0    0  501 -0.00000000000E+00  0.00000000000E+00  0.16632379533E+04  0.16632379533E+04  0.00000000000E+00 0.  1.
         21   -1    0    0  501  502  0.00000000000E+00 -0.00000000000E+00 -0.88665730238E+02  0.88665730238E+02  0.00000000000E+00 0.  1.
         23    2    1    2    0    0  0.24373621436E+02  0.31266444106E+02  0.19087263276E+03  0.21773937738E+03  0.96986651553E+02 0.  0.
        -24    2    1    2    0    0 -0.21373185796E+03 -0.26234881352E+03  0.57604139573E+03  0.67302125041E+03  0.81398444972E+02 0.  0.
         13    1    4    4    0    0 -0.25607347868E+02 -0.50211446381E+02  0.49602012151E+02  0.75081856809E+02  0.00000000000E+00 0. -1.
        -14    1    4    4    0    0 -0.18812451009E+03 -0.21213736713E+03  0.52643938358E+03  0.59793939360E+03  0.00000000000E+00 0.  1.
        -11    1    3    3    0    0 -0.22672434181E+01  0.63137596720E+02  0.11156700881E+03  0.12821347030E+03  0.00000000000E+00 0.  1.
         11    1    3    3    0    0  0.26640864854E+02 -0.31871152615E+02  0.79305623945E+02  0.89525907080E+02  0.00000000000E+00 0. -1.
         -3    1    1    2    0  502  0.18935823652E+03  0.23108236941E+03  0.80765819453E+03  0.86114305570E+03  0.00000000000E+00 0.  1.
<scales pt_clust_5="13000.00000" pt_clust_6="13000.00000" pt_clust_7="13000.00000" pt_clust_8="13000.00000" pt_clust_9="13000.00000"></scales>
<clustering>
<clus scale="   81.398">  5  6 -1 -1</clus>
<clus scale="   96.987">  7  8 -1 -1</clus>
<clus scale="  104.776">  1  7  2 -1</clus>
<clus scale="  321.424">  5  9 -1 -1</clus>
<clus scale="  662.598">  2  5  1 -1</clus>
</clustering>
</event>
<event>
 9    1  0.4516508E-005  0.2782800E+03  0.7546771E-02  0.1138389E+00
         21   -1    0    0  501  502  0.00000000000E+00  0.00000000000E+00  0.49495441636E+03  0.49495441636E+03  0.00000000000E+00 0.  1.
         -2   -1    0    0    0  501 -0.00000000000E+00 -0.00000000000E+00 -0.16085134431E+03  0.16085134431E+03  0.00000000000E+00 0.  1.
         23    2    1    2    0    0 -0.83002703350E+01  0.31924167956E+02 -0.10034979326E+03  0.13987062121E+03  0.91682401165E+02 0.  0.
        -24    2    1    2    0    0  0.10443719399E+03  0.55138246336E+02  0.16909297199E+03  0.22057426688E+03  0.78187085458E+02 0.  0.
         11    1    4    4    0    0  0.24223917049E+02  0.38225374291E+02  0.18054604070E+02  0.48723157995E+02  0.00000000000E+00 0. -1.
        -12    1    4    4    0    0  0.80213276945E+02  0.16912872046E+02  0.15103836792E+03  0.17185110888E+03  0.00000000000E+00 0.  1.
        -11    1    3    3    0    0 -0.29347142299E+02  0.46652059559E+02 -0.99997058984E+02  0.11418003866E+03  0.00000000000E+00 0. -1.
         11    1    3    3    0    0  0.21046871964E+02 -0.14727891603E+02 -0.35273427620E+00  0.25690582554E+02  0.00000000000E+00 0.  1.
         -1    1    1    2    0  502 -0.96136923658E+02 -0.87062414293E+02  0.26535989331E+03  0.29536087258E+03  0.00000000000E+00 0.  1.
<scales pt_clust_5="13000.00000" pt_clust_6="13000.00000" pt_clust_7="13000.00000" pt_clust_8="13000.00000" pt_clust_9="13000.00000"></scales>
<clustering>
<clus scale="   78.187">  5  6 -1 -1</clus>
<clus scale="   91.682">  7  8 -1 -1</clus>
<clus scale="   97.436">  2  7  1 -1</clus>
<clus scale="  124.542">  5  9 -1 -1</clus>
<clus scale="  278.280">  1  5  2 -1</clus>
</clustering>
</event>
<event>
 9    1  0.4516508E-005  0.1423529E+03  0.7546771E-02  0.1231334E+00
         21   -1    0    0  501  502  0.00000000000E+00  0.00000000000E+00  0.22929978334E+02  0.22929978334E+02  0.00000000000E+00 0. -1.
          3   -1    0    0  502    0 -0.00000000000E+00 -0.00000000000E+00 -0.77034636705E+03  0.77034636705E+03  0.00000000000E+00 0. -1.
         23    2    1    2    0    0 -0.81478673773E+01 -0.83962081333E+01 -0.49607786295E+03  0.50442445414E+03  0.90630567560E+02 0.  0.
        -24    2    1    2    0    0  0.31183887592E+02 -0.34777805783E+02 -0.16494966251E+03  0.18956599395E+03  0.80900829917E+02 0.  0.
         13    1    4    4    0    0  0.33312862793E+02  0.58707836549E+01 -0.20640961358E+02  0.39626534216E+02  0.00000000000E+00 0. -1.
        -14    1    4    4    0    0 -0.21289752000E+01 -0.40648589437E+02 -0.14430870115E+03  0.14993945974E+03  0.00000000000E+00 0.  1.
        -11    1    3    3    0    0 -0.36567071800E+02  0.27069237052E+02 -0.27287214308E+03  0.27663893580E+03  0.00000000000E+00 0.  1.
         11    1    3    3    0    0  0.28419204423E+02 -0.35465445185E+02 -0.22320571987E+03  0.22778551834E+03  0.00000000000E+00 0. -1.
          4    1    1    2  501    0 -0.23036020215E+02  0.43174013916E+02 -0.86388863259E+02  0.99285897287E+02  0.00000000000E+00 0. -1.
<scales pt_clust_5="13000.00000" pt_clust_6="13000.00000" pt_clust_7="13000.00000" pt_clust_8="13000.00000" pt_clust_9="13000.00000"></scales>
<clustering>
<clus scale="   80.901">  5  6 -1 -1</clus>
<clus scale="   48.935">  5  9 -1 -1</clus>
<clus scale="   90.631">  7  8 -1 -1</clus>
<clus scale="   91.383">  2  7  1 -1</clus>
<clus scale="  142.353">  1  5  2 -1</clus>
</clustering>
</event>
<event>
 9    1  0.4516508E-005  0.2249635E+03  0.7546771E-02  0.1159654E+00
          1   -1    0    0  502    0 -0.00000000000E+00  0.00000000000E+00  0.15939238218E+03  0.15939238218E+03  0.00000000000E+00 0. -1.
         21   -1    0    0  501  502  0.00000000000E+00 -0.00000000000E+00 -0.31916396093E+03  0.31916396093E+03  0.00000000000E+00 0. -1.
         23    2    1    2    0    0  0.53200976939E+02 -0.37631523494E+02  0.89455697900E+02  0.14281418269E+03  0.90261250734E+02 0.  0.
        -24    2    1    2    0    0  0.47234767933E+02  0.40861601480E+02 -0.51427969089E+02  0.11388108153E+03  0.80145311453E+02 0.  0.
         11    1    4    4    0    0 -0.36310434627E+00  0.50901403000E+02 -0.14870250373E+02  0.53030265116E+02  0.00000000000E+00 0. -1.
        -12    1    4    4    0    0  0.47597872280E+02 -0.10039801520E+02 -0.36557718715E+02  0.60850816410E+02  0.00000000000E+00 0.  1.
        -13    1    3    3    0    0  0.25154548508E+02 -0.74461770088E+01 -0.15214315681E+02  0.30326098733E+02  0.00000000000E+00 0.  1.
         13    1    3    3    0    0  0.28046428431E+02 -0.30185346485E+02  0.10467001358E+03  0.11248808396E+03  0.00000000000E+00 0. -1.
          2    1    1    2  501    0 -0.10043574487E+03 -0.32300779864E+01 -0.19779930756E+03  0.22186107889E+03  0.00000000000E+00 0. -1.
<scales pt_clust_5="13000.00000" pt_clust_6="13000.00000" pt_clust_7="13000.00000" pt_clust_8="13000.00000" pt_clust_9="13000.00000"></scales>
<clustering>
<clus scale="   80.145">  5  6 -1 -1</clus>
<clus scale="   90.261">  7  8 -1 -1</clus>
<clus scale="  100.488">  5  9 -1 -1</clus>
<clus scale="  111.326">  1  7  2 -1</clus>
<clus scale="  224.963">  2  5  1 -1</clus>
</clustering>
</event>
<event>
 9    1  0.4673042E-005  0.4468122E+03  0.7546771E-02  0.1078454E+00
         21   -1    0    0  501  502  0.00000000000E+00  0.00000000000E+00  0.28339276580E+03  0.28339276580E+03  0.00000000000E+00 0.  1.
         -2   -1    0    0    0  501 -0.00000000000E+00 -0.00000000000E+00 -0.38726120274E+03  0.38726120274E+03  0.00000000000E+00 0.  1.
         23    2    1    2    0    0 -0.34638658271E+02 -0.49122344304E+02 -0.18676073539E+03  0.21621775291E+03  0.90871904532E+02 0.  0.
        -24    2    1    2    0    0 -0.58498927340E+02  0.21251519569E+03 -0.27426029608E+02  0.23639501025E+03  0.80904764206E+02 0.  0.
         13    1    4    4    0    0 -0.11291661395E+02  0.21950047698E+02 -0.31509967056E+02  0.40027293624E+02  0.00000000000E+00 0. -1.
        -14    1    4    4    0    0 -0.47207265945E+02  0.19056514799E+03  0.40839374475E+01  0.19636771663E+03  0.00000000000E+00 0.  1.
        -11    1    3    3    0    0 -0.44651147229E+02 -0.14280830173E+02 -0.16987792164E+03  0.17622762360E+03  0.00000000000E+00 0. -1.
         11    1    3    3    0    0  0.10012488959E+02 -0.34841514131E+02 -0.16882813752E+02  0.39990129311E+02  0.00000000000E+00 0.  1.
         -1    1    1    2    0  502  0.93137585611E+02 -0.16339285139E+03  0.11031832806E+03  0.21804120538E+03  0.00000000000E+00 0.  1.
<scales pt_clust_5="13000.00000" pt_clust_6="13000.00000" pt_clust_7="13000.00000" pt_clust_8="13000.00000" pt_clust_9="13000.00000"></scales>
<clustering>
<clus scale="   80.905">  5  6 -1 -1</clus>
<clus scale="   90.872">  7  8 -1 -1</clus>
<clus scale="  108.952">  2  7  1 -1</clus>
<clus scale="  196.110">  5  9 -1 -1</clus>
<clus scale="  446.812">  1  5  2 -1</clus>
</clustering>
</event>
<event>
 9    1  0.4516508E-005  0.3310266E+03  0.7546771E-02  0.1114231E+00
          1   -1    0    0  502    0 -0.00000000000E+00  0.00000000000E+00  0.21956298562E+03  0.21956298562E+03  0.00000000000E+00 0. -1.
         21   -1    0    0  501  502  0.00000000000E+00 -0.00000000000E+00 -0.23233551167E+03  0.23233551167E+03  0.00000000000E+00 0.  1.
         23    2    1    2    0    0  0.14163745512E+02  0.50432058613E+02 -0.54120308864E+02  0.11829958180E+03  0.91223785276E+02 0.  0.
        -24    2    1    2    0    0  0.32170191871E+02 -0.49579341593E+01  0.16879636105E+03  0.19056790541E+03  0.82246049815E+02 0.  0.
         13    1    4    4    0    0 -0.44794839088E+01 -0.37168255402E+02  0.94888901837E+02  0.10200710111E+03  0.00000000000E+00 0. -1.
        -14    1    4    4    0    0  0.36649675779E+02  0.32210321243E+02  0.73907459217E+02  0.88560804294E+02  0.00000000000E+00 0.  1.
        -11    1    3    3    0    0  0.23525042962E+02 -0.53313934675E+01 -0.56782046135E+02  0.61693210048E+02  0.00000000000E+00 0.  1.
         11    1    3    3    0    0 -0.93612974502E+01  0.55763452080E+02  0.26617372710E+01  0.56606371754E+02  0.00000000000E+00 0. -1.
          2    1    1    2  501    0 -0.46333937383E+02 -0.45474124453E+02 -0.12744857824E+03  0.14303101008E+03  0.00000000000E+00 0. -1.
<scales pt_clust_5="13000.00000" pt_clust_6="13000.00000" pt_clust_7="13000.00000" pt_clust_8="13000.00000" pt_clust_9="13000.00000"></scales>
<clustering>
<clus scale="   82.246">  5  6 -1 -1</clus>
<clus scale="   64.921">  5  9 -1 -1</clus>
<clus scale="   91.224">  7  8 -1 -1</clus>
<clus scale="  105.194">  1  7  2 -1</clus>
<clus scale="  331.027">  2  5  1 -1</clus>
</clustering>
</event>
<event>
 9    1  0.4516508E-005  0.3731266E+03  0.7546771E-02  0.1059866E+00
         21   -1    0    0  501  502  0.00000000000E+00  0.00000000000E+00  0.28267776042E+03  0.28267776042E+03  0.00000000000E+00 0. -1.
          1   -1    0    0  502    0 -0.00000000000E+00 -0.00000000000E+00 -0.55858341787E+03  0.55858341787E+03  0.00000000000E+00 0. -1.
         23    2    1    2    0    0  0.10632047091E+03 -0.27895220931E+03 -0.34139464122E+03  0.46243103773E+03  0.90408992889E+02 0.  0.
        -24    2    1    2    0    0 -0.82507959153E+02  0.12966597664E+03 -0.58775984613E+02  0.18313855325E+03  0.80400774227E+02 0.  0.
         11    1    4    4    0    0 -0.84336254007E+02  0.76969713658E+02 -0.16109358799E+02  0.11531024240E+03  0.00000000000E+00 0. -1.
        -12    1    4    4    0    0  0.18282948546E+01  0.52696262987E+02 -0.42666625814E+02  0.67828310853E+02  0.00000000000E+00 0.  1.
        -11    1    3    3    0    0  0.12010882638E+03 -0.24334301945E+03 -0.31620082890E+03  0.41668323638E+03  0.00000000000E+00 0. -1.
         11    1    3    3    0    0 -0.13788355472E+02 -0.35609189860E+02 -0.25193812322E+02  0.45747801351E+02  0.00000000000E+00 0.  1.
          2    1    1    2  501    0 -0.23812511753E+02  0.14928623266E+03  0.12426496838E+03  0.19569158731E+03  0.00000000000E+00 0. -1.
<scales pt_clust_5="13000.00000" pt_clust_6="13000.00000" pt_clust_7="13000.00000" pt_clust_8="13000.00000" pt_clust_9="13000.00000"></scales>
<clustering>
<clus scale="   80.401">  5  6 -1 -1</clus>
<clus scale="   90.409">  7  8 -1 -1</clus>
<clus scale="  151.174">  5  9 -1 -1</clus>
<clus scale="  311.917">  2  7  1 -1</clus>
<clus scale="  373.127">  1  5  2 -1</clus>
</clustering>
</event>
<event>
 9    1  0.4516508E-005  0.1335209E+03  0.7546771E-02  0.1236908E+00
         21   -1    0    0  501  502  0.00000000000E+00  0.00000000000E+00  0.53171026000E+02  0.53171026000E+02  0.00000000000E+00 0.  1.
         -4   -1    0    0    0  501 -0.00000000000E+00 -0.00000000000E+00 -0.47772325095E+03  0.47772325095E+03  0.00000000000E+00 0.  1.
         23    2    1    2    0    0  0.85067174007E+01 -0.38810504935E+02 -0.37609790772E+03  0.38885328982E+03  0.90435752226E+02 0.  0.
        -24    2    1    2    0    0 -0.31552491884E+02  0.58241681781E+02 -0.34668426551E+02  0.10889390374E+03  0.79172780876E+02 0.  0.
         11    1    4    4    0    0 -0.32610889791E+02  0.22692808843E+01 -0.41131451650E+02  0.52539662004E+02  0.00000000000E+00 0. -1.
        -12    1    4    4    0    0  0.10583979075E+01  0.55972400897E+02  0.64630250989E+01  0.56354241737E+02  0.00000000000E+00 0.  1.
        -11    1    3    3    0    0  0.12663571615E+02 -0.65395710374E+02 -0.31692756275E+03  0.32385188746E+03  0.00000000000E+00 0.  1.
         11    1    3    3    0    0 -0.41568542144E+01  0.26585205439E+02 -0.59170344968E+02  0.65001402360E+02  0.00000000000E+00 0. -1.
         -3    1    1    2    0  502  0.23045774483E+02 -0.19431176846E+02 -0.13785890679E+02  0.33147083385E+02  0.00000000000E+00 0.  1.
<scales pt_clust_5="13000.00000" pt_clust_6="13000.00000" pt_clust_7="13000.00000" pt_clust_8="13000.00000" pt_clust_9="13000.00000"></scales>
<clustering>
<clus scale="   79.173">  5  6 -1 -1</clus>
<clus scale="   30.144">  5  9 -1 -1</clus>
<clus scale="   90.436">  7  8 -1 -1</clus>
<clus scale="   98.779">  2  7  1 -1</clus>
<clus scale="  133.521">  1  5  2 -1</clus>
</clustering>
</event>
<event>
 9    1  0.4516508E-005  0.1493677E+03  0.7546771E-02  0.1219210E+00
         21   -1    0    0  501  502  0.00000000000E+00  0.00000000000E+00  0.77885708091E+02  0.77885708091E+02  0.00000000000E+00 0.  1.
          1   -1    0    0  502    0 -0.00000000000E+00 -0.00000000000E+00 -0.35361436104E+03  0.35361436104E+03  0.00000000000E+00 0. -1.
         23    2    1    2    0    0  0.28653806236E+02  0.22984860502E+02 -0.26249643754E+03  0.28154739709E+03  0.94948473729E+02 0.  0.
        -24    2    1    2    0    0  0.25666367903E+02  0.28268988788E+01 -0.20444427136E+02  0.89380861442E+02  0.83091575942E+02 0.  0.
         11    1    4    4    0    0  0.20551478745E+02  0.40041197858E+02 -0.25093608639E+02  0.51530088289E+02  0.00000000000E+00 0. -1.
        -12    1    4    4    0    0  0.51148891579E+01 -0.37214298979E+02  0.46491815028E+01  0.37850773153E+02  0.00000000000E+00 0.  1.
        -11    1    3    3    0    0 -0.13719400002E+02  0.49750781424E+02 -0.12759385487E+03  0.13763558402E+03  0.00000000000E+00 0. -1.
         11    1    3    3    0    0  0.42373206238E+02 -0.26765920921E+02 -0.13490258267E+03  0.14391181307E+03  0.00000000000E+00 0.  1.
          2    1    1    2  501    0 -0.54320174139E+02 -0.25811759381E+02  0.72122117300E+01  0.60571810596E+02  0.00000000000E+00 0. -1.
<scales pt_clust_5="13000.00000" pt_clust_6="13000.00000" pt_clust_7="13000.00000" pt_clust_8="13000.00000" pt_clust_9="13000.00000"></scales>
<clustering>
<clus scale="   83.092">  5  6 -1 -1</clus>
<clus scale="   60.141">  5  9 -1 -1</clus>
<clus scale="   94.948">  7  8 -1 -1</clus>
<clus scale="  101.806">  2  7  1 -1</clus>
<clus scale="  149.368">  1  5  2 -1</clus>
</clustering>
</event>
<event>
 9    1  0.4516508E-005  0.1664040E+03  0.7546771E-02  0.1198230E+00
         21   -1    0    0  501  502  0.00000000000E+00  0.00000000000E+00  0.20481033131E+03  0.20481033131E+03  0.00000000000E+00 0. -1.
          1   -1    0    0  502    0 -0.00000000000E+00 -0.00000000000E+00 -0.98968171626E+02  0.98968171626E+02  0.00000000000E+00 0. -1.
         23    2    1    2    0    0 -0.41852680345E+02 -0.62427855522E+02  0.21968256065E+02  0.11743171980E+03  0.87514116254E+02 0.  0.
        -24    2    1    2    0    0 -0.10170245231E+02  0.79821427566E+02  0.64218670001E+02  0.12807801498E+03  0.76190853505E+02 0.  0.
         13    1    4    4    0    0 -0.16940980057E+02  0.92604742739E+02  0.63575802350E+02  0.11359805380E+03  0.00000000000E+00 0. -1.
        -14    1    4    4    0    0  0.67707348258E+01 -0.12783315174E+02  0.64286765097E+00  0.14479961178E+02  0.00000000000E+00 0.  1.
        -11    1    3    3    0    0 -0.49228783650E+02 -0.67564235331E+01 -0.12889738226E+02  0.51334859015E+02  0.00000000000E+00 0.  1.
         11    1    3    3    0    0  0.73761033048E+01 -0.55671431989E+02  0.34857994291E+02  0.66096860785E+02  0.00000000000E+00 0. -1.
          2    1    1    2  501    0  0.52022925576E+02 -0.17393572044E+02  0.19655233620E+02  0.58268768157E+02  0.00000000000E+00 0. -1.
<scales pt_clust_5="13000.00000" pt_clust_6="13000.00000" pt_clust_7="13000.00000" pt_clust_8="13000.00000" pt_clust_9="13000.00000"></scales>
<clustering>
<clus scale="   76.191">  5  6 -1 -1</clus>
<clus scale="   54.854">  5  9 -1 -1</clus>
<clus scale="   87.514">  7  8 -1 -1</clus>
<clus scale="  115.359">  2  7  1 -1</clus>
<clus scale="  166.404">  1  5  2 -1</clus>
</clustering>
</event>
<event>
 9    1  0.4516508E-005  0.1462937E+03  0.7546771E-02  0.1213930E+00
          1   -1    0    0  502    0 -0.00000000000E+00  0.00000000000E+00  0.11583456647E+03  0.11583456647E+03  0.00000000000E+00 0. -1.
         21   -1    0    0  501  502  0.00000000000E+00 -0.00000000000E+00 -0.20313764358E+03  0.20313764358E+03  0.00000000000E+00 0. -1.
         23    2    1    2    0    0  0.67758814828E+02 -0.40552393270E+02  0.37354865113E+02  0.12677061176E+03  0.91867559404E+02 0.  0.
        -24    2    1    2    0    0 -0.27795324871E+02 -0.63825756766E+01 -0.69682132133E+02  0.10960431302E+03  0.79650414545E+02 0.  0.
         13    1    4    4    0    0 -0.29619359822E+02  0.15691857164E+02 -0.78814256769E+02  0.85645945191E+02  0.00000000000E+00 0. -1.
        -14    1    4    4    0    0  0.18240349506E+01 -0.22074432840E+02  0.91321246362E+01  0.23958367830E+02  0.00000000000E+00 0.  1.
        -13    1    3    3    0    0  0.33256781766E+02 -0.60273595093E+02  0.49983008701E+02  0.85071857612E+02  0.00000000000E+00 0. -1.
         13    1    3    3    0    0  0.34502033062E+02  0.19721201823E+02 -0.12628143587E+02  0.41698754145E+02  0.00000000000E+00 0.  1.
          2    1    1    2  501    0 -0.39963489957E+02  0.46934968946E+02 -0.54975810095E+02  0.82597285277E+02  0.00000000000E+00 0. -1.
<scales pt_clust_5="13000.00000" pt_clust_6="13000.00000" pt_clust_7="13000.00000" pt_clust_8="13000.00000" pt_clust_9="13000.00000"></scales>
<clustering>
<clus scale="   79.650">  5  6 -1 -1</clus>
<clus scale="   61.644">  5  9 -1 -1</clus>
<clus scale="   91.868">  7  8 -1 -1</clus>
<clus scale="  121.142">  1  7  2 -1</clus>
<clus scale="  146.294">  2  5  1 -1</clus>
</clustering>
</event>
<event>
 9    1  0.4516508E-005  0.1836909E+03  0.7546771E-02  0.1187779E+00
         -4   -1    0    0    0  501 -0.00000000000E+00  0.00000000000E+00  0.62638076688E+03  0.62638076688E+03  0.00000000000E+00 0.  1.
         21   -1    0    0  501  502  0.00000000000E+00 -0.00000000000E+00 -0.34448907476E+02  0.34448907476E+02  0.00000000000E+00 0.  1.
         23    2    1    2    0    0  0.37975794266E+02  0.45082554153E+02  0.25910501114E+03  0.28067699267E+03  0.90385672421E+02 0.  0.
        -24    2    1    2    0    0  0.35274585972E+02 -0.57977403391E+02  0.21750703051E+03  0.24292820971E+03  0.84256341193E+02 0.  0.
         13    1    4    4    0    0  0.17539131066E+02 -0.69448285939E+02  0.96980509597E+02  0.12056494010E+03  0.00000000000E+00 0. -1.
        -14    1    4    4    0    0  0.17735454906E+02  0.11470882548E+02  0.12052652091E+03  0.12236326961E+03  0.00000000000E+00 0.  1.
        -11    1    3    3    0    0  0.20129809790E+02 -0.15011465857E+02  0.16364400495E+02  0.29972436553E+02  0.00000000000E+00 0.  1.
         11    1    3    3    0    0  0.17845984475E+02  0.60094020010E+02  0.24274061064E+03  0.25070455612E+03  0.00000000000E+00 0. -1.
         -3    1    1    2    0  502 -0.73250380238E+02  0.12894849238E+02  0.11531981776E+03  0.13722447198E+03  0.00000000000E+00 0.  1.
<scales pt_clust_5="13000.00000" pt_clust_6="13000.00000" pt_clust_7="13000.00000" pt_clust_8="13000.00000" pt_clust_9="13000.00000"></scales>
<clustering>
<clus scale="   84.256">  5  6 -1 -1</clus>
<clus scale="   74.377">  5  9 -1 -1</clus>
<clus scale="   90.386">  7  8 -1 -1</clus>
<clus scale="  107.908">  1  7  2 -1</clus>
<clus scale="  183.691">  2  5  1 -1</clus>
</clustering>
</event>
<event>
 9    1  0.4516508E-005  0.4888344E+03  0.7546771E-02  0.1061159E+00
         21   -1    0    0  501  502  0.00000000000E+00  0.00000000000E+00  0.25413891709E+03  0.25413891709E+03  0.00000000000E+00 0. -1.
          1   -1    0    0  502    0 -0.00000000000E+00 -0.00000000000E+00 -0.38774226663E+03  0.38774226663E+03  0.00000000000E+00 0. -1.
         23    2    1    2    0    0 -0.26331406650E+02 -0.92186831126E+02  0.46571939409E+01  0.13387027558E+03  0.93315627942E+02 0.  0.
        -24    2    1    2    0    0  0.27683374733E+02  0.25859425569E+03 -0.19199481472E+03  0.33313772360E+03  0.80506991594E+02 0.  0.
         13    1    4    4    0    0  0.38329302217E+02  0.22787353338E+03 -0.13527163178E+03  0.26775716048E+03  0.00000000000E+00 0. -1.
        -14    1    4    4    0    0 -0.10645927484E+02  0.30720722302E+02 -0.56723182938E+02  0.65380563116E+02  0.00000000000E+00 0.  1.
        -13    1    3    3    0    0  0.15307870164E+02 -0.41808305566E+02 -0.35689043426E+02  0.57061134969E+02  0.00000000000E+00 0. -1.
         13    1    3    3    0    0 -0.41639276813E+02 -0.50378525560E+02  0.40346237367E+02  0.76809140607E+02  0.00000000000E+00 0.  1.
          2    1    1    2  501    0 -0.13519680832E+01 -0.16640742456E+03  0.53734271249E+02  0.17487318454E+03  0.00000000000E+00 0. -1.
<scales pt_clust_5="13000.00000" pt_clust_6="13000.00000" pt_clust_7="13000.00000" pt_clust_8="13000.00000" pt_clust_9="13000.00000"></scales>
<clustering>
<clus scale="   80.507">  5  6 -1 -1</clus>
<clus scale="   93.316">  7  8 -1 -1</clus>
<clus scale="  133.789">  2  7  1 -1</clus>
<clus scale="  183.795">  5  9 -1 -1</clus>
<clus scale="  488.834">  1  5  2 -1</clus>
</clustering>
</event>
<event>
 9    1  0.4516508E-005  0.1879131E+03  0.7546771E-02  0.1179877E+00
          3   -1    0    0  502    0 -0.00000000000E+00  0.00000000000E+00  0.32395116891E+02  0.32395116891E+02  0.00000000000E+00 0. -1.
         21   -1    0    0  501  502  0.00000000000E+00 -0.00000000000E+00 -0.81802746492E+03  0.81802746492E+03  0.00000000000E+00 0. -1.
         23    2    1    2    0    0  0.38934558246E+02  0.69498280173E+02 -0.18133543864E+03  0.21758288529E+03  0.90076966488E+02 0.  0.
        -24    2    1    2    0    0 -0.12312714493E+02 -0.10891962895E+03 -0.50799201278E+03  0.52542741410E+03  0.77478990263E+02 0.  0.
         11    1    4    4    0    0 -0.20504937773E+02 -0.73169764372E+02 -0.45298498679E+03  0.45931434242E+03  0.00000000000E+00 0. -1.
        -12    1    4    4    0    0  0.81922232805E+01 -0.35749864573E+02 -0.55007025986E+02  0.66113071681E+02  0.00000000000E+00 0.  1.
        -11    1    3    3    0    0  0.30940360285E+02  0.39155150986E+02 -0.17932564233E+03  0.18614004873E+03  0.00000000000E+00 0.  1.
         11    1    3    3    0    0  0.79941979609E+01  0.30343129187E+02 -0.20097963108E+01  0.31442836563E+02  0.00000000000E+00 0. -1.
          4    1    1    2  501    0 -0.26621843753E+02  0.39421348772E+02 -0.96304896612E+02  0.10741228242E+03  0.00000000000E+00 0. -1.
<scales pt_clust_5="13000.00000" pt_clust_6="13000.00000" pt_clust_7="13000.00000" pt_clust_8="13000.00000" pt_clust_9="13000.00000"></scales>
<clustering>
<clus scale="   77.479">  5  6 -1 -1</clus>
<clus scale="   47.569">  5  9 -1 -1</clus>
<clus scale="   90.077">  7  8 -1 -1</clus>
<clus scale="  120.249">  1  7  2 -1</clus>
<clus scale="  187.913">  2  5  1 -1</clus>
</clustering>
</event>
<event>
 9    1  0.4516508E-005  0.5863646E+03  0.7546771E-02  0.1024591E+00
         -2   -1    0    0    0  501 -0.00000000000E+00  0.00000000000E+00  0.62716740391E+03  0.62716740391E+03  0.00000000000E+00 0.  1.
         21   -1    0    0  501  502  0.00000000000E+00 -0.00000000000E+00 -0.26414586416E+03  0.26414586416E+03  0.00000000000E+00 0.  1.
         23    2    1    2    0    0  0.18581229303E+03  0.83952084212E+02  0.14200507336E+03  0.26467801559E+03  0.91185801486E+02 0.  0.
        -24    2    1    2    0    0  0.23811516807E+02  0.15050600339E+03  0.25789391006E+03  0.30997663133E+03  0.79732037089E+02 0.  0.
         13    1    4    4    0    0  0.23420911820E+02  0.54750811317E+02  0.16950950003E+03  0.17966541418E+03  0.00000000000E+00 0. -1.
        -14    1    4    4    0    0  0.39060498663E+00  0.95755192069E+02  0.88384410025E+02  0.13031121715E+03  0.00000000000E+00 0.  1.
        -11    1    3    3    0    0  0.80038804497E+02  0.24265812840E+02  0.11162968746E+03  0.13948557997E+03  0.00000000000E+00 0.  1.
         11    1    3    3    0    0  0.10577348854E+03  0.59686271372E+02  0.30375385895E+02  0.12519243562E+03  0.00000000000E+00 0. -1.
         -1    1    1    2    0  502 -0.20962380984E+03 -0.23445808760E+03 -0.36877443663E+02  0.31665862114E+03  0.00000000000E+00 0.  1.
<scales pt_clust_5="13000.00000" pt_clust_6="13000.00000" pt_clust_7="13000.00000" pt_clust_8="13000.00000" pt_clust_9="13000.00000"></scales>
<clustering>
<clus scale="   79.732">  5  6 -1 -1</clus>
<clus scale="   91.186">  7  8 -1 -1</clus>
<clus scale="  223.358">  1  7  2 -1</clus>
<clus scale="  254.432">  5  9 -1 -1</clus>
<clus scale="  586.365">  2  5  1 -1</clus>
</clustering>
</event>
<event>
 9    1  0.4516508E-005  0.1993819E+03  0.7546771E-02  0.1181244E+00
         21   -1    0    0  501  502  0.00000000000E+00  0.00000000000E+00  0.34272076708E+02  0.34272076708E+02  0.00000000000E+00 0. -1.
          1   -1    0    0  502    0 -0.00000000000E+00 -0.00000000000E+00 -0.75324679602E+03  0.75324679602E+03  0.00000000000E+00 0. -1.
         23    2    1    2    0    0  0.28638025182E+02  0.13027074471E+02 -0.11168729576E+03  0.14833880600E+03  0.92414869896E+02 0.  0.
        -24    2    1    2    0    0 -0.77081066532E+02  0.46093490309E+02 -0.42287005571E+03  0.43955107335E+03  0.79498184845E+02 0.  0.
         13    1    4    4    0    0 -0.84374811498E+02  0.57061177833E+02 -0.31945865275E+03  0.33530421656E+03  0.00000000000E+00 0. -1.
        -14    1    4    4    0    0  0.72937449665E+01 -0.10967687523E+02 -0.10341140297E+03  0.10424685678E+03  0.00000000000E+00 0.  1.
        -11    1    3    3    0    0  0.47473307919E+02 -0.24897783652E+02 -0.75755558609E+02  0.92803659710E+02  0.00000000000E+00 0. -1.
         11    1    3    3    0    0 -0.18835282737E+02  0.37924858123E+02 -0.35931737147E+02  0.55535146293E+02  0.00000000000E+00 0.  1.
          2    1    1    2  501    0  0.48443041350E+02 -0.59120564780E+02 -0.18441736785E+03  0.19962899338E+03  0.00000000000E+00 0. -1.
<scales pt_clust_5="13000.00000" pt_clust_6="13000.00000" pt_clust_7="13000.00000" pt_clust_8="13000.00000" pt_clust_9="13000.00000"></scales>
<clustering>
<clus scale="   79.498">  5  6 -1 -1</clus>
<clus scale="   76.433">  5  9 -1 -1</clus>
<clus scale="   92.415">  7  8 -1 -1</clus>
<clus scale="   97.624">  2  7  1 -1</clus>
<clus scale="  199.382">  1  5  2 -1</clus>
</clustering>
</event>
<event>
 9    1  0.4516508E-005  0.5162817E+03  0.7546771E-02  0.1042150E+00
          1   -1    0    0  502    0 -0.00000000000E+00  0.00000000000E+00  0.30808797366E+03  0.30808797366E+03  0.00000000000E+00 0. -1.
         21   -1    0    0  501  502  0.00000000000E+00 -0.00000000000E+00 -0.41830219042E+03  0.41830219042E+03  0.00000000000E+00 0. -1.
         23    2    1    2    0    0  0.11225891437E+03 -0.12860554472E+03  0.13561612168E+02  0.19547842412E+03  0.94267953114E+02 0.  0.
        -24    2    1    2    0    0 -0.22217677946E+03 -0.99095357213E+02 -0.19319775471E+02  0.25734144752E+03  0.81663674494E+02 0.  0.
         13    1    4    4    0    0 -0.11908035546E+03 -0.95022056129E+02  0.13668758487E+00  0.15234612201E+03  0.00000000000E+00 0. -1.
        -14    1    4    4    0    0 -0.10309642400E+03 -0.40733010840E+01 -0.19456463055E+02  0.10499532551E+03  0.00000000000E+00 0.  1.
        -11    1    3    3    0    0  0.32422310835E+02 -0.75123363221E+02 -0.33578905708E+02  0.88443591346E+02  0.00000000000E+00 0. -1.
         11    1    3    3    0    0  0.79836603534E+02 -0.53482181498E+02  0.47140517876E+02  0.10703483277E+03  0.00000000000E+00 0.  1.
          2    1    1    2  501    0  0.10991786509E+03  0.22770090193E+03 -0.10445605345E+03  0.27357029245E+03  0.00000000000E+00 0. -1.
<scales pt_clust_5="13000.00000" pt_clust_6="13000.00000" pt_clust_7="13000.00000" pt_clust_8="13000.00000" pt_clust_9="13000.00000"></scales>
<clustering>
<clus scale="   81.664">  5  6 -1 -1</clus>
<clus scale="   94.268">  7  8 -1 -1</clus>
<clus scale="  195.007">  1  7  2 -1</clus>
<clus scale="  234.267">  5  9 -1 -1</clus>
<clus scale="  516.282">  2  5  1 -1</clus>
</clustering>
</event>
<event>
 9    1  0.4516508E-005  0.2336126E+03  0.7546771E-02  0.1141266E+00
         21   -1    0    0  501  502  0.00000000000E+00  0.00000000000E+00  0.95518758545E+02  0.95518758545E+02  0.00000000000E+00 0. -1.
          1   -1    0    0  502    0 -0.00000000000E+00 -0.00000000000E+00 -0.39451337892E+03  0.39451337892E+03  0.00000000000E+00 0. -1.
         23    2    1    2    0    0  0.33183297800E+02 -0.11884070676E+03 -0.13585064100E+03  0.20509214859E+03  0.91559532097E+02 0.  0.
        -24    2    1    2    0    0 -0.10014657566E+03  0.60755964462E+02 -0.12103694772E+03  0.18680273813E+03  0.80775592997E+02 0.  0.
         11    1    4    4    0    0 -0.74947670411E+02  0.38392721210E+02 -0.29441257279E+02  0.89207297751E+02  0.00000000000E+00 0. -1.
        -12    1    4    4    0    0 -0.25198905248E+02  0.22363243252E+02 -0.91595690442E+02  0.97595440375E+02  0.00000000000E+00 0.  1.
        -11    1    3    3    0    0 -0.86474801343E+01 -0.11068410390E+03 -0.99039916283E+02  0.14877719847E+03  0.00000000000E+00 0. -1.
         11    1    3    3    0    0  0.41830777934E+02 -0.81566028657E+01 -0.36810724713E+02  0.56314950118E+02  0.00000000000E+00 0.  1.
          2    1    1    2  501    0  0.66963277859E+02  0.58084742299E+02 -0.42107031661E+02  0.98137250750E+02  0.00000000000E+00 0. -1.
<scales pt_clust_5="13000.00000" pt_clust_6="13000.00000" pt_clust_7="13000.00000" pt_clust_8="13000.00000" pt_clust_9="13000.00000"></scales>
<clustering>
<clus scale="   80.776">  5  6 -1 -1</clus>
<clus scale="   88.645">  5  9 -1 -1</clus>
<clus scale="   91.560">  7  8 -1 -1</clus>
<clus scale="  153.647">  2  7  1 -1</clus>
<clus scale="  233.613">  1  5  2 -1</clus>
</clustering>
</event>
<event>
 9    1  0.4516508E-005  0.5670221E+03  0.7546771E-02  0.1040782E+00
          1   -1    0    0  502    0 -0.00000000000E+00  0.00000000000E+00  0.80080786858E+03  0.80080786858E+03  0.00000000000E+00 0. -1.
         21   -1    0    0  501  502  0.00000000000E+00 -0.00000000000E+00 -0.22400666392E+03  0.22400666392E+03  0.00000000000E+00 0. -1.
         23    2    1    2    0    0 -0.77972669463E+02 -0.95486982167E+02  0.40398109617E+03  0.43204071347E+03  0.90889774397E+02 0.  0.
        -24    2    1    2    0    0 -0.16817655874E+03  0.71912615023E+02  0.26234318923E+03  0.32979173729E+03  0.80522431303E+02 0.  0.
         13    1    4    4    0    0 -0.68044133488E+02 -0.71625123494E+00  0.51493905371E+02  0.85335452236E+02  0.00000000000E+00 0. -1.
        -14    1    4    4    0    0 -0.10013242525E+03  0.72628866258E+02  0.21084928386E+03  0.24445628506E+03  0.00000000000E+00 0.  1.
        -11    1    3    3    0    0 -0.80129804023E+02 -0.35458598475E+02  0.29331608755E+03  0.30612485184E+03  0.00000000000E+00 0.  1.
         11    1    3    3    0    0  0.21571345596E+01 -0.60028383692E+02  0.11066500862E+03  0.12591586163E+03  0.00000000000E+00 0. -1.
          2    1    1    2  501    0  0.24614922820E+03  0.23574367145E+02 -0.89523080735E+02  0.26298208174E+03  0.00000000000E+00 0. -1.
<scales pt_clust_5="13000.00000" pt_clust_6="13000.00000" pt_clust_7="13000.00000" pt_clust_8="13000.00000" pt_clust_9="13000.00000"></scales>
<clustering>
<clus scale="   80.522">  5  6 -1 -1</clus>
<clus scale="   90.890">  7  8 -1 -1</clus>
<clus scale="  153.162">  1  7  2 -1</clus>
<clus scale="  228.491">  5  9 -1 -1</clus>
<clus scale="  567.022">  2  5  1 -1</clus>
</clustering>
</event>
<event>
 9    1  0.4516508E-005  0.1251094E+03  0.7546771E-02  0.1243285E+00
         21   -1    0    0  501  502  0.00000000000E+00  0.00000000000E+00  0.40833431782E+02  0.40833431782E+02  0.00000000000E+00 0. -1.
          1   -1    0    0  502    0 -0.00000000000E+00 -0.00000000000E+00 -0.43344852211E+03  0.43344852211E+03  0.00000000000E+00 0. -1.
         23    2    1    2    0    0  0.54218521176E+02  0.30605111327E+00 -0.65774615143E+02  0.12431471803E+03  0.90488161751E+02 0.  0.
        -24    2    1    2    0    0 -0.25814504618E+02 -0.85304516848E+01 -0.16882198058E+03  0.18920569332E+03  0.80986270464E+02 0.  0.
         13    1    4    4    0    0 -0.42895687009E+02  0.15900092967E+02 -0.54971143298E+02  0.71516987603E+02  0.00000000000E+00 0. -1.
        -14    1    4    4    0    0  0.17081182391E+02 -0.24430544651E+02 -0.11385083728E+03  0.11768870572E+03  0.00000000000E+00 0.  1.
        -13    1    3    3    0    0  0.66750356591E+02 -0.23249877298E+02 -0.67287556604E+02  0.97589867164E+02  0.00000000000E+00 0.  1.
         13    1    3    3    0    0 -0.12531835415E+02  0.23555928411E+02  0.15129414606E+01  0.26724850870E+02  0.00000000000E+00 0. -1.
          2    1    1    2  501    0 -0.28404016558E+02  0.82244005715E+01 -0.15801849461E+03  0.16076154254E+03  0.00000000000E+00 0. -1.
<scales pt_clust_5="13000.00000" pt_clust_6="13000.00000" pt_clust_7="13000.00000" pt_clust_8="13000.00000" pt_clust_9="13000.00000"></scales>
<clustering>
<clus scale="   80.986">  5  6 -1 -1</clus>
<clus scale="   29.571">  5  9 -1 -1</clus>
<clus scale="   90.488">  7  8 -1 -1</clus>
<clus scale="  105.489">  2  7  1 -1</clus>
<clus scale="  125.109">  1  5  2 -1</clus>
</clustering>
</event>
<event>
 9    1  0.4516508E-005  0.4835167E+03  0.7546771E-02  0.1032393E+00
          1   -1    0    0  502    0 -0.00000000000E+00  0.00000000000E+00  0.15618083463E+04  0.15618083463E+04  0.00000000000E+00 0. -1.
         21   -1    0    0  501  502  0.00000000000E+00 -0.00000000000E+00 -0.25395180163E+03  0.25395180163E+03  0.00000000000E+00 0. -1.
         23    2    1    2    0    0 -0.24205906493E+03 -0.17795242207E+03  0.12940677966E+04  0.13320468406E+04  0.97353314889E+02 0.  0.
        -24    2    1    2    0    0 -0.36790510369E+02 -0.66142725158E+02  0.23717181181E+02  0.11298685790E+03  0.80468152896E+02 0.  0.
         11    1    4    4    0    0 -0.37877136072E+02 -0.21224876998E+01 -0.11847252923E+02  0.39743424524E+02  0.00000000000E+00 0. -1.
        -12    1    4    4    0    0  0.10866257026E+01 -0.64020237459E+02  0.35564434104E+02  0.73243433377E+02  0.00000000000E+00 0.  1.
        -11    1    3    3    0    0 -0.19351323995E+03 -0.85905459795E+02  0.87529057947E+03  0.90053357548E+03  0.00000000000E+00 0.  1.
         11    1    3    3    0    0 -0.48545824979E+02 -0.92046962272E+02  0.41877721709E+03  0.43151326508E+03  0.00000000000E+00 0. -1.
          2    1    1    2  501    0  0.27884957530E+03  0.24409514723E+03 -0.99284330794E+01  0.37072644946E+03  0.00000000000E+00 0. -1.
<scales pt_clust_5="13000.00000" pt_clust_6="13000.00000" pt_clust_7="13000.00000" pt_clust_8="13000.00000" pt_clust_9="13000.00000"></scales>
<clustering>
<clus scale="   80.468">  5  6 -1 -1</clus>
<clus scale="   97.353">  7  8 -1 -1</clus>
<clus scale="  315.812">  1  7  2 -1</clus>
<clus scale="  154.616">  5  9 -1 -1</clus>
<clus scale="  483.517">  2  5  1 -1</clus>
</clustering>
</event>
<event>
 9    1  0.4516508E-005  0.1892371E+03  0.7546771E-02  0.1187513E+00
         21   -1    0    0  501  502  0.00000000000E+00  0.00000000000E+00  0.98776657581E+02  0.98776657581E+02  0.00000000000E+00 0. -1.
          1   -1    0    0  502    0 -0.00000000000E+00 -0.00000000000E+00 -0.30629145764E+03  0.30629145764E+03  0.00000000000E+00 0. -1.
         23    2    1    2    0    0 -0.53373622194E+01  0.53294888468E+02 -0.19081309129E+03  0.21509545043E+03  0.83591772407E+02 0.  0.
        -24    2    1    2    0    0 -0.71185977190E+02 -0.29228630328E+02 -0.25219358327E+02  0.10930323682E+03  0.73412705757E+02 0.  0.
         13    1    4    4    0    0 -0.63406829613E+02 -0.18157963109E+02  0.14337814121E+02  0.67496004176E+02  0.00000000000E+00 0. -1.
        -14    1    4    4    0    0 -0.77791475770E+01 -0.11070667219E+02 -0.39557172448E+02  0.41807232649E+02  0.00000000000E+00 0.  1.
        -11    1    3    3    0    0  0.91113461119E+01  0.20232011357E+02 -0.13531069916E+01  0.22230200405E+02  0.00000000000E+00 0.  1.
         11    1    3    3    0    0 -0.14448708331E+02  0.33062877111E+02 -0.18945998430E+03  0.19286525002E+03  0.00000000000E+00 0. -1.
          2    1    1    2  501    0  0.76523339410E+02 -0.24066258140E+02  0.85176495567E+01  0.80669427972E+02  0.00000000000E+00 0. -1.
<scales pt_clust_5="13000.00000" pt_clust_6="13000.00000" pt_clust_7="13000.00000" pt_clust_8="13000.00000" pt_clust_9="13000.00000"></scales>
<clustering>
<clus scale="   73.413">  5  6 -1 -1</clus>
<clus scale="   80.219">  5  9 -1 -1</clus>
<clus scale="   83.592">  7  8 -1 -1</clus>
<clus scale="   99.279">  2  7  1 -1</clus>
<clus scale="  189.237">  1  5  2 -1</clus>
</clustering>
</event>
<event>
 9    1  0.4516508E-005  0.2209520E+03  0.7546771E-02  0.1165618E+00
         21   -1    0    0  501  502  0.00000000000E+00  0.00000000000E+00  0.30527803647E+02  0.30527803647E+02  0.00000000000E+00 0.  1.
          1   -1    0    0  502    0 -0.00000000000E+00 -0.00000000000E+00 -0.11510392846E+04  0.11510392846E+04  0.00000000000E+00 0. -1.
         23    2    1    2    0    0 -0.25376214345E+01  0.41119176585E+02 -0.12361487485E+03  0.16047813770E+03  0.93676940544E+02 0.  0.
        -24    2    1    2    0    0  0.35701096292E+02  0.49060031554E+02 -0.74111021545E+03  0.74785135560E+03  0.79723545223E+02 0.  0.
         13    1    4    4    0    0  0.52738590704E+02  0.35604606279E+02 -0.32474220149E+03  0.33091773051E+03  0.00000000000E+00 0. -1.
        -14    1    4    4    0    0 -0.17037494412E+02  0.13455425275E+02 -0.41636801395E+03  0.41693362509E+03  0.00000000000E+00 0.  1.
        -11    1    3    3    0    0  0.23718837907E+02  0.63223456757E+02 -0.89165448335E+02  0.11184930010E+03  0.00000000000E+00 0.  1.
         11    1    3    3    0    0 -0.26256459341E+02 -0.22104280172E+02 -0.34449426510E+02  0.48628837596E+02  0.00000000000E+00 0. -1.
          2    1    1    2  501    0 -0.33163474858E+02 -0.90179208140E+02 -0.25578639063E+03  0.27323759492E+03  0.00000000000E+00 0. -1.
<scales pt_clust_5="13000.00000" pt_clust_6="13000.00000" pt_clust_7="13000.00000" pt_clust_8="13000.00000" pt_clust_9="13000.00000"></scales>
<clustering>
<clus scale="   79.724">  5  6 -1 -1</clus>
<clus scale="   93.677">  7  8 -1 -1</clus>
<clus scale="   96.084">  5  9 -1 -1</clus>
<clus scale="  102.336">  2  7  1 -1</clus>
<clus scale="  220.952">  1  5  2 -1</clus>
</clustering>
</event>
<event>
 9    1  0.4516508E-005  0.3394997E+03  0.7546771E-02  0.1112338E+00
          1   -1    0    0  502    0 -0.00000000000E+00  0.00000000000E+00  0.29268273221E+03  0.29268273221E+03  0.00000000000E+00 0. -1.
         21   -1    0    0  501  502  0.00000000000E+00 -0.00000000000E+00 -0.18016777050E+03  0.18016777050E+03  0.00000000000E+00 0. -1.
         23    2    1    2    0    0  0.36540388254E+02  0.33995664452E+02 -0.26995796321E+02  0.10580373941E+03  0.89301472991E+02 0.  0.
        -24    2    1    2    0    0  0.31493971837E+02  0.63768596407E+02 -0.62171840869E+02  0.13281953271E+03  0.93366944484E+02 0.  0.
         13    1    4    4    0    0  0.14423231312E+02  0.81419385236E+02 -0.68597734219E+02  0.10743740053E+03  0.00000000000E+00 0. -1.
        -14    1    4    4    0    0  0.17070740526E+02 -0.17650788829E+02  0.64258933502E+01  0.25382132175E+02  0.00000000000E+00 0.  1.
        -13    1    3    3    0    0  0.63107909310E+02  0.78751666883E+01 -0.25491443307E+02  0.68515984629E+02  0.00000000000E+00 0.  1.
         13    1    3    3    0    0 -0.26567521055E+02  0.26120497764E+02 -0.15043530131E+01  0.37287754779E+02  0.00000000000E+00 0. -1.
          2    1    1    2  501    0 -0.68034360092E+02 -0.97764260859E+02  0.20168259889E+03  0.23422723059E+03  0.00000000000E+00 0. -1.
<scales pt_clust_5="13000.00000" pt_clust_6="13000.00000" pt_clust_7="13000.00000" pt_clust_8="13000.00000" pt_clust_9="13000.00000"></scales>
<clustering>
<clus scale="   89.301">  7  8 -1 -1</clus>
<clus scale="   93.367">  5  6 -1 -1</clus>
<clus scale="  102.302">  1  7  2 -1</clus>
<clus scale="   77.669">  5  9 -1 -1</clus>
<clus scale="  339.500">  2  5  1 -1</clus>
</clustering>
</event>
<event>
 9    1  0.4516508E-005  0.3642487E+03  0.7546771E-02  0.1080470E+00
          1   -1    0    0  502    0 -0.00000000000E+00  0.00000000000E+00  0.53766194817E+03  0.53766194817E+03  0.00000000000E+00 0. -1.
         21   -1    0    0  501  502  0.00000000000E+00 -0.00000000000E+00 -0.14425641705E+03  0.14425641705E+03  0.00000000000E+00 0. -1.
         23    2    1    2    0    0  0.15319435644E+03 -0.64825729839E+02  0.10623228638E+03  0.21808047597E+03  0.92751869192E+02 0.  0.
        -24    2    1    2    0    0 -0.38008368694E+02  0.10155160384E+02 -0.50117001811E+02  0.10325309568E+03  0.81250997062E+02 0.  0.
         13    1    4    4    0    0 -0.51012727765E+02  0.51322565504E+01 -0.65048873289E+02  0.82825082961E+02  0.00000000000E+00 0. -1.
        -14    1    4    4    0    0  0.13004359072E+02  0.50229038332E+01  0.14931871478E+02  0.20428012718E+02  0.00000000000E+00 0.  1.
        -11    1    3    3    0    0  0.40883473771E+02 -0.15880121481E+02 -0.14383238526E+02  0.46157493826E+02  0.00000000000E+00 0.  1.
         11    1    3    3    0    0  0.11231088266E+03 -0.48945608358E+02  0.12061552490E+03  0.17192298215E+03  0.00000000000E+00 0. -1.
          2    1    1    2  501    0 -0.11518598774E+03  0.54670569455E+02  0.33729024655E+03  0.36058479357E+03  0.00000000000E+00 0. -1.
<scales pt_clust_5="13000.00000" pt_clust_6="13000.00000" pt_clust_7="13000.00000" pt_clust_8="13000.00000" pt_clust_9="13000.00000"></scales>
<clustering>
<clus scale="   81.251">  5  6 -1 -1</clus>
<clus scale="   92.752">  7  8 -1 -1</clus>
<clus scale="  127.502">  5  9 -1 -1</clus>
<clus scale="  190.457">  1  7  2 -1</clus>
<clus scale="  364.249">  2  5  1 -1</clus>
</clustering>
</event>
<event>
 9    1  0.4516508E-005  0.1878653E+03  0.7546771E-02  0.1185790E+00
          1   -1    0    0  502    0 -0.00000000000E+00  0.00000000000E+00  0.19994640173E+03  0.19994640173E+03  0.00000000000E+00 0. -1.
         21   -1    0    0  501  502  0.00000000000E+00 -0.00000000000E+00 -0.16969266711E+03  0.16969266711E+03  0.00000000000E+00 0.  1.
         23    2    1    2    0    0 -0.43995429289E+02  0.20882910763E+02 -0.96569806711E+02  0.14297285615E+03  0.93508375389E+02 0.  0.
        -24    2    1    2    0    0  0.17806544559E+02 -0.28771321049E+01 -0.16769369061E+02  0.79598236357E+02  0.75692249102E+02 0.  0.
         13    1    4    4    0    0 -0.22241465799E+02 -0.12734528741E+02 -0.26873374963E+02  0.37135283829E+02  0.00000000000E+00 0. -1.
        -14    1    4    4    0    0  0.40048010358E+02  0.98573966360E+01  0.10104005902E+02  0.42462952528E+02  0.00000000000E+00 0.  1.
        -11    1    3    3    0    0 -0.30293588903E+01  0.29124594168E+02 -0.96855474371E+02  0.10118498859E+03  0.00000000000E+00 0.  1.
         11    1    3    3    0    0 -0.40966070399E+02 -0.82416834051E+01  0.28566765945E+00  0.41787867561E+02  0.00000000000E+00 0. -1.
          2    1    1    2  501    0  0.26188884730E+02 -0.18005778658E+02  0.14359291039E+03  0.14706797633E+03  0.00000000000E+00 0. -1.
<scales pt_clust_5="13000.00000" pt_clust_6="13000.00000" pt_clust_7="13000.00000" pt_clust_8="13000.00000" pt_clust_9="13000.00000"></scales>
<clustering>
<clus scale="   75.692">  5  6 -1 -1</clus>
<clus scale="   31.782">  5  9 -1 -1</clus>
<clus scale="   93.508">  7  8 -1 -1</clus>
<clus scale="  105.430">  1  7  2 -1</clus>
<clus scale="  187.865">  2  5  1 -1</clus>
</clustering>
</event>
<event>
 9    1  0.4516508E-005  0.2593541E+03  0.7546771E-02  0.1140769E+00
          1   -1    0    0  502    0 -0.00000000000E+00  0.00000000000E+00  0.20702998995E+03  0.20702998995E+03  0.00000000000E+00 0. -1.
         21   -1    0    0  501  502  0.00000000000E+00 -0.00000000000E+00 -0.17805121745E+03  0.17805121745E+03  0.00000000000E+00 0.  1.
         23    2    1    2    0    0 -0.57524799468E+02  0.41804250741E+02 -0.33175805341E+02  0.11838333745E+03  0.88641314250E+02 0.  0.
        -24    2    1    2    0    0 -0.99801978990E+01 -0.12076424885E+03 -0.83440155250E+00  0.14521035003E+03  0.80010882893E+02 0.  0.
         13    1    4    4    0    0  0.67522076478E+01 -0.31681352765E+02 -0.35599446067E+02  0.48131289007E+02  0.00000000000E+00 0. -1.
        -14    1    4    4    0    0 -0.16732405547E+02 -0.89082896084E+02  0.34765044515E+02  0.97079061028E+02  0.00000000000E+00 0.  1.
        -13    1    3    3    0    0 -0.75711336559E+02  0.14082889172E+02 -0.93927189768E+01  0.77580651072E+02  0.00000000000E+00 0. -1.
         13    1    3    3    0    0  0.18186537092E+02  0.27721361569E+02 -0.23783086364E+02  0.40802686378E+02  0.00000000000E+00 0.  1.
          2    1    1    2  501    0  0.67504997367E+02  0.78959998107E+02  0.62988979397E+02  0.12148751992E+03  0.00000000000E+00 0. -1.
<scales pt_clust_5="13000.00000" pt_clust_6="13000.00000" pt_clust_7="13000.00000" pt_clust_8="13000.00000" pt_clust_9="13000.00000"></scales>
<clustering>
<clus scale="   80.011">  5  6 -1 -1</clus>
<clus scale="   88.641">  7  8 -1 -1</clus>
<clus scale="  103.883">  5  9 -1 -1</clus>
<clus scale="  113.640">  1  7  2 -1</clus>
<clus scale="  259.354">  2  5  1 -1</clus>
</clustering>
</event>
<event>
 9    1  0.4516508E-005  0.1187343E+03  0.7546771E-02  0.1260554E+00
          1   -1    0    0  502    0 -0.00000000000E+00  0.00000000000E+00  0.32908260052E+03  0.32908260052E+03  0.00000000000E+00 0. -1.
         21   -1    0    0  501  502  0.00000000000E+00 -0.00000000000E+00 -0.65402319931E+02  0.65402319931E+02  0.00000000000E+00 0. -1.
         23    2    1    2    0    0  0.99182875435E+01  0.22790079653E+02  0.26148019890E+03  0.27573021781E+03  0.83889799386E+02 0.  0.
        -24    2    1    2    0    0 -0.14800387716E+02 -0.43829053268E+02  0.13689614844E+02  0.94290796883E+02  0.81014266863E+02 0.  0.
         11    1    4    4    0    0 -0.14437800094E+02 -0.66164882748E+02  0.20806101996E+02  0.70845858459E+02  0.00000000000E+00 0. -1.
        -12    1    4    4    0    0 -0.36258762288E+00  0.22335829479E+02 -0.71164871518E+01  0.23444938424E+02  0.00000000000E+00 0.  1.
        -13    1    3    3    0    0  0.40362971211E+02  0.11988660466E+02  0.71128655917E+02  0.82657020980E+02  0.00000000000E+00 0.  1.
         13    1    3    3    0    0 -0.30444683668E+02  0.10801419187E+02  0.19035154298E+03  0.19307319683E+03  0.00000000000E+00 0. -1.
          2    1    1    2  501    0  0.48821001730E+01  0.21038973615E+02 -0.11489533150E+02  0.24463905757E+02  0.00000000000E+00 0. -1.
<scales pt_clust_5="13000.00000" pt_clust_6="13000.00000" pt_clust_7="13000.00000" pt_clust_8="13000.00000" pt_clust_9="13000.00000"></scales>
<clustering>
<clus scale="   81.014">  5  6 -1 -1</clus>
<clus scale="   21.598">  5  9 -1 -1</clus>
<clus scale="   83.890">  7  8 -1 -1</clus>
<clus scale="   87.494">  1  7  2 -1</clus>
<clus scale="  118.734">  2  5  1 -1</clus>
</clustering>
</event>
<event>
 9    1  0.4516508E-005  0.2700112E+03  0.7546771E-02  0.1137059E+00
          1   -1    0    0  502    0 -0.00000000000E+00  0.00000000000E+00  0.18024916233E+03  0.18024916233E+03  0.00000000000E+00 0. -1.
         21   -1    0    0  501  502  0.00000000000E+00 -0.00000000000E+00 -0.22246333333E+03  0.22246333333E+03  0.00000000000E+00 0. -1.
         23    2    1    2    0    0 -0.32914597589E+02 -0.51598885854E+02  0.44961481262E+02  0.11897736177E+03  0.91587455808E+02 0.  0.
        -24    2    1    2    0    0  0.16738476777E+02 -0.73793648044E+02 -0.10857662707E+03  0.15550504317E+03  0.81653263320E+02 0.  0.
         13    1    4    4    0    0  0.10669354315E+01 -0.41790297192E+02 -0.11215387988E+03  0.11969152043E+03  0.00000000000E+00 0. -1.
        -14    1    4    4    0    0  0.15671541345E+02 -0.32003350852E+02  0.35772528100E+01  0.35813522747E+02  0.00000000000E+00 0.  1.
        -13    1    3    3    0    0  0.19320462930E+02 -0.54504070595E+02  0.22732150174E+02  0.62134729828E+02  0.00000000000E+00 0.  1.
         13    1    3    3    0    0 -0.52235060519E+02  0.29051847415E+01  0.22229331087E+02  0.56842631945E+02  0.00000000000E+00 0. -1.
          2    1    1    2  501    0  0.16176120813E+02  0.12539253390E+03  0.21400974810E+02  0.12823009071E+03  0.00000000000E+00 0. -1.
<scales pt_clust_5="13000.00000" pt_clust_6="13000.00000" pt_clust_7="13000.00000" pt_clust_8="13000.00000" pt_clust_9="13000.00000"></scales>
<clustering>
<clus scale="   81.653">  5  6 -1 -1</clus>
<clus scale="   91.587">  7  8 -1 -1</clus>
<clus scale="  110.155">  1  7  2 -1</clus>
<clus scale="   86.570">  5  9 -1 -1</clus>
<clus scale="  270.011">  2  5  1 -1</clus>
</clustering>
</event>
<event>
 9    1  0.4516508E-005  0.2082588E+03  0.7546771E-02  0.1169680E+00
         21   -1    0    0  501  502  0.00000000000E+00  0.00000000000E+00  0.36424042143E+02  0.36424042143E+02  0.00000000000E+00 0. -1.
          1   -1    0    0  502    0 -0.00000000000E+00 -0.00000000000E+00 -0.70344850171E+03  0.70344850171E+03  0.00000000000E+00 0. -1.
         23    2    1    2    0    0 -0.44951138304E+01 -0.63513357019E+02 -0.21194117782E+03  0.23940025813E+03  0.91319593567E+02 0.  0.
        -24    2    1    2    0    0 -0.65408733400E+02  0.45262559442E+02 -0.15628602005E+03  0.19306466860E+03  0.80756699441E+02 0.  0.
         13    1    4    4    0    0 -0.33260692192E+02  0.66079081578E+02 -0.11509449716E+03  0.13681908472E+03  0.00000000000E+00 0. -1.
        -14    1    4    4    0    0 -0.32148041209E+02 -0.20816522137E+02 -0.41191522889E+02  0.56245583874E+02  0.00000000000E+00 0.  1.
        -13    1    3    3    0    0 -0.38889197713E+02 -0.56094037660E+02 -0.92973544696E+02  0.11533859186E+03  0.00000000000E+00 0. -1.
         13    1    3    3    0    0  0.34394083882E+02 -0.74193193583E+01 -0.11896763312E+03  0.12406166626E+03  0.00000000000E+00 0.  1.
          2    1    1    2  501    0  0.69903847231E+02  0.18250797577E+02 -0.29879726169E+03  0.30740761712E+03  0.00000000000E+00 0. -1.
<scales pt_clust_5="13000.00000" pt_clust_6="13000.00000" pt_clust_7="13000.00000" pt_clust_8="13000.00000" pt_clust_9="13000.00000"></scales>
<clustering>
<clus scale="   80.757">  5  6 -1 -1</clus>
<clus scale="   72.247">  5  9 -1 -1</clus>
<clus scale="   91.320">  7  8 -1 -1</clus>
<clus scale="  111.326">  2  7  1 -1</clus>
<clus scale="  208.259">  1  5  2 -1</clus>
</clustering>
</event>
<event>
 9    1  0.4516508E-005  0.1248857E+03  0.7546771E-02  0.1243105E+00
         21   -1    0    0  501  502  0.00000000000E+00  0.00000000000E+00  0.54715627827E+02  0.54715627827E+02  0.00000000000E+00 0.  1.
          3   -1    0    0  502    0 -0.00000000000E+00 -0.00000000000E+00 -0.25393388549E+03  0.25393388549E+03  0.00000000000E+00 0. -1.
         23    2    1    2    0    0  0.30328120133E+02  0.40155071843E+02 -0.12160810627E+03  0.16161288345E+03  0.93797483540E+02 0.  0.
        -24    2    1    2    0    0 -0.58269126694E+01 -0.50537261275E+02 -0.52794790909E+02  0.11065117755E+03  0.82875964300E+02 0.  0.
         13    1    4    4    0    0  0.20909022213E+02 -0.63117432581E+02 -0.44335199769E+02  0.79916252690E+02  0.00000000000E+00 0. -1.
        -14    1    4    4    0    0 -0.26735934883E+02  0.12580171306E+02 -0.84595911403E+01  0.30734924864E+02  0.00000000000E+00 0.  1.
        -11    1    3    3    0    0  0.58121068420E+02  0.18479049875E+02 -0.40591013788E+02  0.73260932829E+02  0.00000000000E+00 0. -1.
         11    1    3    3    0    0 -0.27792948287E+02  0.21676021968E+02 -0.81017092486E+02  0.88351950617E+02  0.00000000000E+00 0.  1.
          4    1    1    2  501    0 -0.24501207463E+02  0.10382189432E+02 -0.24815360478E+02  0.36385452315E+02  0.00000000000E+00 0. -1.
<scales pt_clust_5="13000.00000" pt_clust_6="13000.00000" pt_clust_7="13000.00000" pt_clust_8="13000.00000" pt_clust_9="13000.00000"></scales>
<clustering>
<clus scale="   82.876">  5  6 -1 -1</clus>
<clus scale="   26.610">  5  9 -1 -1</clus>
<clus scale="   93.797">  7  8 -1 -1</clus>
<clus scale="  106.443">  2  7  1 -1</clus>
<clus scale="  124.886">  1  5  2 -1</clus>
</clustering>
</event>
<event>
 9    1  0.4516508E-005  0.2798392E+03  0.7546771E-02  0.1119529E+00
         21   -1    0    0  501  502  0.00000000000E+00  0.00000000000E+00  0.11323462440E+03  0.11323462440E+03  0.00000000000E+00 0. -1.
          1   -1    0    0  502    0 -0.00000000000E+00 -0.00000000000E+00 -0.69099263651E+03  0.69099263651E+03  0.00000000000E+00 0. -1.
         23    2    1    2    0    0  0.94768981417E+01  0.12015406554E+03 -0.48661257868E+03  0.50991880965E+03  0.93266176306E+02 0.  0.
        -24    2    1    2    0    0  0.43097580901E+02 -0.17856956589E+03 -0.74171270290E+02  0.21390590936E+03  0.80683761592E+02 0.  0.
         13    1    4    4    0    0  0.44548021858E+02 -0.18371920840E+03 -0.59337510558E+02  0.19813685661E+03  0.00000000000E+00 0. -1.
        -14    1    4    4    0    0 -0.14504409565E+01  0.51496425174E+01 -0.14833759733E+02  0.15769052756E+02  0.00000000000E+00 0.  1.
        -11    1    3    3    0    0  0.16046151032E+02  0.12080738331E+02 -0.12628570427E+02  0.23725597834E+02  0.00000000000E+00 0.  1.
         11    1    3    3    0    0 -0.65692528900E+01  0.10807332721E+03 -0.47398400825E+03  0.48619321182E+03  0.00000000000E+00 0. -1.
          2    1    1    2  501    0 -0.52574479043E+02  0.58415500348E+02 -0.16974163140E+02  0.80402541887E+02  0.00000000000E+00 0. -1.
<scales pt_clust_5="13000.00000" pt_clust_6="13000.00000" pt_clust_7="13000.00000" pt_clust_8="13000.00000" pt_clust_9="13000.00000"></scales>
<clustering>
<clus scale="   80.684">  5  6 -1 -1</clus>
<clus scale="   78.590">  5  9 -1 -1</clus>
<clus scale="   93.266">  7  8 -1 -1</clus>
<clus scale="  152.399">  2  7  1 -1</clus>
<clus scale="  279.839">  1  5  2 -1</clus>
</clustering>
</event>
<event>
 9    1  0.4516508E-005  0.2691840E+03  0.7546771E-02  0.1141736E+00
          1   -1    0    0  502    0 -0.00000000000E+00  0.00000000000E+00  0.14345395169E+03  0.14345395169E+03  0.00000000000E+00 0. -1.
         21   -1    0    0  501  502  0.00000000000E+00 -0.00000000000E+00 -0.24108297876E+03  0.24108297876E+03  0.00000000000E+00 0. -1.
         23    2    1    2    0    0 -0.29204093977E+02 -0.20607832966E+02 -0.34798765171E+01  0.99363111768E+02  0.92646406056E+02 0.  0.
        -24    2    1    2    0    0  0.97956406203E+02 -0.57748592890E+02 -0.11200971377E+03  0.17941177621E+03  0.81927113744E+02 0.  0.
         11    1    4    4    0    0  0.39438980576E+02 -0.65977909731E+02 -0.84493044760E+02  0.11422605821E+03  0.00000000000E+00 0. -1.
        -12    1    4    4    0    0  0.58517425627E+02  0.82293168411E+01 -0.27516669013E+02  0.65185718001E+02  0.00000000000E+00 0.  1.
        -13    1    3    3    0    0 -0.37949989797E+02  0.27567764740E+02  0.11242441007E+02  0.48234591925E+02  0.00000000000E+00 0.  1.
         13    1    3    3    0    0  0.87458958203E+01 -0.48175597706E+02 -0.14722317524E+02  0.51128519843E+02  0.00000000000E+00 0. -1.
          2    1    1    2  501    0 -0.68752312226E+02  0.78356425856E+02  0.17860563220E+02  0.10576204247E+03  0.00000000000E+00 0. -1.
<scales pt_clust_5="13000.00000" pt_clust_6="13000.00000" pt_clust_7="13000.00000" pt_clust_8="13000.00000" pt_clust_9="13000.00000"></scales>
<clustering>
<clus scale="   81.927">  5  6 -1 -1</clus>
<clus scale="   92.646">  7  8 -1 -1</clus>
<clus scale="   99.302">  1  7  2 -1</clus>
<clus scale="  109.135">  5  9 -1 -1</clus>
<clus scale="  269.184">  2  5  1 -1</clus>
</clustering>
</event>
<event>
 9    1  0.4516508E-005  0.3523378E+03  0.7546771E-02  0.1080099E+00
          3   -1    0    0  502    0 -0.00000000000E+00  0.00000000000E+00  0.48588313403E+03  0.48588313403E+03  0.00000000000E+00 0. -1.
         21   -1    0    0  501  502  0.00000000000E+00 -0.00000000000E+00 -0.23824211380E+03  0.23824211380E+03  0.00000000000E+00 0. -1.
         23    2    1    2    0    0  0.11441126597E+03 -0.15255889807E+03  0.30026474238E+03  0.36787929584E+03  0.93872816251E+02 0.  0.
        -24    2    1    2    0    0  0.42655228682E+02 -0.41394348617E+02 -0.22588467170E+02  0.10487001404E+03  0.83393766934E+02 0.  0.
         11    1    4    4    0    0  0.38378922432E+02  0.13042157283E+01 -0.42743785602E+02  0.57460193815E+02  0.00000000000E+00 0. -1.
        -12    1    4    4    0    0  0.42763062504E+01 -0.42698564345E+02  0.20155318432E+02  0.47409820221E+02  0.00000000000E+00 0.  1.
        -11    1    3    3    0    0  0.92856845242E+02 -0.16272901752E+03  0.27815095335E+03  0.33536708201E+03  0.00000000000E+00 0. -1.
         11    1    3    3    0    0  0.21554420727E+02  0.10170119450E+02  0.22113789035E+02  0.32512213827E+02  0.00000000000E+00 0.  1.
          4    1    1    2  501    0 -0.15706649465E+03  0.19395324669E+03 -0.30035254980E+02  0.25137593796E+03  0.00000000000E+00 0. -1.
<scales pt_clust_5="13000.00000" pt_clust_6="13000.00000" pt_clust_7="13000.00000" pt_clust_8="13000.00000" pt_clust_9="13000.00000"></scales>
<clustering>
<clus scale="   83.394">  5  6 -1 -1</clus>
<clus scale="   93.873">  7  8 -1 -1</clus>
<clus scale="  212.547">  1  7  2 -1</clus>
<clus scale="  110.777">  5  9 -1 -1</clus>
<clus scale="  352.338">  2  5  1 -1</clus>
</clustering>
</event>
<event>
 9    1  0.4516508E-005  0.1434910E+03  0.7546771E-02  0.1220355E+00
         21   -1    0    0  501  502  0.00000000000E+00  0.00000000000E+00  0.38440777502E+02  0.38440777502E+02  0.00000000000E+00 0. -1.
          1   -1    0    0  502    0 -0.00000000000E+00 -0.00000000000E+00 -0.44412524123E+03  0.44412524123E+03  0.00000000000E+00 0. -1.
         23    2    1    2    0    0  0.97638974871E+01  0.23621541068E+02 -0.22888644500E+03  0.25486622819E+03  0.10915346384E+03 0.  0.
        -24    2    1    2    0    0 -0.56683401420E+02 -0.89681814828E+01 -0.10945149102E+03  0.14432284175E+03  0.74538697924E+02 0.  0.
         13    1    4    4    0    0 -0.57943104561E+02 -0.11747384399E+02 -0.11976740810E+03  0.13356510192E+03  0.00000000000E+00 0. -1.
        -14    1    4    4    0    0  0.12597031408E+01  0.27792029167E+01  0.10315917088E+02  0.10757739828E+02  0.00000000000E+00 0.  1.
        -11    1    3    3    0    0  0.35025927066E+02 -0.29830326950E+02 -0.14584306957E+03  0.15292764601E+03  0.00000000000E+00 0.  1.
         11    1    3    3    0    0 -0.25262029579E+02  0.53451868018E+02 -0.83043375429E+02  0.10193858217E+03  0.00000000000E+00 0. -1.
          2    1    1    2  501    0  0.46919503933E+02 -0.14653359585E+02 -0.67346527710E+02  0.83376948799E+02  0.00000000000E+00 0. -1.
<scales pt_clust_5="13000.00000" pt_clust_6="13000.00000" pt_clust_7="13000.00000" pt_clust_8="13000.00000" pt_clust_9="13000.00000"></scales>
<clustering>
<clus scale="   74.539">  5  6 -1 -1</clus>
<clus scale="   49.154">  5  9 -1 -1</clus>
<clus scale="  109.153">  7  8 -1 -1</clus>
<clus scale="  112.106">  2  7  1 -1</clus>
<clus scale="  143.491">  1  5  2 -1</clus>
</clustering>
</event>
<event>
 9    1  0.4516508E-005  0.9848603E+03  0.7546771E-02  0.9934163E-01
         21   -1    0    0  501  502  0.00000000000E+00  0.00000000000E+00  0.14643197389E+03  0.14643197389E+03  0.00000000000E+00 0. -1.
          1   -1    0    0  502    0 -0.00000000000E+00 -0.00000000000E+00 -0.21307804943E+04  0.21307804943E+04  0.00000000000E+00 0. -1.
         23    2    1    2    0    0  0.30399808382E+02 -0.79575804785E+02 -0.14354998334E+03  0.18951298161E+03  0.89733580265E+02 0.  0.
        -24    2    1    2    0    0 -0.30249030700E+03 -0.34267697895E+03 -0.68454892778E+03  0.82704734907E+03  0.80449893354E+02 0.  0.
         11    1    4    4    0    0 -0.30772757625E+03 -0.33643772948E+03 -0.67352114773E+03  0.81333716468E+03  0.00000000000E+00 0. -1.
        -12    1    4    4    0    0  0.52372692524E+01 -0.62392494680E+01 -0.11027780053E+02  0.13710184392E+02  0.00000000000E+00 0.  1.
        -11    1    3    3    0    0 -0.16377365871E+02  0.12187440950E+02 -0.29023919081E+02  0.35484358648E+02  0.00000000000E+00 0. -1.
         11    1    3    3    0    0  0.46777174253E+02 -0.91763245735E+02 -0.11452606426E+03  0.15402862297E+03  0.00000000000E+00 0.  1.
          2    1    1    2  501    0  0.27209049862E+03  0.42225278373E+03 -0.11562496093E+04  0.12606521375E+04  0.00000000000E+00 0. -1.
<scales pt_clust_5="13000.00000" pt_clust_6="13000.00000" pt_clust_7="13000.00000" pt_clust_8="13000.00000" pt_clust_9="13000.00000"></scales>
<clustering>
<clus scale="   80.450">  5  6 -1 -1</clus>
<clus scale="   89.734">  7  8 -1 -1</clus>
<clus scale="  123.728">  2  7  1 -1</clus>
<clus scale="  473.192">  5  9 -1 -1</clus>
<clus scale="  984.860">  1  5  2 -1</clus>
</clustering>
</event>
<event>
 9    1  0.4516508E-005  0.2353211E+03  0.7546771E-02  0.1152071E+00
          1   -1    0    0  502    0 -0.00000000000E+00  0.00000000000E+00  0.55840058354E+03  0.55840058354E+03  0.00000000000E+00 0. -1.
         21   -1    0    0  501  502  0.00000000000E+00 -0.00000000000E+00 -0.59474398096E+02  0.59474398096E+02  0.00000000000E+00 0. -1.
         23    2    1    2    0    0 -0.41882079066E+02 -0.59396075168E+02  0.24799694682E+03  0.27386701133E+03  0.90656781166E+02 0.  0.
        -24    2    1    2    0    0  0.11129997882E+03 -0.63312956698E+01  0.12335831919E+03  0.18459256462E+03  0.80183348698E+02 0.  0.
         13    1    4    4    0    0  0.60047345066E+02  0.13054129009E+02  0.15133209864E+02  0.63285922403E+02  0.00000000000E+00 0. -1.
        -14    1    4    4    0    0  0.51252633759E+02 -0.19385424678E+02  0.10822510933E+03  0.12130664222E+03  0.00000000000E+00 0.  1.
        -11    1    3    3    0    0 -0.24832225525E+02 -0.82107327705E+02  0.20624262565E+03  0.22337026061E+03  0.00000000000E+00 0. -1.
         11    1    3    3    0    0 -0.17049853541E+02  0.22711252538E+02  0.41754321166E+02  0.50496750723E+02  0.00000000000E+00 0.  1.
          2    1    1    2  501    0 -0.69417899759E+02  0.65727370837E+02  0.12757091943E+03  0.15941540568E+03  0.00000000000E+00 0. -1.
<scales pt_clust_5="13000.00000" pt_clust_6="13000.00000" pt_clust_7="13000.00000" pt_clust_8="13000.00000" pt_clust_9="13000.00000"></scales>
<clustering>
<clus scale="   80.183">  5  6 -1 -1</clus>
<clus scale="   90.657">  7  8 -1 -1</clus>
<clus scale="   95.598">  5  9 -1 -1</clus>
<clus scale="  116.192">  1  7  2 -1</clus>
<clus scale="  235.321">  2  5  1 -1</clus>
</clustering>
</event>
<event>
 9    1  0.4516508E-005  0.2728563E+03  0.7546771E-02  0.1132093E+00
          1   -1    0    0  502    0 -0.00000000000E+00  0.00000000000E+00  0.10474533903E+04  0.10474533903E+04  0.00000000000E+00 0. -1.
         21   -1    0    0  501  502  0.00000000000E+00 -0.00000000000E+00 -0.37705377132E+02  0.37705377132E+02  0.00000000000E+00 0.  1.
         23    2    1    2    0    0  0.72578426628E+02 -0.22235259079E+02  0.38546003164E+03  0.40384675024E+03  0.93545320185E+02 0.  0.
        -24    2    1    2    0    0 -0.12274555284E+03  0.25133893033E+02  0.23116066043E+03  0.28498609926E+03  0.10992562267E+03 0.  0.
         11    1    4    4    0    0 -0.11194524044E+03 -0.19828564298E+02  0.12374985253E+03  0.16804444299E+03  0.00000000000E+00 0. -1.
        -12    1    4    4    0    0 -0.10800312408E+02  0.44962457331E+02  0.10741080790E+03  0.11694165627E+03  0.00000000000E+00 0.  1.
        -11    1    3    3    0    0  0.75453936688E+02 -0.46831823466E+02  0.34636463023E+03  0.35756813802E+03  0.00000000000E+00 0. -1.
         11    1    3    3    0    0 -0.28755100602E+01  0.24596564387E+02  0.39095401411E+02  0.46278612222E+02  0.00000000000E+00 0.  1.
          2    1    1    2  501    0  0.50167126217E+02 -0.28986339533E+01  0.39312732114E+03  0.39632591798E+03  0.00000000000E+00 0. -1.
<scales pt_clust_5="13000.00000" pt_clust_6="13000.00000" pt_clust_7="13000.00000" pt_clust_8="13000.00000" pt_clust_9="13000.00000"></scales>
<clustering>
<clus scale="   93.545">  7  8 -1 -1</clus>
<clus scale="  109.926">  5  6 -1 -1</clus>
<clus scale="   50.251">  5  9 -1 -1</clus>
<clus scale="  120.469">  1  7  2 -1</clus>
<clus scale="  272.856">  2  5  1 -1</clus>
</clustering>
</event>
<event>
 9    1  0.4516508E-005  0.3315142E+03  0.7546771E-02  0.1112226E+00
         21   -1    0    0  501  502  0.00000000000E+00  0.00000000000E+00  0.65818867493E+02  0.65818867493E+02  0.00000000000E+00 0. -1.
          3   -1    0    0  502    0 -0.00000000000E+00 -0.00000000000E+00 -0.75563870420E+03  0.75563870420E+03  0.00000000000E+00 0. -1.
         23    2    1    2    0    0  0.11024940170E+01 -0.62354921341E+02 -0.22497243237E+03  0.25050679751E+03  0.90838915473E+02 0.  0.
        -24    2    1    2    0    0 -0.11366454811E+03  0.67106673137E+02 -0.42333381792E+03  0.45088340550E+03  0.81617331989E+02 0.  0.
         13    1    4    4    0    0 -0.86247639437E+02  0.86059363923E+02 -0.33546492619E+03  0.35690557033E+03  0.00000000000E+00 0. -1.
        -14    1    4    4    0    0 -0.27416908670E+02 -0.18952690786E+02 -0.87868891726E+02  0.93977835164E+02  0.00000000000E+00 0.  1.
        -13    1    3    3    0    0  0.17099891990E+02  0.16814847066E+02 -0.24079191487E+02  0.33984597255E+02  0.00000000000E+00 0.  1.
         13    1    3    3    0    0 -0.15997397973E+02 -0.79169768406E+02 -0.20089324088E+03  0.21652220025E+03  0.00000000000E+00 0. -1.
          4    1    1    2  501    0  0.11256205409E+03 -0.47517517965E+01 -0.41513586418E+02  0.12006736869E+03  0.00000000000E+00 0. -1.
<scales pt_clust_5="13000.00000" pt_clust_6="13000.00000" pt_clust_7="13000.00000" pt_clust_8="13000.00000" pt_clust_9="13000.00000"></scales>
<clustering>
<clus scale="   81.617">  5  6 -1 -1</clus>
<clus scale="   90.839">  7  8 -1 -1</clus>
<clus scale="  110.186">  2  7  1 -1</clus>
<clus scale="  113.660">  5  9 -1 -1</clus>
<clus scale="  331.514">  1  5  2 -1</clus>
</clustering>
</event>
<event>
 9    1  0.4516508E-005  0.3822509E+03  0.7546771E-02  0.1087256E+00
          1   -1    0    0  502    0 -0.00000000000E+00  0.00000000000E+00  0.15347854253E+04  0.15347854253E+04  0.00000000000E+00 0. -1.
         21   -1    0    0  501  502  0.00000000000E+00 -0.00000000000E+00 -0.44253093844E+02  0.44253093844E+02  0.00000000000E+00 0. -1.
         23    2    1    2    0    0  0.84481334565E+01 -0.99672210653E+02  0.44955516919E+03  0.47009794893E+03  0.94267231378E+02 0.  0.
        -24    2    1    2    0    0 -0.26995592306E+02 -0.11109031401E+03  0.21212624768E+03  0.25351162013E+03  0.78745010728E+02 0.  0.
         11    1    4    4    0    0 -0.25555390494E+02 -0.96033759284E+02  0.10219989674E+03  0.14254956962E+03  0.00000000000E+00 0. -1.
        -12    1    4    4    0    0 -0.14402018121E+01 -0.15056554724E+02  0.10992635094E+03  0.11096205051E+03  0.00000000000E+00 0.  1.
        -11    1    3    3    0    0  0.34063052383E+02 -0.32195538720E+01  0.16612537336E+03  0.16961219514E+03  0.00000000000E+00 0.  1.
         11    1    3    3    0    0 -0.25614918926E+02 -0.96452656781E+02  0.28342979582E+03  0.30048575379E+03  0.00000000000E+00 0. -1.
          2    1    1    2  501    0  0.18547458850E+02  0.21076252466E+03  0.82885091461E+03  0.85542895010E+03  0.00000000000E+00 0. -1.
<scales pt_clust_5="13000.00000" pt_clust_6="13000.00000" pt_clust_7="13000.00000" pt_clust_8="13000.00000" pt_clust_9="13000.00000"></scales>
<clustering>
<clus scale="   78.745">  5  6 -1 -1</clus>
<clus scale="   94.267">  7  8 -1 -1</clus>
<clus scale="  137.449">  1  7  2 -1</clus>
<clus scale="  135.043">  5  9 -1 -1</clus>
<clus scale="  382.251">  2  5  1 -1</clus>
</clustering>
</event>
<event>
 9    1  0.4516508E-005  0.5441859E+03  0.7546771E-02  0.1060639E+00
          1   -1    0    0  502    0 -0.00000000000E+00  0.00000000000E+00  0.35700676679E+03  0.35700676679E+03  0.00000000000E+00 0. -1.
         21   -1    0    0  501  502  0.00000000000E+00 -0.00000000000E+00 -0.28932697725E+03  0.28932697725E+03  0.00000000000E+00 0.  1.
         23    2    1    2    0    0 -0.95239302575E+01 -0.35494388313E+02  0.45606341597E+01  0.98499515878E+02  0.91273207432E+02 0.  0.
        -24    2    1    2    0    0 -0.18276826381E+03 -0.16278498729E+03  0.83417752313E+02  0.27088110627E+03  0.80714695013E+02 0.  0.
         13    1    4    4    0    0 -0.55579323828E+02 -0.74649571955E+01  0.90857679627E+01  0.56809664693E+02  0.00000000000E+00 0. -1.
        -14    1    4    4    0    0 -0.12718893999E+03 -0.15532003009E+03  0.74331984350E+02  0.21407144158E+03  0.00000000000E+00 0.  1.
        -11    1    3    3    0    0 -0.22663466907E+02 -0.63519436841E+02  0.31512323697E+01  0.67515049095E+02  0.00000000000E+00 0. -1.
         11    1    3    3    0    0  0.13139536650E+02  0.28025048528E+02  0.14094017900E+01  0.30984466782E+02  0.00000000000E+00 0.  1.
          2    1    1    2  501    0  0.19229219407E+03  0.19827937560E+03 -0.20298596935E+02  0.27695312189E+03  0.00000000000E+00 0. -1.
<scales pt_clust_5="13000.00000" pt_clust_6="13000.00000" pt_clust_7="13000.00000" pt_clust_8="13000.00000" pt_clust_9="13000.00000"></scales>
<clustering>
<clus scale="   80.715">  5  6 -1 -1</clus>
<clus scale="   91.273">  7  8 -1 -1</clus>
<clus scale="   98.394">  1  7  2 -1</clus>
<clus scale="  262.826">  5  9 -1 -1</clus>
<clus scale="  544.186">  2  5  1 -1</clus>
</clustering>
</event>
<event>
 9    1  0.4516508E-005  0.2687411E+03  0.7546771E-02  0.1124693E+00
          1   -1    0    0  502    0 -0.00000000000E+00  0.00000000000E+00  0.11090248796E+03  0.11090248796E+03  0.00000000000E+00 0. -1.
         21   -1    0    0  501  502  0.00000000000E+00 -0.00000000000E+00 -0.41373268434E+03  0.41373268434E+03  0.00000000000E+00 0. -1.
         23    2    1    2    0    0  0.56541355301E+01  0.11362500318E+03 -0.16034666150E+03  0.22045869664E+03  0.99741538352E+02 0.  0.
        -24    2    1    2    0    0  0.25768604432E+02 -0.50751341392E+01  0.36139709233E+02  0.92807778858E+02  0.81347570782E+02 0.  0.
         13    1    4    4    0    0  0.52244526361E+02 -0.30969765917E+01  0.60582783950E+01  0.52685714722E+02  0.00000000000E+00 0. -1.
        -14    1    4    4    0    0 -0.26475921928E+02 -0.19781575475E+01  0.30081430838E+02  0.40122064136E+02  0.00000000000E+00 0.  1.
        -11    1    3    3    0    0  0.39073287404E+02  0.50431011973E+02 -0.12582262447E+03  0.14107211484E+03  0.00000000000E+00 0. -1.
         11    1    3    3    0    0 -0.33419151873E+02  0.63193991205E+02 -0.34524037030E+02  0.79386581795E+02  0.00000000000E+00 0.  1.
          2    1    1    2  501    0 -0.31422739962E+02 -0.10854986904E+03 -0.17862324410E+03  0.21136869681E+03  0.00000000000E+00 0. -1.
<scales pt_clust_5="13000.00000" pt_clust_6="13000.00000" pt_clust_7="13000.00000" pt_clust_8="13000.00000" pt_clust_9="13000.00000"></scales>
<clustering>
<clus scale="   81.348">  5  6 -1 -1</clus>
<clus scale="   99.742">  7  8 -1 -1</clus>
<clus scale="  113.007">  5  9 -1 -1</clus>
<clus scale="  151.298">  1  7  2 -1</clus>
<clus scale="  268.741">  2  5  1 -1</clus>
</clustering>
</event>
<event>
 9    1  0.4516508E-005  0.4187774E+03  0.7546771E-02  0.1073804E+00
         21   -1    0    0  501  502  0.00000000000E+00  0.00000000000E+00  0.30242863184E+03  0.30242863184E+03  0.00000000000E+00 0. -1.
          1   -1    0    0  502    0 -0.00000000000E+00 -0.00000000000E+00 -0.62940409649E+03  0.62940409649E+03  0.00000000000E+00 0. -1.
         23    2    1    2    0    0  0.11840458766E+03 -0.19496846397E+02 -0.46678566586E+03  0.49033370943E+03  0.90213720416E+02 0.  0.
        -24    2    1    2    0    0  0.70839811278E+02  0.38370971108E+02 -0.88471588844E+02  0.14437572667E+03  0.80786868567E+02 0.  0.
         13    1    4    4    0    0  0.71791678805E+02 -0.18785480537E+01 -0.69236422139E+02  0.99755983474E+02  0.00000000000E+00 0. -1.
        -14    1    4    4    0    0 -0.95186752658E+00  0.40249519162E+02 -0.19235166705E+02  0.44619743194E+02  0.00000000000E+00 0.  1.
        -13    1    3    3    0    0  0.18129382217E+02 -0.28965945349E+02 -0.43971617177E+02  0.55688451287E+02  0.00000000000E+00 0.  1.
         13    1    3    3    0    0  0.10027520544E+03  0.94690989520E+01 -0.42281404869E+03  0.43464525814E+03  0.00000000000E+00 0. -1.
          2    1    1    2  501    0 -0.18924439894E+03 -0.18874124711E+02  0.22828179006E+03  0.29712329223E+03  0.00000000000E+00 0. -1.
<scales pt_clust_5="13000.00000" pt_clust_6="13000.00000" pt_clust_7="13000.00000" pt_clust_8="13000.00000" pt_clust_9="13000.00000"></scales>
<clustering>
<clus scale="   80.787">  5  6 -1 -1</clus>
<clus scale="   90.214">  7  8 -1 -1</clus>
<clus scale="  150.128">  2  7  1 -1</clus>
<clus scale="  163.894">  5  9 -1 -1</clus>
<clus scale="  418.777">  1  5  2 -1</clus>
</clustering>
</event>
<event>
 9    1  0.4516508E-005  0.1502100E+03  0.7546771E-02  0.1214318E+00
         21   -1    0    0  501  502  0.00000000000E+00  0.00000000000E+00  0.62494662030E+02  0.62494662030E+02  0.00000000000E+00 0. -1.
          1   -1    0    0  502    0 -0.00000000000E+00 -0.00000000000E+00 -0.29909113921E+03  0.29909113921E+03  0.00000000000E+00 0. -1.
         23    2    1    2    0    0  0.63002346197E+02  0.14874450851E+02 -0.15500114431E+03  0.19064471505E+03  0.90163782784E+02 0.  0.
        -24    2    1    2    0    0 -0.31628499890E+02  0.33078450724E+02 -0.41765053571E+02  0.10115390863E+03  0.79957786515E+02 0.  0.
         11    1    4    4    0    0 -0.34041715972E+02  0.46598091445E+02 -0.54964676490E+00  0.57710680677E+02  0.00000000000E+00 0. -1.
        -12    1    4    4    0    0  0.24132160815E+01 -0.13519640721E+02 -0.41215406807E+02  0.43443227957E+02  0.00000000000E+00 0.  1.
        -13    1    3    3    0    0  0.13110077679E+02 -0.23645766087E+02 -0.44100858263E+01  0.27394255740E+02  0.00000000000E+00 0.  1.
         13    1    3    3    0    0  0.49892268518E+02  0.38520216938E+02 -0.15059105848E+03  0.16325045931E+03  0.00000000000E+00 0. -1.
          2    1    1    2  501    0 -0.31373846307E+02 -0.47952901575E+02 -0.39830279297E+02  0.69787177550E+02  0.00000000000E+00 0. -1.
<scales pt_clust_5="13000.00000" pt_clust_6="13000.00000" pt_clust_7="13000.00000" pt_clust_8="13000.00000" pt_clust_9="13000.00000"></scales>
<clustering>
<clus scale="   79.958">  5  6 -1 -1</clus>
<clus scale="   57.304">  5  9 -1 -1</clus>
<clus scale="   90.164">  7  8 -1 -1</clus>
<clus scale="  110.996">  2  7  1 -1</clus>
<clus scale="  150.210">  1  5  2 -1</clus>
</clustering>
</event>
<event>
 9    1  0.4516508E-005  0.3958504E+03  0.7546771E-02  0.1065803E+00
          1   -1    0    0  502    0 -0.00000000000E+00  0.00000000000E+00  0.60668860081E+03  0.60668860081E+03  0.00000000000E+00 0. -1.
         21   -1    0    0  501  502  0.00000000000E+00 -0.00000000000E+00 -0.16473298950E+03  0.16473298950E+03  0.00000000000E+00 0. -1.
         23    2    1    2    0    0 -0.71695834474E+02  0.18159986576E+03  0.24170412962E+03  0.32780217421E+03  0.10447284439E+03 0.  0.
        -24    2    1    2    0    0  0.14028451228E+03 -0.13656666373E+03  0.26491978391E+03  0.33914748054E+03  0.80674181853E+02 0.  0.
         11    1    4    4    0    0  0.41777233022E+02 -0.28830825883E+02  0.13312430254E+03  0.14247327345E+03  0.00000000000E+00 0. -1.
        -12    1    4    4    0    0  0.98507279260E+02 -0.10773583785E+03  0.13179548137E+03  0.19667420709E+03  0.00000000000E+00 0.  1.
        -13    1    3    3    0    0  0.10289196471E+02  0.87082666362E+02  0.14586859529E+03  0.17019666694E+03  0.00000000000E+00 0.  1.
         13    1    3    3    0    0 -0.81985030945E+02  0.94517199398E+02  0.95835534326E+02  0.15760550727E+03  0.00000000000E+00 0. -1.
          2    1    1    2  501    0 -0.68588677808E+02 -0.45033202026E+02 -0.64668302228E+02  0.10447193557E+03  0.00000000000E+00 0. -1.
<scales pt_clust_5="13000.00000" pt_clust_6="13000.00000" pt_clust_7="13000.00000" pt_clust_8="13000.00000" pt_clust_9="13000.00000"></scales>
<clustering>
<clus scale="   80.674">  5  6 -1 -1</clus>
<clus scale="   82.051">  5  9 -1 -1</clus>
<clus scale="  104.473">  7  8 -1 -1</clus>
<clus scale="  221.435">  1  7  2 -1</clus>
<clus scale="  395.850">  2  5  1 -1</clus>
</clustering>
</event>
<event>
 9    1  0.4516508E-005  0.3870598E+03  0.7546771E-02  0.1068800E+00
         21   -1    0    0  501  502  0.00000000000E+00  0.00000000000E+00  0.21240971321E+03  0.21240971321E+03  0.00000000000E+00 0. -1.
          3   -1    0    0  502    0 -0.00000000000E+00 -0.00000000000E+00 -0.85476354011E+03  0.85476354011E+03  0.00000000000E+00 0. -1.
         23    2    1    2    0    0  0.19158995444E+03  0.48090236058E+02 -0.64420084374E+03  0.68010907971E+03  0.92381014166E+02 0.  0.
        -24    2    1    2    0    0 -0.83967605582E+01 -0.31941257276E+02 -0.13287028578E+03  0.15909644031E+03  0.81033418869E+02 0.  0.
         13    1    4    4    0    0 -0.14437022977E+01 -0.41273526667E+02 -0.20466722657E+02  0.46092027686E+02  0.00000000000E+00 0. -1.
        -14    1    4    4    0    0 -0.69530582605E+01  0.93322693906E+01 -0.11240356312E+03  0.11300441263E+03  0.00000000000E+00 0.  1.
        -13    1    3    3    0    0  0.12773682589E+03 -0.34763980217E+01 -0.47744320309E+03  0.49424770531E+03  0.00000000000E+00 0. -1.
         13    1    3    3    0    0  0.63853128555E+02  0.51566634079E+02 -0.16675764065E+03  0.18586137440E+03  0.00000000000E+00 0.  1.
          4    1    1    2  501    0 -0.18319319388E+03 -0.16148978781E+02  0.13471730262E+03  0.22796773330E+03  0.00000000000E+00 0. -1.
<scales pt_clust_5="13000.00000" pt_clust_6="13000.00000" pt_clust_7="13000.00000" pt_clust_8="13000.00000" pt_clust_9="13000.00000"></scales>
<clustering>
<clus scale="   81.033">  5  6 -1 -1</clus>
<clus scale="   92.381">  7  8 -1 -1</clus>
<clus scale="  183.904">  5  9 -1 -1</clus>
<clus scale="  218.068">  2  7  1 -1</clus>
<clus scale="  387.060">  1  5  2 -1</clus>
</clustering>
</event>
<event>
 9    1  0.4516508E-005  0.1432966E+03  0.7546771E-02  0.1222226E+00
          1   -1    0    0  502    0 -0.00000000000E+00  0.00000000000E+00  0.60124135884E+03  0.60124135884E+03  0.00000000000E+00 0. -1.
         21   -1    0    0  501  502  0.00000000000E+00 -0.00000000000E+00 -0.39224170894E+02  0.39224170894E+02  0.00000000000E+00 0.  1.
         23    2    1    2    0    0 -0.29014565258E+02  0.51132538319E+02  0.43730298146E+03  0.45049826879E+03  0.90875800479E+02 0.  0.
        -24    2    1    2    0    0  0.79141453786E+01 -0.67391697416E+02  0.12452854801E+03  0.16332852144E+03  0.81022046797E+02 0.  0.
         11    1    4    4    0    0 -0.24143000859E+02 -0.64580894910E+02  0.60752637212E+02  0.91893739755E+02  0.00000000000E+00 0. -1.
        -12    1    4    4    0    0  0.32057146238E+02 -0.28108025065E+01  0.63775910802E+02  0.71434781684E+02  0.00000000000E+00 0.  1.
        -11    1    3    3    0    0 -0.55773463971E+02  0.26111923544E+02  0.35648045281E+03  0.36176072903E+03  0.00000000000E+00 0. -1.
         11    1    3    3    0    0  0.26758898713E+02  0.25020614775E+02  0.80822528652E+02  0.88737539755E+02  0.00000000000E+00 0.  1.
          2    1    1    2  501    0  0.21100419879E+02  0.16259159097E+02  0.18565847294E+00  0.26638739510E+02  0.00000000000E+00 0. -1.
<scales pt_clust_5="13000.00000" pt_clust_6="13000.00000" pt_clust_7="13000.00000" pt_clust_8="13000.00000" pt_clust_9="13000.00000"></scales>
<clustering>
<clus scale="   81.022">  5  6 -1 -1</clus>
<clus scale="   26.638">  5  9 -1 -1</clus>
<clus scale="   90.876">  7  8 -1 -1</clus>
<clus scale="  108.235">  1  7  2 -1</clus>
<clus scale="  143.297">  2  5  1 -1</clus>
</clustering>
</event>
<event>
 9    1  0.4516508E-005  0.1966745E+03  0.7546771E-02  0.1153622E+00
          3   -1    0    0  502    0 -0.00000000000E+00  0.00000000000E+00  0.15162693512E+03  0.15162693512E+03  0.00000000000E+00 0. -1.
         21   -1    0    0  501  502  0.00000000000E+00 -0.00000000000E+00 -0.41005297165E+03  0.41005297165E+03  0.00000000000E+00 0.  1.
         23    2    1    2    0    0 -0.16063246066E+03 -0.44754388630E+02 -0.30427985131E+03  0.35973085844E+03  0.94943772205E+02 0.  0.
        -24    2    1    2    0    0  0.12546980900E+03  0.55784880392E+02  0.27215678784E+02  0.16065178531E+03  0.78826880573E+02 0.  0.
         13    1    4    4    0    0  0.13367412235E+03  0.38412844757E+02  0.22821594449E+02  0.14094375759E+03  0.00000000000E+00 0. -1.
        -14    1    4    4    0    0 -0.82043133517E+01  0.17372035635E+02  0.43940843353E+01  0.19708027725E+02  0.00000000000E+00 0.  1.
        -11    1    3    3    0    0 -0.24813865503E+02 -0.47738946693E+02 -0.11256681166E+03  0.12476386512E+03  0.00000000000E+00 0.  1.
         11    1    3    3    0    0 -0.13581859516E+03  0.29845580625E+01 -0.19171303965E+03  0.23496699332E+03  0.00000000000E+00 0. -1.
          4    1    1    2  501    0  0.35162651656E+02 -0.11030491762E+02  0.18638135995E+02  0.41297263025E+02  0.00000000000E+00 0. -1.
<scales pt_clust_5="13000.00000" pt_clust_6="13000.00000" pt_clust_7="13000.00000" pt_clust_8="13000.00000" pt_clust_9="13000.00000"></scales>
<clustering>
<clus scale="   78.827">  5  6 -1 -1</clus>
<clus scale="   36.852">  5  9 -1 -1</clus>
<clus scale="   94.944">  7  8 -1 -1</clus>
<clus scale="  191.886">  1  7  2 -1</clus>
<clus scale="  196.674">  2  5  1 -1</clus>
</clustering>
</event>
<event>
 9    1  0.4516508E-005  0.1944422E+03  0.7546771E-02  0.1181417E+00
         21   -1    0    0  501  502  0.00000000000E+00  0.00000000000E+00  0.50820982604E+03  0.50820982604E+03  0.00000000000E+00 0. -1.
          1   -1    0    0  502    0 -0.00000000000E+00 -0.00000000000E+00 -0.45129327857E+02  0.45129327857E+02  0.00000000000E+00 0. -1.
         23    2    1    2    0    0 -0.43718871966E+02  0.26550805627E+02  0.12324772851E+03  0.16181128665E+03  0.91523793952E+02 0.  0.
        -24    2    1    2    0    0 -0.27688646215E+02  0.35500958347E+02  0.11335717665E+03  0.14608816120E+03  0.80404739747E+02 0.  0.
         13    1    4    4    0    0 -0.10449298022E+02  0.17892652798E+02  0.11901447301E+03  0.12080471696E+03  0.00000000000E+00 0. -1.
        -14    1    4    4    0    0 -0.17239348193E+02  0.17608305550E+02 -0.56572963696E+01  0.25283444241E+02  0.00000000000E+00 0.  1.
        -13    1    3    3    0    0 -0.67035633790E+02  0.19062993332E+02  0.53413774498E+02  0.87807774248E+02  0.00000000000E+00 0. -1.
         13    1    3    3    0    0  0.23316761824E+02  0.74878122956E+01  0.69833954016E+02  0.74003512406E+02  0.00000000000E+00 0.  1.
          2    1    1    2  501    0  0.71407518181E+02 -0.62051763975E+02  0.22647559302E+03  0.24543970604E+03  0.00000000000E+00 0. -1.
<scales pt_clust_5="13000.00000" pt_clust_6="13000.00000" pt_clust_7="13000.00000" pt_clust_8="13000.00000" pt_clust_9="13000.00000"></scales>
<clustering>
<clus scale="   80.405">  5  6 -1 -1</clus>
<clus scale="   91.524">  7  8 -1 -1</clus>
<clus scale="   94.602">  5  9 -1 -1</clus>
<clus scale="  104.847">  2  7  1 -1</clus>
<clus scale="  194.442">  1  5  2 -1</clus>
</clustering>
</event>
<event>
 9    1  0.4516508E-005  0.1602868E+03  0.7546771E-02  0.1213769E+00
         21   -1    0    0  501  502  0.00000000000E+00  0.00000000000E+00  0.18223118635E+03  0.18223118635E+03  0.00000000000E+00 0. -1.
          3   -1    0    0  502    0 -0.00000000000E+00 -0.00000000000E+00 -0.89300292636E+02  0.89300292636E+02  0.00000000000E+00 0. -1.
         23    2    1    2    0    0  0.12827750347E+02 -0.42137984472E+01  0.16210280840E+02  0.93829746055E+02  0.91427243005E+02 0.  0.
        -24    2    1    2    0    0 -0.38868048245E+02  0.48580392537E+02  0.31253755973E+02  0.10904514649E+03  0.83924174088E+02 0.  0.
         11    1    4    4    0    0 -0.39845447513E+02  0.58849769679E+02  0.50516253749E+02  0.87194305844E+02  0.00000000000E+00 0. -1.
        -12    1    4    4    0    0  0.97739926780E+00 -0.10269377142E+02 -0.19262497776E+02  0.21850840642E+02  0.00000000000E+00 0.  1.
        -13    1    3    3    0    0  0.29913650788E+02  0.13651768869E+02  0.45095565796E+02  0.55810459155E+02  0.00000000000E+00 0.  1.
         13    1    3    3    0    0 -0.17085900441E+02 -0.17865567316E+02 -0.28885284956E+02  0.38019286900E+02  0.00000000000E+00 0. -1.
          4    1    1    2  501    0  0.26040297898E+02 -0.44366594090E+02  0.45466856901E+02  0.68656586445E+02  0.00000000000E+00 0. -1.
<scales pt_clust_5="13000.00000" pt_clust_6="13000.00000" pt_clust_7="13000.00000" pt_clust_8="13000.00000" pt_clust_9="13000.00000"></scales>
<clustering>
<clus scale="   83.924">  5  6 -1 -1</clus>
<clus scale="   51.444">  5  9 -1 -1</clus>
<clus scale="   91.427">  7  8 -1 -1</clus>
<clus scale="   92.419">  2  7  1 -1</clus>
<clus scale="  160.287">  1  5  2 -1</clus>
</clustering>
</event>
<event>
 9    1  0.4516508E-005  0.3602981E+03  0.7546771E-02  0.1109318E+00
         21   -1    0    0  501  502  0.00000000000E+00  0.00000000000E+00  0.63742661894E+03  0.63742661894E+03  0.00000000000E+00 0.  1.
         -4   -1    0    0    0  501 -0.00000000000E+00 -0.00000000000E+00 -0.82467947206E+02  0.82467947206E+02  0.00000000000E+00 0.  1.
         23    2    1    2    0    0 -0.83102220326E+01 -0.16892578229E+02  0.70999478575E+02  0.11654455362E+03  0.90483634054E+02 0.  0.
        -24    2    1    2    0    0 -0.13499355510E+03 -0.73043806818E+02  0.33760454794E+03  0.37964438436E+03  0.81205727334E+02 0.  0.
         13    1    4    4    0    0 -0.53884693278E+02  0.64721439849E+00  0.57198387189E+02  0.78585205689E+02  0.00000000000E+00 0. -1.
        -14    1    4    4    0    0 -0.81108861823E+02 -0.73691021217E+02  0.28040616075E+03  0.30105917867E+03  0.00000000000E+00 0.  1.
        -13    1    3    3    0    0 -0.47152560442E+02 -0.16757049511E+02  0.23787397796E+02  0.55407607406E+02  0.00000000000E+00 0.  1.
         13    1    3    3    0    0  0.38842338409E+02 -0.13552871813E+00  0.47212080779E+02  0.61136946216E+02  0.00000000000E+00 0. -1.
         -3    1    1    2    0  502  0.14330377713E+03  0.89936385047E+02  0.14635464522E+03  0.22370562817E+03  0.00000000000E+00 0.  1.
<scales pt_clust_5="13000.00000" pt_clust_6="13000.00000" pt_clust_7="13000.00000" pt_clust_8="13000.00000" pt_clust_9="13000.00000"></scales>
<clustering>
<clus scale="   81.206">  5  6 -1 -1</clus>
<clus scale="   90.484">  7  8 -1 -1</clus>
<clus scale="   92.421">  2  7  1 -1</clus>
<clus scale="  158.939">  5  9 -1 -1</clus>
<clus scale="  360.298">  1  5  2 -1</clus>
</clustering>
</event>
<event>
 9    1  0.4516508E-005  0.2325389E+03  0.7546771E-02  0.1153309E+00
         21   -1    0    0  501  502  0.00000000000E+00  0.00000000000E+00  0.45801498057E+03  0.45801498057E+03  0.00000000000E+00 0. -1.
          1   -1    0    0  502    0 -0.00000000000E+00 -0.00000000000E+00 -0.10837224821E+03  0.10837224821E+03  0.00000000000E+00 0. -1.
         23    2    1    2    0    0  0.75652928210E+02 -0.40582048942E+01 -0.30410122419E+02  0.12083757863E+03  0.89090461274E+02 0.  0.
        -24    2    1    2    0    0  0.96232603328E+01 -0.55643219652E+02  0.72070606553E+02  0.12045065962E+03  0.78265024378E+02 0.  0.
         13    1    4    4    0    0 -0.31109118258E+02 -0.50392867340E+01  0.25068147082E+02  0.40268891811E+02  0.00000000000E+00 0. -1.
        -14    1    4    4    0    0  0.40732378591E+02 -0.50603932918E+02  0.47002459472E+02  0.80181767808E+02  0.00000000000E+00 0.  1.
        -11    1    3    3    0    0  0.31536308423E+02 -0.32274217790E+02  0.18886542418E+02  0.48916923119E+02  0.00000000000E+00 0.  1.
         11    1    3    3    0    0  0.44116619787E+02  0.28216012895E+02 -0.49296664837E+02  0.71920655512E+02  0.00000000000E+00 0. -1.
          2    1    1    2  501    0 -0.85276188543E+02  0.59701424546E+02  0.30798224822E+03  0.32509899053E+03  0.00000000000E+00 0. -1.
<scales pt_clust_5="13000.00000" pt_clust_6="13000.00000" pt_clust_7="13000.00000" pt_clust_8="13000.00000" pt_clust_9="13000.00000"></scales>
<clustering>
<clus scale="   78.265">  5  6 -1 -1</clus>
<clus scale="   89.090">  7  8 -1 -1</clus>
<clus scale="  104.098">  5  9 -1 -1</clus>
<clus scale="  116.948">  2  7  1 -1</clus>
<clus scale="  232.539">  1  5  2 -1</clus>
</clustering>
</event>
<event>
 9    1  0.4516508E-005  0.3355439E+03  0.7546771E-02  0.1111635E+00
         -2   -1    0    0    0  501 -0.00000000000E+00  0.00000000000E+00  0.57082231039E+03  0.57082231039E+03  0.00000000000E+00 0.  1.
         21   -1    0    0  501  502  0.00000000000E+00 -0.00000000000E+00 -0.89628946654E+02  0.89628946654E+02  0.00000000000E+00 0. -1.
         23    2    1    2    0    0 -0.42551000575E+02 -0.40151131753E+02  0.65376680225E+02  0.12613557598E+03  0.90627656820E+02 0.  0.
        -24    2    1    2    0    0  0.26915930053E+02  0.16862751110E+03  0.15856942841E+03  0.24634556849E+03  0.79888489137E+02 0.  0.
         13    1    4    4    0    0 -0.87283956484E+01  0.12947951753E+03  0.13830441295E+03  0.18965558519E+03  0.00000000000E+00 0. -1.
        -14    1    4    4    0    0  0.35644325702E+02  0.39147993565E+02  0.20265015462E+02  0.56689983300E+02  0.00000000000E+00 0.  1.
        -13    1    3    3    0    0  0.26746221847E+02 -0.23902106767E+02  0.14720695987E+02  0.38773315325E+02  0.00000000000E+00 0. -1.
         13    1    3    3    0    0 -0.69297222421E+02 -0.16249024986E+02  0.50655984238E+02  0.87362260659E+02  0.00000000000E+00 0.  1.
         -1    1    1    2    0  502  0.15635070522E+02 -0.12847637934E+03  0.25724725510E+03  0.28797011257E+03  0.00000000000E+00 0.  1.
<scales pt_clust_5="13000.00000" pt_clust_6="13000.00000" pt_clust_7="13000.00000" pt_clust_8="13000.00000" pt_clust_9="13000.00000"></scales>
<clustering>
<clus scale="   79.888">  5  6 -1 -1</clus>
<clus scale="   90.628">  7  8 -1 -1</clus>
<clus scale="  107.871">  1  7  2 -1</clus>
<clus scale="  151.771">  5  9 -1 -1</clus>
<clus scale="  335.544">  2  5  1 -1</clus>
</clustering>
</event>
<event>
 9    1  0.4516508E-005  0.4282295E+03  0.7546771E-02  0.1087302E+00
          1   -1    0    0  502    0 -0.00000000000E+00  0.00000000000E+00  0.27096728696E+03  0.27096728696E+03  0.00000000000E+00 0. -1.
         21   -1    0    0  501  502  0.00000000000E+00 -0.00000000000E+00 -0.45138446447E+03  0.45138446447E+03  0.00000000000E+00 0. -1.
         23    2    1    2    0    0 -0.33873289613E+02  0.95151913470E+01  0.15171428880E+03  0.18041833203E+03  0.91080242052E+02 0.  0.
        -24    2    1    2    0    0 -0.12987999297E+03 -0.12037065568E+03 -0.27331082293E+03  0.33562312005E+03  0.81155193681E+02 0.  0.
         13    1    4    4    0    0 -0.12190149990E+03 -0.13235320259E+03 -0.24644407271E+03  0.30514263367E+03  0.00000000000E+00 0. -1.
        -14    1    4    4    0    0 -0.79784930728E+01  0.11982546915E+02 -0.26866750225E+02  0.30480486380E+02  0.00000000000E+00 0.  1.
        -13    1    3    3    0    0 -0.64756183089E+02  0.12400558157E+02  0.11278694836E+03  0.13064468153E+03  0.00000000000E+00 0. -1.
         13    1    3    3    0    0  0.30882893476E+02 -0.28853668103E+01  0.38927340436E+02  0.49773650504E+02  0.00000000000E+00 0.  1.
          2    1    1    2  501    0  0.16375328258E+03  0.11085546433E+03 -0.58820643369E+02  0.20631029934E+03  0.00000000000E+00 0. -1.
<scales pt_clust_5="13000.00000" pt_clust_6="13000.00000" pt_clust_7="13000.00000" pt_clust_8="13000.00000" pt_clust_9="13000.00000"></scales>
<clustering>
<clus scale="   81.155">  5  6 -1 -1</clus>
<clus scale="   91.080">  7  8 -1 -1</clus>
<clus scale="   97.640">  1  7  2 -1</clus>
<clus scale="  182.757">  5  9 -1 -1</clus>
<clus scale="  428.230">  2  5  1 -1</clus>
</clustering>
</event>
<event>
 9    1  0.4516508E-005  0.3703892E+03  0.7546771E-02  0.1077975E+00
          1   -1    0    0  502    0 -0.00000000000E+00  0.00000000000E+00  0.65268529677E+03  0.65268529677E+03  0.00000000000E+00 0. -1.
         21   -1    0    0  501  502  0.00000000000E+00 -0.00000000000E+00 -0.14511634801E+03  0.14511634801E+03  0.00000000000E+00 0. -1.
         23    2    1    2    0    0 -0.65301629973E+02 -0.15706988145E+03  0.34202155200E+02  0.19674898243E+03  0.92763808303E+02 0.  0.
        -24    2    1    2    0    0 -0.66614225137E+02  0.37026950067E+01  0.20287258392E+02  0.10486282780E+03  0.78316504399E+02 0.  0.
         11    1    4    4    0    0 -0.56716526715E+02 -0.76574844917E+01 -0.20960987453E+02  0.60948867638E+02  0.00000000000E+00 0. -1.
        -12    1    4    4    0    0 -0.98976984216E+01  0.11360179498E+02  0.41248245844E+02  0.43913960166E+02  0.00000000000E+00 0.  1.
        -11    1    3    3    0    0 -0.41937337278E+02 -0.81216237687E+01  0.11864682141E+02  0.44333640872E+02  0.00000000000E+00 0.  1.
         11    1    3    3    0    0 -0.23364292695E+02 -0.14894825768E+03  0.22337473059E+02  0.15241534156E+03  0.00000000000E+00 0. -1.
          2    1    1    2  501    0  0.13191585511E+03  0.15336718645E+03  0.45307953517E+03  0.49618983454E+03  0.00000000000E+00 0. -1.
<scales pt_clust_5="13000.00000" pt_clust_6="13000.00000" pt_clust_7="13000.00000" pt_clust_8="13000.00000" pt_clust_9="13000.00000"></scales>
<clustering>
<clus scale="   78.317">  5  6 -1 -1</clus>
<clus scale="   92.764">  7  8 -1 -1</clus>
<clus scale="  193.753">  1  7  2 -1</clus>
<clus scale="   75.642">  5  9 -1 -1</clus>
<clus scale="  370.389">  2  5  1 -1</clus>
</clustering>
</event>
<event>
 9    1  0.4516508E-005  0.1649631E+03  0.7546771E-02  0.1204900E+00
          1   -1    0    0  502    0 -0.00000000000E+00  0.00000000000E+00  0.68969266738E+02  0.68969266738E+02  0.00000000000E+00 0. -1.
         21   -1    0    0  501  502  0.00000000000E+00 -0.00000000000E+00 -0.26346050591E+03  0.26346050591E+03  0.00000000000E+00 0.  1.
         23    2    1    2    0    0  0.32261824876E+02  0.13719530869E+02 -0.95292174889E+02  0.13993747359E+03  0.96295623198E+02 0.  0.
        -24    2    1    2    0    0  0.10310118858E+02  0.44400647562E+02 -0.66221034745E+02  0.11325925061E+03  0.79779172422E+02 0.  0.
         13    1    4    4    0    0 -0.19820619654E+02  0.33358499869E+02 -0.70905846413E+02  0.80828741995E+02  0.00000000000E+00 0. -1.
        -14    1    4    4    0    0  0.30130738512E+02  0.11042147693E+02  0.46848116682E+01  0.32430508620E+02  0.00000000000E+00 0.  1.
        -11    1    3    3    0    0  0.63864667146E+02  0.20956493307E+02 -0.78768184156E+02  0.10354852561E+03  0.00000000000E+00 0. -1.
         11    1    3    3    0    0 -0.31602842270E+02 -0.72369624382E+01 -0.16523990733E+02  0.36388947973E+02  0.00000000000E+00 0.  1.
          2    1    1    2  501    0 -0.42571943735E+02 -0.58120178431E+02 -0.32978029541E+02  0.79233048450E+02  0.00000000000E+00 0. -1.
<scales pt_clust_5="13000.00000" pt_clust_6="13000.00000" pt_clust_7="13000.00000" pt_clust_8="13000.00000" pt_clust_9="13000.00000"></scales>
<clustering>
<clus scale="   79.779">  5  6 -1 -1</clus>
<clus scale="   72.044">  5  9 -1 -1</clus>
<clus scale="   96.296">  7  8 -1 -1</clus>
<clus scale="  102.479">  1  7  2 -1</clus>
<clus scale="  164.963">  2  5  1 -1</clus>
</clustering>
</event>
<event>
 9    1  0.4516508E-005  0.1653528E+03  0.7546771E-02  0.1194322E+00
          1   -1    0    0  502    0 -0.00000000000E+00  0.00000000000E+00  0.38202406296E+03  0.38202406296E+03  0.00000000000E+00 0. -1.
         21   -1    0    0  501  502  0.00000000000E+00 -0.00000000000E+00 -0.88333043491E+02  0.88333043491E+02  0.00000000000E+00 0. -1.
         23    2    1    2    0    0 -0.40500147409E+02 -0.87798012155E+02  0.27574960606E+03  0.30403376268E+03  0.83963865630E+02 0.  0.
        -24    2    1    2    0    0  0.74930682896E+01  0.15861152819E+02  0.24620520921E+02  0.86894196219E+02  0.81465999319E+02 0.  0.
         11    1    4    4    0    0  0.16771603290E+02 -0.27922328583E+02 -0.53802540754E+01  0.33013485795E+02  0.00000000000E+00 0. -1.
        -12    1    4    4    0    0 -0.92785350006E+01  0.43783481402E+02  0.30000774996E+02  0.53880710424E+02  0.00000000000E+00 0.  1.
        -11    1    3    3    0    0 -0.58252638992E+02 -0.62924101176E+02  0.13444467555E+03  0.15946216868E+03  0.00000000000E+00 0. -1.
         11    1    3    3    0    0  0.17752491583E+02 -0.24873910978E+02  0.14130493051E+03  0.14457159400E+03  0.00000000000E+00 0.  1.
          2    1    1    2  501    0  0.33007079119E+02  0.71936859336E+02 -0.66791075112E+01  0.79429147548E+02  0.00000000000E+00 0. -1.
<scales pt_clust_5="13000.00000" pt_clust_6="13000.00000" pt_clust_7="13000.00000" pt_clust_8="13000.00000" pt_clust_9="13000.00000"></scales>
<clustering>
<clus scale="   81.466">  5  6 -1 -1</clus>
<clus scale="   79.148">  5  9 -1 -1</clus>
<clus scale="   83.964">  7  8 -1 -1</clus>
<clus scale="  128.057">  1  7  2 -1</clus>
<clus scale="  165.353">  2  5  1 -1</clus>
</clustering>
</event>
<event>
 9    1  0.4516508E-005  0.3578074E+03  0.7546771E-02  0.1107779E+00
          3   -1    0    0  502    0 -0.00000000000E+00  0.00000000000E+00  0.92799763483E+02  0.92799763483E+02  0.00000000000E+00 0. -1.
         21   -1    0    0  501  502  0.00000000000E+00 -0.00000000000E+00 -0.68450325340E+03  0.68450325340E+03  0.00000000000E+00 0. -1.
         23    2    1    2    0    0 -0.23979575572E+02 -0.88649908407E+01 -0.15963213201E+02  0.99436500675E+02  0.94758563642E+02 0.  0.
        -24    2    1    2    0    0  0.69179306094E+02 -0.54610990215E+02 -0.25121335977E+02  0.12176092038E+03  0.80165476153E+02 0.  0.
         13    1    4    4    0    0  0.71927219187E+02 -0.44632313761E+02 -0.47527655834E+02  0.97079587766E+02  0.00000000000E+00 0. -1.
        -14    1    4    4    0    0 -0.27479130932E+01 -0.99786764538E+01  0.22406319857E+02  0.24681332615E+02  0.00000000000E+00 0.  1.
        -11    1    3    3    0    0 -0.44970115599E+02 -0.32075211238E+02  0.13055138300E+02  0.56758850490E+02  0.00000000000E+00 0.  1.
         11    1    3    3    0    0  0.20990540026E+02  0.23210220397E+02 -0.29018351501E+02  0.42677650185E+02  0.00000000000E+00 0. -1.
          4    1    1    2  501    0 -0.45199730521E+02  0.63475981056E+02 -0.55061894074E+03  0.55610559583E+03  0.00000000000E+00 0. -1.
<scales pt_clust_5="13000.00000" pt_clust_6="13000.00000" pt_clust_7="13000.00000" pt_clust_8="13000.00000" pt_clust_9="13000.00000"></scales>
<clustering>
<clus scale="   80.165">  5  6 -1 -1</clus>
<clus scale="   77.924">  5  9 -1 -1</clus>
<clus scale="   94.759">  7  8 -1 -1</clus>
<clus scale="   98.147">  1  7  2 -1</clus>
<clus scale="  357.807">  2  5  1 -1</clus>
</clustering>
</event>
<event>
 9    1  0.4516508E-005  0.3090117E+03  0.7546771E-02  0.1106368E+00
         21   -1    0    0  501  502  0.00000000000E+00  0.00000000000E+00  0.31309406066E+02  0.31309406066E+02  0.00000000000E+00 0. -1.
          1   -1    0    0  502    0 -0.00000000000E+00 -0.00000000000E+00 -0.17766803568E+04  0.17766803568E+04  0.00000000000E+00 0. -1.
         23    2    1    2    0    0  0.29702551242E+02  0.12560186045E+03 -0.47523329894E+03  0.50080274164E+03  0.91096809583E+02 0.  0.
        -24    2    1    2    0    0  0.15840110999E+02  0.29424495633E+02 -0.13802953252E+03  0.16360663538E+03  0.81229731212E+02 0.  0.
         11    1    4    4    0    0 -0.22269117595E+02  0.28279893918E+02 -0.23724007752E+02  0.43110260290E+02  0.00000000000E+00 0. -1.
        -12    1    4    4    0    0  0.38109228595E+02  0.11446017152E+01 -0.11430552477E+03  0.12049637509E+03  0.00000000000E+00 0.  1.
        -11    1    3    3    0    0 -0.30586736606E+02  0.60690754755E+02 -0.24012676580E+03  0.24955917099E+03  0.00000000000E+00 0.  1.
         11    1    3    3    0    0  0.60289287848E+02  0.64911105693E+02 -0.23510653314E+03  0.25124357065E+03  0.00000000000E+00 0. -1.
          2    1    1    2  501    0 -0.45542662241E+02 -0.15502635608E+03 -0.11321081193E+04  0.11435803858E+04  0.00000000000E+00 0. -1.
<scales pt_clust_5="13000.00000" pt_clust_6="13000.00000" pt_clust_7="13000.00000" pt_clust_8="13000.00000" pt_clust_9="13000.00000"></scales>
<clustering>
<clus scale="   81.230">  5  6 -1 -1</clus>
<clus scale="   91.097">  7  8 -1 -1</clus>
<clus scale="  157.977">  2  7  1 -1</clus>
<clus scale="   48.167">  5  9 -1 -1</clus>
<clus scale="  309.012">  1  5  2 -1</clus>
</clustering>
</event>
<event>
 9    1  0.4516508E-005  0.3605869E+03  0.7546771E-02  0.1083037E+00
         21   -1    0    0  501  502  0.00000000000E+00  0.00000000000E+00  0.11905467661E+04  0.11905467661E+04  0.00000000000E+00 0. -1.
          3   -1    0    0  502    0 -0.00000000000E+00 -0.00000000000E+00 -0.70339003327E+02  0.70339003327E+02  0.00000000000E+00 0. -1.
         23    2    1    2    0    0  0.37372565109E+02  0.15469983775E+03  0.19351283237E+03  0.26650838908E+03  0.90833676228E+02 0.  0.
        -24    2    1    2    0    0  0.13187496082E+03 -0.53158065779E+02  0.42939031016E+03  0.45933781003E+03  0.79989999455E+02 0.  0.
         13    1    4    4    0    0  0.89555602855E+02 -0.39176692237E+02  0.38189079082E+03  0.39420248012E+03  0.00000000000E+00 0. -1.
        -14    1    4    4    0    0  0.42319357969E+02 -0.13981373542E+02  0.47499519336E+02  0.65135329908E+02  0.00000000000E+00 0.  1.
        -13    1    3    3    0    0 -0.27563408559E+02  0.65013987086E+02  0.94500480560E+02  0.11796991495E+03  0.00000000000E+00 0.  1.
         13    1    3    3    0    0  0.64935973669E+02  0.89685850663E+02  0.99012351812E+02  0.14853847413E+03  0.00000000000E+00 0. -1.
          4    1    1    2  501    0 -0.16924752593E+03 -0.10154177197E+03  0.49730462023E+03  0.53503957030E+03  0.00000000000E+00 0. -1.
<scales pt_clust_5="13000.00000" pt_clust_6="13000.00000" pt_clust_7="13000.00000" pt_clust_8="13000.00000" pt_clust_9="13000.00000"></scales>
<clustering>
<clus scale="   79.990">  5  6 -1 -1</clus>
<clus scale="   90.834">  7  8 -1 -1</clus>
<clus scale="  183.247">  2  7  1 -1</clus>
<clus scale="  149.197">  5  9 -1 -1</clus>
<clus scale="  360.587">  1  5  2 -1</clus>
</clustering>
</event>
<event>
 9    1  0.4516508E-005  0.2491146E+03  0.7546771E-02  0.1126626E+00
          1   -1    0    0  502    0 -0.00000000000E+00  0.00000000000E+00  0.74218275217E+03  0.74218275217E+03  0.00000000000E+00 0. -1.
         21   -1    0    0  501  502  0.00000000000E+00 -0.00000000000E+00 -0.88839162662E+02  0.88839162662E+02  0.00000000000E+00 0.  1.
         23    2    1    2    0    0  0.13387049631E+03 -0.83466804221E+02  0.65476093705E+02  0.19255010337E+03  0.88884229597E+02 0.  0.
        -24    2    1    2    0    0 -0.50029556841E+02  0.49081692406E+02  0.11638893193E+03  0.15836382857E+03  0.81367989024E+02 0.  0.
         13    1    4    4    0    0 -0.56326032716E+02  0.66972823445E+02  0.87086453144E+02  0.12345862207E+03  0.00000000000E+00 0. -1.
        -14    1    4    4    0    0  0.62964758746E+01 -0.17891131039E+02  0.29302478785E+02  0.34905206506E+02  0.00000000000E+00 0.  1.
        -13    1    3    3    0    0  0.11758305851E+03 -0.27579952141E+02  0.30232913310E+02  0.12450083717E+03  0.00000000000E+00 0.  1.
         13    1    3    3    0    0  0.16287437795E+02 -0.55886852080E+02  0.35243180395E+02  0.68049266195E+02  0.00000000000E+00 0. -1.
          2    1    1    2  501    0 -0.83840939464E+02  0.34385111815E+02  0.47147856388E+03  0.48010798290E+03  0.00000000000E+00 0. -1.
<scales pt_clust_5="13000.00000" pt_clust_6="13000.00000" pt_clust_7="13000.00000" pt_clust_8="13000.00000" pt_clust_9="13000.00000"></scales>
<clustering>
<clus scale="   81.368">  5  6 -1 -1</clus>
<clus scale="   88.884">  7  8 -1 -1</clus>
<clus scale="   90.618">  5  9 -1 -1</clus>
<clus scale="  181.076">  1  7  2 -1</clus>
<clus scale="  249.115">  2  5  1 -1</clus>
</clustering>
</event>
<event>
 9    1  0.4516508E-005  0.1039714E+04  0.7546771E-02  0.9884157E-01
         21   -1    0    0  501  502  0.00000000000E+00  0.00000000000E+00  0.27769604389E+03  0.27769604389E+03  0.00000000000E+00 0.  1.
          1   -1    0    0  502    0 -0.00000000000E+00 -0.00000000000E+00 -0.12627194480E+04  0.12627194480E+04  0.00000000000E+00 0. -1.
         23    2    1    2    0    0  0.27552236138E+02 -0.80209597053E+02 -0.26511248027E+02  0.12628984834E+03  0.89741709060E+02 0.  0.
        -24    2    1    2    0    0 -0.36518739477E+01 -0.25734704114E+03  0.11115460233E+03  0.29220644621E+03  0.82391903853E+02 0.  0.
         11    1    4    4    0    0 -0.40508668131E+02 -0.17317805825E+03  0.64789040967E+02  0.18928605835E+03  0.00000000000E+00 0. -1.
        -12    1    4    4    0    0  0.36856794184E+02 -0.84168982881E+02  0.46365561366E+02  0.10292038786E+03  0.00000000000E+00 0.  1.
        -11    1    3    3    0    0  0.49202300664E+00 -0.93240119517E+02 -0.16941965240E+02  0.94768096743E+02  0.00000000000E+00 0.  1.
         11    1    3    3    0    0  0.27060213131E+02  0.13030522463E+02 -0.95692827872E+01  0.31521751592E+02  0.00000000000E+00 0. -1.
          2    1    1    2  501    0 -0.23900362190E+02  0.33755663819E+03 -0.10696667584E+04  0.11219191973E+04  0.00000000000E+00 0. -1.
<scales pt_clust_5="13000.00000" pt_clust_6="13000.00000" pt_clust_7="13000.00000" pt_clust_8="13000.00000" pt_clust_9="13000.00000"></scales>
<clustering>
<clus scale="   82.392">  5  6 -1 -1</clus>
<clus scale="   89.742">  7  8 -1 -1</clus>
<clus scale="  123.476">  2  7  1 -1</clus>
<clus scale="  263.472">  5  9 -1 -1</clus>
<clus scale=" 1039.714">  1  5  2 -1</clus>
</clustering>
</event>
<event>
 9    1  0.4516508E-005  0.3753641E+03  0.7546771E-02  0.1087760E+00
         21   -1    0    0  501  502  0.00000000000E+00  0.00000000000E+00  0.26847437836E+03  0.26847437836E+03  0.00000000000E+00 0. -1.
          3   -1    0    0  502    0 -0.00000000000E+00 -0.00000000000E+00 -0.41573961590E+03  0.41573961590E+03  0.00000000000E+00 0. -1.
         23    2    1    2    0    0 -0.11287831432E+03 -0.15667468288E+02 -0.25606677474E+03  0.29339945154E+03  0.86752876818E+02 0.  0.
        -24    2    1    2    0    0 -0.19964155901E+02  0.11589702606E+02  0.20831945465E+03  0.22477970913E+03  0.81215969632E+02 0.  0.
         11    1    4    4    0    0 -0.45504647043E+02 -0.13745893920E+02  0.13467618591E+03  0.14281910781E+03  0.00000000000E+00 0. -1.
        -12    1    4    4    0    0  0.25540491142E+02  0.25335596527E+02  0.73643268740E+02  0.81960601327E+02  0.00000000000E+00 0.  1.
        -11    1    3    3    0    0 -0.13134816138E+02 -0.38658736849E+02 -0.75996198207E+02  0.86269597609E+02  0.00000000000E+00 0. -1.
         11    1    3    3    0    0 -0.99743498178E+02  0.22991268561E+02 -0.18007057653E+03  0.20712985393E+03  0.00000000000E+00 0.  1.
          4    1    1    2  501    0  0.13284247022E+03  0.40777656812E+01 -0.99517917464E+02  0.16603483358E+03  0.00000000000E+00 0. -1.
<scales pt_clust_5="13000.00000" pt_clust_6="13000.00000" pt_clust_7="13000.00000" pt_clust_8="13000.00000" pt_clust_9="13000.00000"></scales>
<clustering>
<clus scale="   81.216">  5  6 -1 -1</clus>
<clus scale="   86.753">  7  8 -1 -1</clus>
<clus scale="  132.905">  5  9 -1 -1</clus>
<clus scale="  143.224">  2  7  1 -1</clus>
<clus scale="  375.364">  1  5  2 -1</clus>
</clustering>
</event>
<event>
 9    1  0.4516508E-005  0.2226455E+03  0.7546771E-02  0.1138799E+00
          1   -1    0    0  502    0 -0.00000000000E+00  0.00000000000E+00  0.40243710927E+03  0.40243710927E+03  0.00000000000E+00 0. -1.
         21   -1    0    0  501  502  0.00000000000E+00 -0.00000000000E+00 -0.10548082508E+03  0.10548082508E+03  0.00000000000E+00 0. -1.
         23    2    1    2    0    0  0.82059228164E+02  0.14278400075E+03  0.11811930433E+03  0.22234190259E+03  0.91448148121E+02 0.  0.
        -24    2    1    2    0    0  0.82374782545E+00 -0.67340496023E+02  0.11777891038E+03  0.15794610595E+03  0.80868286050E+02 0.  0.
         13    1    4    4    0    0  0.13296264034E+02 -0.79449128825E+02  0.68670380920E+02  0.10585166944E+03  0.00000000000E+00 0. -1.
        -14    1    4    4    0    0 -0.12472516209E+02  0.12108632802E+02  0.49108529461E+02  0.52094436504E+02  0.00000000000E+00 0.  1.
        -11    1    3    3    0    0 -0.12495952191E+02  0.54484795966E+02  0.54893390178E+02  0.78345555700E+02  0.00000000000E+00 0.  1.
         11    1    3    3    0    0  0.94555180355E+02  0.88299204787E+02  0.63225914148E+02  0.14399634689E+03  0.00000000000E+00 0. -1.
          2    1    1    2  501    0 -0.82882975989E+02 -0.75443504731E+02  0.61058069485E+02  0.12762992582E+03  0.00000000000E+00 0. -1.
<scales pt_clust_5="13000.00000" pt_clust_6="13000.00000" pt_clust_7="13000.00000" pt_clust_8="13000.00000" pt_clust_9="13000.00000"></scales>
<clustering>
<clus scale="   80.868">  5  6 -1 -1</clus>
<clus scale="   91.448">  7  8 -1 -1</clus>
<clus scale="  112.077">  5  9 -1 -1</clus>
<clus scale="  188.371">  1  7  2 -1</clus>
<clus scale="  222.645">  2  5  1 -1</clus>
</clustering>
</event>
<event>
 9    1  0.4516508E-005  0.2956914E+03  0.7546771E-02  0.1132127E+00
         21   -1    0    0  501  502  0.00000000000E+00  0.00000000000E+00  0.32026495559E+03  0.32026495559E+03  0.00000000000E+00 0. -1.
          3   -1    0    0  502    0 -0.00000000000E+00 -0.00000000000E+00 -0.11892030649E+03  0.11892030649E+03  0.00000000000E+00 0. -1.
         23    2    1    2    0    0 -0.24372089626E+02 -0.17305070091E+02  0.46085445077E+02  0.10521098087E+03  0.89733037645E+02 0.  0.
        -24    2    1    2    0    0 -0.71653695410E+01 -0.74807705659E+02  0.19992648793E+03  0.22685499705E+03  0.76452951315E+02 0.  0.
         11    1    4    4    0    0  0.14448813882E+02 -0.81149653920E+02  0.17382556088E+03  0.19237816968E+03  0.00000000000E+00 0. -1.
        -12    1    4    4    0    0 -0.21614183423E+02  0.63419482610E+01  0.26100927046E+02  0.34476827370E+02  0.00000000000E+00 0.  1.
        -13    1    3    3    0    0 -0.16229569866E+00 -0.51309285523E+02  0.15963695191E+02  0.53735543962E+02  0.00000000000E+00 0. -1.
         13    1    3    3    0    0 -0.24209793928E+02  0.34004215432E+02  0.30121749886E+02  0.51475436912E+02  0.00000000000E+00 0.  1.
          4    1    1    2  501    0  0.31537459167E+02  0.92112775750E+02 -0.44667283898E+02  0.10711928416E+03  0.00000000000E+00 0. -1.
<scales pt_clust_5="13000.00000" pt_clust_6="13000.00000" pt_clust_7="13000.00000" pt_clust_8="13000.00000" pt_clust_9="13000.00000"></scales>
<clustering>
<clus scale="   76.453">  5  6 -1 -1</clus>
<clus scale="   89.733">  7  8 -1 -1</clus>
<clus scale="   94.581">  2  7  1 -1</clus>
<clus scale="   78.170">  5  9 -1 -1</clus>
<clus scale="  295.691">  1  5  2 -1</clus>
</clustering>
</event>
<event>
 9    1  0.4516508E-005  0.1876023E+03  0.7546771E-02  0.1189622E+00
          1   -1    0    0  502    0 -0.00000000000E+00  0.00000000000E+00  0.33639622784E+03  0.33639622784E+03  0.00000000000E+00 0. -1.
         21   -1    0    0  501  502  0.00000000000E+00 -0.00000000000E+00 -0.69702280847E+02  0.69702280847E+02  0.00000000000E+00 0. -1.
         23    2    1    2    0    0 -0.38203766054E+02 -0.71150948705E+00  0.25498561333E+02  0.10053373610E+03  0.89424948860E+02 0.  0.
        -24    2    1    2    0    0 -0.22325691233E+02  0.35594229564E+02  0.21185208777E+03  0.22979110638E+03  0.78468208909E+02 0.  0.
         13    1    4    4    0    0 -0.35758238734E+02 -0.12935218813E+02  0.77853115841E+02  0.86643402341E+02  0.00000000000E+00 0. -1.
        -14    1    4    4    0    0  0.13432547501E+02  0.48529448377E+02  0.13399897193E+03  0.14314770404E+03  0.00000000000E+00 0.  1.
        -13    1    3    3    0    0 -0.62611215924E+02  0.19461912357E+02  0.16369893570E+02  0.67578871014E+02  0.00000000000E+00 0. -1.
         13    1    3    3    0    0  0.24407449869E+02 -0.20173421844E+02  0.91286677624E+01  0.32954865091E+02  0.00000000000E+00 0.  1.
          2    1    1    2  501    0  0.60529457288E+02 -0.34882720076E+02  0.29343297891E+02  0.75773666208E+02  0.00000000000E+00 0. -1.
<scales pt_clust_5="13000.00000" pt_clust_6="13000.00000" pt_clust_7="13000.00000" pt_clust_8="13000.00000" pt_clust_9="13000.00000"></scales>
<clustering>
<clus scale="   78.468">  5  6 -1 -1</clus>
<clus scale="   69.861">  5  9 -1 -1</clus>
<clus scale="   89.425">  7  8 -1 -1</clus>
<clus scale="   97.246">  1  7  2 -1</clus>
<clus scale="  187.602">  2  5  1 -1</clus>
</clustering>
</event>
<event>
 9    1  0.4516508E-005  0.3916108E+04  0.7546771E-02  0.8578373E-01
          1   -1    0    0  502    0 -0.00000000000E+00  0.00000000000E+00  0.16610801148E+04  0.16610801148E+04  0.00000000000E+00 0. -1.
         21   -1    0    0  501  502  0.00000000000E+00 -0.00000000000E+00 -0.27103044616E+04  0.27103044616E+04  0.00000000000E+00 0. -1.
         23    2    1    2    0    0  0.20405270039E+02  0.28640379222E+03 -0.20875284646E+03  0.36610132076E+03  0.89492563439E+02 0.  0.
        -24    2    1    2    0    0  0.10324046124E+04  0.11764658588E+04 -0.14171545672E+04  0.21129408914E+04  0.79126118450E+02 0.  0.
         11    1    4    4    0    0  0.94122932486E+03  0.10404498012E+04 -0.12844245148E+04  0.19021552946E+04  0.00000000000E+00 0. -1.
        -12    1    4    4    0    0  0.91175287492E+02  0.13601605762E+03 -0.13273005239E+03  0.21078559673E+03  0.00000000000E+00 0.  1.
        -13    1    3    3    0    0  0.36498013036E+02  0.88702884084E+02 -0.34057845352E+02  0.10178528101E+03  0.00000000000E+00 0.  1.
         13    1    3    3    0    0 -0.16092742997E+02  0.19770090814E+03 -0.17469500110E+03  0.26431603975E+03  0.00000000000E+00 0. -1.
          2    1    1    2  501    0 -0.10528098824E+04 -0.14628696510E+04  0.57668306681E+03  0.18923423643E+04  0.00000000000E+00 0. -1.
<scales pt_clust_5="13000.00000" pt_clust_6="13000.00000" pt_clust_7="13000.00000" pt_clust_8="13000.00000" pt_clust_9="13000.00000"></scales>
<clustering>
<clus scale="   79.126">  5  6 -1 -1</clus>
<clus scale="   89.493">  7  8 -1 -1</clus>
<clus scale="  300.753">  1  7  2 -1</clus>
<clus scale=" 1615.963">  5  9 -1 -1</clus>
<clus scale=" 3916.108">  2  5  1 -1</clus>
</clustering>
</event>
<event>
 9    1  0.4516508E-005  0.2344393E+03  0.7546771E-02  0.1134054E+00
          1   -1    0    0  502    0 -0.00000000000E+00  0.00000000000E+00  0.36888238691E+03  0.36888238691E+03  0.00000000000E+00 0. -1.
         21   -1    0    0  501  502  0.00000000000E+00 -0.00000000000E+00 -0.13061632064E+03  0.13061632064E+03  0.00000000000E+00 0. -1.
         23    2    1    2    0    0  0.12360804924E+03 -0.96086709250E+02  0.18547501075E+03  0.25918915845E+03  0.90919935730E+02 0.  0.
        -24    2    1    2    0    0 -0.64779309206E+02 -0.58878152655E+01  0.65366332571E+02  0.12191291952E+03  0.79743195581E+02 0.  0.
         11    1    4    4    0    0 -0.73023165456E+02  0.12369221820E+02  0.69378837836E+02  0.10148302065E+03  0.00000000000E+00 0. -1.
        -12    1    4    4    0    0  0.82438562502E+01 -0.18257037086E+02 -0.40125052648E+01  0.20429898862E+02  0.00000000000E+00 0.  1.
        -11    1    3    3    0    0  0.84916587457E+02 -0.20340478927E+02  0.13346667557E+03  0.15949268132E+03  0.00000000000E+00 0.  1.
         11    1    3    3    0    0  0.38691461785E+02 -0.75746230323E+02  0.52008335185E+02  0.99696477129E+02  0.00000000000E+00 0. -1.
          2    1    1    2  501    0 -0.58828740037E+02  0.10197452452E+03 -0.12575277050E+02  0.11839662959E+03  0.00000000000E+00 0. -1.
<scales pt_clust_5="13000.00000" pt_clust_6="13000.00000" pt_clust_7="13000.00000" pt_clust_8="13000.00000" pt_clust_9="13000.00000"></scales>
<clustering>
<clus scale="   79.743">  5  6 -1 -1</clus>
<clus scale="   90.920">  7  8 -1 -1</clus>
<clus scale="  117.727">  5  9 -1 -1</clus>
<clus scale="  181.047">  1  7  2 -1</clus>
<clus scale="  234.439">  2  5  1 -1</clus>
</clustering>
</event>
<event>
 9    1  0.4516508E-005  0.6214590E+03  0.7546771E-02  0.1043214E+00
         21   -1    0    0  501  502  0.00000000000E+00  0.00000000000E+00  0.28096756727E+03  0.28096756727E+03  0.00000000000E+00 0. -1.
          1   -1    0    0  502    0 -0.00000000000E+00 -0.00000000000E+00 -0.47596490929E+03  0.47596490929E+03  0.00000000000E+00 0. -1.
         23    2    1    2    0    0 -0.27958967640E+02 -0.46926820985E+02 -0.11940300575E+02  0.10907360969E+03  0.93651754678E+02 0.  0.
        -24    2    1    2    0    0  0.15434568154E+03 -0.12139221368E+03 -0.32940490469E+03  0.39149468069E+03  0.78751729008E+02 0.  0.
         13    1    4    4    0    0  0.86816302536E+02 -0.96668973463E+02 -0.26420468548E+03  0.29442499325E+03  0.00000000000E+00 0. -1.
        -14    1    4    4    0    0  0.67529379007E+02 -0.24723240220E+02 -0.65200219204E+02  0.97069687443E+02  0.00000000000E+00 0.  1.
        -13    1    3    3    0    0 -0.39271171557E+02 -0.67738931811E+02 -0.24783685310E+02  0.82128063754E+02  0.00000000000E+00 0. -1.
         13    1    3    3    0    0  0.11312203917E+02  0.20812110826E+02  0.12843384735E+02  0.26945545939E+02  0.00000000000E+00 0.  1.
          2    1    1    2  501    0 -0.12638671390E+03  0.16831903467E+03  0.14634786324E+03  0.25636418618E+03  0.00000000000E+00 0. -1.
<scales pt_clust_5="13000.00000" pt_clust_6="13000.00000" pt_clust_7="13000.00000" pt_clust_8="13000.00000" pt_clust_9="13000.00000"></scales>
<clustering>
<clus scale="   78.752">  5  6 -1 -1</clus>
<clus scale="   93.652">  7  8 -1 -1</clus>
<clus scale="  108.418">  2  7  1 -1</clus>
<clus scale="  207.849">  5  9 -1 -1</clus>
<clus scale="  621.459">  1  5  2 -1</clus>
</clustering>
</event>
<event>
 9    1  0.4516508E-005  0.4965346E+03  0.7546771E-02  0.1032201E+00
          1   -1    0    0  502    0 -0.00000000000E+00  0.00000000000E+00  0.50701237302E+03  0.50701237302E+03  0.00000000000E+00 0. -1.
         21   -1    0    0  501  502  0.00000000000E+00 -0.00000000000E+00 -0.30784150420E+03  0.30784150420E+03  0.00000000000E+00 0. -1.
         23    2    1    2    0    0 -0.22120224019E+03  0.16964301166E+03  0.85269784823E+02  0.30542272259E+03  0.91120364360E+02 0.  0.
        -24    2    1    2    0    0  0.22144040173E+03  0.61875654076E+02 -0.15279533066E+02  0.24431121737E+03  0.81179176613E+02 0.  0.
         13    1    4    4    0    0  0.17574950292E+03  0.36982821855E+02 -0.43957474559E+02  0.18489963888E+03  0.00000000000E+00 0. -1.
        -14    1    4    4    0    0  0.45690898816E+02  0.24892832221E+02  0.28677941494E+02  0.59411578492E+02  0.00000000000E+00 0.  1.
        -13    1    3    3    0    0 -0.58159679768E+01  0.42625794021E+02  0.84845122518E+01  0.43849409889E+02  0.00000000000E+00 0.  1.
         13    1    3    3    0    0 -0.21538627221E+03  0.12701721764E+03  0.76785272571E+02  0.26157331270E+03  0.00000000000E+00 0. -1.
          2    1    1    2  501    0 -0.23816154585E+00 -0.23151866574E+03  0.12918061706E+03  0.26511993726E+03  0.00000000000E+00 0. -1.
<scales pt_clust_5="13000.00000" pt_clust_6="13000.00000" pt_clust_7="13000.00000" pt_clust_8="13000.00000" pt_clust_9="13000.00000"></scales>
<clustering>
<clus scale="   81.179">  5  6 -1 -1</clus>
<clus scale="   91.120">  7  8 -1 -1</clus>
<clus scale="  231.519">  5  9 -1 -1</clus>
<clus scale="  293.278">  1  7  2 -1</clus>
<clus scale="  496.535">  2  5  1 -1</clus>
</clustering>
</event>
<event>
 9    1  0.4516508E-005  0.2406538E+03  0.7546771E-02  0.1128634E+00
         21   -1    0    0  501  502  0.00000000000E+00  0.00000000000E+00  0.92497573586E+02  0.92497573586E+02  0.00000000000E+00 0. -1.
          1   -1    0    0  502    0 -0.00000000000E+00 -0.00000000000E+00 -0.50572933412E+03  0.50572933412E+03  0.00000000000E+00 0. -1.
         23    2    1    2    0    0  0.16373904294E+03 -0.38377797005E+02 -0.20070064317E+03  0.27716035098E+03  0.90850330214E+02 0.  0.
        -24    2    1    2    0    0 -0.10857001706E+03 -0.51547756776E-01 -0.47704648939E+02  0.14305475754E+03  0.80009242359E+02 0.  0.
         13    1    4    4    0    0 -0.10302318092E+03  0.98872441467E+01 -0.10359560130E+02  0.10401371972E+03  0.00000000000E+00 0. -1.
        -14    1    4    4    0    0 -0.55468361340E+01 -0.99387919035E+01 -0.37345088809E+02  0.39041037816E+02  0.00000000000E+00 0.  1.
        -11    1    3    3    0    0  0.10212139370E+03  0.30727667303E+01 -0.16662442391E+03  0.19545311353E+03  0.00000000000E+00 0.  1.
         11    1    3    3    0    0  0.61617649244E+02 -0.41450563736E+02 -0.34076219260E+02  0.81707237448E+02  0.00000000000E+00 0. -1.
          2    1    1    2  501    0 -0.55169025886E+02  0.38429344762E+02 -0.16482646843E+03  0.17801179919E+03  0.00000000000E+00 0. -1.
<scales pt_clust_5="13000.00000" pt_clust_6="13000.00000" pt_clust_7="13000.00000" pt_clust_8="13000.00000" pt_clust_9="13000.00000"></scales>
<clustering>
<clus scale="   80.009">  5  6 -1 -1</clus>
<clus scale="   67.234">  5  9 -1 -1</clus>
<clus scale="   90.850">  7  8 -1 -1</clus>
<clus scale="  191.147">  2  7  1 -1</clus>
<clus scale="  240.654">  1  5  2 -1</clus>
</clustering>
</event>
<event>
 9    1  0.4516508E-005  0.1993222E+03  0.7546771E-02  0.1172218E+00
          1   -1    0    0  502    0 -0.00000000000E+00  0.00000000000E+00  0.36754221031E+03  0.36754221031E+03  0.00000000000E+00 0. -1.
         21   -1    0    0  501  502  0.00000000000E+00 -0.00000000000E+00 -0.10360460803E+03  0.10360460803E+03  0.00000000000E+00 0. -1.
         23    2    1    2    0    0 -0.32244637640E+02 -0.71114575358E+02  0.24273319869E+03  0.27069989766E+03  0.90895705972E+02 0.  0.
        -24    2    1    2    0    0  0.36619881916E+02 -0.27260590651E+02 -0.22318116044E+02  0.92785294429E+02  0.77632834577E+02 0.  0.
         11    1    4    4    0    0  0.57078544798E+02 -0.58743343578E+01 -0.30323597161E+01  0.57460101687E+02  0.00000000000E+00 0. -1.
        -12    1    4    4    0    0 -0.20458662882E+02 -0.21386256293E+02 -0.19285756328E+02  0.35325192743E+02  0.00000000000E+00 0.  1.
        -11    1    3    3    0    0  0.28807687097E+02 -0.52804859194E+01  0.47378928980E+02  0.55700352590E+02  0.00000000000E+00 0.  1.
         11    1    3    3    0    0 -0.61052324736E+02 -0.65834089439E+02  0.19535426971E+03  0.21499954507E+03  0.00000000000E+00 0. -1.
          2    1    1    2  501    0 -0.43752442757E+01  0.98375166009E+02  0.43522519633E+02  0.10766162624E+03  0.00000000000E+00 0. -1.
<scales pt_clust_5="13000.00000" pt_clust_6="13000.00000" pt_clust_7="13000.00000" pt_clust_8="13000.00000" pt_clust_9="13000.00000"></scales>
<clustering>
<clus scale="   77.633">  5  6 -1 -1</clus>
<clus scale="   90.896">  7  8 -1 -1</clus>
<clus scale="   98.472">  5  9 -1 -1</clus>
<clus scale="  119.829">  1  7  2 -1</clus>
<clus scale="  199.322">  2  5  1 -1</clus>
</clustering>
</event>
<event>
 9    1  0.4516508E-005  0.4007304E+03  0.7546771E-02  0.1070425E+00
         21   -1    0    0  501  502  0.00000000000E+00  0.00000000000E+00  0.12593326469E+03  0.12593326469E+03  0.00000000000E+00 0. -1.
          1   -1    0    0  502    0 -0.00000000000E+00 -0.00000000000E+00 -0.75539265471E+03  0.75539265471E+03  0.00000000000E+00 0. -1.
         23    2    1    2    0    0 -0.15528880735E+03 -0.49162070401E+02 -0.87464263587E+02  0.20727582291E+03  0.93710973225E+02 0.  0.
        -24    2    1    2    0    0 -0.41497135911E+02  0.14153918080E+03 -0.14438477392E+03  0.22089203311E+03  0.78682751342E+02 0.  0.
         13    1    4    4    0    0 -0.37067281778E+02  0.12111807729E+03 -0.72312228830E+02  0.14585139857E+03  0.00000000000E+00 0. -1.
        -14    1    4    4    0    0 -0.44298541337E+01  0.20421103508E+02 -0.72072545090E+02  0.75040634538E+02  0.00000000000E+00 0.  1.
        -11    1    3    3    0    0 -0.14147172234E+03 -0.71171033121E+02 -0.59691939647E+02  0.16924151924E+03  0.00000000000E+00 0. -1.
         11    1    3    3    0    0 -0.13817085014E+02  0.22008962720E+02 -0.27772323940E+02  0.38034303666E+02  0.00000000000E+00 0.  1.
          2    1    1    2  501    0  0.19678594327E+03 -0.92377110400E+02 -0.39761035251E+03  0.45315806339E+03  0.00000000000E+00 0. -1.
<scales pt_clust_5="13000.00000" pt_clust_6="13000.00000" pt_clust_7="13000.00000" pt_clust_8="13000.00000" pt_clust_9="13000.00000"></scales>
<clustering>
<clus scale="   78.683">  5  6 -1 -1</clus>
<clus scale="   93.711">  7  8 -1 -1</clus>
<clus scale="  187.918">  2  7  1 -1</clus>
<clus scale="  154.403">  5  9 -1 -1</clus>
<clus scale="  400.730">  1  5  2 -1</clus>
</clustering>
</event>
<event>
 9    1  0.4516508E-005  0.1657605E+03  0.7546771E-02  0.1211330E+00
         21   -1    0    0  501  502  0.00000000000E+00  0.00000000000E+00  0.47522068958E+02  0.47522068958E+02  0.00000000000E+00 0. -1.
          1   -1    0    0  502    0 -0.00000000000E+00 -0.00000000000E+00 -0.55328083990E+03  0.55328083990E+03  0.00000000000E+00 0. -1.
         23    2    1    2    0    0  0.37388686275E+02  0.12909105039E+02 -0.38702425831E+03  0.39690483804E+03  0.78620067975E+02 0.  0.
        -24    2    1    2    0    0 -0.53645702332E+02  0.33167980713E+02 -0.45590267684E+02  0.11593518676E+03  0.85933222320E+02 0.  0.
         11    1    4    4    0    0 -0.26298247314E+02  0.28378766553E+02  0.20833195210E+02  0.43942851813E+02  0.00000000000E+00 0. -1.
        -12    1    4    4    0    0 -0.27347455019E+02  0.47892141599E+01 -0.66423462894E+02  0.71992334947E+02  0.00000000000E+00 0.  1.
        -13    1    3    3    0    0  0.43223949301E+01  0.41493263012E+02 -0.23697960227E+03  0.24062357712E+03  0.00000000000E+00 0. -1.
         13    1    3    3    0    0  0.33066291345E+02 -0.28584157973E+02 -0.15004465603E+03  0.15628126092E+03  0.00000000000E+00 0.  1.
          2    1    1    2  501    0  0.16257016057E+02 -0.46077085751E+02 -0.73144244954E+02  0.87962884061E+02  0.00000000000E+00 0. -1.
<scales pt_clust_5="13000.00000" pt_clust_6="13000.00000" pt_clust_7="13000.00000" pt_clust_8="13000.00000" pt_clust_9="13000.00000"></scales>
<clustering>
<clus scale="   78.620">  7  8 -1 -1</clus>
<clus scale="   85.933">  5  6 -1 -1</clus>
<clus scale="   48.861">  5  9 -1 -1</clus>
<clus scale="   88.010">  2  7  1 -1</clus>
<clus scale="  165.760">  1  5  2 -1</clus>
</clustering>
</event>
<event>
 9    1  0.4516508E-005  0.2886390E+03  0.7546771E-02  0.1129719E+00
          1   -1    0    0  502    0 -0.00000000000E+00  0.00000000000E+00  0.91111501809E+02  0.91111501809E+02  0.00000000000E+00 0. -1.
         21   -1    0    0  501  502  0.00000000000E+00 -0.00000000000E+00 -0.51154589591E+03  0.51154589591E+03  0.00000000000E+00 0.  1.
         23    2    1    2    0    0 -0.35416616212E+02 -0.41276801185E+02 -0.21071479823E+02  0.10990674775E+03  0.93152428416E+02 0.  0.
        -24    2    1    2    0    0  0.53878211155E+02 -0.89076020298E+02 -0.30041898191E+03  0.32806127475E+03  0.80840808191E+02 0.  0.
         11    1    4    4    0    0  0.41602003204E+02 -0.39284708139E+01 -0.63585852542E+02  0.76087582410E+02  0.00000000000E+00 0. -1.
        -12    1    4    4    0    0  0.12276207951E+02 -0.85147549484E+02 -0.23683312937E+03  0.25197369234E+03  0.00000000000E+00 0.  1.
        -11    1    3    3    0    0 -0.64650253378E+02 -0.29398355743E+02  0.16219859937E+01  0.71039069679E+02  0.00000000000E+00 0.  1.
         11    1    3    3    0    0  0.29233637167E+02 -0.11878445442E+02 -0.22693465817E+02  0.38867678075E+02  0.00000000000E+00 0. -1.
          2    1    1    2  501    0 -0.18461594943E+02  0.13035282148E+03 -0.98943932369E+02  0.16468937522E+03  0.00000000000E+00 0. -1.
<scales pt_clust_5="13000.00000" pt_clust_6="13000.00000" pt_clust_7="13000.00000" pt_clust_8="13000.00000" pt_clust_9="13000.00000"></scales>
<clustering>
<clus scale="   80.841">  5  6 -1 -1</clus>
<clus scale="   93.152">  7  8 -1 -1</clus>
<clus scale="  107.868">  1  7  2 -1</clus>
<clus scale="  110.198">  5  9 -1 -1</clus>
<clus scale="  288.639">  2  5  1 -1</clus>
</clustering>
</event>
<event>
 9    1  0.4516508E-005  0.3359624E+03  0.7546771E-02  0.1110310E+00
          1   -1    0    0  502    0 -0.00000000000E+00  0.00000000000E+00  0.14101106098E+04  0.14101106098E+04  0.00000000000E+00 0. -1.
         21   -1    0    0  501  502  0.00000000000E+00 -0.00000000000E+00 -0.35454759221E+02  0.35454759221E+02  0.00000000000E+00 0. -1.
         23    2    1    2    0    0 -0.59363307379E+02  0.21521078048E+02  0.32996330860E+03  0.34818064337E+03  0.91470303006E+02 0.  0.
        -24    2    1    2    0    0 -0.15441530390E+02  0.12457234725E+03  0.29803789032E+03  0.33290305713E+03  0.79000954543E+02 0.  0.
         13    1    4    4    0    0 -0.19518985187E+02  0.50778841939E+02  0.49295525117E+02  0.73413420898E+02  0.00000000000E+00 0. -1.
        -14    1    4    4    0    0  0.40774547966E+01  0.73793505307E+02  0.24874236521E+03  0.25948963623E+03  0.00000000000E+00 0.  1.
        -11    1    3    3    0    0 -0.76784009340E+02  0.35170244013E+02  0.29456850614E+03  0.30643651049E+03  0.00000000000E+00 0. -1.
         11    1    3    3    0    0  0.17420701962E+02 -0.13649165964E+02  0.35394802457E+02  0.41744132873E+02  0.00000000000E+00 0.  1.
          2    1    1    2  501    0  0.74804837769E+02 -0.14609342529E+03  0.74665465169E+03  0.76448166855E+03  0.00000000000E+00 0. -1.
<scales pt_clust_5="13000.00000" pt_clust_6="13000.00000" pt_clust_7="13000.00000" pt_clust_8="13000.00000" pt_clust_9="13000.00000"></scales>
<clustering>
<clus scale="   79.001">  5  6 -1 -1</clus>
<clus scale="   91.470">  7  8 -1 -1</clus>
<clus scale="  111.148">  1  7  2 -1</clus>
<clus scale="  134.989">  5  9 -1 -1</clus>
<clus scale="  335.962">  2  5  1 -1</clus>
</clustering>
</event>
<event>
 9    1  0.4516508E-005  0.4193724E+03  0.7546771E-02  0.1087267E+00
          1   -1    0    0  502    0 -0.00000000000E+00  0.00000000000E+00  0.40374061881E+03  0.40374061881E+03  0.00000000000E+00 0. -1.
         21   -1    0    0  501  502  0.00000000000E+00 -0.00000000000E+00 -0.17457490880E+03  0.17457490880E+03  0.00000000000E+00 0. -1.
         23    2    1    2    0    0 -0.33211529988E+02  0.30203112147E+02  0.86592691730E+02  0.13537057016E+03  0.93870460197E+02 0.  0.
        -24    2    1    2    0    0 -0.68582166569E+02 -0.16331900953E+03 -0.36301056702E+02  0.19783736169E+03  0.80282267771E+02 0.  0.
         11    1    4    4    0    0 -0.55539651649E+02 -0.15616242902E+03 -0.54367544253E+02  0.17443390441E+03  0.00000000000E+00 0. -1.
        -12    1    4    4    0    0 -0.13042514920E+02 -0.71565805136E+01  0.18066487551E+02  0.23403457277E+02  0.00000000000E+00 0.  1.
        -11    1    3    3    0    0 -0.10244350651E+02  0.58533266086E+02  0.26471791542E+02  0.65052637967E+02  0.00000000000E+00 0.  1.
         11    1    3    3    0    0 -0.22967179337E+02 -0.28330153939E+02  0.60120900187E+02  0.70317932195E+02  0.00000000000E+00 0. -1.
          2    1    1    2  501    0  0.10179369656E+03  0.13311589738E+03  0.17887407498E+03  0.24510759575E+03  0.00000000000E+00 0. -1.
<scales pt_clust_5="13000.00000" pt_clust_6="13000.00000" pt_clust_7="13000.00000" pt_clust_8="13000.00000" pt_clust_9="13000.00000"></scales>
<clustering>
<clus scale="   80.282">  5  6 -1 -1</clus>
<clus scale="   93.870">  7  8 -1 -1</clus>
<clus scale="  104.052">  1  7  2 -1</clus>
<clus scale="  173.393">  5  9 -1 -1</clus>
<clus scale="  419.372">  2  5  1 -1</clus>
</clustering>
</event>
<event>
 9    1  0.4516508E-005  0.1137770E+03  0.7546771E-02  0.1263411E+00
         21   -1    0    0  501  502  0.00000000000E+00  0.00000000000E+00  0.32402161890E+02  0.32402161890E+02  0.00000000000E+00 0. -1.
          1   -1    0    0  502    0 -0.00000000000E+00 -0.00000000000E+00 -0.33970276840E+03  0.33970276840E+03  0.00000000000E+00 0. -1.
         23    2    1    2    0    0 -0.60345315931E+01  0.18204689899E+01 -0.11362530695E+03  0.14748230052E+03  0.93811454041E+02 0.  0.
        -24    2    1    2    0    0  0.31934997328E+01 -0.28277477541E+02 -0.12146049461E+03  0.14766145242E+03  0.79002775932E+02 0.  0.
         11    1    4    4    0    0 -0.22741671795E+02 -0.35172066722E+02 -0.27893310716E+02  0.50321910698E+02  0.00000000000E+00 0. -1.
        -12    1    4    4    0    0  0.25935171528E+02  0.68945891807E+01 -0.93567183891E+02  0.97339541726E+02  0.00000000000E+00 0.  1.
        -13    1    3    3    0    0 -0.24638293670E+02 -0.38440922751E+02 -0.78878230078E+02  0.91140140647E+02  0.00000000000E+00 0.  1.
         13    1    3    3    0    0  0.18603762077E+02  0.40261391741E+02 -0.34747076870E+02  0.56342159875E+02  0.00000000000E+00 0. -1.
          2    1    1    2  501    0  0.28410318604E+01  0.26457008552E+02 -0.72214804961E+02  0.76961177350E+02  0.00000000000E+00 0. -1.
<scales pt_clust_5="13000.00000" pt_clust_6="13000.00000" pt_clust_7="13000.00000" pt_clust_8="13000.00000" pt_clust_9="13000.00000"></scales>
<clustering>
<clus scale="   79.003">  5  6 -1 -1</clus>
<clus scale="   26.609">  5  9 -1 -1</clus>
<clus scale="   93.811">  7  8 -1 -1</clus>
<clus scale="   94.023">  2  7  1 -1</clus>
<clus scale="  113.777">  1  5  2 -1</clus>
</clustering>
</event>
<event>
 9    1  0.4516508E-005  0.3377027E+03  0.7546771E-02  0.1073740E+00
          1   -1    0    0  502    0 -0.00000000000E+00  0.00000000000E+00  0.12970689415E+04  0.12970689415E+04  0.00000000000E+00 0. -1.
         21   -1    0    0  501  502  0.00000000000E+00 -0.00000000000E+00 -0.15712871802E+03  0.15712871802E+03  0.00000000000E+00 0. -1.
         23    2    1    2    0    0  0.95182215594E+02  0.25480570871E+03  0.10720392417E+04  0.11097362513E+04  0.90888989254E+02 0.  0.
        -24    2    1    2    0    0  0.22211317803E+02 -0.73874672491E+02  0.65309865406E+02  0.12876719071E+03  0.79779702987E+02 0.  0.
         13    1    4    4    0    0  0.32847222957E+02 -0.17200341530E+02 -0.54613863615E+01  0.37478240963E+02  0.00000000000E+00 0. -1.
        -14    1    4    4    0    0 -0.10635905154E+02 -0.56674330962E+02  0.70771251768E+02  0.91288949743E+02  0.00000000000E+00 0.  1.
        -11    1    3    3    0    0 -0.11331956229E+02  0.57826645018E+02  0.15699316961E+03  0.16768777358E+03  0.00000000000E+00 0.  1.
         11    1    3    3    0    0  0.10651417182E+03  0.19697906369E+03  0.91504607212E+03  0.94204847775E+03  0.00000000000E+00 0. -1.
          2    1    1    2  501    0 -0.11739353340E+03 -0.18093103622E+03  0.25911163062E+01  0.21569421743E+03  0.00000000000E+00 0. -1.
<scales pt_clust_5="13000.00000" pt_clust_6="13000.00000" pt_clust_7="13000.00000" pt_clust_8="13000.00000" pt_clust_9="13000.00000"></scales>
<clustering>
<clus scale="   79.780">  5  6 -1 -1</clus>
<clus scale="   90.889">  7  8 -1 -1</clus>
<clus scale="  215.679">  5  9 -1 -1</clus>
<clus scale="  286.786">  1  7  2 -1</clus>
<clus scale="  337.703">  2  5  1 -1</clus>
</clustering>
</event>
<event>
 9    1  0.4516508E-005  0.5203035E+03  0.7546771E-02  0.1045553E+00
          1   -1    0    0  502    0 -0.00000000000E+00  0.00000000000E+00  0.12912163568E+03  0.12912163568E+03  0.00000000000E+00 0. -1.
         21   -1    0    0  501  502  0.00000000000E+00 -0.00000000000E+00 -0.96992995433E+03  0.96992995433E+03  0.00000000000E+00 0. -1.
         23    2    1    2    0    0  0.59220355846E+02 -0.13628024851E+03 -0.31558117942E+03  0.35974157571E+03  0.87995248792E+02 0.  0.
        -24    2    1    2    0    0  0.16413429060E+03  0.30562769820E+02 -0.33059897862E+02  0.18859041518E+03  0.81235703979E+02 0.  0.
         11    1    4    4    0    0  0.49403467217E+02 -0.94743237204E+01  0.22340437120E+02  0.55041443602E+02  0.00000000000E+00 0. -1.
        -12    1    4    4    0    0  0.11473082338E+03  0.40037093541E+02 -0.55400334982E+02  0.13354897158E+03  0.00000000000E+00 0.  1.
        -11    1    3    3    0    0  0.77503685702E+02 -0.95690754864E+02 -0.18914808996E+03  0.22570011475E+03  0.00000000000E+00 0. -1.
         11    1    3    3    0    0 -0.18283329857E+02 -0.40589493642E+02 -0.12643308946E+03  0.13404146096E+03  0.00000000000E+00 0.  1.
          2    1    1    2  501    0 -0.22335464644E+03  0.10571747869E+03 -0.49216724137E+03  0.55071959913E+03  0.00000000000E+00 0. -1.
<scales pt_clust_5="13000.00000" pt_clust_6="13000.00000" pt_clust_7="13000.00000" pt_clust_8="13000.00000" pt_clust_9="13000.00000"></scales>
<clustering>
<clus scale="   81.236">  5  6 -1 -1</clus>
<clus scale="   87.995">  7  8 -1 -1</clus>
<clus scale="  172.692">  1  7  2 -1</clus>
<clus scale="  218.172">  5  9 -1 -1</clus>
<clus scale="  520.304">  2  5  1 -1</clus>
</clustering>
</event>
<event>
 9    1  0.4516508E-005  0.4717160E+03  0.7546771E-02  0.1075930E+00
         21   -1    0    0  501  502  0.00000000000E+00  0.00000000000E+00  0.62723436535E+03  0.62723436535E+03  0.00000000000E+00 0. -1.
          3   -1    0    0  502    0 -0.00000000000E+00 -0.00000000000E+00 -0.14647511370E+03  0.14647511370E+03  0.00000000000E+00 0. -1.
         23    2    1    2    0    0 -0.27539196060E+02 -0.24344904602E+02 -0.14394525639E+01  0.99149182438E+02  0.92072833424E+02 0.  0.
        -24    2    1    2    0    0  0.53839423413E+02 -0.18281922396E+03  0.78975646521E+02  0.22047053415E+03  0.77772434193E+02 0.  0.
         13    1    4    4    0    0  0.68853810340E+02 -0.16440582689E+03  0.82575599086E+02  0.19644045580E+03  0.00000000000E+00 0. -1.
        -14    1    4    4    0    0 -0.15014386927E+02 -0.18413397076E+02 -0.35999525649E+01  0.24030078343E+02  0.00000000000E+00 0.  1.
        -13    1    3    3    0    0 -0.46994215536E+02 -0.18295009129E+02 -0.33942363113E+02  0.60788548811E+02  0.00000000000E+00 0.  1.
         13    1    3    3    0    0  0.19455019476E+02 -0.60498954736E+01  0.32502910549E+02  0.38360633627E+02  0.00000000000E+00 0. -1.
          4    1    1    2  501    0 -0.26300227353E+02  0.20716412856E+03  0.40322305769E+03  0.45408976247E+03  0.00000000000E+00 0. -1.
<scales pt_clust_5="13000.00000" pt_clust_6="13000.00000" pt_clust_7="13000.00000" pt_clust_8="13000.00000" pt_clust_9="13000.00000"></scales>
<clustering>
<clus scale="   77.772">  5  6 -1 -1</clus>
<clus scale="   92.073">  7  8 -1 -1</clus>
<clus scale="   99.139">  2  7  1 -1</clus>
<clus scale="  203.517">  5  9 -1 -1</clus>
<clus scale="  471.716">  1  5  2 -1</clus>
</clustering>
</event>
<event>
 9    1  0.4516508E-005  0.4872371E+03  0.7546771E-02  0.1064572E+00
          1   -1    0    0  502    0 -0.00000000000E+00  0.00000000000E+00  0.38448607440E+03  0.38448607440E+03  0.00000000000E+00 0. -1.
         21   -1    0    0  501  502  0.00000000000E+00 -0.00000000000E+00 -0.24328775328E+03  0.24328775328E+03  0.00000000000E+00 0. -1.
         23    2    1    2    0    0 -0.81292866444E+02  0.12809439329E+02  0.10508573950E+02  0.12331392356E+03  0.91232021502E+02 0.  0.
        -24    2    1    2    0    0  0.52128415073E+02 -0.23156978796E+03  0.13459436456E+03  0.28372952244E+03  0.77748701460E+02 0.  0.
         11    1    4    4    0    0  0.43596475199E+02 -0.21141010879E+03  0.89644985301E+02  0.23373298898E+03  0.00000000000E+00 0. -1.
        -12    1    4    4    0    0  0.85319398742E+01 -0.20159679172E+02  0.44949379258E+02  0.49996533460E+02  0.00000000000E+00 0.  1.
        -13    1    3    3    0    0 -0.93365548153E+02 -0.13059538800E+02  0.94497776221E+01  0.94746901969E+02  0.00000000000E+00 0.  1.
         13    1    3    3    0    0  0.12072681708E+02  0.25868978130E+02  0.10587963284E+01  0.28567021594E+02  0.00000000000E+00 0. -1.
          2    1    1    2  501    0  0.29164451371E+02  0.21876034863E+03 -0.39046173833E+01  0.22073038167E+03  0.00000000000E+00 0. -1.
<scales pt_clust_5="13000.00000" pt_clust_6="13000.00000" pt_clust_7="13000.00000" pt_clust_8="13000.00000" pt_clust_9="13000.00000"></scales>
<clustering>
<clus scale="   77.749">  5  6 -1 -1</clus>
<clus scale="   91.232">  7  8 -1 -1</clus>
<clus scale="  122.865">  1  7  2 -1</clus>
<clus scale="  223.138">  5  9 -1 -1</clus>
<clus scale="  487.237">  2  5  1 -1</clus>
</clustering>
</event>
<event>
 9    1  0.4516508E-005  0.7016317E+03  0.7546771E-02  0.1013672E+00
         21   -1    0    0  501  502  0.00000000000E+00  0.00000000000E+00  0.14575512926E+03  0.14575512926E+03  0.00000000000E+00 0. -1.
          1   -1    0    0  502    0 -0.00000000000E+00 -0.00000000000E+00 -0.13764645373E+04  0.13764645373E+04  0.00000000000E+00 0. -1.
         23    2    1    2    0    0  0.13107698743E+03 -0.87019514286E+02 -0.15934865112E+03  0.24155541782E+03  0.90572925109E+02 0.  0.
        -24    2    1    2    0    0 -0.36837221111E+03 -0.57943400130E+02 -0.82700278993E+03  0.91048309610E+03  0.77397223456E+02 0.  0.
         13    1    4    4    0    0 -0.37130686839E+03 -0.60081298218E+02 -0.80965801581E+03  0.89276237346E+03  0.00000000000E+00 0. -1.
        -14    1    4    4    0    0  0.29346572757E+01  0.21378980879E+01 -0.17344774125E+02  0.17720722643E+02  0.00000000000E+00 0.  1.
        -11    1    3    3    0    0  0.99053625288E+02 -0.56159393027E+02 -0.51644460168E+02  0.12503058975E+03  0.00000000000E+00 0. -1.
         11    1    3    3    0    0  0.32023362141E+02 -0.30860121259E+02 -0.10770419095E+03  0.11652482806E+03  0.00000000000E+00 0.  1.
          2    1    1    2  501    0  0.23729522368E+03  0.14496291442E+03 -0.24435796701E+03  0.37018115266E+03  0.00000000000E+00 0. -1.
<scales pt_clust_5="13000.00000" pt_clust_6="13000.00000" pt_clust_7="13000.00000" pt_clust_8="13000.00000" pt_clust_9="13000.00000"></scales>
<clustering>
<clus scale="   77.397">  5  6 -1 -1</clus>
<clus scale="   90.573">  7  8 -1 -1</clus>
<clus scale="  181.541">  2  7  1 -1</clus>
<clus scale="  297.784">  5  9 -1 -1</clus>
<clus scale="  701.632">  1  5  2 -1</clus>
</clustering>
</event>
<event>
 9    1  0.4516508E-005  0.2963683E+03  0.7546771E-02  0.1107746E+00
          1   -1    0    0  502    0 -0.00000000000E+00  0.00000000000E+00  0.10799133031E+04  0.10799133031E+04  0.00000000000E+00 0. -1.
         21   -1    0    0  501  502  0.00000000000E+00 -0.00000000000E+00 -0.53558241332E+02  0.53558241332E+02  0.00000000000E+00 0. -1.
         23    2    1    2    0    0  0.44231270833E+02 -0.14032173901E+03  0.26423020811E+03  0.31575002686E+03  0.90740734115E+02 0.  0.
        -24    2    1    2    0    0 -0.12600792868E+01 -0.52506639578E+02  0.28677327126E+03  0.30295124475E+03  0.82352975582E+02 0.  0.
         13    1    4    4    0    0 -0.41273176229E+02 -0.25421841420E+02  0.16394123960E+03  0.17095752437E+03  0.00000000000E+00 0. -1.
        -14    1    4    4    0    0  0.40013096942E+02 -0.27084798158E+02  0.12283203166E+03  0.13199372038E+03  0.00000000000E+00 0.  1.
        -13    1    3    3    0    0  0.56403593195E+02 -0.10662868774E+03  0.13227703624E+03  0.17902026894E+03  0.00000000000E+00 0. -1.
         13    1    3    3    0    0 -0.12172322361E+02 -0.33693051268E+02  0.13195317187E+03  0.13672975792E+03  0.00000000000E+00 0.  1.
          2    1    1    2  501    0 -0.42971191547E+02  0.19282837858E+03  0.47535158240E+03  0.51477027282E+03  0.00000000000E+00 0. -1.
<scales pt_clust_5="13000.00000" pt_clust_6="13000.00000" pt_clust_7="13000.00000" pt_clust_8="13000.00000" pt_clust_9="13000.00000"></scales>
<clustering>
<clus scale="   82.353">  5  6 -1 -1</clus>
<clus scale="   90.741">  7  8 -1 -1</clus>
<clus scale="  172.860">  1  7  2 -1</clus>
<clus scale="  105.989">  5  9 -1 -1</clus>
<clus scale="  296.368">  2  5  1 -1</clus>
</clustering>
</event>
<event>
 9    1  0.4516508E-005  0.2760463E+03  0.7546771E-02  0.1127420E+00
          3   -1    0    0  502    0 -0.00000000000E+00  0.00000000000E+00  0.53727917599E+03  0.53727917599E+03  0.00000000000E+00 0. -1.
         21   -1    0    0  501  502  0.00000000000E+00 -0.00000000000E+00 -0.77419133537E+02  0.77419133537E+02  0.00000000000E+00 0. -1.
         23    2    1    2    0    0 -0.80881841088E+02 -0.47240941647E+02  0.12475502141E+03  0.18053599918E+03  0.90861723776E+02 0.  0.
        -24    2    1    2    0    0 -0.71493726376E+02  0.12171932039E+01  0.19132429543E+03  0.21966430094E+03  0.80836777624E+02 0.  0.
         13    1    4    4    0    0 -0.44902985708E+02  0.40242023529E+02  0.97788289929E+02  0.11488362908E+03  0.00000000000E+00 0. -1.
        -14    1    4    4    0    0 -0.26590740668E+02 -0.39024830325E+02  0.93536005499E+02  0.10478067186E+03  0.00000000000E+00 0.  1.
        -11    1    3    3    0    0 -0.13024095617E+02  0.18923155232E+02 -0.10860186960E+01  0.22997658732E+02  0.00000000000E+00 0.  1.
         11    1    3    3    0    0 -0.67857745471E+02 -0.66164096879E+02  0.12584104010E+03  0.15753834045E+03  0.00000000000E+00 0. -1.
          4    1    1    2  501    0  0.15237556746E+03  0.46023748443E+02  0.14378072562E+03  0.21449800941E+03  0.00000000000E+00 0. -1.
<scales pt_clust_5="13000.00000" pt_clust_6="13000.00000" pt_clust_7="13000.00000" pt_clust_8="13000.00000" pt_clust_9="13000.00000"></scales>
<clustering>
<clus scale="   80.837">  5  6 -1 -1</clus>
<clus scale="   90.862">  7  8 -1 -1</clus>
<clus scale="  130.497">  1  7  2 -1</clus>
<clus scale="  117.194">  5  9 -1 -1</clus>
<clus scale="  276.046">  2  5  1 -1</clus>
</clustering>
</event>
<event>
 9    1  0.4516508E-005  0.2711651E+03  0.7546771E-02  0.1119519E+00
         21   -1    0    0  501  502  0.00000000000E+00  0.00000000000E+00  0.75015729749E+02  0.75015729749E+02  0.00000000000E+00 0. -1.
          3   -1    0    0  502    0 -0.00000000000E+00 -0.00000000000E+00 -0.10027285326E+04  0.10027285326E+04  0.00000000000E+00 0. -1.
         23    2    1    2    0    0  0.66654429804E+02 -0.12975607041E+03 -0.71142088672E+03  0.73088302413E+03  0.82406711335E+02 0.  0.
        -24    2    1    2    0    0  0.34867695237E+02 -0.10727992163E+02 -0.12039638763E+03  0.14877422173E+03  0.79420607575E+02 0.  0.
         13    1    4    4    0    0  0.29533836501E+02  0.17354885884E+02 -0.11416501315E+02  0.36107839381E+02  0.00000000000E+00 0. -1.
        -14    1    4    4    0    0  0.53338587367E+01 -0.28082878047E+02 -0.10897988632E+03  0.11266638234E+03  0.00000000000E+00 0.  1.
        -11    1    3    3    0    0  0.35608967856E+01 -0.92818122537E+02 -0.34814589774E+03  0.36032409019E+03  0.00000000000E+00 0.  1.
         11    1    3    3    0    0  0.63093533019E+02 -0.36937947870E+02 -0.36327498899E+03  0.37055893394E+03  0.00000000000E+00 0. -1.
          4    1    1    2  501    0 -0.10152212504E+03  0.14048406257E+03 -0.95895528445E+02  0.19808701645E+03  0.00000000000E+00 0. -1.
<scales pt_clust_5="13000.00000" pt_clust_6="13000.00000" pt_clust_7="13000.00000" pt_clust_8="13000.00000" pt_clust_9="13000.00000"></scales>
<clustering>
<clus scale="   79.421">  5  6 -1 -1</clus>
<clus scale="   82.407">  7  8 -1 -1</clus>
<clus scale="  167.542">  2  7  1 -1</clus>
<clus scale="   98.715">  5  9 -1 -1</clus>
<clus scale="  271.165">  1  5  2 -1</clus>
</clustering>
</event>
<event>
 9    1  0.4516508E-005  0.1899991E+03  0.7546771E-02  0.1178645E+00
          1   -1    0    0  502    0 -0.00000000000E+00  0.00000000000E+00  0.19347673376E+03  0.19347673376E+03  0.00000000000E+00 0. -1.
         21   -1    0    0  501  502  0.00000000000E+00 -0.00000000000E+00 -0.17893295068E+03  0.17893295068E+03  0.00000000000E+00 0. -1.
         23    2    1    2    0    0 -0.76997547559E+02  0.92310566538E+01  0.10757072211E+03  0.16085908757E+03  0.91051364957E+02 0.  0.
        -24    2    1    2    0    0 -0.62407997682E+00  0.40805672092E+02 -0.67117580266E+01  0.85142125013E+02  0.74422049187E+02 0.  0.
         13    1    4    4    0    0  0.13370413019E+02  0.36573911253E+02 -0.35602156673E+02  0.52762984074E+02  0.00000000000E+00 0. -1.
        -14    1    4    4    0    0 -0.13994492996E+02  0.42317608391E+01  0.28890398646E+02  0.32379140939E+02  0.00000000000E+00 0.  1.
        -13    1    3    3    0    0 -0.22101556336E+02  0.13578489323E+02  0.10230245961E+03  0.10553979064E+03  0.00000000000E+00 0. -1.
         13    1    3    3    0    0 -0.54895991223E+02 -0.43474326693E+01  0.52682624982E+01  0.55319296931E+02  0.00000000000E+00 0.  1.
          2    1    1    2  501    0  0.77621627536E+02 -0.50036728745E+02 -0.86315181005E+02  0.12640847185E+03  0.00000000000E+00 0. -1.
<scales pt_clust_5="13000.00000" pt_clust_6="13000.00000" pt_clust_7="13000.00000" pt_clust_8="13000.00000" pt_clust_9="13000.00000"></scales>
<clustering>
<clus scale="   74.422">  5  6 -1 -1</clus>
<clus scale="   91.051">  7  8 -1 -1</clus>
<clus scale="   92.352">  5  9 -1 -1</clus>
<clus scale="  119.600">  1  7  2 -1</clus>
<clus scale="  189.999">  2  5  1 -1</clus>
</clustering>
</event>
<event>
 9    1  0.4516508E-005  0.2086688E+03  0.7546771E-02  0.1159821E+00
         21   -1    0    0  501  502  0.00000000000E+00  0.00000000000E+00  0.25831929029E+03  0.25831929029E+03  0.00000000000E+00 0. -1.
          1   -1    0    0  502    0 -0.00000000000E+00 -0.00000000000E+00 -0.14118166846E+03  0.14118166846E+03  0.00000000000E+00 0. -1.
         23    2    1    2    0    0  0.85887491738E+02 -0.37512511421E+02 -0.32523702524E+02  0.14271082596E+03  0.10259014996E+03 0.  0.
        -24    2    1    2    0    0 -0.37049858337E+02 -0.45743424633E+02  0.11471464923E+03  0.15413568610E+03  0.84458309719E+02 0.  0.
         11    1    4    4    0    0 -0.57208192761E+01 -0.57158895658E+02  0.10452408101E+03  0.11926923592E+03  0.00000000000E+00 0. -1.
        -12    1    4    4    0    0 -0.31329039061E+02  0.11415471026E+02  0.10190568219E+02  0.34866450176E+02  0.00000000000E+00 0.  1.
        -11    1    3    3    0    0  0.56408041323E+02  0.28093825379E+02  0.17408636298E+01  0.63040945079E+02  0.00000000000E+00 0.  1.
         11    1    3    3    0    0  0.29479450416E+02 -0.65606336800E+02 -0.34264566154E+02  0.79669880876E+02  0.00000000000E+00 0. -1.
          2    1    1    2  501    0 -0.48837633401E+02  0.83255936054E+02  0.34946675123E+02  0.10265444670E+03  0.00000000000E+00 0. -1.
<scales pt_clust_5="13000.00000" pt_clust_6="13000.00000" pt_clust_7="13000.00000" pt_clust_8="13000.00000" pt_clust_9="13000.00000"></scales>
<clustering>
<clus scale="   84.458">  5  6 -1 -1</clus>
<clus scale="   96.523">  5  9 -1 -1</clus>
<clus scale="  102.590">  7  8 -1 -1</clus>
<clus scale="  138.955">  2  7  1 -1</clus>
<clus scale="  208.669">  1  5  2 -1</clus>
</clustering>
</event>
<event>
 9    1  0.4516508E-005  0.3263084E+03  0.7546771E-02  0.1116959E+00
          1   -1    0    0  502    0 -0.00000000000E+00  0.00000000000E+00  0.64836835248E+03  0.64836835248E+03  0.00000000000E+00 0. -1.
         21   -1    0    0  501  502  0.00000000000E+00 -0.00000000000E+00 -0.71864698300E+02  0.71864698300E+02  0.00000000000E+00 0. -1.
         23    2    1    2    0    0  0.22457704571E+02  0.42615849028E+02  0.10430881944E+03  0.14625991510E+03  0.90505104101E+02 0.  0.
        -24    2    1    2    0    0  0.52415752669E+02 -0.13298358282E+03  0.11960292299E+03  0.20236390795E+03  0.78830499326E+02 0.  0.
         11    1    4    4    0    0  0.23488583896E+02 -0.12708386951E+03  0.76694010786E+02  0.15027972170E+03  0.00000000000E+00 0. -1.
        -12    1    4    4    0    0  0.28927168773E+02 -0.58997133059E+01  0.42908912205E+02  0.52084186246E+02  0.00000000000E+00 0.  1.
        -11    1    3    3    0    0  0.46428276775E+02  0.40781737243E+02  0.10541624970E+03  0.12219378330E+03  0.00000000000E+00 0. -1.
         11    1    3    3    0    0 -0.23970572204E+02  0.18341117854E+01 -0.11074302594E+01  0.24066131796E+02  0.00000000000E+00 0.  1.
          2    1    1    2  501    0 -0.74873457240E+02  0.90367733789E+02  0.35259191175E+03  0.37160922774E+03  0.00000000000E+00 0. -1.
<scales pt_clust_5="13000.00000" pt_clust_6="13000.00000" pt_clust_7="13000.00000" pt_clust_8="13000.00000" pt_clust_9="13000.00000"></scales>
<clustering>
<clus scale="   78.830">  5  6 -1 -1</clus>
<clus scale="   90.505">  7  8 -1 -1</clus>
<clus scale="  102.526">  1  7  2 -1</clus>
<clus scale="  133.747">  5  9 -1 -1</clus>
<clus scale="  326.308">  2  5  1 -1</clus>
</clustering>
</event>
<event>
 9    1  0.4516508E-005  0.4134663E+03  0.7546771E-02  0.1061736E+00
         21   -1    0    0  501  502  0.00000000000E+00  0.00000000000E+00  0.15576626826E+03  0.15576626826E+03  0.00000000000E+00 0. -1.
          1   -1    0    0  502    0 -0.00000000000E+00 -0.00000000000E+00 -0.81789162988E+03  0.81789162988E+03  0.00000000000E+00 0. -1.
         23    2    1    2    0    0 -0.11547709800E+03  0.15503796132E+03 -0.46963159048E+03  0.51757867687E+03  0.99810452128E+02 0.  0.
        -24    2    1    2    0    0 -0.36055987849E+02 -0.20362203201E+03 -0.19708666857E+03  0.29688191370E+03  0.80831612485E+02 0.  0.
         11    1    4    4    0    0 -0.44056295989E+02 -0.19853251518E+03 -0.16044766218E+03  0.25903584519E+03  0.00000000000E+00 0. -1.
        -12    1    4    4    0    0  0.80003081403E+01 -0.50895168334E+01 -0.36639006396E+02  0.37846068509E+02  0.00000000000E+00 0.  1.
        -11    1    3    3    0    0 -0.10610271570E+03  0.68543442612E+02 -0.32645813793E+03  0.35004414810E+03  0.00000000000E+00 0. -1.
         11    1    3    3    0    0 -0.93743822992E+01  0.86494518712E+02 -0.14317345256E+03  0.16753452876E+03  0.00000000000E+00 0.  1.
          2    1    1    2  501    0  0.15153308585E+03  0.48584070685E+02  0.45928974341E+01  0.15919730757E+03  0.00000000000E+00 0. -1.
<scales pt_clust_5="13000.00000" pt_clust_6="13000.00000" pt_clust_7="13000.00000" pt_clust_8="13000.00000" pt_clust_9="13000.00000"></scales>
<clustering>
<clus scale="   80.832">  5  6 -1 -1</clus>
<clus scale="   99.810">  7  8 -1 -1</clus>
<clus scale="  159.131">  5  9 -1 -1</clus>
<clus scale="  217.563">  2  7  1 -1</clus>
<clus scale="  413.466">  1  5  2 -1</clus>
</clustering>
</event>
<event>
 9    1  0.4516508E-005  0.1693211E+03  0.7546771E-02  0.1205509E+00
          1   -1    0    0  502    0 -0.00000000000E+00  0.00000000000E+00  0.22962106735E+03  0.22962106735E+03  0.00000000000E+00 0. -1.
         21   -1    0    0  501  502  0.00000000000E+00 -0.00000000000E+00 -0.12949111809E+03  0.12949111809E+03  0.00000000000E+00 0. -1.
         23    2    1    2    0    0  0.16911330795E+02 -0.39049111006E+01  0.15507549604E+03  0.18109915106E+03  0.91908931017E+02 0.  0.
        -24    2    1    2    0    0  0.55566525194E+02  0.67953816946E+01 -0.19066813278E+02  0.97089132181E+02  0.76999612237E+02 0.  0.
         11    1    4    4    0    0  0.58679301431E+02 -0.18542861632E+02 -0.31002985562E+02  0.68907788005E+02  0.00000000000E+00 0. -1.
        -12    1    4    4    0    0 -0.31127762368E+01  0.25338243327E+02  0.11936172285E+02  0.28181344177E+02  0.00000000000E+00 0.  1.
        -13    1    3    3    0    0 -0.27553362068E+02 -0.11641052800E+02  0.14086594381E+02  0.33062577226E+02  0.00000000000E+00 0.  1.
         13    1    3    3    0    0  0.44464692864E+02  0.77361416994E+01  0.14098890166E+03  0.14803657383E+03  0.00000000000E+00 0. -1.
          2    1    1    2  501    0 -0.72477855989E+02 -0.28904705940E+01 -0.35878733505E+02  0.80923902198E+02  0.00000000000E+00 0. -1.
<scales pt_clust_5="13000.00000" pt_clust_6="13000.00000" pt_clust_7="13000.00000" pt_clust_8="13000.00000" pt_clust_9="13000.00000"></scales>
<clustering>
<clus scale="   77.000">  5  6 -1 -1</clus>
<clus scale="   72.536">  5  9 -1 -1</clus>
<clus scale="   91.909">  7  8 -1 -1</clus>
<clus scale="   93.533">  1  7  2 -1</clus>
<clus scale="  169.321">  2  5  1 -1</clus>
</clustering>
</event>
<event>
 9    1  0.4516508E-005  0.5792536E+03  0.7546771E-02  0.1041187E+00
         21   -1    0    0  501  502  0.00000000000E+00  0.00000000000E+00  0.36447222729E+03  0.36447222729E+03  0.00000000000E+00 0. -1.
          1   -1    0    0  502    0 -0.00000000000E+00 -0.00000000000E+00 -0.45830299600E+03  0.45830299600E+03  0.00000000000E+00 0. -1.
         23    2    1    2    0    0 -0.10385943223E+03  0.27810881790E+02  0.13879981217E+03  0.19855434822E+03  0.92726557863E+02 0.  0.
        -24    2    1    2    0    0 -0.85538373894E+02  0.68479440833E+02 -0.35422835340E+03  0.37941610903E+03  0.80452533915E+02 0.  0.
         11    1    4    4    0    0 -0.60548830887E+02  0.52037201797E+00 -0.20134458392E+03  0.21025240351E+03  0.00000000000E+00 0. -1.
        -12    1    4    4    0    0 -0.24989543007E+02  0.67959068815E+02 -0.15288376949E+03  0.16916370552E+03  0.00000000000E+00 0.  1.
        -13    1    3    3    0    0 -0.69017702676E+02 -0.29331996547E+02  0.76248525109E+02  0.10694693490E+03  0.00000000000E+00 0.  1.
         13    1    3    3    0    0 -0.34841729551E+02  0.57142878337E+02  0.62551287057E+02  0.91607413320E+02  0.00000000000E+00 0. -1.
          2    1    1    2  501    0  0.18939780612E+03 -0.96290322623E+02  0.12159777252E+03  0.24480476604E+03  0.00000000000E+00 0. -1.
<scales pt_clust_5="13000.00000" pt_clust_6="13000.00000" pt_clust_7="13000.00000" pt_clust_8="13000.00000" pt_clust_9="13000.00000"></scales>
<clustering>
<clus scale="   80.453">  5  6 -1 -1</clus>
<clus scale="   92.727">  7  8 -1 -1</clus>
<clus scale="  141.980">  2  7  1 -1</clus>
<clus scale="  197.371">  5  9 -1 -1</clus>
<clus scale="  579.254">  1  5  2 -1</clus>
</clustering>
</event>
<event>
 9    1  0.4516508E-005  0.4590982E+03  0.7546771E-02  0.1059570E+00
         21   -1    0    0  501  502  0.00000000000E+00  0.00000000000E+00  0.35746112668E+03  0.35746112668E+03  0.00000000000E+00 0. -1.
          1   -1    0    0  502    0 -0.00000000000E+00 -0.00000000000E+00 -0.63528241695E+03  0.63528241695E+03  0.00000000000E+00 0. -1.
         23    2    1    2    0    0  0.71109991308E+02 -0.13053822573E+03 -0.46670434251E+03  0.49630829889E+03  0.80075745300E+02 0.  0.
        -24    2    1    2    0    0  0.12173538977E+03 -0.15785301115E+02 -0.53149042323E+02  0.15412040383E+03  0.76548006647E+02 0.  0.
         13    1    4    4    0    0  0.11968406107E+03 -0.33459195095E+02 -0.35936546359E+02  0.12936470761E+03  0.00000000000E+00 0. -1.
        -14    1    4    4    0    0  0.20513287007E+01  0.17673893979E+02 -0.17212495964E+02  0.24755696216E+02  0.00000000000E+00 0.  1.
        -11    1    3    3    0    0 -0.15227282309E+02 -0.39887404413E+02 -0.96889500960E+02  0.10587941516E+03  0.00000000000E+00 0.  1.
         11    1    3    3    0    0  0.86337273617E+02 -0.90650821319E+02 -0.36981484155E+03  0.39042888373E+03  0.00000000000E+00 0. -1.
          2    1    1    2  501    0 -0.19284538108E+03  0.14632352685E+03  0.24203209456E+03  0.34231484092E+03  0.00000000000E+00 0. -1.
<scales pt_clust_5="13000.00000" pt_clust_6="13000.00000" pt_clust_7="13000.00000" pt_clust_8="13000.00000" pt_clust_9="13000.00000"></scales>
<clustering>
<clus scale="   76.548">  5  6 -1 -1</clus>
<clus scale="   80.076">  7  8 -1 -1</clus>
<clus scale="  168.846">  2  7  1 -1</clus>
<clus scale="  198.872">  5  9 -1 -1</clus>
<clus scale="  459.098">  1  5  2 -1</clus>
</clustering>
</event>
<event>
 9    1  0.4516508E-005  0.2041438E+03  0.7546771E-02  0.1172401E+00
         21   -1    0    0  501  502  0.00000000000E+00  0.00000000000E+00  0.21507263959E+03  0.21507263959E+03  0.00000000000E+00 0. -1.
          1   -1    0    0  502    0 -0.00000000000E+00 -0.00000000000E+00 -0.40883347783E+03  0.40883347783E+03  0.00000000000E+00 0. -1.
         23    2    1    2    0    0  0.34344722991E+02  0.50978888840E+02 -0.34976494194E+03  0.36697813131E+03  0.92515010377E+02 0.  0.
        -24    2    1    2    0    0 -0.24969547099E+02  0.31530217540E+02  0.13243869657E+02  0.91773116424E+02  0.81420340911E+02 0.  0.
         13    1    4    4    0    0 -0.49401831489E+02  0.41030328464E+02  0.13188026591E+02  0.65558774041E+02  0.00000000000E+00 0. -1.
        -14    1    4    4    0    0  0.24432284390E+02 -0.95001109242E+01  0.55843065614E-01  0.26214342382E+02  0.00000000000E+00 0.  1.
        -13    1    3    3    0    0 -0.28111438067E+02 -0.28880399119E+01 -0.77297828470E+02  0.82301567487E+02  0.00000000000E+00 0.  1.
         13    1    3    3    0    0  0.62456161058E+02  0.53866928752E+02 -0.27246711347E+03  0.28467656382E+03  0.00000000000E+00 0. -1.
          2    1    1    2  501    0 -0.93751758915E+01 -0.82509106380E+02  0.14276023404E+03  0.16515486969E+03  0.00000000000E+00 0. -1.
<scales pt_clust_5="13000.00000" pt_clust_6="13000.00000" pt_clust_7="13000.00000" pt_clust_8="13000.00000" pt_clust_9="13000.00000"></scales>
<clustering>
<clus scale="   81.420">  5  6 -1 -1</clus>
<clus scale="   83.040">  5  9 -1 -1</clus>
<clus scale="   92.515">  7  8 -1 -1</clus>
<clus scale="  111.074">  2  7  1 -1</clus>
<clus scale="  204.144">  1  5  2 -1</clus>
</clustering>
</event>
<event>
 9    1  0.4516508E-005  0.3448728E+03  0.7546771E-02  0.1106827E+00
          1   -1    0    0  502    0 -0.00000000000E+00  0.00000000000E+00  0.57122180405E+03  0.57122180405E+03  0.00000000000E+00 0. -1.
         21   -1    0    0  501  502  0.00000000000E+00 -0.00000000000E+00 -0.93390633851E+02  0.93390633851E+02  0.00000000000E+00 0. -1.
         23    2    1    2    0    0  0.40227289115E+02  0.37824241645E+01  0.16095411045E+03  0.19626609857E+03  0.10479319758E+03 0.  0.
        -24    2    1    2    0    0  0.11278245795E+03 -0.66284820164E+02  0.64445862875E+02  0.16661791614E+03  0.80589704860E+02 0.  0.
         11    1    4    4    0    0  0.10281407231E+03 -0.59815745258E+02  0.20008731974E+02  0.12061926131E+03  0.00000000000E+00 0. -1.
        -12    1    4    4    0    0  0.99683856473E+01 -0.64690749056E+01  0.44437130902E+02  0.45998654821E+02  0.00000000000E+00 0.  1.
        -11    1    3    3    0    0  0.67536614848E+02 -0.18292875515E+02  0.13676769435E+03  0.15362690473E+03  0.00000000000E+00 0.  1.
         11    1    3    3    0    0 -0.27309325734E+02  0.22075299680E+02  0.24186416096E+02  0.42639193843E+02  0.00000000000E+00 0. -1.
          2    1    1    2  501    0 -0.15300974707E+03  0.62502395999E+02  0.25243119687E+03  0.30172842319E+03  0.00000000000E+00 0. -1.
<scales pt_clust_5="13000.00000" pt_clust_6="13000.00000" pt_clust_7="13000.00000" pt_clust_8="13000.00000" pt_clust_9="13000.00000"></scales>
<clustering>
<clus scale="   80.590">  5  6 -1 -1</clus>
<clus scale="  104.793">  7  8 -1 -1</clus>
<clus scale="  112.313">  1  7  2 -1</clus>
<clus scale="  140.633">  5  9 -1 -1</clus>
<clus scale="  344.873">  2  5  1 -1</clus>
</clustering>
</event>
<event>
 9    1  0.4516508E-005  0.1144438E+03  0.7546771E-02  0.1261545E+00
         21   -1    0    0  501  502  0.00000000000E+00  0.00000000000E+00  0.32692049909E+02  0.32692049909E+02  0.00000000000E+00 0. -1.
          1   -1    0    0  502    0 -0.00000000000E+00 -0.00000000000E+00 -0.39726333139E+03  0.39726333139E+03  0.00000000000E+00 0. -1.
         23    2    1    2    0    0 -0.15957915020E+02  0.19153240114E+02 -0.25122879247E+03  0.26888424750E+03  0.92527459343E+02 0.  0.
        -24    2    1    2    0    0  0.61730382370E+01  0.10013446603E+02 -0.60980220555E+02  0.10034019781E+03  0.78811119036E+02 0.  0.
         13    1    4    4    0    0 -0.27541490811E+02  0.27778566325E+02 -0.18500405844E+02  0.43271786184E+02  0.00000000000E+00 0. -1.
        -14    1    4    4    0    0  0.33714529048E+02 -0.17765119722E+02 -0.42479814711E+02  0.57068411626E+02  0.00000000000E+00 0.  1.
        -13    1    3    3    0    0  0.28875519550E+02  0.34876751985E+02 -0.89209893999E+02  0.10004293401E+03  0.00000000000E+00 0. -1.
         13    1    3    3    0    0 -0.44833434570E+02 -0.15723511872E+02 -0.16201889847E+03  0.16884131349E+03  0.00000000000E+00 0.  1.
          2    1    1    2  501    0  0.97848767828E+01 -0.29166686716E+02 -0.52362268463E+02  0.60730935991E+02  0.00000000000E+00 0. -1.
<scales pt_clust_5="13000.00000" pt_clust_6="13000.00000" pt_clust_7="13000.00000" pt_clust_8="13000.00000" pt_clust_9="13000.00000"></scales>
<clustering>
<clus scale="   78.811">  5  6 -1 -1</clus>
<clus scale="   30.764">  5  9 -1 -1</clus>
<clus scale="   92.527">  7  8 -1 -1</clus>
<clus scale="   95.827">  2  7  1 -1</clus>
<clus scale="  114.444">  1  5  2 -1</clus>
</clustering>
</event>
<event>
 9    1  0.4516508E-005  0.2074772E+03  0.7546771E-02  0.1165833E+00
          1   -1    0    0  502    0 -0.00000000000E+00  0.00000000000E+00  0.68460441823E+03  0.68460441823E+03  0.00000000000E+00 0. -1.
         21   -1    0    0  501  502  0.00000000000E+00 -0.00000000000E+00 -0.69627288470E+02  0.69627288470E+02  0.00000000000E+00 0. -1.
         23    2    1    2    0    0  0.82308635067E+02 -0.64945855863E+01  0.20622258032E+02  0.12470450151E+03  0.91153958340E+02 0.  0.
        -24    2    1    2    0    0  0.18284340189E+02  0.43337718670E+02  0.19300890681E+03  0.21412986928E+03  0.79916755789E+02 0.  0.
         13    1    4    4    0    0 -0.23181536151E+02  0.33404421107E+01  0.17023578490E+02  0.28954177530E+02  0.00000000000E+00 0. -1.
        -14    1    4    4    0    0  0.41465876340E+02  0.39997276559E+02  0.17598532832E+03  0.18517569175E+03  0.00000000000E+00 0.  1.
        -11    1    3    3    0    0  0.81352692206E+02  0.29262990446E+02  0.82219694149E+01  0.86845747852E+02  0.00000000000E+00 0. -1.
         11    1    3    3    0    0  0.95594286106E+00 -0.35757576032E+02  0.12400288617E+02  0.37858753654E+02  0.00000000000E+00 0.  1.
          2    1    1    2  501    0 -0.10059297526E+03 -0.36843133083E+02  0.40134596492E+03  0.41539733592E+03  0.00000000000E+00 0. -1.
<scales pt_clust_5="13000.00000" pt_clust_6="13000.00000" pt_clust_7="13000.00000" pt_clust_8="13000.00000" pt_clust_9="13000.00000"></scales>
<clustering>
<clus scale="   79.917">  5  6 -1 -1</clus>
<clus scale="   91.154">  7  8 -1 -1</clus>
<clus scale="  107.128">  5  9 -1 -1</clus>
<clus scale="  122.988">  1  7  2 -1</clus>
<clus scale="  207.477">  2  5  1 -1</clus>
</clustering>
</event>
<event>
 9    1  0.4516508E-005  0.7287603E+03  0.7546771E-02  0.9979924E-01
         21   -1    0    0  501  502  0.00000000000E+00  0.00000000000E+00  0.35142344950E+03  0.35142344950E+03  0.00000000000E+00 0. -1.
          3   -1    0    0  502    0 -0.00000000000E+00 -0.00000000000E+00 -0.85012693171E+03  0.85012693171E+03  0.00000000000E+00 0. -1.
         23    2    1    2    0    0 -0.24514322187E+03 -0.35155341250E+02  0.74542523701E+02  0.27434891409E+03  0.91540382220E+02 0.  0.
        -24    2    1    2    0    0 -0.32189147567E+02 -0.16863104820E+03 -0.55048738738E+03  0.58229555186E+03  0.80988730211E+02 0.  0.
         13    1    4    4    0    0 -0.21623890219E+02 -0.17468015365E+03 -0.53001139206E+03  0.55847365598E+03  0.00000000000E+00 0. -1.
        -14    1    4    4    0    0 -0.10565257348E+02  0.60491054434E+01 -0.20475995316E+02  0.23821895887E+02  0.00000000000E+00 0.  1.
        -11    1    3    3    0    0 -0.32299343219E+02 -0.20035443168E+02 -0.17646570211E+02  0.41905464984E+02  0.00000000000E+00 0.  1.
         11    1    3    3    0    0 -0.21284387865E+03 -0.15119898082E+02  0.92189093912E+02  0.23244344911E+03  0.00000000000E+00 0. -1.
          4    1    1    2  501    0  0.27733236943E+03  0.20378638945E+03 -0.22758618535E+02  0.34490591526E+03  0.00000000000E+00 0. -1.
<scales pt_clust_5="13000.00000" pt_clust_6="13000.00000" pt_clust_7="13000.00000" pt_clust_8="13000.00000" pt_clust_9="13000.00000"></scales>
<clustering>
<clus scale="   80.989">  5  6 -1 -1</clus>
<clus scale="   91.540">  7  8 -1 -1</clus>
<clus scale="  264.028">  2  7  1 -1</clus>
<clus scale="  292.054">  5  9 -1 -1</clus>
<clus scale="  728.760">  1  5  2 -1</clus>
</clustering>
</event>
<event>
 9    1  0.4516508E-005  0.2617775E+03  0.7546771E-02  0.1133169E+00
          1   -1    0    0  502    0 -0.00000000000E+00  0.00000000000E+00  0.52516669688E+03  0.52516669688E+03  0.00000000000E+00 0. -1.
         21   -1    0    0  501  502  0.00000000000E+00 -0.00000000000E+00 -0.85430576624E+02  0.85430576624E+02  0.00000000000E+00 0. -1.
         23    2    1    2    0    0 -0.92153509134E+01 -0.96974155651E+02  0.26324286819E+03  0.29488013274E+03  0.90380171909E+02 0.  0.
        -24    2    1    2    0    0 -0.10106582408E+03  0.45902857265E+02  0.11951711821E+03  0.18149160331E+03  0.79583210710E+02 0.  0.
         13    1    4    4    0    0 -0.84692239370E+02 -0.26334849571E+01  0.65940341272E+02  0.10736777570E+03  0.00000000000E+00 0. -1.
        -14    1    4    4    0    0 -0.16373584705E+02  0.48536342222E+02  0.53576776939E+02  0.74123827610E+02  0.00000000000E+00 0.  1.
        -11    1    3    3    0    0 -0.22035626488E+02 -0.40838675340E+01  0.13018583925E+03  0.13210071745E+03  0.00000000000E+00 0. -1.
         11    1    3    3    0    0  0.12820275574E+02 -0.92890288117E+02  0.13305702894E+03  0.16277941529E+03  0.00000000000E+00 0.  1.
          2    1    1    2  501    0  0.11028117499E+03  0.51071298386E+02  0.56976133859E+02  0.13422553746E+03  0.00000000000E+00 0. -1.
<scales pt_clust_5="13000.00000" pt_clust_6="13000.00000" pt_clust_7="13000.00000" pt_clust_8="13000.00000" pt_clust_9="13000.00000"></scales>
<clustering>
<clus scale="   79.583">  5  6 -1 -1</clus>
<clus scale="   90.380">  7  8 -1 -1</clus>
<clus scale="  121.533">  5  9 -1 -1</clus>
<clus scale="  132.881">  1  7  2 -1</clus>
<clus scale="  261.777">  2  5  1 -1</clus>
</clustering>
</event>
<event>
 9    1  0.4516508E-005  0.2264180E+03  0.7546771E-02  0.1166616E+00
         21   -1    0    0  501  502  0.00000000000E+00  0.00000000000E+00  0.23554170142E+03  0.23554170142E+03  0.00000000000E+00 0. -1.
          1   -1    0    0  502    0 -0.00000000000E+00 -0.00000000000E+00 -0.12057455748E+03  0.12057455748E+03  0.00000000000E+00 0. -1.
         23    2    1    2    0    0  0.20118458449E+02  0.18974459435E+02  0.88184364436E+02  0.12811969886E+03  0.88732139743E+02 0.  0.
        -24    2    1    2    0    0 -0.15010287925E+02  0.62552295277E+01  0.11132844504E+03  0.13961896009E+03  0.82674026769E+02 0.  0.
         13    1    4    4    0    0 -0.31711924550E+02 -0.83373062683E+01  0.11272441267E+03  0.11739655040E+03  0.00000000000E+00 0. -1.
        -14    1    4    4    0    0  0.16701636626E+02  0.14592535796E+02 -0.13959676272E+01  0.22222409693E+02  0.00000000000E+00 0.  1.
        -11    1    3    3    0    0 -0.29889221567E+02 -0.12541551917E+02  0.20944081275E+02  0.38591587565E+02  0.00000000000E+00 0.  1.
         11    1    3    3    0    0  0.50007680016E+02  0.31516011352E+02  0.67240283161E+02  0.89528111293E+02  0.00000000000E+00 0. -1.
          2    1    1    2  501    0 -0.51081705241E+01 -0.25229688963E+02 -0.84545665540E+02  0.88377599950E+02  0.00000000000E+00 0. -1.
<scales pt_clust_5="13000.00000" pt_clust_6="13000.00000" pt_clust_7="13000.00000" pt_clust_8="13000.00000" pt_clust_9="13000.00000"></scales>
<clustering>
<clus scale="   82.674">  5  6 -1 -1</clus>
<clus scale="   25.742">  5  9 -1 -1</clus>
<clus scale="   88.732">  7  8 -1 -1</clus>
<clus scale="   92.942">  2  7  1 -1</clus>
<clus scale="  226.418">  1  5  2 -1</clus>
</clustering>
</event>
<event>
 9    1  0.4516508E-005  0.1147770E+03  0.7546771E-02  0.1257464E+00
         21   -1    0    0  501  502  0.00000000000E+00  0.00000000000E+00  0.74947232283E+02  0.74947232283E+02  0.00000000000E+00 0.  1.
         -2   -1    0    0    0  501 -0.00000000000E+00 -0.00000000000E+00 -0.15814793954E+03  0.15814793954E+03  0.00000000000E+00 0.  1.
         23    2    1    2    0    0  0.41572250579E+02 -0.28221615157E+01 -0.41237220168E+02  0.11088762173E+03  0.94124065526E+02 0.  0.
        -24    2    1    2    0    0 -0.17427387609E+02  0.21882041621E+02 -0.35481946411E+02  0.90770886680E+02  0.78726410836E+02 0.  0.
         13    1    4    4    0    0 -0.13551364334E+02 -0.28932268325E+02 -0.19186278141E+02  0.37266994709E+02  0.00000000000E+00 0. -1.
        -14    1    4    4    0    0 -0.38760232751E+01  0.50814309945E+02 -0.16295668270E+02  0.53503891971E+02  0.00000000000E+00 0.  1.
        -11    1    3    3    0    0  0.58539662009E+02 -0.32895017552E+02 -0.18881203311E+02  0.69752950091E+02  0.00000000000E+00 0.  1.
         11    1    3    3    0    0 -0.16967411431E+02  0.30072856036E+02 -0.22356016858E+02  0.41134671636E+02  0.00000000000E+00 0. -1.
         -1    1    1    2    0  502 -0.24144862970E+02 -0.19059880105E+02 -0.64815406815E+01  0.31436663421E+02  0.00000000000E+00 0.  1.
<scales pt_clust_5="13000.00000" pt_clust_6="13000.00000" pt_clust_7="13000.00000" pt_clust_8="13000.00000" pt_clust_9="13000.00000"></scales>
<clustering>
<clus scale="   78.726">  5  6 -1 -1</clus>
<clus scale="   30.761">  5  9 -1 -1</clus>
<clus scale="   94.124">  7  8 -1 -1</clus>
<clus scale="  102.935">  2  7  1 -1</clus>
<clus scale="  114.777">  1  5  2 -1</clus>
</clustering>
</event>
<event>
 9    1  0.4516508E-005  0.4161676E+03  0.7546771E-02  0.1053034E+00
          1   -1    0    0  502    0 -0.00000000000E+00  0.00000000000E+00  0.12620650954E+04  0.12620650954E+04  0.00000000000E+00 0. -1.
         21   -1    0    0  501  502  0.00000000000E+00 -0.00000000000E+00 -0.11708260525E+03  0.11708260525E+03  0.00000000000E+00 0. -1.
         23    2    1    2    0    0  0.14762184978E+03  0.21137110439E+03  0.17558315624E+03  0.32419245329E+03  0.88325238244E+02 0.  0.
        -24    2    1    2    0    0  0.44128791346E+02 -0.17116933075E+02  0.76290802157E+02  0.12106775900E+03  0.81220540213E+02 0.  0.
         11    1    4    4    0    0 -0.19366627571E+02 -0.22967172070E+02  0.20816308427E+02  0.36549636837E+02  0.00000000000E+00 0. -1.
        -12    1    4    4    0    0  0.63495418917E+02  0.58502389956E+01  0.55474493730E+02  0.84518122166E+02  0.00000000000E+00 0.  1.
        -11    1    3    3    0    0  0.25550731739E+02  0.47410393335E+02  0.84960268093E+02  0.10059240748E+03  0.00000000000E+00 0.  1.
         11    1    3    3    0    0  0.12207111804E+03  0.16396071105E+03  0.90622888152E+02  0.22360004581E+03  0.00000000000E+00 0. -1.
          2    1    1    2  501    0 -0.19175064112E+03 -0.19425417131E+03  0.89310853176E+03  0.93388748837E+03  0.00000000000E+00 0. -1.
<scales pt_clust_5="13000.00000" pt_clust_6="13000.00000" pt_clust_7="13000.00000" pt_clust_8="13000.00000" pt_clust_9="13000.00000"></scales>
<clustering>
<clus scale="   81.221">  5  6 -1 -1</clus>
<clus scale="   88.325">  7  8 -1 -1</clus>
<clus scale="  272.528">  1  7  2 -1</clus>
<clus scale="   58.625">  5  9 -1 -1</clus>
<clus scale="  416.168">  2  5  1 -1</clus>
</clustering>
</event>
<event>
 9    1  0.4516508E-005  0.5866298E+03  0.7546771E-02  0.1016608E+00
         21   -1    0    0  501  502  0.00000000000E+00  0.00000000000E+00  0.67584441542E+02  0.67584441542E+02  0.00000000000E+00 0.  1.
          1   -1    0    0  502    0 -0.00000000000E+00 -0.00000000000E+00 -0.30120694298E+04  0.30120694298E+04  0.00000000000E+00 0. -1.
         23    2    1    2    0    0 -0.15124168958E+03  0.22141464340E+03 -0.61410013492E+03  0.67656667810E+03  0.93407715037E+02 0.  0.
        -24    2    1    2    0    0  0.17641575525E+02  0.12214973452E+03 -0.25263419542E+03  0.29288974544E+03  0.82027943124E+02 0.  0.
         11    1    4    4    0    0  0.11510772930E+02  0.41190946859E+02 -0.21416591339E+02  0.47831604418E+02  0.00000000000E+00 0. -1.
        -12    1    4    4    0    0  0.61308025949E+01  0.80958787664E+02 -0.23121760409E+03  0.24505814102E+03  0.00000000000E+00 0.  1.
        -11    1    3    3    0    0 -0.53304811243E+02  0.41766313753E+02 -0.24897124351E+03  0.25801648777E+03  0.00000000000E+00 0. -1.
         11    1    3    3    0    0 -0.97936878341E+02  0.17964832965E+03 -0.36512889141E+03  0.41855019033E+03  0.00000000000E+00 0.  1.
          2    1    1    2  501    0  0.13360011406E+03 -0.34356437792E+03 -0.20777506579E+04  0.21101974478E+04  0.00000000000E+00 0. -1.
<scales pt_clust_5="13000.00000" pt_clust_6="13000.00000" pt_clust_7="13000.00000" pt_clust_8="13000.00000" pt_clust_9="13000.00000"></scales>
<clustering>
<clus scale="   82.028">  5  6 -1 -1</clus>
<clus scale="   93.408">  7  8 -1 -1</clus>
<clus scale="  283.943">  2  7  1 -1</clus>
<clus scale="  147.668">  5  9 -1 -1</clus>
<clus scale="  586.630">  1  5  2 -1</clus>
</clustering>
</event>
<event>
 9    1  0.4516508E-005  0.5304900E+03  0.7546771E-02  0.1016374E+00
          3   -1    0    0  502    0 -0.00000000000E+00  0.00000000000E+00  0.38440529929E+03  0.38440529929E+03  0.00000000000E+00 0. -1.
         21   -1    0    0  501  502  0.00000000000E+00 -0.00000000000E+00 -0.67087395167E+03  0.67087395167E+03  0.00000000000E+00 0. -1.
         23    2    1    2    0    0 -0.35711399034E+03 -0.11603797008E+03  0.99409734836E+02  0.39929007576E+03  0.92493549110E+02 0.  0.
        -24    2    1    2    0    0 -0.27771612520E+02 -0.63494943913E+02 -0.73493553150E+02  0.12877642967E+03  0.79869869915E+02 0.  0.
         13    1    4    4    0    0 -0.35655310854E+02  0.54317494458E+01 -0.20585547149E+02  0.41527940541E+02  0.00000000000E+00 0. -1.
        -14    1    4    4    0    0  0.78836983341E+01 -0.68926693359E+02 -0.52908006001E+02  0.87248489132E+02  0.00000000000E+00 0.  1.
        -13    1    3    3    0    0 -0.27802831782E+03 -0.11937246179E+03  0.10414325970E+03  0.31999273224E+03  0.00000000000E+00 0. -1.
         13    1    3    3    0    0 -0.79085672514E+02  0.33344917122E+01 -0.47335248635E+01  0.79297343521E+02  0.00000000000E+00 0.  1.
          4    1    1    2  501    0  0.38488560286E+03  0.17953291399E+03 -0.31238483406E+03  0.52721274553E+03  0.00000000000E+00 0. -1.
<scales pt_clust_5="13000.00000" pt_clust_6="13000.00000" pt_clust_7="13000.00000" pt_clust_8="13000.00000" pt_clust_9="13000.00000"></scales>
<clustering>
<clus scale="   79.870">  5  6 -1 -1</clus>
<clus scale="   92.494">  7  8 -1 -1</clus>
<clus scale="  386.717">  1  7  2 -1</clus>
<clus scale="  133.359">  5  9 -1 -1</clus>
<clus scale="  530.490">  2  5  1 -1</clus>
</clustering>
</event>
<event>
 9    1  0.4516508E-005  0.1664254E+03  0.7546771E-02  0.1207176E+00
          1   -1    0    0  502    0 -0.00000000000E+00  0.00000000000E+00  0.17291994846E+03  0.17291994846E+03  0.00000000000E+00 0. -1.
         21   -1    0    0  501  502  0.00000000000E+00 -0.00000000000E+00 -0.11641587867E+03  0.11641587867E+03  0.00000000000E+00 0.  1.
         23    2    1    2    0    0  0.11704842017E+02  0.22808253123E+02  0.76114315715E+02  0.12175902482E+03  0.91513121087E+02 0.  0.
        -24    2    1    2    0    0 -0.44868399779E+02 -0.23060375115E+02 -0.61680009388E+02  0.11400675353E+03  0.81536262439E+02 0.  0.
         11    1    4    4    0    0  0.22558851583E+02 -0.14706209022E+02 -0.25241577590E+02  0.36909505656E+02  0.00000000000E+00 0. -1.
        -12    1    4    4    0    0 -0.67427251362E+02 -0.83541660922E+01 -0.36438431798E+02  0.77097247871E+02  0.00000000000E+00 0.  1.
        -13    1    3    3    0    0  0.48628660128E+02  0.23952100171E+02  0.61635088177E+02  0.82081263288E+02  0.00000000000E+00 0. -1.
         13    1    3    3    0    0 -0.36923818111E+02 -0.11438470487E+01  0.14479227538E+02  0.39677761531E+02  0.00000000000E+00 0.  1.
          2    1    1    2  501    0  0.33163557763E+02  0.25212199202E+00  0.42069763465E+02  0.53570048787E+02  0.00000000000E+00 0. -1.
<scales pt_clust_5="13000.00000" pt_clust_6="13000.00000" pt_clust_7="13000.00000" pt_clust_8="13000.00000" pt_clust_9="13000.00000"></scales>
<clustering>
<clus scale="   81.536">  5  6 -1 -1</clus>
<clus scale="   33.165">  5  9 -1 -1</clus>
<clus scale="   91.513">  7  8 -1 -1</clus>
<clus scale="   95.036">  1  7  2 -1</clus>
<clus scale="  166.425">  2  5  1 -1</clus>
</clustering>
</event>
<event>
 9    1  0.4516508E-005  0.1764530E+03  0.7546771E-02  0.1195929E+00
         21   -1    0    0  501  502  0.00000000000E+00  0.00000000000E+00  0.23245515007E+02  0.23245515007E+02  0.00000000000E+00 0.  1.
         -2   -1    0    0    0  501 -0.00000000000E+00 -0.00000000000E+00 -0.83809706785E+03  0.83809706785E+03  0.00000000000E+00 0.  1.
         23    2    1    2    0    0 -0.30527469380E+02  0.23225559614E+02 -0.33326518258E+03  0.34844776636E+03  0.94227442667E+02 0.  0.
        -24    2    1    2    0    0 -0.31994347428E+02 -0.43758204275E+02 -0.11340956131E+03  0.13888314593E+03  0.59062517030E+02 0.  0.
         11    1    4    4    0    0 -0.14074551122E+02 -0.36518979251E+02 -0.11296352859E+03  0.11955119249E+03  0.00000000000E+00 0. -1.
        -12    1    4    4    0    0 -0.17919796305E+02 -0.72392250242E+01 -0.44603272269E+00  0.19331953439E+02  0.00000000000E+00 0.  1.
        -13    1    3    3    0    0  0.18747968500E+02  0.43815661931E+02 -0.13730417214E+03  0.14534006413E+03  0.00000000000E+00 0. -1.
         13    1    3    3    0    0 -0.49275437880E+02 -0.20590102318E+02 -0.19596101044E+03  0.20310770223E+03  0.00000000000E+00 0.  1.
         -1    1    1    2    0  502  0.62521816808E+02  0.20532644661E+02 -0.36817680895E+03  0.37401167057E+03  0.00000000000E+00 0.  1.
<scales pt_clust_5="13000.00000" pt_clust_6="13000.00000" pt_clust_7="13000.00000" pt_clust_8="13000.00000" pt_clust_9="13000.00000"></scales>
<clustering>
<clus scale="   59.063">  5  6 -1 -1</clus>
<clus scale="   65.807">  5  9 -1 -1</clus>
<clus scale="   94.227">  7  8 -1 -1</clus>
<clus scale="  101.736">  2  7  1 -1</clus>
<clus scale="  176.453">  1  5  2 -1</clus>
</clustering>
</event>
<event>
 9    1  0.4516508E-005  0.3697737E+03  0.7546771E-02  0.1095244E+00
         21   -1    0    0  501  502  0.00000000000E+00  0.00000000000E+00  0.12029073451E+04  0.12029073451E+04  0.00000000000E+00 0. -1.
          1   -1    0    0  502    0 -0.00000000000E+00 -0.00000000000E+00 -0.50590592049E+02  0.50590592049E+02  0.00000000000E+00 0. -1.
         23    2    1    2    0    0  0.45272610426E+01  0.81041694623E+02  0.31533784412E+03  0.33847538295E+03  0.92408747233E+02 0.  0.
        -24    2    1    2    0    0  0.53509772359E+02 -0.17740936169E+03  0.26809224400E+03  0.33511992269E+03  0.78067496042E+02 0.  0.
         13    1    4    4    0    0  0.15664514349E+02 -0.14930521371E+03  0.22929198557E+03  0.27406612066E+03  0.00000000000E+00 0. -1.
        -14    1    4    4    0    0  0.37845258010E+02 -0.28104147980E+02  0.38800258437E+02  0.61053802030E+02  0.00000000000E+00 0.  1.
        -11    1    3    3    0    0  0.20857495670E+02  0.94077795644E+02  0.20956135922E+03  0.23065478542E+03  0.00000000000E+00 0.  1.
         11    1    3    3    0    0 -0.16330234627E+02 -0.13036101021E+02  0.10577648490E+03  0.10782059753E+03  0.00000000000E+00 0. -1.
          2    1    1    2  501    0 -0.58037033401E+02  0.96367667067E+02  0.56888666497E+03  0.57990263156E+03  0.00000000000E+00 0. -1.
<scales pt_clust_5="13000.00000" pt_clust_6="13000.00000" pt_clust_7="13000.00000" pt_clust_8="13000.00000" pt_clust_9="13000.00000"></scales>
<clustering>
<clus scale="   78.067">  5  6 -1 -1</clus>
<clus scale="   92.409">  7  8 -1 -1</clus>
<clus scale="  112.495">  5  9 -1 -1</clus>
<clus scale="  122.994">  2  7  1 -1</clus>
<clus scale="  369.774">  1  5  2 -1</clus>
</clustering>
</event>
<event>
 9    1  0.4516508E-005  0.2789840E+03  0.7546771E-02  0.1139742E+00
          1   -1    0    0  502    0 -0.00000000000E+00  0.00000000000E+00  0.59881439008E+02  0.59881439008E+02  0.00000000000E+00 0. -1.
         21   -1    0    0  501  502  0.00000000000E+00 -0.00000000000E+00 -0.12915580739E+04  0.12915580739E+04  0.00000000000E+00 0. -1.
         23    2    1    2    0    0 -0.18583847695E+02  0.11185716229E+02 -0.53085262926E+01  0.93738904394E+02  0.91040222445E+02 0.  0.
        -24    2    1    2    0    0  0.12005192439E+03 -0.66639939414E+02 -0.82092160439E+03  0.83608726760E+03  0.79223054875E+02 0.  0.
         13    1    4    4    0    0  0.86825277332E+02 -0.62082785436E+01 -0.38288953096E+03  0.39265960376E+03  0.00000000000E+00 0. -1.
        -14    1    4    4    0    0  0.33226647055E+02 -0.60431660870E+02 -0.43803207343E+03  0.44342766384E+03  0.00000000000E+00 0.  1.
        -11    1    3    3    0    0  0.71584546098E+01 -0.31662422690E+02  0.19569355205E+02  0.37903985887E+02  0.00000000000E+00 0. -1.
         11    1    3    3    0    0 -0.25742302305E+02  0.42848138920E+02 -0.24877881497E+02  0.55834918507E+02  0.00000000000E+00 0.  1.
          2    1    1    2  501    0 -0.10146807669E+03  0.55454223184E+02 -0.40544650421E+03  0.42161334091E+03  0.00000000000E+00 0. -1.
<scales pt_clust_5="13000.00000" pt_clust_6="13000.00000" pt_clust_7="13000.00000" pt_clust_8="13000.00000" pt_clust_9="13000.00000"></scales>
<clustering>
<clus scale="   79.223">  5  6 -1 -1</clus>
<clus scale="   91.040">  7  8 -1 -1</clus>
<clus scale="   93.588">  1  7  2 -1</clus>
<clus scale="  126.816">  5  9 -1 -1</clus>
<clus scale="  278.984">  2  5  1 -1</clus>
</clustering>
</event>
<event>
 9    1  0.4516508E-005  0.3119973E+03  0.7546771E-02  0.1125018E+00
         21   -1    0    0  501  502  0.00000000000E+00  0.00000000000E+00  0.39174732672E+03  0.39174732672E+03  0.00000000000E+00 0. -1.
         -4   -1    0    0    0  501 -0.00000000000E+00 -0.00000000000E+00 -0.12072925053E+03  0.12072925053E+03  0.00000000000E+00 0.  1.
         23    2    1    2    0    0  0.26935697892E+02  0.11359012337E+02  0.14955467543E+03  0.17766967941E+03  0.91352914879E+02 0.  0.
        -24    2    1    2    0    0 -0.27551741823E+02  0.68982347770E+02 -0.68856404686E+02  0.12822339899E+03  0.78628066247E+02 0.  0.
         11    1    4    4    0    0 -0.50310666967E+02  0.62035910849E+02 -0.67181001590E+02  0.10436907789E+03  0.00000000000E+00 0. -1.
        -12    1    4    4    0    0  0.22758925145E+02  0.69464369213E+01 -0.16754030958E+01  0.23854321101E+02  0.00000000000E+00 0.  1.
        -11    1    3    3    0    0 -0.29424885459E+02  0.87836054150E+01  0.92357546472E+02  0.97328782992E+02  0.00000000000E+00 0.  1.
         11    1    3    3    0    0  0.56360583351E+02  0.25754069224E+01  0.57197128961E+02  0.80340896422E+02  0.00000000000E+00 0. -1.
         -3    1    1    2    0  502  0.61604393032E+00 -0.80341360107E+02  0.19031980544E+03  0.20658349885E+03  0.00000000000E+00 0.  1.
<scales pt_clust_5="13000.00000" pt_clust_6="13000.00000" pt_clust_7="13000.00000" pt_clust_8="13000.00000" pt_clust_9="13000.00000"></scales>
<clustering>
<clus scale="   78.628">  5  6 -1 -1</clus>
<clus scale="   80.344">  5  9 -1 -1</clus>
<clus scale="   91.353">  7  8 -1 -1</clus>
<clus scale="   95.916">  2  7  1 -1</clus>
<clus scale="  311.997">  1  5  2 -1</clus>
</clustering>
</event>
<event>
 9    1  0.4516508E-005  0.1115580E+04  0.7546771E-02  0.9447368E-01
         21   -1    0    0  501  502  0.00000000000E+00  0.00000000000E+00  0.26652927232E+03  0.26652927232E+03  0.00000000000E+00 0.  1.
          3   -1    0    0  502    0 -0.00000000000E+00 -0.00000000000E+00 -0.23123940449E+04  0.23123940449E+04  0.00000000000E+00 0. -1.
         23    2    1    2    0    0 -0.16128131664E+03  0.39597619827E+03 -0.41469042482E+03  0.60275330805E+03  0.92382840606E+02 0.  0.
        -24    2    1    2    0    0 -0.27398656857E+03  0.22059332977E+03 -0.52929252193E+03  0.64059534899E+03  0.80509443416E+02 0.  0.
         13    1    4    4    0    0 -0.55037775813E+02  0.49798099619E+02 -0.60605990256E+02  0.95823241163E+02  0.00000000000E+00 0. -1.
        -14    1    4    4    0    0 -0.21894879276E+03  0.17079523015E+03 -0.46868653168E+03  0.54477210783E+03  0.00000000000E+00 0.  1.
        -13    1    3    3    0    0 -0.11224389552E+03  0.30243282977E+03 -0.25457654171E+03  0.41094223949E+03  0.00000000000E+00 0.  1.
         13    1    3    3    0    0 -0.49037421121E+02  0.93543368498E+02 -0.16011388311E+03  0.19181106857E+03  0.00000000000E+00 0. -1.
          4    1    1    2  501    0  0.43526788521E+03 -0.61656952804E+03 -0.11018818258E+04  0.13355746601E+04  0.00000000000E+00 0. -1.
<scales pt_clust_5="13000.00000" pt_clust_6="13000.00000" pt_clust_7="13000.00000" pt_clust_8="13000.00000" pt_clust_9="13000.00000"></scales>
<clustering>
<clus scale="   80.509">  5  6 -1 -1</clus>
<clus scale="   92.383">  7  8 -1 -1</clus>
<clus scale="  437.428">  2  7  1 -1</clus>
<clus scale="  477.781">  5  9 -1 -1</clus>
<clus scale=" 1115.580">  1  5  2 -1</clus>
</clustering>
</event>
<event>
 9    1  0.4516508E-005  0.3629846E+03  0.7546771E-02  0.1100241E+00
         21   -1    0    0  501  502  0.00000000000E+00  0.00000000000E+00  0.50710496257E+02  0.50710496257E+02  0.00000000000E+00 0.  1.
          1   -1    0    0  502    0 -0.00000000000E+00 -0.00000000000E+00 -0.13767625980E+04  0.13767625980E+04  0.00000000000E+00 0. -1.
         23    2    1    2    0    0 -0.56334397015E+02  0.39889765545E+02 -0.11046786360E+03  0.15885067319E+03  0.90915509153E+02 0.  0.
        -24    2    1    2    0    0  0.16820944299E+03 -0.79842940396E+02 -0.44161171086E+03  0.48558617983E+03  0.78126327378E+02 0.  0.
         13    1    4    4    0    0  0.20543345959E+02 -0.45921121369E+02 -0.11694320361E+03  0.12730471838E+03  0.00000000000E+00 0. -1.
        -14    1    4    4    0    0  0.14766609703E+03 -0.33921819027E+02 -0.32466850726E+03  0.35828146145E+03  0.00000000000E+00 0.  1.
        -11    1    3    3    0    0 -0.15240215615E+02  0.13606862466E+02 -0.10809909538E+03  0.11001284153E+03  0.00000000000E+00 0.  1.
         11    1    3    3    0    0 -0.41094181400E+02  0.26282903080E+02 -0.23687682136E+01  0.48837831668E+02  0.00000000000E+00 0. -1.
          2    1    1    2  501    0 -0.11187504597E+03  0.39953174850E+02 -0.77397252729E+03  0.78303624124E+03  0.00000000000E+00 0. -1.
<scales pt_clust_5="13000.00000" pt_clust_6="13000.00000" pt_clust_7="13000.00000" pt_clust_8="13000.00000" pt_clust_9="13000.00000"></scales>
<clustering>
<clus scale="   78.126">  5  6 -1 -1</clus>
<clus scale="   90.916">  7  8 -1 -1</clus>
<clus scale="  114.151">  2  7  1 -1</clus>
<clus scale="  160.879">  5  9 -1 -1</clus>
<clus scale="  362.985">  1  5  2 -1</clus>
</clustering>
</event>
<event>
 9    1  0.4516508E-005  0.1379806E+03  0.7546771E-02  0.1234455E+00
         -2   -1    0    0    0  501 -0.00000000000E+00  0.00000000000E+00  0.22598311517E+03  0.22598311517E+03  0.00000000000E+00 0.  1.
         21   -1    0    0  501  502  0.00000000000E+00 -0.00000000000E+00 -0.82696284827E+02  0.82696284827E+02  0.00000000000E+00 0.  1.
         23    2    1    2    0    0 -0.10445870354E+02 -0.17824736088E+02 -0.18635620757E+02  0.95941237249E+02  0.91818283690E+02 0.  0.
        -24    2    1    2    0    0 -0.20951404657E+02 -0.19450067586E+02  0.12648187797E+03  0.15247844078E+03  0.80216849623E+02 0.  0.
         11    1    4    4    0    0 -0.87221787287E+01 -0.46601712091E+02  0.10661375253E+03  0.11668028197E+03  0.00000000000E+00 0. -1.
        -12    1    4    4    0    0 -0.12229225928E+02  0.27151644505E+02  0.19868125435E+02  0.35798158814E+02  0.00000000000E+00 0.  1.
        -11    1    3    3    0    0 -0.49199138730E+02 -0.13243487638E+02 -0.24405242409E+02  0.56493902977E+02  0.00000000000E+00 0.  1.
         11    1    3    3    0    0  0.38753268375E+02 -0.45812484499E+01  0.57696216523E+01  0.39447334272E+02  0.00000000000E+00 0. -1.
         -1    1    1    2    0  502  0.31397275011E+02  0.37274803674E+02  0.35440573130E+02  0.60259721961E+02  0.00000000000E+00 0.  1.
<scales pt_clust_5="13000.00000" pt_clust_6="13000.00000" pt_clust_7="13000.00000" pt_clust_8="13000.00000" pt_clust_9="13000.00000"></scales>
<clustering>
<clus scale="   80.217">  5  6 -1 -1</clus>
<clus scale="   48.736">  5  9 -1 -1</clus>
<clus scale="   91.818">  7  8 -1 -1</clus>
<clus scale="   94.114">  1  7  2 -1</clus>
<clus scale="  137.981">  2  5  1 -1</clus>
</clustering>
</event>
<event>
 9    1  0.4516508E-005  0.2156468E+03  0.7546771E-02  0.1173336E+00
          1   -1    0    0  502    0 -0.00000000000E+00  0.00000000000E+00  0.93173276003E+02  0.93173276003E+02  0.00000000000E+00 0. -1.
         21   -1    0    0  501  502  0.00000000000E+00 -0.00000000000E+00 -0.45816855931E+03  0.45816855931E+03  0.00000000000E+00 0.  1.
         23    2    1    2    0    0  0.95739619513E+01 -0.13317158121E+02 -0.31736213742E+03  0.33049697565E+03  0.90777294505E+02 0.  0.
        -24    2    1    2    0    0 -0.18183366365E+02  0.85639479367E+02 -0.76456221195E+02  0.14251600377E+03  0.82465158295E+02 0.  0.
         13    1    4    4    0    0 -0.45666298985E+02  0.35425857583E+02 -0.17606549422E+02  0.60418480873E+02  0.00000000000E+00 0. -1.
        -14    1    4    4    0    0  0.27482932620E+02  0.50213621784E+02 -0.58849671773E+02  0.82097522897E+02  0.00000000000E+00 0.  1.
        -13    1    3    3    0    0  0.50058997949E+02 -0.45757428917E+01 -0.19193075602E+03  0.19840427366E+03  0.00000000000E+00 0. -1.
         13    1    3    3    0    0 -0.40485035998E+02 -0.87414152289E+01 -0.12543138140E+03  0.13209270200E+03  0.00000000000E+00 0.  1.
          2    1    1    2  501    0  0.86094044141E+01 -0.72322321246E+02  0.28823075310E+02  0.78328855891E+02  0.00000000000E+00 0. -1.
<scales pt_clust_5="13000.00000" pt_clust_6="13000.00000" pt_clust_7="13000.00000" pt_clust_8="13000.00000" pt_clust_9="13000.00000"></scales>
<clustering>
<clus scale="   82.465">  5  6 -1 -1</clus>
<clus scale="   72.833">  5  9 -1 -1</clus>
<clus scale="   90.777">  7  8 -1 -1</clus>
<clus scale="   92.247">  1  7  2 -1</clus>
<clus scale="  215.647">  2  5  1 -1</clus>
</clustering>
</event>
<event>
 9    1  0.4516508E-005  0.5784348E+03  0.7546771E-02  0.1053533E+00
         21   -1    0    0  501  502  0.00000000000E+00  0.00000000000E+00  0.22124356937E+03  0.22124356937E+03  0.00000000000E+00 0. -1.
          1   -1    0    0  502    0 -0.00000000000E+00 -0.00000000000E+00 -0.63145300896E+03  0.63145300896E+03  0.00000000000E+00 0. -1.
         23    2    1    2    0    0  0.26006337405E+02 -0.33485309121E+02 -0.22349213482E+03  0.24487244208E+03  0.90643163309E+02 0.  0.
        -24    2    1    2    0    0  0.14696057776E+03 -0.14446914453E+03  0.87448389444E+02  0.23802396155E+03  0.80866806037E+02 0.  0.
         11    1    4    4    0    0  0.93109244361E+02 -0.53211099124E+02  0.76008490405E+02  0.13144597015E+03  0.00000000000E+00 0. -1.
        -12    1    4    4    0    0  0.53851333396E+02 -0.91258045410E+02  0.11439899039E+02  0.10657799140E+03  0.00000000000E+00 0.  1.
        -13    1    3    3    0    0  0.11457349022E+02 -0.61495100447E+02 -0.10474133477E+03  0.12199862883E+03  0.00000000000E+00 0. -1.
         13    1    3    3    0    0  0.14548988383E+02  0.28009791326E+02 -0.11875080004E+03  0.12287381326E+03  0.00000000000E+00 0.  1.
          2    1    1    2  501    0 -0.17296691516E+03  0.17795445365E+03 -0.27416569422E+03  0.36980017469E+03  0.00000000000E+00 0. -1.
<scales pt_clust_5="13000.00000" pt_clust_6="13000.00000" pt_clust_7="13000.00000" pt_clust_8="13000.00000" pt_clust_9="13000.00000"></scales>
<clustering>
<clus scale="   80.867">  5  6 -1 -1</clus>
<clus scale="   90.643">  7  8 -1 -1</clus>
<clus scale="  100.069">  2  7  1 -1</clus>
<clus scale="  214.046">  5  9 -1 -1</clus>
<clus scale="  578.435">  1  5  2 -1</clus>
</clustering>
</event>
<event>
 9    1  0.4516508E-005  0.1607949E+03  0.7546771E-02  0.1212686E+00
         21   -1    0    0  501  502  0.00000000000E+00  0.00000000000E+00  0.60482808107E+03  0.60482808107E+03  0.00000000000E+00 0. -1.
          3   -1    0    0  502    0 -0.00000000000E+00 -0.00000000000E+00 -0.10592757521E+03  0.10592757521E+03  0.00000000000E+00 0. -1.
         23    2    1    2    0    0  0.11076492502E+01 -0.24976885317E+02 -0.71677740048E+02  0.11795339534E+03  0.90278642922E+02 0.  0.
        -24    2    1    2    0    0  0.25964464494E+02 -0.21299411628E+02  0.19396686585E+03  0.21239389275E+03  0.79750876347E+02 0.  0.
         11    1    4    4    0    0  0.39802690408E+02 -0.75129484740E+00  0.17916676596E+03  0.18353623248E+03  0.00000000000E+00 0. -1.
        -12    1    4    4    0    0 -0.13838225913E+02 -0.20548116781E+02  0.14800099890E+02  0.28857660273E+02  0.00000000000E+00 0.  1.
        -13    1    3    3    0    0 -0.14385400238E+02  0.20286136673E+02  0.70326184476E+01  0.25844241203E+02  0.00000000000E+00 0.  1.
         13    1    3    3    0    0  0.15493049488E+02 -0.45263021990E+02 -0.78710358496E+02  0.92109154141E+02  0.00000000000E+00 0. -1.
          4    1    1    2  501    0 -0.27072113745E+02  0.46276296946E+02  0.37661138005E+03  0.38040836818E+03  0.00000000000E+00 0. -1.
<scales pt_clust_5="13000.00000" pt_clust_6="13000.00000" pt_clust_7="13000.00000" pt_clust_8="13000.00000" pt_clust_9="13000.00000"></scales>
<clustering>
<clus scale="   79.751">  5  6 -1 -1</clus>
<clus scale="   53.613">  5  9 -1 -1</clus>
<clus scale="   90.279">  7  8 -1 -1</clus>
<clus scale="   93.677">  2  7  1 -1</clus>
<clus scale="  160.795">  1  5  2 -1</clus>
</clustering>
</event>
<event>
 9    1  0.4516508E-005  0.1266223E+03  0.7546771E-02  0.1246647E+00
          3   -1    0    0  502    0 -0.00000000000E+00  0.00000000000E+00  0.46808829126E+03  0.46808829126E+03  0.00000000000E+00 0. -1.
         21   -1    0    0  501  502  0.00000000000E+00 -0.00000000000E+00 -0.26289846271E+02  0.26289846271E+02  0.00000000000E+00 0. -1.
         23    2    1    2    0    0 -0.98976319466E+01  0.79381747774E+00  0.19860832341E+03  0.22019818080E+03  0.94569442406E+02 0.  0.
        -24    2    1    2    0    0  0.57102827167E+01  0.24605633706E+02  0.10965777180E+03  0.13818894801E+03  0.80207941613E+02 0.  0.
         13    1    4    4    0    0  0.12637924979E+02  0.52751411577E+02  0.80537930676E+02  0.97101940499E+02  0.00000000000E+00 0. -1.
        -14    1    4    4    0    0 -0.69276422624E+01 -0.28145777871E+02  0.29119841119E+02  0.41087007509E+02  0.00000000000E+00 0.  1.
        -11    1    3    3    0    0  0.34618559519E+02  0.23280295101E+02  0.12057905756E+03  0.12759202924E+03  0.00000000000E+00 0.  1.
         11    1    3    3    0    0 -0.44516191465E+02 -0.22486477623E+02  0.78029265847E+02  0.92606151562E+02  0.00000000000E+00 0. -1.
          4    1    1    2  501    0  0.41873492299E+01 -0.25399451184E+02  0.13353234978E+03  0.13599100872E+03  0.00000000000E+00 0. -1.
<scales pt_clust_5="13000.00000" pt_clust_6="13000.00000" pt_clust_7="13000.00000" pt_clust_8="13000.00000" pt_clust_9="13000.00000"></scales>
<clustering>
<clus scale="   80.208">  5  6 -1 -1</clus>
<clus scale="   25.742">  5  9 -1 -1</clus>
<clus scale="   94.569">  7  8 -1 -1</clus>
<clus scale="   95.089">  1  7  2 -1</clus>
<clus scale="  126.622">  2  5  1 -1</clus>
</clustering>
</event>
<event>
 9    1  0.4516508E-005  0.2876102E+03  0.7546771E-02  0.1099603E+00
         21   -1    0    0  501  502  0.00000000000E+00  0.00000000000E+00  0.73658950375E+02  0.73658950375E+02  0.00000000000E+00 0. -1.
          1   -1    0    0  502    0 -0.00000000000E+00 -0.00000000000E+00 -0.10051594831E+04  0.10051594831E+04  0.00000000000E+00 0. -1.
         23    2    1    2    0    0 -0.43344486041E+02  0.20930116772E+03 -0.57658963451E+03  0.62200185711E+03  0.93514599676E+02 0.  0.
        -24    2    1    2    0    0  0.76418976516E+02 -0.48140784240E+02 -0.16940963313E+03  0.20887039173E+03  0.82278926012E+02 0.  0.
         13    1    4    4    0    0  0.53700043662E+02 -0.45708576082E+02 -0.47942187119E+02  0.85272632905E+02  0.00000000000E+00 0. -1.
        -14    1    4    4    0    0  0.22718932853E+02 -0.24322081578E+01 -0.12146744601E+03  0.12359775882E+03  0.00000000000E+00 0.  1.
        -11    1    3    3    0    0  0.15004703363E+02  0.52578833354E+02 -0.24009612152E+03  0.24624342104E+03  0.00000000000E+00 0.  1.
         11    1    3    3    0    0 -0.58349189404E+02  0.15672233436E+03 -0.33649351299E+03  0.37575843607E+03  0.00000000000E+00 0. -1.
          2    1    1    2  501    0 -0.33074490475E+02 -0.16116038348E+03 -0.18550126508E+03  0.24794618463E+03  0.00000000000E+00 0. -1.
<scales pt_clust_5="13000.00000" pt_clust_6="13000.00000" pt_clust_7="13000.00000" pt_clust_8="13000.00000" pt_clust_9="13000.00000"></scales>
<clustering>
<clus scale="   82.279">  5  6 -1 -1</clus>
<clus scale="   93.515">  7  8 -1 -1</clus>
<clus scale="  164.519">  5  9 -1 -1</clus>
<clus scale="  233.304">  2  7  1 -1</clus>
<clus scale="  287.610">  1  5  2 -1</clus>
</clustering>
</event>
<event>
 9    1  0.4516508E-005  0.1696816E+03  0.7546771E-02  0.1192669E+00
         21   -1    0    0  501  502  0.00000000000E+00  0.00000000000E+00  0.30622449198E+03  0.30622449198E+03  0.00000000000E+00 0. -1.
          1   -1    0    0  502    0 -0.00000000000E+00 -0.00000000000E+00 -0.80881546986E+02  0.80881546986E+02  0.00000000000E+00 0. -1.
         23    2    1    2    0    0 -0.12329094771E+02 -0.80336704028E+02  0.26511622726E+02  0.12571408779E+03  0.92169263523E+02 0.  0.
        -24    2    1    2    0    0 -0.27547745032E+02  0.66957470981E+02  0.18858983711E+03  0.21810160297E+03  0.82219227547E+02 0.  0.
         13    1    4    4    0    0  0.10012628989E+02  0.31105884703E+02  0.14970874790E+03  0.15323360598E+03  0.00000000000E+00 0. -1.
        -14    1    4    4    0    0 -0.37560374021E+02  0.35851586278E+02  0.38881089208E+02  0.64867996988E+02  0.00000000000E+00 0.  1.
        -13    1    3    3    0    0 -0.34547363175E+02  0.42280922978E+01  0.17884422546E+01  0.34851048657E+02  0.00000000000E+00 0.  1.
         13    1    3    3    0    0  0.22218268404E+02 -0.84564796326E+02  0.24723180472E+02  0.90863039137E+02  0.00000000000E+00 0. -1.
          2    1    1    2  501    0  0.39876839803E+02  0.13379233047E+02  0.10241485157E+02  0.43290348206E+02  0.00000000000E+00 0. -1.
<scales pt_clust_5="13000.00000" pt_clust_6="13000.00000" pt_clust_7="13000.00000" pt_clust_8="13000.00000" pt_clust_9="13000.00000"></scales>
<clustering>
<clus scale="   82.219">  5  6 -1 -1</clus>
<clus scale="   42.061">  5  9 -1 -1</clus>
<clus scale="   92.169">  7  8 -1 -1</clus>
<clus scale="  122.887">  2  7  1 -1</clus>
<clus scale="  169.682">  1  5  2 -1</clus>
</clustering>
</event>
<event>
 9    1  0.4516508E-005  0.3563668E+03  0.7546771E-02  0.1098009E+00
         21   -1    0    0  501  502  0.00000000000E+00  0.00000000000E+00  0.47320663113E+02  0.47320663113E+02  0.00000000000E+00 0. -1.
          1   -1    0    0  502    0 -0.00000000000E+00 -0.00000000000E+00 -0.12636544506E+04  0.12636544506E+04  0.00000000000E+00 0. -1.
         23    2    1    2    0    0 -0.30944378043E+02  0.87164732757E+02 -0.24523735187E+03  0.27655468902E+03  0.88237702269E+02 0.  0.
        -24    2    1    2    0    0 -0.11076639103E+03  0.91633574344E+01 -0.70061977149E+03  0.71423505826E+03  0.83129379588E+02 0.  0.
         13    1    4    4    0    0 -0.12016013454E+03 -0.59144932964E+01 -0.63230860893E+03  0.64365178170E+03  0.00000000000E+00 0. -1.
        -14    1    4    4    0    0  0.93937435099E+01  0.15077850731E+02 -0.68311162559E+02  0.70583276560E+02  0.00000000000E+00 0.  1.
        -11    1    3    3    0    0  0.68255516623E+01  0.82321978002E+02 -0.12020082194E+03  0.14584832469E+03  0.00000000000E+00 0. -1.
         11    1    3    3    0    0 -0.37769929705E+02  0.48427547554E+01 -0.12503652992E+03  0.13070636434E+03  0.00000000000E+00 0.  1.
          2    1    1    2  501    0  0.14171076907E+03 -0.96328090191E+02 -0.27047666410E+03  0.32018536640E+03  0.00000000000E+00 0. -1.
<scales pt_clust_5="13000.00000" pt_clust_6="13000.00000" pt_clust_7="13000.00000" pt_clust_8="13000.00000" pt_clust_9="13000.00000"></scales>
<clustering>
<clus scale="   83.129">  5  6 -1 -1</clus>
<clus scale="   88.238">  7  8 -1 -1</clus>
<clus scale="  127.833">  2  7  1 -1</clus>
<clus scale="  150.248">  5  9 -1 -1</clus>
<clus scale="  356.367">  1  5  2 -1</clus>
</clustering>
</event>
<event>
 9    1  0.4516508E-005  0.4218278E+03  0.7546771E-02  0.1090796E+00
         21   -1    0    0  501  502  0.00000000000E+00  0.00000000000E+00  0.10162300801E+03  0.10162300801E+03  0.00000000000E+00 0.  1.
          1   -1    0    0  502    0 -0.00000000000E+00 -0.00000000000E+00 -0.69988813831E+03  0.69988813831E+03  0.00000000000E+00 0. -1.
         23    2    1    2    0    0 -0.13898086959E+02 -0.13640338510E+02 -0.38907948438E+02  0.10092625832E+03  0.91066269882E+02 0.  0.
        -24    2    1    2    0    0 -0.93378455121E+02  0.65451853974E+02 -0.56404746925E+03  0.58135951985E+03  0.82618779265E+02 0.  0.
         13    1    4    4    0    0 -0.10534520589E+03  0.55370573785E+02 -0.42223963216E+03  0.43869103001E+03  0.00000000000E+00 0. -1.
        -14    1    4    4    0    0  0.11966750764E+02  0.10081280189E+02 -0.14180783709E+03  0.14266848985E+03  0.00000000000E+00 0.  1.
        -13    1    3    3    0    0 -0.39793866974E+02 -0.57805433079E+01 -0.55982608734E+02  0.68927636042E+02  0.00000000000E+00 0. -1.
         13    1    3    3    0    0  0.25895780015E+02 -0.78597952025E+01  0.17074660296E+02  0.31998622274E+02  0.00000000000E+00 0.  1.
          2    1    1    2  501    0  0.10727654208E+03 -0.51811515463E+02  0.46902873912E+01  0.11922536815E+03  0.00000000000E+00 0. -1.
<scales pt_clust_5="13000.00000" pt_clust_6="13000.00000" pt_clust_7="13000.00000" pt_clust_8="13000.00000" pt_clust_9="13000.00000"></scales>
<clustering>
<clus scale="   82.619">  5  6 -1 -1</clus>
<clus scale="   91.066">  7  8 -1 -1</clus>
<clus scale="   93.125">  2  7  1 -1</clus>
<clus scale="  118.546">  5  9 -1 -1</clus>
<clus scale="  421.828">  1  5  2 -1</clus>
</clustering>
</event>
<event>
 9    1  0.4516508E-005  0.2480997E+03  0.7546771E-02  0.1123894E+00
          1   -1    0    0  502    0 -0.00000000000E+00  0.00000000000E+00  0.61498109435E+03  0.61498109435E+03  0.00000000000E+00 0. -1.
         21   -1    0    0  501  502  0.00000000000E+00 -0.00000000000E+00 -0.15758510442E+03  0.15758510442E+03  0.00000000000E+00 0. -1.
         23    2    1    2    0    0 -0.34931756974E+02 -0.16984028905E+03  0.48478276157E+03  0.52295949353E+03  0.91686174168E+02 0.  0.
        -24    2    1    2    0    0 -0.36138076961E+02  0.12316548915E+03  0.20522376216E+02  0.15201190676E+03  0.78808334258E+02 0.  0.
         13    1    4    4    0    0 -0.22774542164E+02  0.11507534070E+03 -0.99911254341E+01  0.11773205339E+03  0.00000000000E+00 0. -1.
        -14    1    4    4    0    0 -0.13363534797E+02  0.80901484459E+01  0.30513501651E+02  0.34279853371E+02  0.00000000000E+00 0.  1.
        -13    1    3    3    0    0  0.74258165170E+01 -0.88108317579E+02  0.13587331657E+03  0.16211038379E+03  0.00000000000E+00 0.  1.
         13    1    3    3    0    0 -0.42357573491E+02 -0.81731971468E+02  0.34890944499E+03  0.36084910974E+03  0.00000000000E+00 0. -1.
          2    1    1    2  501    0  0.71069833935E+02  0.46674799901E+02 -0.47909147855E+02  0.97594798475E+02  0.00000000000E+00 0. -1.
<scales pt_clust_5="13000.00000" pt_clust_6="13000.00000" pt_clust_7="13000.00000" pt_clust_8="13000.00000" pt_clust_9="13000.00000"></scales>
<clustering>
<clus scale="   78.808">  5  6 -1 -1</clus>
<clus scale="   85.026">  5  9 -1 -1</clus>
<clus scale="   91.686">  7  8 -1 -1</clus>
<clus scale="  196.144">  1  7  2 -1</clus>
<clus scale="  248.100">  2  5  1 -1</clus>
</clustering>
</event>
<event>
 9    1  0.4516508E-005  0.2945326E+03  0.7546771E-02  0.1111645E+00
         21   -1    0    0  501  502  0.00000000000E+00  0.00000000000E+00  0.15830914462E+03  0.15830914462E+03  0.00000000000E+00 0. -1.
          1   -1    0    0  502    0 -0.00000000000E+00 -0.00000000000E+00 -0.33352313203E+03  0.33352313203E+03  0.00000000000E+00 0. -1.
         23    2    1    2    0    0  0.73193869351E+02 -0.10821916049E+03 -0.25658205914E+02  0.16150462461E+03  0.91414829395E+02 0.  0.
        -24    2    1    2    0    0  0.28389513763E+02  0.22780666649E+02  0.39623989576E+02  0.99226146776E+02  0.83371724160E+02 0.  0.
         13    1    4    4    0    0  0.33493411216E+02  0.37445284379E+02  0.56962038963E+02  0.75951509531E+02  0.00000000000E+00 0. -1.
        -14    1    4    4    0    0 -0.51038974539E+01 -0.14664617730E+02 -0.17338049386E+02  0.23274637246E+02  0.00000000000E+00 0.  1.
        -11    1    3    3    0    0  0.23199102304E+02 -0.85355954681E+02  0.19245432332E+02  0.90521953210E+02  0.00000000000E+00 0. -1.
         11    1    3    3    0    0  0.49994767047E+02 -0.22863205809E+02 -0.44903638246E+02  0.70982671404E+02  0.00000000000E+00 0.  1.
          2    1    1    2  501    0 -0.10158338311E+03  0.85438493840E+02 -0.18917977107E+03  0.23110150527E+03  0.00000000000E+00 0. -1.
<scales pt_clust_5="13000.00000" pt_clust_6="13000.00000" pt_clust_7="13000.00000" pt_clust_8="13000.00000" pt_clust_9="13000.00000"></scales>
<clustering>
<clus scale="   83.372">  5  6 -1 -1</clus>
<clus scale="   91.415">  7  8 -1 -1</clus>
<clus scale="  132.736">  5  9 -1 -1</clus>
<clus scale="  159.454">  2  7  1 -1</clus>
<clus scale="  294.533">  1  5  2 -1</clus>
</clustering>
</event>
<event>
 9    1  0.4516508E-005  0.1552083E+03  0.7546771E-02  0.1216716E+00
          1   -1    0    0  502    0 -0.00000000000E+00  0.00000000000E+00  0.26287166564E+02  0.26287166564E+02  0.00000000000E+00 0. -1.
         21   -1    0    0  501  502  0.00000000000E+00 -0.00000000000E+00 -0.61236783375E+03  0.61236783375E+03  0.00000000000E+00 0. -1.
         23    2    1    2    0    0  0.10700527872E+01  0.23912898880E+02 -0.17819193305E+03  0.20223452811E+03  0.92593021394E+02 0.  0.
        -24    2    1    2    0    0 -0.51232139201E+01  0.22547730960E+02 -0.13250699367E+03  0.15711755201E+03  0.81198363828E+02 0.  0.
         11    1    4    4    0    0  0.18011669765E+02  0.45847001900E+02 -0.60791656156E+02  0.78243167684E+02  0.00000000000E+00 0. -1.
        -12    1    4    4    0    0 -0.23134883685E+02 -0.23299270940E+02 -0.71715337510E+02  0.78874384331E+02  0.00000000000E+00 0.  1.
        -13    1    3    3    0    0  0.24362681013E+02 -0.89140077146E+01 -0.77076067625E+01  0.27063018340E+02  0.00000000000E+00 0.  1.
         13    1    3    3    0    0 -0.23292628226E+02  0.32826906595E+02 -0.17048432629E+03  0.17517150977E+03  0.00000000000E+00 0. -1.
          2    1    1    2  501    0  0.40531611329E+01 -0.46460629841E+02 -0.27538174047E+03  0.27930292019E+03  0.00000000000E+00 0. -1.
<scales pt_clust_5="13000.00000" pt_clust_6="13000.00000" pt_clust_7="13000.00000" pt_clust_8="13000.00000" pt_clust_9="13000.00000"></scales>
<clustering>
<clus scale="   81.198">  5  6 -1 -1</clus>
<clus scale="   46.637">  5  9 -1 -1</clus>
<clus scale="   92.593">  7  8 -1 -1</clus>
<clus scale="   95.637">  1  7  2 -1</clus>
<clus scale="  155.208">  2  5  1 -1</clus>
</clustering>
</event>
<event>
 9    1  0.4516508E-005  0.1535579E+03  0.7546771E-02  0.1219670E+00
          1   -1    0    0  502    0 -0.00000000000E+00  0.00000000000E+00  0.40359694021E+03  0.40359694021E+03  0.00000000000E+00 0. -1.
         21   -1    0    0  501  502  0.00000000000E+00 -0.00000000000E+00 -0.38754703023E+02  0.38754703023E+02  0.00000000000E+00 0.  1.
         23    2    1    2    0    0  0.30608082489E+01  0.17218078146E+02  0.10163959158E+03  0.13762936790E+03  0.91133997872E+02 0.  0.
        -24    2    1    2    0    0 -0.40763754025E+02  0.25107612462E+02  0.19515143131E+03  0.21615623234E+03  0.79670319382E+02 0.  0.
         13    1    4    4    0    0 -0.47152760383E+02  0.44792046332E+02  0.10381189820E+03  0.12250151197E+03  0.00000000000E+00 0. -1.
        -14    1    4    4    0    0  0.63890063577E+01 -0.19684433871E+02  0.91339533107E+02  0.93654720368E+02  0.00000000000E+00 0.  1.
        -13    1    3    3    0    0  0.12959631211E+02  0.43570630866E+02  0.17168708563E+02  0.48591320921E+02  0.00000000000E+00 0.  1.
         13    1    3    3    0    0 -0.98988229618E+01 -0.26352552720E+02  0.84470883021E+02  0.89038046976E+02  0.00000000000E+00 0. -1.
          2    1    1    2  501    0  0.37702945776E+02 -0.42325690607E+02  0.68051214297E+02  0.88566043001E+02  0.00000000000E+00 0. -1.
<scales pt_clust_5="13000.00000" pt_clust_6="13000.00000" pt_clust_7="13000.00000" pt_clust_8="13000.00000" pt_clust_9="13000.00000"></scales>
<clustering>
<clus scale="   79.670">  5  6 -1 -1</clus>
<clus scale="   56.683">  5  9 -1 -1</clus>
<clus scale="   91.134">  7  8 -1 -1</clus>
<clus scale="   92.797">  1  7  2 -1</clus>
<clus scale="  153.558">  2  5  1 -1</clus>
</clustering>
</event>
<event>
 9    1  0.4516508E-005  0.1989914E+03  0.7546771E-02  0.1180963E+00
          1   -1    0    0  502    0 -0.00000000000E+00  0.00000000000E+00  0.10785266975E+04  0.10785266975E+04  0.00000000000E+00 0. -1.
         21   -1    0    0  501  502  0.00000000000E+00 -0.00000000000E+00 -0.21190318235E+02  0.21190318235E+02  0.00000000000E+00 0.  1.
         23    2    1    2    0    0 -0.32430840503E+02 -0.19213805758E+02  0.26657131637E+03  0.28429874596E+03  0.91348675409E+02 0.  0.
        -24    2    1    2    0    0 -0.21540313814E+02 -0.56096899205E+02  0.30768348019E+03  0.32353169409E+03  0.79954899053E+02 0.  0.
         11    1    4    4    0    0 -0.43186213621E+02 -0.18929804137E+02  0.22954266163E+03  0.23433569946E+03  0.00000000000E+00 0. -1.
        -12    1    4    4    0    0  0.21645899807E+02 -0.37167095068E+02  0.78140818551E+02  0.89195994630E+02  0.00000000000E+00 0.  1.
        -13    1    3    3    0    0 -0.22789947250E+02 -0.56148300648E+02  0.15905029273E+03  0.17020284657E+03  0.00000000000E+00 0.  1.
         13    1    3    3    0    0 -0.96408932523E+01  0.36934494890E+02  0.10752102364E+03  0.11409589940E+03  0.00000000000E+00 0. -1.
          2    1    1    2  501    0  0.53971154317E+02  0.75310704963E+02  0.48308158276E+03  0.49188657572E+03  0.00000000000E+00 0. -1.
<scales pt_clust_5="13000.00000" pt_clust_6="13000.00000" pt_clust_7="13000.00000" pt_clust_8="13000.00000" pt_clust_9="13000.00000"></scales>
<clustering>
<clus scale="   79.955">  5  6 -1 -1</clus>
<clus scale="   91.349">  7  8 -1 -1</clus>
<clus scale="   92.653">  5  9 -1 -1</clus>
<clus scale="   98.821">  1  7  2 -1</clus>
<clus scale="  198.991">  2  5  1 -1</clus>
</clustering>
</event>
<event>
 9    1  0.4516508E-005  0.3184088E+03  0.7546771E-02  0.1091790E+00
         21   -1    0    0  501  502  0.00000000000E+00  0.00000000000E+00  0.16301689505E+03  0.16301689505E+03  0.00000000000E+00 0. -1.
          1   -1    0    0  502    0 -0.00000000000E+00 -0.00000000000E+00 -0.67625519554E+03  0.67625519554E+03  0.00000000000E+00 0. -1.
         23    2    1    2    0    0  0.13570924553E+03 -0.13418269215E+03 -0.47354761451E+03  0.51839900818E+03  0.89823127788E+02 0.  0.
        -24    2    1    2    0    0 -0.15736734289E+02  0.17267776419E+03 -0.90731760754E+01  0.19120926349E+03  0.80083736613E+02 0.  0.
         11    1    4    4    0    0  0.64963431704E+01  0.16587058762E+03 -0.16461138951E+02  0.16681194024E+03  0.00000000000E+00 0. -1.
        -12    1    4    4    0    0 -0.22233077460E+02  0.68071765650E+01  0.73879628758E+01  0.24397323246E+02  0.00000000000E+00 0.  1.
        -11    1    3    3    0    0  0.33558402533E+02 -0.31971091860E+02 -0.23474989803E+03  0.23928190847E+03  0.00000000000E+00 0.  1.
         11    1    3    3    0    0  0.10215084299E+03 -0.10221160029E+03 -0.23879771648E+03  0.27911709971E+03  0.00000000000E+00 0. -1.
          2    1    1    2  501    0 -0.11997251124E+03 -0.38495072037E+02 -0.30617509905E+02  0.12966381892E+03  0.00000000000E+00 0. -1.
<scales pt_clust_5="13000.00000" pt_clust_6="13000.00000" pt_clust_7="13000.00000" pt_clust_8="13000.00000" pt_clust_9="13000.00000"></scales>
<clustering>
<clus scale="   80.084">  5  6 -1 -1</clus>
<clus scale="   89.823">  7  8 -1 -1</clus>
<clus scale="  125.997">  5  9 -1 -1</clus>
<clus scale="  210.927">  2  7  1 -1</clus>
<clus scale="  318.409">  1  5  2 -1</clus>
</clustering>
</event>
<event>
 9    1  0.4516508E-005  0.1731171E+03  0.7546771E-02  0.1205722E+00
          1   -1    0    0  502    0 -0.00000000000E+00  0.00000000000E+00  0.17733943400E+03  0.17733943400E+03  0.00000000000E+00 0. -1.
         21   -1    0    0  501  502  0.00000000000E+00 -0.00000000000E+00 -0.11127257145E+03  0.11127257145E+03  0.00000000000E+00 0. -1.
         23    2    1    2    0    0  0.48795475025E+01  0.67544135720E+01  0.75442744233E+02  0.11524116320E+03  0.86714969597E+02 0.  0.
        -24    2    1    2    0    0  0.30804350237E+02  0.54556154003E+02  0.48219460839E+01  0.10102511281E+03  0.79104616304E+02 0.  0.
         13    1    4    4    0    0  0.77061283250E+01  0.61678906476E+02 -0.21042971340E+02  0.65623765212E+02  0.00000000000E+00 0. -1.
        -14    1    4    4    0    0  0.23098221912E+02 -0.71227524722E+01  0.25864917424E+02  0.35401347596E+02  0.00000000000E+00 0.  1.
        -13    1    3    3    0    0 -0.24741986909E+02  0.93737932991E+01  0.80803299107E+02  0.85024743832E+02  0.00000000000E+00 0.  1.
         13    1    3    3    0    0  0.29621534411E+02 -0.26193797272E+01 -0.53605548741E+01  0.30216419371E+02  0.00000000000E+00 0. -1.
          2    1    1    2  501    0 -0.35683897740E+02 -0.61310567575E+02 -0.14197827774E+02  0.72345729437E+02  0.00000000000E+00 0. -1.
<scales pt_clust_5="13000.00000" pt_clust_6="13000.00000" pt_clust_7="13000.00000" pt_clust_8="13000.00000" pt_clust_9="13000.00000"></scales>
<clustering>
<clus scale="   79.105">  5  6 -1 -1</clus>
<clus scale="   70.939">  5  9 -1 -1</clus>
<clus scale="   86.715">  7  8 -1 -1</clus>
<clus scale="   87.114">  1  7  2 -1</clus>
<clus scale="  173.117">  2  5  1 -1</clus>
</clustering>
</event>
<event>
 9    1  0.4516508E-005  0.1506220E+03  0.7546771E-02  0.1218090E+00
         21   -1    0    0  501  502  0.00000000000E+00  0.00000000000E+00  0.67153108634E+02  0.67153108634E+02  0.00000000000E+00 0. -1.
         -4   -1    0    0    0  501 -0.00000000000E+00 -0.00000000000E+00 -0.29680782343E+03  0.29680782343E+03  0.00000000000E+00 0.  1.
         23    2    1    2    0    0  0.38239863023E+02 -0.29620981292E+02 -0.16536666302E+02  0.10298908908E+03  0.89406943129E+02 0.  0.
        -24    2    1    2    0    0 -0.22063333192E+02  0.47369875191E+02 -0.78482418318E+02  0.12421126290E+03  0.80859458939E+02 0.  0.
         13    1    4    4    0    0 -0.45860171433E+02  0.66496281929E+01 -0.53709582871E+02  0.70937241073E+02  0.00000000000E+00 0. -1.
        -14    1    4    4    0    0  0.23796838241E+02  0.40720246998E+02 -0.24772835447E+02  0.53274021830E+02  0.00000000000E+00 0.  1.
        -13    1    3    3    0    0 -0.13016254191E+02 -0.23021205797E+02  0.25223507050E+02  0.36546191285E+02  0.00000000000E+00 0.  1.
         13    1    3    3    0    0  0.51256117214E+02 -0.65997754943E+01 -0.41760173353E+02  0.66442897791E+02  0.00000000000E+00 0. -1.
         -3    1    1    2    0  502 -0.16176529831E+02 -0.17748893899E+02 -0.13463563018E+03  0.13676058009E+03  0.00000000000E+00 0.  1.
<scales pt_clust_5="13000.00000" pt_clust_6="13000.00000" pt_clust_7="13000.00000" pt_clust_8="13000.00000" pt_clust_9="13000.00000"></scales>
<clustering>
<clus scale="   80.859">  5  6 -1 -1</clus>
<clus scale="   24.015">  5  9 -1 -1</clus>
<clus scale="   89.407">  7  8 -1 -1</clus>
<clus scale="  101.653">  2  7  1 -1</clus>
<clus scale="  150.622">  1  5  2 -1</clus>
</clustering>
</event>
<event>
 9    1  0.4516508E-005  0.4950616E+03  0.7546771E-02  0.1068517E+00
          1   -1    0    0  502    0 -0.00000000000E+00  0.00000000000E+00  0.15472551659E+03  0.15472551659E+03  0.00000000000E+00 0. -1.
         21   -1    0    0  501  502  0.00000000000E+00 -0.00000000000E+00 -0.58283302460E+03  0.58283302460E+03  0.00000000000E+00 0.  1.
         23    2    1    2    0    0  0.46732031724E+02 -0.16402404536E+02 -0.63701040761E+02  0.12284070664E+03  0.92623403902E+02 0.  0.
        -24    2    1    2    0    0  0.55253072936E+01  0.24155799401E+03 -0.25047886450E+03  0.35702544502E+03  0.79666262235E+02 0.  0.
         11    1    4    4    0    0 -0.23960498659E+02  0.61925863797E+02 -0.10392737975E+03  0.12332809236E+03  0.00000000000E+00 0. -1.
        -12    1    4    4    0    0  0.29485805952E+02  0.17963213021E+03 -0.14655148475E+03  0.23369735266E+03  0.00000000000E+00 0.  1.
        -11    1    3    3    0    0  0.74004987890E+02 -0.10204943029E+02 -0.57298957145E+02  0.94149081699E+02  0.00000000000E+00 0.  1.
         11    1    3    3    0    0 -0.27272956166E+02 -0.61974615075E+01 -0.64020836158E+01  0.28691624942E+02  0.00000000000E+00 0. -1.
          2    1    1    2  501    0 -0.52257339018E+02 -0.22515558947E+03 -0.11392760275E+03  0.25769238953E+03  0.00000000000E+00 0. -1.
<scales pt_clust_5="13000.00000" pt_clust_6="13000.00000" pt_clust_7="13000.00000" pt_clust_8="13000.00000" pt_clust_9="13000.00000"></scales>
<clustering>
<clus scale="   79.666">  5  6 -1 -1</clus>
<clus scale="   92.623">  7  8 -1 -1</clus>
<clus scale="  105.033">  1  7  2 -1</clus>
<clus scale="  235.949">  5  9 -1 -1</clus>
<clus scale="  495.062">  2  5  1 -1</clus>
</clustering>
</event>
<event>
 9    1  0.4516508E-005  0.2815731E+03  0.7546771E-02  0.1137161E+00
          3   -1    0    0  502    0 -0.00000000000E+00  0.00000000000E+00  0.70731928113E+02  0.70731928113E+02  0.00000000000E+00 0. -1.
         21   -1    0    0  501  502  0.00000000000E+00 -0.00000000000E+00 -0.54603400053E+03  0.54603400053E+03  0.00000000000E+00 0. -1.
         23    2    1    2    0    0 -0.19785098359E+02  0.15622884365E+02 -0.20359356940E+03  0.22547458868E+03  0.93557062828E+02 0.  0.
        -24    2    1    2    0    0 -0.13570484637E+02  0.19278471574E+02  0.24286383790E+02  0.91385233694E+02  0.84885893883E+02 0.  0.
         13    1    4    4    0    0 -0.42064724222E+02  0.34483898285E+02  0.72617248651E+01  0.54875430867E+02  0.00000000000E+00 0. -1.
        -14    1    4    4    0    0  0.28494239585E+02 -0.15205426711E+02  0.17024658925E+02  0.36509802828E+02  0.00000000000E+00 0.  1.
        -13    1    3    3    0    0  0.36996113433E+02  0.25394552047E+00 -0.62820450621E+02  0.72905321573E+02  0.00000000000E+00 0.  1.
         13    1    3    3    0    0 -0.56781211792E+02  0.15368938844E+02 -0.14077311878E+03  0.15256926710E+03  0.00000000000E+00 0. -1.
          4    1    1    2  501    0  0.33355582996E+02 -0.34901355939E+02 -0.29599488681E+03  0.29990610627E+03  0.00000000000E+00 0. -1.
<scales pt_clust_5="13000.00000" pt_clust_6="13000.00000" pt_clust_7="13000.00000" pt_clust_8="13000.00000" pt_clust_9="13000.00000"></scales>
<clustering>
<clus scale="   84.886">  5  6 -1 -1</clus>
<clus scale="   48.277">  5  9 -1 -1</clus>
<clus scale="   93.557">  7  8 -1 -1</clus>
<clus scale="   96.894">  1  7  2 -1</clus>
<clus scale="  281.573">  2  5  1 -1</clus>
</clustering>
</event>
<event>
 9    1  0.4516508E-005  0.2137501E+03  0.7546771E-02  0.1167075E+00
          1   -1    0    0  502    0 -0.00000000000E+00  0.00000000000E+00  0.10296795140E+03  0.10296795140E+03  0.00000000000E+00 0. -1.
         21   -1    0    0  501  502  0.00000000000E+00 -0.00000000000E+00 -0.63227946582E+03  0.63227946582E+03  0.00000000000E+00 0. -1.
         23    2    1    2    0    0 -0.60401401495E+02  0.80975590837E+01  0.48190988617E+02  0.11945666276E+03  0.90739314133E+02 0.  0.
        -24    2    1    2    0    0  0.51670398843E+02  0.75017780077E+02 -0.24415234907E+03  0.27212417888E+03  0.78381769118E+02 0.  0.
         11    1    4    4    0    0  0.27425573036E+02  0.67318116331E+02 -0.23348737344E+03  0.24454088493E+03  0.00000000000E+00 0. -1.
        -12    1    4    4    0    0  0.24244825807E+02  0.76996637465E+01 -0.10664975627E+02  0.27583293954E+02  0.00000000000E+00 0.  1.
        -13    1    3    3    0    0 -0.69429344462E+02  0.27468623344E+02  0.59319590487E+02  0.95361275979E+02  0.00000000000E+00 0. -1.
         13    1    3    3    0    0  0.90279429670E+01 -0.19371064261E+02 -0.11128601869E+02  0.24095386786E+02  0.00000000000E+00 0.  1.
          2    1    1    2  501    0  0.87310026518E+01 -0.83115339161E+02 -0.33335015398E+03  0.34366657557E+03  0.00000000000E+00 0. -1.
<scales pt_clust_5="13000.00000" pt_clust_6="13000.00000" pt_clust_7="13000.00000" pt_clust_8="13000.00000" pt_clust_9="13000.00000"></scales>
<clustering>
<clus scale="   78.382">  5  6 -1 -1</clus>
<clus scale="   83.573">  5  9 -1 -1</clus>
<clus scale="   90.739">  7  8 -1 -1</clus>
<clus scale="  109.305">  1  7  2 -1</clus>
<clus scale="  213.750">  2  5  1 -1</clus>
</clustering>
</event>
<event>
 9    1  0.4516508E-005  0.2697964E+03  0.7546771E-02  0.1132609E+00
          1   -1    0    0  502    0 -0.00000000000E+00  0.00000000000E+00  0.37657704184E+03  0.37657704184E+03  0.00000000000E+00 0. -1.
         21   -1    0    0  501  502  0.00000000000E+00 -0.00000000000E+00 -0.10510058176E+03  0.10510058176E+03  0.00000000000E+00 0.  1.
         23    2    1    2    0    0 -0.42092093880E+02  0.71738651037E+02  0.50804390601E+02  0.13312882156E+03  0.90686374977E+02 0.  0.
        -24    2    1    2    0    0 -0.28129706658E+02 -0.41748631322E+02 -0.18394555544E+02  0.97583956377E+02  0.81547778968E+02 0.  0.
         13    1    4    4    0    0 -0.48693922745E+01 -0.30772212573E+02  0.29700393048E+02  0.43043622001E+02  0.00000000000E+00 0. -1.
        -14    1    4    4    0    0 -0.23260314383E+02 -0.10976418749E+02 -0.48094948592E+02  0.54540334376E+02  0.00000000000E+00 0.  1.
        -13    1    3    3    0    0 -0.96506956499E+01  0.71799921875E+02  0.65359661757E+02  0.97571768933E+02  0.00000000000E+00 0.  1.
         13    1    3    3    0    0 -0.32441398230E+02 -0.61270837927E-01 -0.14555271156E+02  0.35557052629E+02  0.00000000000E+00 0. -1.
          2    1    1    2  501    0  0.70221800538E+02 -0.29990019715E+02  0.23906662503E+03  0.25096484565E+03  0.00000000000E+00 0. -1.
<scales pt_clust_5="13000.00000" pt_clust_6="13000.00000" pt_clust_7="13000.00000" pt_clust_8="13000.00000" pt_clust_9="13000.00000"></scales>
<clustering>
<clus scale="   81.548">  5  6 -1 -1</clus>
<clus scale="   76.358">  5  9 -1 -1</clus>
<clus scale="   90.686">  7  8 -1 -1</clus>
<clus scale="  123.054">  1  7  2 -1</clus>
<clus scale="  269.796">  2  5  1 -1</clus>
</clustering>
</event>
<event>
 9    1  0.4516508E-005  0.2019257E+03  0.7546771E-02  0.1182695E+00
         21   -1    0    0  501  502  0.00000000000E+00  0.00000000000E+00  0.11938119427E+04  0.11938119427E+04  0.00000000000E+00 0.  1.
         -2   -1    0    0    0  501 -0.00000000000E+00 -0.00000000000E+00 -0.40703855376E+02  0.40703855376E+02  0.00000000000E+00 0.  1.
         23    2    1    2    0    0 -0.33867860432E+01 -0.19045829844E+00  0.33661618817E+02  0.97003427285E+02  0.90912340909E+02 0.  0.
        -24    2    1    2    0    0 -0.19912905243E+02 -0.80041896432E+02  0.73837765037E+03  0.74739245267E+03  0.81183094034E+02 0.  0.
         11    1    4    4    0    0 -0.33268875264E+02 -0.69104029344E+01  0.12535484503E+03  0.12987843894E+03  0.00000000000E+00 0. -1.
        -12    1    4    4    0    0  0.13355970021E+02 -0.73131493497E+02  0.61302280535E+03  0.61751401373E+03  0.00000000000E+00 0.  1.
        -13    1    3    3    0    0 -0.20261016594E+02 -0.29632150920E+02  0.48189422714E+02  0.60089879539E+02  0.00000000000E+00 0.  1.
         13    1    3    3    0    0  0.16874230551E+02  0.29441692622E+02 -0.14527803897E+02  0.36913547746E+02  0.00000000000E+00 0. -1.
         -1    1    1    2    0  502  0.23299691286E+02  0.80232354730E+02  0.38106881809E+03  0.39011991807E+03  0.00000000000E+00 0.  1.
<scales pt_clust_5="13000.00000" pt_clust_6="13000.00000" pt_clust_7="13000.00000" pt_clust_8="13000.00000" pt_clust_9="13000.00000"></scales>
<clustering>
<clus scale="   81.183">  5  6 -1 -1</clus>
<clus scale="   83.547">  5  9 -1 -1</clus>
<clus scale="   90.912">  7  8 -1 -1</clus>
<clus scale="   90.976">  2  7  1 -1</clus>
<clus scale="  201.926">  1  5  2 -1</clus>
</clustering>
</event>
<event>
 9    1  0.4516508E-005  0.7968877E+03  0.7546771E-02  0.9888170E-01
         21   -1    0    0  501  502  0.00000000000E+00  0.00000000000E+00  0.13378211272E+03  0.13378211272E+03  0.00000000000E+00 0. -1.
          1   -1    0    0  502    0 -0.00000000000E+00 -0.00000000000E+00 -0.21312440291E+04  0.21312440291E+04  0.00000000000E+00 0. -1.
         23    2    1    2    0    0  0.20512590943E+02  0.25426647167E+03 -0.48208382182E+03  0.55289275428E+03  0.90627708090E+02 0.  0.
        -24    2    1    2    0    0  0.24580085119E+03  0.12414690091E+03 -0.88345005233E+03  0.92890125044E+03  0.80888977458E+02 0.  0.
         11    1    4    4    0    0  0.23731114429E+03  0.11332422059E+03 -0.75050152450E+03  0.79524304238E+03  0.00000000000E+00 0. -1.
        -12    1    4    4    0    0  0.84897069003E+01  0.10822680324E+02 -0.13294852782E+03  0.13365820806E+03  0.00000000000E+00 0.  1.
        -13    1    3    3    0    0  0.20266931096E+02  0.47640863344E+01 -0.29766270921E+02  0.36324590833E+02  0.00000000000E+00 0.  1.
         13    1    3    3    0    0  0.24565984660E+00  0.24950238534E+03 -0.45231755089E+03  0.51656816345E+03  0.00000000000E+00 0. -1.
          2    1    1    2  501    0 -0.26631344213E+03 -0.37841337258E+03 -0.63192804221E+03  0.78323213707E+03  0.00000000000E+00 0. -1.
<scales pt_clust_5="13000.00000" pt_clust_6="13000.00000" pt_clust_7="13000.00000" pt_clust_8="13000.00000" pt_clust_9="13000.00000"></scales>
<clustering>
<clus scale="   80.889">  5  6 -1 -1</clus>
<clus scale="   90.628">  7  8 -1 -1</clus>
<clus scale="  270.713">  2  7  1 -1</clus>
<clus scale="  370.760">  5  9 -1 -1</clus>
<clus scale="  796.888">  1  5  2 -1</clus>
</clustering>
</event>
<event>
 9    1  0.4516508E-005  0.1528715E+03  0.7546771E-02  0.1217854E+00
         21   -1    0    0  501  502  0.00000000000E+00  0.00000000000E+00  0.25306465782E+03  0.25306465782E+03  0.00000000000E+00 0. -1.
          1   -1    0    0  502    0 -0.00000000000E+00 -0.00000000000E+00 -0.24898517269E+03  0.24898517269E+03  0.00000000000E+00 0. -1.
         23    2    1    2    0    0  0.14562586167E+02  0.30180312472E+02 -0.21427304768E+03  0.23550243850E+03  0.91790736999E+02 0.  0.
        -24    2    1    2    0    0  0.32624864674E+02 -0.42418753225E+02  0.97682246439E+02  0.13640226933E+03  0.78740239954E+02 0.  0.
         11    1    4    4    0    0  0.27188520031E+02 -0.62050642099E+02  0.48938609133E+02  0.83573232977E+02  0.00000000000E+00 0. -1.
        -12    1    4    4    0    0  0.54363446430E+01  0.19631888874E+02  0.48743637306E+02  0.52829036350E+02  0.00000000000E+00 0.  1.
        -13    1    3    3    0    0 -0.22815652588E+02  0.21315969720E+02 -0.18389682483E+03  0.18652872903E+03  0.00000000000E+00 0. -1.
         13    1    3    3    0    0  0.37378238755E+02  0.88643427523E+01 -0.30376222845E+02  0.48973709469E+02  0.00000000000E+00 0.  1.
          2    1    1    2  501    0 -0.47187450841E+02  0.12238440753E+02  0.12067028637E+03  0.13014512269E+03  0.00000000000E+00 0. -1.
<scales pt_clust_5="13000.00000" pt_clust_6="13000.00000" pt_clust_7="13000.00000" pt_clust_8="13000.00000" pt_clust_9="13000.00000"></scales>
<clustering>
<clus scale="   78.740">  5  6 -1 -1</clus>
<clus scale="   48.749">  5  9 -1 -1</clus>
<clus scale="   91.791">  7  8 -1 -1</clus>
<clus scale="   97.716">  2  7  1 -1</clus>
<clus scale="  152.871">  1  5  2 -1</clus>
</clustering>
</event>
<event>
 9    1  0.4516508E-005  0.4248679E+03  0.7546771E-02  0.1076556E+00
         21   -1    0    0  501  502  0.00000000000E+00  0.00000000000E+00  0.74643779485E+02  0.74643779485E+02  0.00000000000E+00 0. -1.
          1   -1    0    0  502    0 -0.00000000000E+00 -0.00000000000E+00 -0.10480863331E+04  0.10480863331E+04  0.00000000000E+00 0. -1.
         23    2    1    2    0    0 -0.59107621027E+02 -0.81804525668E+02 -0.26416286487E+03  0.29593486798E+03  0.87233798650E+02 0.  0.
        -24    2    1    2    0    0 -0.65927276351E+02 -0.12761021206E+03 -0.40477534844E+03  0.43665276909E+03  0.78687902853E+02 0.  0.
         13    1    4    4    0    0  0.72734864856E+01 -0.70440443264E+02 -0.18192667123E+03  0.19522313736E+03  0.00000000000E+00 0. -1.
        -14    1    4    4    0    0 -0.73200762837E+02 -0.57169768797E+02 -0.22284867721E+03  0.24142963173E+03  0.00000000000E+00 0.  1.
        -13    1    3    3    0    0 -0.22970558259E+02 -0.33425295405E+02 -0.21288694088E+03  0.21671581972E+03  0.00000000000E+00 0.  1.
         13    1    3    3    0    0 -0.36137062768E+02 -0.48379230263E+02 -0.51275923992E+02  0.79219048262E+02  0.00000000000E+00 0. -1.
          2    1    1    2  501    0  0.12503489738E+03  0.20941473773E+03 -0.30450434031E+03  0.39014247552E+03  0.00000000000E+00 0. -1.
<scales pt_clust_5="13000.00000" pt_clust_6="13000.00000" pt_clust_7="13000.00000" pt_clust_8="13000.00000" pt_clust_9="13000.00000"></scales>
<clustering>
<clus scale="   78.688">  5  6 -1 -1</clus>
<clus scale="   87.234">  7  8 -1 -1</clus>
<clus scale="  133.400">  2  7  1 -1</clus>
<clus scale="  198.476">  5  9 -1 -1</clus>
<clus scale="  424.868">  1  5  2 -1</clus>
</clustering>
</event>
<event>
 9    1  0.4516508E-005  0.2066196E+03  0.7546771E-02  0.1176108E+00
          1   -1    0    0  502    0 -0.00000000000E+00  0.00000000000E+00  0.47871069395E+03  0.47871069395E+03  0.00000000000E+00 0. -1.
         21   -1    0    0  501  502  0.00000000000E+00 -0.00000000000E+00 -0.48650122806E+02  0.48650122806E+02  0.00000000000E+00 0. -1.
         23    2    1    2    0    0  0.13598045481E+02 -0.40961524987E+02  0.14564996464E+03  0.17581987018E+03  0.88520964641E+02 0.  0.
        -24    2    1    2    0    0  0.10799598487E+02 -0.59985070983E+02  0.11865085878E+03  0.15593482644E+03  0.80763876447E+02 0.  0.
         11    1    4    4    0    0 -0.16757926891E+02 -0.67563181806E+02  0.65472850652E+02  0.95563098642E+02  0.00000000000E+00 0. -1.
        -12    1    4    4    0    0  0.27557525378E+02  0.75781108237E+01  0.53178008131E+02  0.60371727799E+02  0.00000000000E+00 0.  1.
        -11    1    3    3    0    0 -0.21368373762E+02  0.15126243104E+02  0.17089422981E+02  0.31264340797E+02  0.00000000000E+00 0.  1.
         11    1    3    3    0    0  0.34966419243E+02 -0.56087768091E+02  0.12856054166E+03  0.14455552938E+03  0.00000000000E+00 0. -1.
          2    1    1    2  501    0 -0.24397643968E+02  0.10094659597E+03  0.16575974773E+03  0.19560612014E+03  0.00000000000E+00 0. -1.
<scales pt_clust_5="13000.00000" pt_clust_6="13000.00000" pt_clust_7="13000.00000" pt_clust_8="13000.00000" pt_clust_9="13000.00000"></scales>
<clustering>
<clus scale="   80.764">  5  6 -1 -1</clus>
<clus scale="   88.521">  7  8 -1 -1</clus>
<clus scale="   98.482">  1  7  2 -1</clus>
<clus scale="   79.440">  5  9 -1 -1</clus>
<clus scale="  206.620">  2  5  1 -1</clus>
</clustering>
</event>
<event>
 9    1  0.4516508E-005  0.1810009E+03  0.7546771E-02  0.1187950E+00
          1   -1    0    0  502    0 -0.00000000000E+00  0.00000000000E+00  0.25553265737E+03  0.25553265737E+03  0.00000000000E+00 0. -1.
         21   -1    0    0  501  502  0.00000000000E+00 -0.00000000000E+00 -0.97048277075E+02  0.97048277075E+02  0.00000000000E+00 0.  1.
         23    2    1    2    0    0  0.46345719159E+02 -0.49327946820E+02  0.55168429764E+00  0.11236424687E+03  0.89689729607E+02 0.  0.
        -24    2    1    2    0    0 -0.32605871593E+02  0.15971880147E+02  0.13128717417E+02  0.90986654380E+02  0.82389102656E+02 0.  0.
         11    1    4    4    0    0 -0.46955043458E+02 -0.12124246412E+02 -0.12793970711E+02  0.50154353189E+02  0.00000000000E+00 0. -1.
        -12    1    4    4    0    0  0.14349171865E+02  0.28096126559E+02  0.25922688127E+02  0.40832301192E+02  0.00000000000E+00 0.  1.
        -13    1    3    3    0    0  0.18852882719E+02 -0.58455376910E+02  0.32292087661E+02  0.69391939027E+02  0.00000000000E+00 0.  1.
         13    1    3    3    0    0  0.27492836441E+02  0.91274300894E+01 -0.31740403363E+02  0.42972307842E+02  0.00000000000E+00 0. -1.
          2    1    1    2  501    0 -0.13739847566E+02  0.33356066673E+02  0.14480397858E+03  0.14923003319E+03  0.00000000000E+00 0. -1.
<scales pt_clust_5="13000.00000" pt_clust_6="13000.00000" pt_clust_7="13000.00000" pt_clust_8="13000.00000" pt_clust_9="13000.00000"></scales>
<clustering>
<clus scale="   82.389">  5  6 -1 -1</clus>
<clus scale="   36.075">  5  9 -1 -1</clus>
<clus scale="   89.690">  7  8 -1 -1</clus>
<clus scale="  112.363">  1  7  2 -1</clus>
<clus scale="  181.001">  2  5  1 -1</clus>
</clustering>
</event>
<event>
 9    1  0.4516508E-005  0.2237154E+03  0.7546771E-02  0.1149472E+00
          1   -1    0    0  502    0 -0.00000000000E+00  0.00000000000E+00  0.16169113567E+04  0.16169113567E+04  0.00000000000E+00 0. -1.
         21   -1    0    0  501  502  0.00000000000E+00 -0.00000000000E+00 -0.21863647025E+02  0.21863647025E+02  0.00000000000E+00 0. -1.
         23    2    1    2    0    0 -0.19069965501E+02  0.11061649030E+03  0.80133308781E+03  0.81413480309E+03  0.89894874587E+02 0.  0.
        -24    2    1    2    0    0 -0.14496858009E+02  0.18884980741E+02  0.40627296395E+03  0.41475192204E+03  0.79966456768E+02 0.  0.
         13    1    4    4    0    0 -0.10262800328E-01  0.38970385331E+02  0.97680151735E+02  0.10516702469E+03  0.00000000000E+00 0. -1.
        -14    1    4    4    0    0 -0.14486595209E+02 -0.20085404590E+02  0.30859281222E+03  0.30958489735E+03  0.00000000000E+00 0.  1.
        -13    1    3    3    0    0 -0.17429291678E+02 -0.10823588032E+02  0.76810417802E+02  0.79503273826E+02  0.00000000000E+00 0.  1.
         13    1    3    3    0    0 -0.16406738233E+01  0.12144007833E+03  0.72452267001E+03  0.73463152926E+03  0.00000000000E+00 0. -1.
          2    1    1    2  501    0  0.33566823511E+02 -0.12950147104E+03  0.38744165795E+03  0.40988827863E+03  0.00000000000E+00 0. -1.
<scales pt_clust_5="13000.00000" pt_clust_6="13000.00000" pt_clust_7="13000.00000" pt_clust_8="13000.00000" pt_clust_9="13000.00000"></scales>
<clustering>
<clus scale="   79.966">  5  6 -1 -1</clus>
<clus scale="   89.895">  7  8 -1 -1</clus>
<clus scale="  133.781">  5  9 -1 -1</clus>
<clus scale="  143.808">  1  7  2 -1</clus>
<clus scale="  223.715">  2  5  1 -1</clus>
</clustering>
</event>
<event>
 9    1  0.4516508E-005  0.3056264E+03  0.7546771E-02  0.1126026E+00
          1   -1    0    0  502    0 -0.00000000000E+00  0.00000000000E+00  0.77083555329E+03  0.77083555329E+03  0.00000000000E+00 0. -1.
         21   -1    0    0  501  502  0.00000000000E+00 -0.00000000000E+00 -0.53973042784E+02  0.53973042784E+02  0.00000000000E+00 0. -1.
         23    2    1    2    0    0  0.38272622311E+02  0.12158060944E+02  0.22014573317E+03  0.24159762093E+03  0.91064013415E+02 0.  0.
        -24    2    1    2    0    0  0.41603238307E+02  0.45303449158E+02  0.29031783073E+02  0.10528709825E+03  0.80369749819E+02 0.  0.
         11    1    4    4    0    0  0.12293904839E+02  0.31335002599E+02 -0.25221163377E+02  0.42061021934E+02  0.00000000000E+00 0. -1.
        -12    1    4    4    0    0  0.29309333468E+02  0.13968446559E+02  0.54252946450E+02  0.63226076315E+02  0.00000000000E+00 0.  1.
        -11    1    3    3    0    0  0.43352050888E+02 -0.19155016826E+02  0.51481493315E+02  0.69976132643E+02  0.00000000000E+00 0.  1.
         11    1    3    3    0    0 -0.50794285769E+01  0.31313077770E+02  0.16866423986E+03  0.17162148829E+03  0.00000000000E+00 0. -1.
          2    1    1    2  501    0 -0.79875860618E+02 -0.57461510103E+02  0.46768499426E+03  0.47792387689E+03  0.00000000000E+00 0. -1.
<scales pt_clust_5="13000.00000" pt_clust_6="13000.00000" pt_clust_7="13000.00000" pt_clust_8="13000.00000" pt_clust_9="13000.00000"></scales>
<clustering>
<clus scale="   80.370">  5  6 -1 -1</clus>
<clus scale="   91.064">  7  8 -1 -1</clus>
<clus scale="   98.397">  5  9 -1 -1</clus>
<clus scale="   99.525">  1  7  2 -1</clus>
<clus scale="  305.626">  2  5  1 -1</clus>
</clustering>
</event>
<event>
 9    1  0.4516508E-005  0.1809911E+03  0.7546771E-02  0.1176572E+00
          3   -1    0    0  502    0 -0.00000000000E+00  0.00000000000E+00  0.29951692846E+03  0.29951692846E+03  0.00000000000E+00 0. -1.
         21   -1    0    0  501  502  0.00000000000E+00 -0.00000000000E+00 -0.91003458677E+02  0.91003458677E+02  0.00000000000E+00 0.  1.
         23    2    1    2    0    0 -0.37671475464E+01  0.11364386740E+03  0.12393506047E+03  0.19074232933E+03  0.89964531827E+02 0.  0.
        -24    2    1    2    0    0  0.46440551172E+02 -0.89942712614E+02  0.43583268638E+02  0.13603352334E+03  0.79744603717E+02 0.  0.
         11    1    4    4    0    0  0.46423157545E+02 -0.79319877012E+02  0.75688286207E+00  0.91909332047E+02  0.00000000000E+00 0. -1.
        -12    1    4    4    0    0  0.17393627389E-01 -0.10622835602E+02  0.42826385776E+02  0.44124191294E+02  0.00000000000E+00 0.  1.
        -11    1    3    3    0    0 -0.36189889729E+02  0.96277388462E+02  0.66300741896E+02  0.12237169617E+03  0.00000000000E+00 0.  1.
         11    1    3    3    0    0  0.32422742183E+02  0.17366478938E+02  0.57634318574E+02  0.68370633161E+02  0.00000000000E+00 0. -1.
          4    1    1    2  501    0 -0.42673403626E+02 -0.23701154786E+02  0.40995140676E+02  0.63744534465E+02  0.00000000000E+00 0. -1.
<scales pt_clust_5="13000.00000" pt_clust_6="13000.00000" pt_clust_7="13000.00000" pt_clust_8="13000.00000" pt_clust_9="13000.00000"></scales>
<clustering>
<clus scale="   79.745">  5  6 -1 -1</clus>
<clus scale="   48.814">  5  9 -1 -1</clus>
<clus scale="   89.965">  7  8 -1 -1</clus>
<clus scale="  144.992">  1  7  2 -1</clus>
<clus scale="  180.991">  2  5  1 -1</clus>
</clustering>
</event>
<event>
 9    1  0.4516508E-005  0.2812151E+03  0.7546771E-02  0.1121794E+00
          1   -1    0    0  502    0 -0.00000000000E+00  0.00000000000E+00  0.50367759028E+02  0.50367759028E+02  0.00000000000E+00 0. -1.
         21   -1    0    0  501  502  0.00000000000E+00 -0.00000000000E+00 -0.91426799091E+03  0.91426799091E+03  0.00000000000E+00 0. -1.
         23    2    1    2    0    0  0.37284800143E+02 -0.10244248702E+03 -0.37008945413E+03  0.39636556085E+03  0.90856118646E+02 0.  0.
        -24    2    1    2    0    0  0.17914115673E+02 -0.54819771302E+02 -0.28082956963E+03  0.29782734261E+03  0.80683058712E+02 0.  0.
         13    1    4    4    0    0 -0.24814437051E+02 -0.16523239774E+02 -0.17426742210E+03  0.17679906149E+03  0.00000000000E+00 0. -1.
        -14    1    4    4    0    0  0.42728552724E+02 -0.38296531528E+02 -0.10656214753E+03  0.12102828112E+03  0.00000000000E+00 0.  1.
        -11    1    3    3    0    0  0.66522322408E+02 -0.60538913101E+02 -0.25649721422E+03  0.27181059634E+03  0.00000000000E+00 0. -1.
         11    1    3    3    0    0 -0.29237522265E+02 -0.41903573922E+02 -0.11359223991E+03  0.12455496451E+03  0.00000000000E+00 0.  1.
          2    1    1    2  501    0 -0.55198915816E+02  0.15726225832E+03 -0.21298120812E+03  0.27044284648E+03  0.00000000000E+00 0. -1.
<scales pt_clust_5="13000.00000" pt_clust_6="13000.00000" pt_clust_7="13000.00000" pt_clust_8="13000.00000" pt_clust_9="13000.00000"></scales>
<clustering>
<clus scale="   80.683">  5  6 -1 -1</clus>
<clus scale="   90.856">  7  8 -1 -1</clus>
<clus scale="  141.914">  1  7  2 -1</clus>
<clus scale="   82.550">  5  9 -1 -1</clus>
<clus scale="  281.215">  2  5  1 -1</clus>
</clustering>
</event>
<event>
 9    1  0.4516508E-005  0.2075929E+03  0.7546771E-02  0.1176940E+00
         21   -1    0    0  501  502  0.00000000000E+00  0.00000000000E+00  0.20785132059E+02  0.20785132059E+02  0.00000000000E+00 0. -1.
          1   -1    0    0  502    0 -0.00000000000E+00 -0.00000000000E+00 -0.11282038414E+04  0.11282038414E+04  0.00000000000E+00 0. -1.
         23    2    1    2    0    0 -0.18083766757E+02 -0.15403113499E+02 -0.27372002931E+03  0.28983340386E+03  0.92284717163E+02 0.  0.
        -24    2    1    2    0    0  0.85724981421E+01 -0.71700815384E+02 -0.31186801409E+03  0.33001966780E+03  0.80229846508E+02 0.  0.
         13    1    4    4    0    0  0.15680161795E+02 -0.63630332249E+02 -0.11127606897E+03  0.12913965379E+03  0.00000000000E+00 0. -1.
        -14    1    4    4    0    0 -0.71076636527E+01 -0.80704831347E+01 -0.20059194512E+03  0.20088001401E+03  0.00000000000E+00 0.  1.
        -11    1    3    3    0    0 -0.42624904907E+02 -0.38181038274E+02 -0.12630596970E+03  0.13866460322E+03  0.00000000000E+00 0.  1.
         11    1    3    3    0    0  0.24541138150E+02  0.22777924775E+02 -0.14741405960E+03  0.15116880064E+03  0.00000000000E+00 0. -1.
          2    1    1    2  501    0  0.95112686144E+01  0.87103928883E+02 -0.52183066593E+03  0.52913590179E+03  0.00000000000E+00 0. -1.
<scales pt_clust_5="13000.00000" pt_clust_6="13000.00000" pt_clust_7="13000.00000" pt_clust_8="13000.00000" pt_clust_9="13000.00000"></scales>
<clustering>
<clus scale="   80.230">  5  6 -1 -1</clus>
<clus scale="   87.622">  5  9 -1 -1</clus>
<clus scale="   92.285">  7  8 -1 -1</clus>
<clus scale="   95.293">  2  7  1 -1</clus>
<clus scale="  207.593">  1  5  2 -1</clus>
</clustering>
</event>
<event>
 9    1  0.4516508E-005  0.2189624E+03  0.7546771E-02  0.1170515E+00
         21   -1    0    0  501  502  0.00000000000E+00  0.00000000000E+00  0.36517917933E+02  0.36517917933E+02  0.00000000000E+00 0. -1.
          1   -1    0    0  502    0 -0.00000000000E+00 -0.00000000000E+00 -0.72773924681E+03  0.72773924681E+03  0.00000000000E+00 0. -1.
         23    2    1    2    0    0 -0.36431923214E+00 -0.28742566322E+02 -0.11938666463E+03  0.15193421391E+03  0.89468216811E+02 0.  0.
        -24    2    1    2    0    0 -0.63378754269E+02 -0.52540244024E+02 -0.32471933053E+03  0.34448706295E+03  0.80320291242E+02 0.  0.
         13    1    4    4    0    0 -0.26786500433E+02  0.25614670918E+01 -0.22387223080E+02  0.35003792314E+02  0.00000000000E+00 0. -1.
        -14    1    4    4    0    0 -0.36592253836E+02 -0.55101711116E+02 -0.30233210745E+03  0.30948327063E+03  0.00000000000E+00 0.  1.
        -11    1    3    3    0    0 -0.11346494792E+02 -0.59758815771E+02 -0.82596922459E+02  0.10257733963E+03  0.00000000000E+00 0. -1.
         11    1    3    3    0    0  0.10982175559E+02  0.31016249450E+02 -0.36789742167E+02  0.49356874280E+02  0.00000000000E+00 0.  1.
          2    1    1    2  501    0  0.63743073501E+02  0.81282810346E+02 -0.24711533373E+03  0.26783588789E+03  0.00000000000E+00 0. -1.
<scales pt_clust_5="13000.00000" pt_clust_6="13000.00000" pt_clust_7="13000.00000" pt_clust_8="13000.00000" pt_clust_9="13000.00000"></scales>
<clustering>
<clus scale="   80.320">  5  6 -1 -1</clus>
<clus scale="   89.468">  7  8 -1 -1</clus>
<clus scale="   93.973">  2  7  1 -1</clus>
<clus scale="   93.671">  5  9 -1 -1</clus>
<clus scale="  218.962">  1  5  2 -1</clus>
</clustering>
</event>
<event>
 9    1  0.4516508E-005  0.1172155E+03  0.7546771E-02  0.1254809E+00
          1   -1    0    0  502    0 -0.00000000000E+00  0.00000000000E+00  0.47218224337E+02  0.47218224337E+02  0.00000000000E+00 0. -1.
         21   -1    0    0  501  502  0.00000000000E+00 -0.00000000000E+00 -0.32189564280E+03  0.32189564280E+03  0.00000000000E+00 0.  1.
         23    2    1    2    0    0 -0.18113576554E+02 -0.40453504502E+02 -0.21427538838E+03  0.23725072641E+03  0.91702657715E+02 0.  0.
        -24    2    1    2    0    0  0.45204607604E+01  0.67934113360E+01 -0.41340242870E+02  0.90861599289E+02  0.80499872930E+02 0.  0.
         11    1    4    4    0    0 -0.28265289142E+02 -0.20566809204E+02 -0.60749176886E+01  0.35479921590E+02  0.00000000000E+00 0. -1.
        -12    1    4    4    0    0  0.32785749902E+02  0.27360220540E+02 -0.35265325182E+02  0.55381677699E+02  0.00000000000E+00 0.  1.
        -11    1    3    3    0    0  0.79514849190E+01  0.22534025395E+02 -0.11074459334E+03  0.11329330680E+03  0.00000000000E+00 0. -1.
         11    1    3    3    0    0 -0.26065061473E+02 -0.62987529897E+02 -0.10353079504E+03  0.12395741960E+03  0.00000000000E+00 0.  1.
          2    1    1    2  501    0  0.13593115794E+02  0.33660093166E+02 -0.19061787213E+02  0.41001541443E+02  0.00000000000E+00 0. -1.
<scales pt_clust_5="13000.00000" pt_clust_6="13000.00000" pt_clust_7="13000.00000" pt_clust_8="13000.00000" pt_clust_9="13000.00000"></scales>
<clustering>
<clus scale="   80.500">  5  6 -1 -1</clus>
<clus scale="   36.301">  5  9 -1 -1</clus>
<clus scale="   91.703">  7  8 -1 -1</clus>
<clus scale="  101.853">  1  7  2 -1</clus>
<clus scale="  117.216">  2  5  1 -1</clus>
</clustering>
</event>
<event>
 9    1  0.4516508E-005  0.3841377E+03  0.7546771E-02  0.1093037E+00
          1   -1    0    0  502    0 -0.00000000000E+00  0.00000000000E+00  0.36384379295E+03  0.36384379295E+03  0.00000000000E+00 0. -1.
         21   -1    0    0  501  502  0.00000000000E+00 -0.00000000000E+00 -0.20212242627E+03  0.20212242627E+03  0.00000000000E+00 0. -1.
         23    2    1    2    0    0  0.59292126531E+02 -0.41635773521E+02  0.13893774894E+03  0.18115341413E+03  0.90905266438E+02 0.  0.
        -24    2    1    2    0    0  0.30732600979E+02  0.35890246823E+02 -0.15706264439E+03  0.18361106393E+03  0.82533302104E+02 0.  0.
         13    1    4    4    0    0  0.72915486531E+00  0.53871572196E+02 -0.12518120127E+03  0.13628283497E+03  0.00000000000E+00 0. -1.
        -14    1    4    4    0    0  0.30003446113E+02 -0.17981325374E+02 -0.31881443120E+02  0.47328228958E+02  0.00000000000E+00 0.  1.
        -13    1    3    3    0    0 -0.78945914093E+01 -0.23540302988E+02 -0.10239552830E+01  0.24849928022E+02  0.00000000000E+00 0.  1.
         13    1    3    3    0    0  0.67186717941E+02 -0.18095470533E+02  0.13996170422E+03  0.15630348611E+03  0.00000000000E+00 0. -1.
          2    1    1    2  501    0 -0.90024727510E+02  0.57455266981E+01  0.17984626213E+03  0.20120174115E+03  0.00000000000E+00 0. -1.
<scales pt_clust_5="13000.00000" pt_clust_6="13000.00000" pt_clust_7="13000.00000" pt_clust_8="13000.00000" pt_clust_9="13000.00000"></scales>
<clustering>
<clus scale="   82.533">  5  6 -1 -1</clus>
<clus scale="   90.208">  5  9 -1 -1</clus>
<clus scale="   90.905">  7  8 -1 -1</clus>
<clus scale="  116.245">  1  7  2 -1</clus>
<clus scale="  384.138">  2  5  1 -1</clus>
</clustering>
</event>
<event>
 9    1  0.4516508E-005  0.1634563E+03  0.7546771E-02  0.1211339E+00
         21   -1    0    0  501  502  0.00000000000E+00  0.00000000000E+00  0.63956600940E+02  0.63956600940E+02  0.00000000000E+00 0. -1.
         -4   -1    0    0    0  501 -0.00000000000E+00 -0.00000000000E+00 -0.30416006748E+03  0.30416006748E+03  0.00000000000E+00 0.  1.
         23    2    1    2    0    0  0.15818578253E+01 -0.36440093495E+01 -0.20077483351E+02  0.93938965351E+02  0.91682292703E+02 0.  0.
        -24    2    1    2    0    0 -0.48161802780E+02  0.18756961166E+02 -0.53365757630E+02  0.10037590385E+03  0.67498408473E+02 0.  0.
         11    1    4    4    0    0 -0.43049529319E+02  0.34734356552E+02 -0.13229442992E+02  0.56874912410E+02  0.00000000000E+00 0. -1.
        -12    1    4    4    0    0 -0.51122734607E+01 -0.15977395387E+02 -0.40136314638E+02  0.43500991437E+02  0.00000000000E+00 0.  1.
        -13    1    3    3    0    0  0.36249008237E+02  0.26158859405E+02 -0.19045307925E+01  0.44742639183E+02  0.00000000000E+00 0.  1.
         13    1    3    3    0    0 -0.34667150412E+02 -0.29802868754E+02 -0.18172952559E+02  0.49196326168E+02  0.00000000000E+00 0. -1.
         -3    1    1    2    0  502  0.46579944955E+02 -0.15112951816E+02 -0.16676022555E+03  0.17380179922E+03  0.00000000000E+00 0.  1.
<scales pt_clust_5="13000.00000" pt_clust_6="13000.00000" pt_clust_7="13000.00000" pt_clust_8="13000.00000" pt_clust_9="13000.00000"></scales>
<clustering>
<clus scale="   67.498">  5  6 -1 -1</clus>
<clus scale="   48.970">  5  9 -1 -1</clus>
<clus scale="   91.682">  7  8 -1 -1</clus>
<clus scale="   91.768">  2  7  1 -1</clus>
<clus scale="  163.456">  1  5  2 -1</clus>
</clustering>
</event>
<event>
 9    1  0.4516508E-005  0.3039936E+03  0.7546771E-02  0.1128386E+00
         21   -1    0    0  501  502  0.00000000000E+00  0.00000000000E+00  0.17868696298E+03  0.17868696298E+03  0.00000000000E+00 0. -1.
          1   -1    0    0  502    0 -0.00000000000E+00 -0.00000000000E+00 -0.23932053392E+03  0.23932053392E+03  0.00000000000E+00 0. -1.
         23    2    1    2    0    0  0.19522229066E+01  0.26410174747E+02 -0.62403071359E+02  0.11400871509E+03  0.91665344038E+02 0.  0.
        -24    2    1    2    0    0  0.85647333556E+02  0.52536353314E+02 -0.87685898632E+02  0.15598356298E+03  0.80910573691E+02 0.  0.
         11    1    4    4    0    0  0.49426736732E+02  0.51716833745E+02 -0.12634191371E+02  0.72644724435E+02  0.00000000000E+00 0. -1.
        -12    1    4    4    0    0  0.36220596824E+02  0.81951956886E+00 -0.75051707261E+02  0.83338838541E+02  0.00000000000E+00 0.  1.
        -11    1    3    3    0    0 -0.63433938898E+01  0.56029607971E+02 -0.16498734754E+02  0.58751713710E+02  0.00000000000E+00 0.  1.
         11    1    3    3    0    0  0.82956167964E+01 -0.29619433225E+02 -0.45904336605E+02  0.55257001382E+02  0.00000000000E+00 0. -1.
          2    1    1    2  501    0 -0.87599556463E+02 -0.78946528061E+02  0.89455399056E+02  0.14801521883E+03  0.00000000000E+00 0. -1.
<scales pt_clust_5="13000.00000" pt_clust_6="13000.00000" pt_clust_7="13000.00000" pt_clust_8="13000.00000" pt_clust_9="13000.00000"></scales>
<clustering>
<clus scale="   80.911">  5  6 -1 -1</clus>
<clus scale="   91.665">  7  8 -1 -1</clus>
<clus scale="   95.414">  2  7  1 -1</clus>
<clus scale="  114.273">  5  9 -1 -1</clus>
<clus scale="  303.994">  1  5  2 -1</clus>
</clustering>
</event>
<event>
 9    1  0.4516508E-005  0.6553140E+03  0.7546771E-02  0.1039634E+00
          1   -1    0    0  502    0 -0.00000000000E+00  0.00000000000E+00  0.34368293387E+03  0.34368293387E+03  0.00000000000E+00 0. -1.
         21   -1    0    0  501  502  0.00000000000E+00 -0.00000000000E+00 -0.50538273637E+03  0.50538273637E+03  0.00000000000E+00 0. -1.
         23    2    1    2    0    0  0.40468060434E+02  0.18563144405E+02 -0.16435662399E+03  0.19374623590E+03  0.92424292429E+02 0.  0.
        -24    2    1    2    0    0  0.10470487693E+03 -0.18014258070E+03  0.24380126134E+03  0.33076784084E+03  0.80955845184E+02 0.  0.
         13    1    4    4    0    0  0.44712092630E+02 -0.10106987938E+03  0.70603633867E+02  0.13114558651E+03  0.00000000000E+00 0. -1.
        -14    1    4    4    0    0  0.59992784300E+02 -0.79072701313E+02  0.17319762747E+03  0.19962225433E+03  0.00000000000E+00 0.  1.
        -13    1    3    3    0    0  0.15378509312E+02 -0.22999283270E+02 -0.13323953865E+03  0.13608174102E+03  0.00000000000E+00 0. -1.
         13    1    3    3    0    0  0.25089551121E+02  0.41562427675E+02 -0.31117085340E+02  0.57664494880E+02  0.00000000000E+00 0.  1.
          2    1    1    2  501    0 -0.14517293736E+03  0.16157943629E+03 -0.24114443985E+03  0.32455159350E+03  0.00000000000E+00 0. -1.
<scales pt_clust_5="13000.00000" pt_clust_6="13000.00000" pt_clust_7="13000.00000" pt_clust_8="13000.00000" pt_clust_9="13000.00000"></scales>
<clustering>
<clus scale="   80.956">  5  6 -1 -1</clus>
<clus scale="   92.424">  7  8 -1 -1</clus>
<clus scale="  102.589">  1  7  2 -1</clus>
<clus scale="  215.606">  5  9 -1 -1</clus>
<clus scale="  655.314">  2  5  1 -1</clus>
</clustering>
</event>
<event>
 9    1  0.4516508E-005  0.3908257E+03  0.7546771E-02  0.1097268E+00
          1   -1    0    0  502    0 -0.00000000000E+00  0.00000000000E+00  0.16210763744E+03  0.16210763744E+03  0.00000000000E+00 0. -1.
         21   -1    0    0  501  502  0.00000000000E+00 -0.00000000000E+00 -0.42778708320E+03  0.42778708320E+03  0.00000000000E+00 0. -1.
         23    2    1    2    0    0 -0.19263893682E+02 -0.63672997783E+01 -0.15480029560E+03  0.18364491252E+03  0.96698925908E+02 0.  0.
        -24    2    1    2    0    0  0.85567452959E+01  0.33423359373E+02 -0.24942228067E+03  0.26468401990E+03  0.81583193451E+02 0.  0.
         11    1    4    4    0    0  0.38453308062E+02  0.15650730529E-01 -0.16121508331E+03  0.16573762468E+03  0.00000000000E+00 0. -1.
        -12    1    4    4    0    0 -0.29896562766E+02  0.33407708643E+02 -0.88207197355E+02  0.98946395221E+02  0.00000000000E+00 0.  1.
        -11    1    3    3    0    0  0.32339246422E+02  0.22741943381E+02 -0.63867738425E+02  0.75113985778E+02  0.00000000000E+00 0.  1.
         11    1    3    3    0    0 -0.51603140104E+02 -0.29109243160E+02 -0.90932557172E+02  0.10853092674E+03  0.00000000000E+00 0. -1.
          2    1    1    2  501    0  0.10707148386E+02 -0.27056059595E+02  0.13854313050E+03  0.14156578823E+03  0.00000000000E+00 0. -1.
<scales pt_clust_5="13000.00000" pt_clust_6="13000.00000" pt_clust_7="13000.00000" pt_clust_8="13000.00000" pt_clust_9="13000.00000"></scales>
<clustering>
<clus scale="   81.583">  5  6 -1 -1</clus>
<clus scale="   29.098">  5  9 -1 -1</clus>
<clus scale="   96.699">  7  8 -1 -1</clus>
<clus scale="   98.805">  1  7  2 -1</clus>
<clus scale="  390.826">  2  5  1 -1</clus>
</clustering>
</event>
<event>
 9    1  0.4516508E-005  0.1251828E+03  0.7546771E-02  0.1249240E+00
          1   -1    0    0  502    0 -0.00000000000E+00  0.00000000000E+00  0.44259280392E+03  0.44259280392E+03  0.00000000000E+00 0. -1.
         21   -1    0    0  501  502  0.00000000000E+00 -0.00000000000E+00 -0.27166989573E+02  0.27166989573E+02  0.00000000000E+00 0. -1.
         23    2    1    2    0    0  0.12416635570E+02 -0.39335955130E+01  0.15917356758E+03  0.18456523536E+03  0.92511920718E+02 0.  0.
        -24    2    1    2    0    0 -0.38520057506E+02  0.98934359787E+01  0.14043988136E+03  0.16632735358E+03  0.79748061853E+02 0.  0.
         11    1    4    4    0    0 -0.45002066751E+02  0.31895011661E+02  0.55122182009E+02  0.77980335535E+02  0.00000000000E+00 0. -1.
        -12    1    4    4    0    0  0.64820092449E+01 -0.22001575682E+02  0.85317699346E+02  0.88347018049E+02  0.00000000000E+00 0.  1.
        -13    1    3    3    0    0  0.48928972428E+01  0.44169699715E+02  0.83315583137E+02  0.94426634007E+02  0.00000000000E+00 0.  1.
         13    1    3    3    0    0  0.75237383269E+01 -0.48103295228E+02  0.75857984448E+02  0.90138601358E+02  0.00000000000E+00 0. -1.
          2    1    1    2  501    0  0.26103421937E+02 -0.59598404656E+01  0.11581236540E+03  0.11886720454E+03  0.00000000000E+00 0. -1.
<scales pt_clust_5="13000.00000" pt_clust_6="13000.00000" pt_clust_7="13000.00000" pt_clust_8="13000.00000" pt_clust_9="13000.00000"></scales>
<clustering>
<clus scale="   79.748">  5  6 -1 -1</clus>
<clus scale="   26.775">  5  9 -1 -1</clus>
<clus scale="   92.512">  7  8 -1 -1</clus>
<clus scale="   93.424">  1  7  2 -1</clus>
<clus scale="  125.183">  2  5  1 -1</clus>
</clustering>
</event>
<event>
 9    1  0.4516508E-005  0.9941124E+03  0.7546771E-02  0.9660297E-01
          1   -1    0    0  502    0 -0.00000000000E+00  0.00000000000E+00  0.11736433110E+04  0.11736433110E+04  0.00000000000E+00 0. -1.
         21   -1    0    0  501  502  0.00000000000E+00 -0.00000000000E+00 -0.44547440117E+03  0.44547440117E+03  0.00000000000E+00 0. -1.
         23    2    1    2    0    0 -0.17591253210E+03  0.22023600385E+03 -0.11309917324E+03  0.31681531783E+03  0.90174310515E+02 0.  0.
        -24    2    1    2    0    0 -0.30469740305E+03  0.11259874522E+03  0.82866819028E+02  0.34473393347E+03  0.80346688432E+02 0.  0.
         11    1    4    4    0    0 -0.18002945423E+03  0.10634552773E+03  0.62691885891E+02  0.21828936807E+03  0.00000000000E+00 0. -1.
        -12    1    4    4    0    0 -0.12466794882E+03  0.62532174943E+01  0.20174933136E+02  0.12644456540E+03  0.00000000000E+00 0.  1.
        -11    1    3    3    0    0 -0.25250893847E+02  0.59602194212E+02 -0.64305693597E+02  0.91242815739E+02  0.00000000000E+00 0.  1.
         11    1    3    3    0    0 -0.15066163826E+03  0.16063380964E+03 -0.48793479644E+02  0.22557250209E+03  0.00000000000E+00 0. -1.
          2    1    1    2  501    0  0.48060993515E+03 -0.33283474907E+03  0.75840126409E+03  0.95756846091E+03  0.00000000000E+00 0. -1.
<scales pt_clust_5="13000.00000" pt_clust_6="13000.00000" pt_clust_7="13000.00000" pt_clust_8="13000.00000" pt_clust_9="13000.00000"></scales>
<clustering>
<clus scale="   80.347">  5  6 -1 -1</clus>
<clus scale="   90.174">  7  8 -1 -1</clus>
<clus scale="  295.940">  1  7  2 -1</clus>
<clus scale="  374.110">  5  9 -1 -1</clus>
<clus scale="  994.112">  2  5  1 -1</clus>
</clustering>
</event>
<event>
 9    1  0.4516508E-005  0.4438135E+03  0.7546771E-02  0.1044803E+00
          1   -1    0    0  502    0 -0.00000000000E+00  0.00000000000E+00  0.17372266356E+04  0.17372266356E+04  0.00000000000E+00 0. -1.
         21   -1    0    0  501  502  0.00000000000E+00 -0.00000000000E+00 -0.98942362449E+02  0.98942362449E+02  0.00000000000E+00 0. -1.
         23    2    1    2    0    0  0.25158709242E+03  0.92028008196E+02  0.11117986797E+04  0.11475780409E+04  0.95256686634E+02 0.  0.
        -24    2    1    2    0    0  0.47270963022E+02  0.54827170541E+02  0.15498714081E+03  0.18969850269E+03  0.81999667867E+02 0.  0.
         11    1    4    4    0    0  0.61211932349E+02  0.98063467379E+01  0.81522173570E+02  0.10241547677E+03  0.00000000000E+00 0. -1.
        -12    1    4    4    0    0 -0.13940969327E+02  0.45020823803E+02  0.73464967240E+02  0.87283025917E+02  0.00000000000E+00 0.  1.
        -11    1    3    3    0    0  0.75648953601E+02  0.18193703794E+02  0.17456514379E+03  0.19111976472E+03  0.00000000000E+00 0.  1.
         11    1    3    3    0    0  0.17593813882E+03  0.73834304402E+02  0.93723353590E+03  0.95645827615E+03  0.00000000000E+00 0. -1.
          2    1    1    2  501    0 -0.29885805545E+03 -0.14685517874E+03  0.37149845263E+03  0.49889245447E+03  0.00000000000E+00 0. -1.
<scales pt_clust_5="13000.00000" pt_clust_6="13000.00000" pt_clust_7="13000.00000" pt_clust_8="13000.00000" pt_clust_9="13000.00000"></scales>
<clustering>
<clus scale="   82.000">  5  6 -1 -1</clus>
<clus scale="   95.257">  7  8 -1 -1</clus>
<clus scale="  284.322">  1  7  2 -1</clus>
<clus scale="  143.616">  5  9 -1 -1</clus>
<clus scale="  443.814">  2  5  1 -1</clus>
</clustering>
</event>
<event>
 9    1  0.4516508E-005  0.1652424E+03  0.7546771E-02  0.1194564E+00
          1   -1    0    0  502    0 -0.00000000000E+00  0.00000000000E+00  0.12231408029E+04  0.12231408029E+04  0.00000000000E+00 0. -1.
         21   -1    0    0  501  502  0.00000000000E+00 -0.00000000000E+00 -0.17665765189E+02  0.17665765189E+02  0.00000000000E+00 0. -1.
         23    2    1    2    0    0  0.55660800105E+02 -0.69000303337E+02  0.47242104820E+03  0.48935917216E+03  0.91823668339E+02 0.  0.
        -24    2    1    2    0    0 -0.17603653301E+02 -0.24038310207E+01  0.34684749561E+03  0.35685602152E+03  0.82020533230E+02 0.  0.
         11    1    4    4    0    0 -0.30221630114E+02  0.87225893884E+01  0.47105907620E+02  0.56642713786E+02  0.00000000000E+00 0. -1.
        -12    1    4    4    0    0  0.12617976812E+02 -0.11126420409E+02  0.29974158799E+03  0.30021330774E+03  0.00000000000E+00 0.  1.
        -13    1    3    3    0    0  0.27953279303E+02 -0.80933497679E+02  0.42202454495E+03  0.43062319191E+03  0.00000000000E+00 0. -1.
         13    1    3    3    0    0  0.27707520802E+02  0.11933194342E+02  0.50396503243E+02  0.58735980245E+02  0.00000000000E+00 0.  1.
          2    1    1    2  501    0 -0.38057146803E+02  0.71404134357E+02  0.38620649392E+03  0.39459137443E+03  0.00000000000E+00 0. -1.
<scales pt_clust_5="13000.00000" pt_clust_6="13000.00000" pt_clust_7="13000.00000" pt_clust_8="13000.00000" pt_clust_9="13000.00000"></scales>
<clustering>
<clus scale="   82.021">  5  6 -1 -1</clus>
<clus scale="   80.913">  5  9 -1 -1</clus>
<clus scale="   91.824">  7  8 -1 -1</clus>
<clus scale="  127.635">  1  7  2 -1</clus>
<clus scale="  165.242">  2  5  1 -1</clus>
</clustering>
</event>
<event>
 9    1  0.4516508E-005  0.4658746E+03  0.7546771E-02  0.1050312E+00
          1   -1    0    0  502    0 -0.00000000000E+00  0.00000000000E+00  0.77870758871E+03  0.77870758871E+03  0.00000000000E+00 0. -1.
         21   -1    0    0  501  502  0.00000000000E+00 -0.00000000000E+00 -0.19629594800E+03  0.19629594800E+03  0.00000000000E+00 0. -1.
         23    2    1    2    0    0  0.17022724173E+03  0.81200646149E+02  0.44056481187E+03  0.48801311252E+03  0.92133521440E+02 0.  0.
        -24    2    1    2    0    0  0.14025358994E+02  0.14548468186E+03  0.12422636538E+02  0.16748161310E+03  0.80828617938E+02 0.  0.
         13    1    4    4    0    0  0.13721842620E+02  0.20602955022E+02 -0.26898403494E+02  0.36555366652E+02  0.00000000000E+00 0. -1.
        -14    1    4    4    0    0  0.30351637395E+00  0.12488172684E+03  0.39321040032E+02  0.13092624645E+03  0.00000000000E+00 0.  1.
        -11    1    3    3    0    0  0.13423183736E+03  0.17284943224E+02  0.25997597273E+03  0.29309462946E+03  0.00000000000E+00 0.  1.
         11    1    3    3    0    0  0.35995404373E+02  0.63915702925E+02  0.18058883914E+03  0.19491848306E+03  0.00000000000E+00 0. -1.
          2    1    1    2  501    0 -0.18425260072E+03 -0.22668532801E+03  0.12942419231E+03  0.31950881108E+03  0.00000000000E+00 0. -1.
<scales pt_clust_5="13000.00000" pt_clust_6="13000.00000" pt_clust_7="13000.00000" pt_clust_8="13000.00000" pt_clust_9="13000.00000"></scales>
<clustering>
<clus scale="   80.829">  5  6 -1 -1</clus>
<clus scale="   92.134">  7  8 -1 -1</clus>
<clus scale="  209.903">  1  7  2 -1</clus>
<clus scale="  179.998">  5  9 -1 -1</clus>
<clus scale="  465.875">  2  5  1 -1</clus>
</clustering>
</event>
<event>
 9    1  0.4516508E-005  0.4637801E+03  0.7546771E-02  0.1041122E+00
          1   -1    0    0  502    0 -0.00000000000E+00  0.00000000000E+00  0.36949365540E+03  0.36949365540E+03  0.00000000000E+00 0. -1.
         21   -1    0    0  501  502  0.00000000000E+00 -0.00000000000E+00 -0.38054467109E+03  0.38054467109E+03  0.00000000000E+00 0. -1.
         23    2    1    2    0    0 -0.37010755064E+02  0.25888332860E+03  0.51998153243E+02  0.28199216505E+03  0.91789974361E+02 0.  0.
        -24    2    1    2    0    0 -0.79783059419E+02  0.50824511962E+02  0.22297290938E+02  0.12622199638E+03  0.80537914052E+02 0.  0.
         13    1    4    4    0    0 -0.78938477861E+02  0.76140153557E+01  0.43473154230E+01  0.79423898596E+02  0.00000000000E+00 0. -1.
        -14    1    4    4    0    0 -0.84458155881E+00  0.43210496607E+02  0.17949975515E+02  0.46798097782E+02  0.00000000000E+00 0.  1.
        -11    1    3    3    0    0  0.49206911880E+01  0.21451480436E+03  0.27972137094E+02  0.21638681786E+03  0.00000000000E+00 0. -1.
         11    1    3    3    0    0 -0.41931446252E+02  0.44368524242E+02  0.24026016149E+02  0.65605347192E+02  0.00000000000E+00 0.  1.
          2    1    1    2  501    0  0.11679381448E+03 -0.30970784056E+03 -0.85346459866E+02  0.34182416506E+03  0.00000000000E+00 0. -1.
<scales pt_clust_5="13000.00000" pt_clust_6="13000.00000" pt_clust_7="13000.00000" pt_clust_8="13000.00000" pt_clust_9="13000.00000"></scales>
<clustering>
<clus scale="   80.538">  5  6 -1 -1</clus>
<clus scale="   91.790">  7  8 -1 -1</clus>
<clus scale="  277.157">  1  7  2 -1</clus>
<clus scale="  173.094">  5  9 -1 -1</clus>
<clus scale="  463.780">  2  5  1 -1</clus>
</clustering>
</event>
<event>
 9    1  0.4516508E-005  0.2047443E+03  0.7546771E-02  0.1178863E+00
          3   -1    0    0  502    0 -0.00000000000E+00  0.00000000000E+00  0.19943379930E+03  0.19943379930E+03  0.00000000000E+00 0. -1.
         21   -1    0    0  501  502  0.00000000000E+00 -0.00000000000E+00 -0.12012640356E+03  0.12012640356E+03  0.00000000000E+00 0. -1.
         23    2    1    2    0    0 -0.21396756537E+02 -0.75557562487E+01 -0.11081569942E+02  0.95751384884E+02  0.92361333209E+02 0.  0.
        -24    2    1    2    0    0 -0.33789890581E+02 -0.28779637311E+02  0.12036403152E+03  0.15125310547E+03  0.80124762715E+02 0.  0.
         13    1    4    4    0    0 -0.18336841854E+02  0.11252519258E+02  0.10256467434E+03  0.10479680998E+03  0.00000000000E+00 0. -1.
        -14    1    4    4    0    0 -0.15453048727E+02 -0.40032156570E+02  0.17799357181E+02  0.46456295490E+02  0.00000000000E+00 0.  1.
        -11    1    3    3    0    0  0.30185069578E+02  0.20269890970E+02 -0.17209291878E+01  0.36400116795E+02  0.00000000000E+00 0.  1.
         11    1    3    3    0    0 -0.51581826115E+02 -0.27825647219E+02 -0.93606407546E+01  0.59351268090E+02  0.00000000000E+00 0. -1.
          4    1    1    2  501    0  0.55186647118E+02  0.36335393560E+02 -0.29975065841E+02  0.72555712508E+02  0.00000000000E+00 0. -1.
<scales pt_clust_5="13000.00000" pt_clust_6="13000.00000" pt_clust_7="13000.00000" pt_clust_8="13000.00000" pt_clust_9="13000.00000"></scales>
<clustering>
<clus scale="   80.125">  5  6 -1 -1</clus>
<clus scale="   66.074">  5  9 -1 -1</clus>
<clus scale="   92.361">  7  8 -1 -1</clus>
<clus scale="   95.108">  1  7  2 -1</clus>
<clus scale="  204.744">  2  5  1 -1</clus>
</clustering>
</event>
<event>
 9    1  0.4516508E-005  0.4576010E+03  0.7546771E-02  0.1056786E+00
          1   -1    0    0  502    0 -0.00000000000E+00  0.00000000000E+00  0.96400742628E+02  0.96400742628E+02  0.00000000000E+00 0. -1.
         21   -1    0    0  501  502  0.00000000000E+00 -0.00000000000E+00 -0.10689244655E+04  0.10689244655E+04  0.00000000000E+00 0.  1.
         23    2    1    2    0    0  0.15834037980E+03  0.46353548846E+01 -0.28508328820E+03  0.33950863411E+03  0.94342297153E+02 0.  0.
        -24    2    1    2    0    0 -0.29149029210E+03  0.61452096276E+02 -0.42922769764E+03  0.52787317686E+03  0.75304209086E+02 0.  0.
         11    1    4    4    0    0 -0.21323722883E+02  0.18731493685E+02 -0.16782297250E+02  0.32972951252E+02  0.00000000000E+00 0. -1.
        -12    1    4    4    0    0 -0.27016656922E+03  0.42720602591E+02 -0.41244540039E+03  0.49490022561E+03  0.00000000000E+00 0.  1.
        -13    1    3    3    0    0  0.82856522468E+02  0.49517589418E+02 -0.14627925203E+03  0.17525642513E+03  0.00000000000E+00 0. -1.
         13    1    3    3    0    0  0.75483857336E+02 -0.44882234534E+02 -0.13880403618E+03  0.16425220898E+03  0.00000000000E+00 0.  1.
          2    1    1    2  501    0  0.13314991230E+03 -0.66087451160E+02 -0.25821273706E+03  0.29794339719E+03  0.00000000000E+00 0. -1.
<scales pt_clust_5="13000.00000" pt_clust_6="13000.00000" pt_clust_7="13000.00000" pt_clust_8="13000.00000" pt_clust_9="13000.00000"></scales>
<clustering>
<clus scale="   75.304">  5  6 -1 -1</clus>
<clus scale="   94.342">  7  8 -1 -1</clus>
<clus scale="  148.649">  5  9 -1 -1</clus>
<clus scale="  184.374">  1  7  2 -1</clus>
<clus scale="  457.601">  2  5  1 -1</clus>
</clustering>
</event>
<event>
 9    1  0.4516508E-005  0.1348176E+03  0.7546771E-02  0.1234562E+00
          1   -1    0    0  502    0 -0.00000000000E+00  0.00000000000E+00  0.35914806959E+03  0.35914806959E+03  0.00000000000E+00 0. -1.
         21   -1    0    0  501  502  0.00000000000E+00 -0.00000000000E+00 -0.40731578385E+02  0.40731578385E+02  0.00000000000E+00 0. -1.
         23    2    1    2    0    0  0.33553882395E+02 -0.29027808980E+02  0.18258757862E+03  0.20850235309E+03  0.90368858896E+02 0.  0.
        -24    2    1    2    0    0 -0.51357635867E+02 -0.25779831726E+01  0.78050991446E+02  0.12315568609E+03  0.80194220443E+02 0.  0.
         13    1    4    4    0    0  0.14952875070E+02 -0.21185623288E+02  0.16113957787E+02  0.30529964667E+02  0.00000000000E+00 0. -1.
        -14    1    4    4    0    0 -0.66310510938E+02  0.18607640115E+02  0.61937033659E+02  0.92625721427E+02  0.00000000000E+00 0.  1.
        -11    1    3    3    0    0  0.40900768178E+01  0.32324625151E+02  0.56753743338E+02  0.65441557916E+02  0.00000000000E+00 0.  1.
         11    1    3    3    0    0  0.29463805578E+02 -0.61352434132E+02  0.12583383528E+03  0.14306079517E+03  0.00000000000E+00 0. -1.
          2    1    1    2  501    0  0.17803753472E+02  0.31605792153E+02  0.57777921138E+02  0.68221608794E+02  0.00000000000E+00 0. -1.
<scales pt_clust_5="13000.00000" pt_clust_6="13000.00000" pt_clust_7="13000.00000" pt_clust_8="13000.00000" pt_clust_9="13000.00000"></scales>
<clustering>
<clus scale="   80.194">  5  6 -1 -1</clus>
<clus scale="   36.275">  5  9 -1 -1</clus>
<clus scale="   90.369">  7  8 -1 -1</clus>
<clus scale="  100.673">  1  7  2 -1</clus>
<clus scale="  134.818">  2  5  1 -1</clus>
</clustering>
</event>
<event>
 9    1  0.4516508E-005  0.2319831E+03  0.7546771E-02  0.1143723E+00
          1   -1    0    0  502    0 -0.00000000000E+00  0.00000000000E+00  0.58161099980E+03  0.58161099980E+03  0.00000000000E+00 0. -1.
         21   -1    0    0  501  502  0.00000000000E+00 -0.00000000000E+00 -0.63421653469E+02  0.63421653469E+02  0.00000000000E+00 0. -1.
         23    2    1    2    0    0 -0.79406841579E+02  0.85205611359E+02  0.15651063557E+03  0.21534946423E+03  0.91183167308E+02 0.  0.
        -24    2    1    2    0    0  0.46214981707E+02 -0.11430003039E+03  0.14092284511E+03  0.20455803052E+03  0.82367579151E+02 0.  0.
         13    1    4    4    0    0  0.24575313988E+02 -0.10555670498E+03  0.67892308226E+02  0.12788873891E+03  0.00000000000E+00 0. -1.
        -14    1    4    4    0    0  0.21639667719E+02 -0.87433254055E+01  0.73030536882E+02  0.76669291606E+02  0.00000000000E+00 0.  1.
        -13    1    3    3    0    0  0.10373797764E+01  0.64954677400E+02  0.69178596042E+02  0.94899232996E+02  0.00000000000E+00 0. -1.
         13    1    3    3    0    0 -0.80444221356E+02  0.20250933959E+02  0.87332039531E+02  0.12045023123E+03  0.00000000000E+00 0.  1.
          2    1    1    2  501    0  0.33191859872E+02  0.29094419026E+02  0.22075586565E+03  0.22512515852E+03  0.00000000000E+00 0. -1.
<scales pt_clust_5="13000.00000" pt_clust_6="13000.00000" pt_clust_7="13000.00000" pt_clust_8="13000.00000" pt_clust_9="13000.00000"></scales>
<clustering>
<clus scale="   82.368">  5  6 -1 -1</clus>
<clus scale="   44.138">  5  9 -1 -1</clus>
<clus scale="   91.183">  7  8 -1 -1</clus>
<clus scale="  147.918">  1  7  2 -1</clus>
<clus scale="  231.983">  2  5  1 -1</clus>
</clustering>
</event>
<event>
 9    1  0.4516508E-005  0.2559425E+03  0.7546771E-02  0.1113093E+00
         21   -1    0    0  501  502  0.00000000000E+00  0.00000000000E+00  0.25215046821E+03  0.25215046821E+03  0.00000000000E+00 0. -1.
          1   -1    0    0  502    0 -0.00000000000E+00 -0.00000000000E+00 -0.28858089955E+03  0.28858089955E+03  0.00000000000E+00 0. -1.
         23    2    1    2    0    0  0.21185370555E+03 -0.42375509258E+02 -0.13039057294E+03  0.26808679587E+03  0.90504984759E+02 0.  0.
        -24    2    1    2    0    0 -0.19946979456E+03  0.75216196358E+01  0.95480879652E+02  0.23562474590E+03  0.80979310923E+02 0.  0.
         13    1    4    4    0    0 -0.20632212118E+03  0.12633830188E+02  0.93374793350E+02  0.22681993605E+03  0.00000000000E+00 0. -1.
        -14    1    4    4    0    0  0.68523266290E+01 -0.51122105525E+01  0.21060863020E+01  0.88048098489E+01  0.00000000000E+00 0.  1.
        -11    1    3    3    0    0  0.69701563680E+02 -0.34798788368E+02 -0.92184802094E+02  0.12069507607E+03  0.00000000000E+00 0. -1.
         11    1    3    3    0    0  0.14215214187E+03 -0.75767208896E+01 -0.38205770847E+02  0.14739171979E+03  0.00000000000E+00 0.  1.
          2    1    1    2  501    0 -0.12383910994E+02  0.34853889622E+02 -0.15207380500E+01  0.37019826006E+02  0.00000000000E+00 0. -1.
<scales pt_clust_5="13000.00000" pt_clust_6="13000.00000" pt_clust_7="13000.00000" pt_clust_8="13000.00000" pt_clust_9="13000.00000"></scales>
<clustering>
<clus scale="   80.979">  5  6 -1 -1</clus>
<clus scale="   36.989">  5  9 -1 -1</clus>
<clus scale="   90.505">  7  8 -1 -1</clus>
<clus scale="  234.241">  2  7  1 -1</clus>
<clus scale="  255.942">  1  5  2 -1</clus>
</clustering>
</event>
<event>
 9    1  0.4516508E-005  0.2493331E+03  0.7546771E-02  0.1137947E+00
          3   -1    0    0  502    0 -0.00000000000E+00  0.00000000000E+00  0.21520771114E+03  0.21520771114E+03  0.00000000000E+00 0. -1.
         21   -1    0    0  501  502  0.00000000000E+00 -0.00000000000E+00 -0.21166360668E+03  0.21166360668E+03  0.00000000000E+00 0. -1.
         23    2    1    2    0    0 -0.93701096804E+02 -0.43382203437E+02  0.88995440187E+02  0.16330169574E+03  0.89918542809E+02 0.  0.
        -24    2    1    2    0    0  0.12275441208E+03  0.38539362356E+02 -0.13652712177E+03  0.20460960038E+03  0.81679284096E+02 0.  0.
         13    1    4    4    0    0  0.82692125049E+02  0.38045990128E+02 -0.13706977919E+03  0.16454060069E+03  0.00000000000E+00 0. -1.
        -14    1    4    4    0    0  0.40062287036E+02  0.49337222791E+00  0.54265741502E+00  0.40068999685E+02  0.00000000000E+00 0.  1.
        -13    1    3    3    0    0 -0.18493558736E+02 -0.16603880316E+02 -0.17361145311E+02  0.30316825737E+02  0.00000000000E+00 0.  1.
         13    1    3    3    0    0 -0.75207538068E+02 -0.26778323121E+02  0.10635658550E+03  0.13298487000E+03  0.00000000000E+00 0. -1.
          4    1    1    2  501    0 -0.29053315280E+02  0.48428410812E+01  0.51075786050E+02  0.58960021702E+02  0.00000000000E+00 0. -1.
<scales pt_clust_5="13000.00000" pt_clust_6="13000.00000" pt_clust_7="13000.00000" pt_clust_8="13000.00000" pt_clust_9="13000.00000"></scales>
<clustering>
<clus scale="   81.679">  5  6 -1 -1</clus>
<clus scale="   29.454">  5  9 -1 -1</clus>
<clus scale="   89.919">  7  8 -1 -1</clus>
<clus scale="  136.921">  1  7  2 -1</clus>
<clus scale="  249.333">  2  5  1 -1</clus>
</clustering>
</event>
<event>
 9    1  0.4516508E-005  0.2537839E+03  0.7546771E-02  0.1129688E+00
          1   -1    0    0  502    0 -0.00000000000E+00  0.00000000000E+00  0.16457986847E+03  0.16457986847E+03  0.00000000000E+00 0. -1.
         21   -1    0    0  501  502  0.00000000000E+00 -0.00000000000E+00 -0.26075790144E+03  0.26075790144E+03  0.00000000000E+00 0. -1.
         23    2    1    2    0    0 -0.10921027673E+03 -0.70133030417E+02 -0.18265617573E+02  0.15986347145E+03  0.91526882496E+02 0.  0.
        -24    2    1    2    0    0 -0.95990848985E+01 -0.15890706492E+01  0.33729834741E+02  0.87362771017E+02  0.79999277696E+02 0.  0.
         13    1    4    4    0    0 -0.31808532188E+02  0.74430849458E+00  0.50325439205E+02  0.59539789605E+02  0.00000000000E+00 0. -1.
        -14    1    4    4    0    0  0.22209447289E+02 -0.23333791438E+01 -0.16595604464E+02  0.27822981412E+02  0.00000000000E+00 0.  1.
        -11    1    3    3    0    0 -0.28092506634E+02 -0.34087790128E+02 -0.48959438859E+02  0.65940829675E+02  0.00000000000E+00 0.  1.
         11    1    3    3    0    0 -0.81117770092E+02 -0.36045240289E+02  0.30693821286E+02  0.93922641771E+02  0.00000000000E+00 0. -1.
          2    1    1    2  501    0  0.11880936162E+03  0.71722101066E+02 -0.11164225014E+03  0.17811152744E+03  0.00000000000E+00 0. -1.
<scales pt_clust_5="13000.00000" pt_clust_6="13000.00000" pt_clust_7="13000.00000" pt_clust_8="13000.00000" pt_clust_9="13000.00000"></scales>
<clustering>
<clus scale="   79.999">  5  6 -1 -1</clus>
<clus scale="   91.527">  7  8 -1 -1</clus>
<clus scale="  138.779">  5  9 -1 -1</clus>
<clus scale="  158.817">  1  7  2 -1</clus>
<clus scale="  253.784">  2  5  1 -1</clus>
</clustering>
</event>
<event>
 9    1  0.4516508E-005  0.1908474E+03  0.7546771E-02  0.1161203E+00
         21   -1    0    0  501  502  0.00000000000E+00  0.00000000000E+00  0.72438946758E+02  0.72438946758E+02  0.00000000000E+00 0. -1.
          1   -1    0    0  502    0 -0.00000000000E+00 -0.00000000000E+00 -0.46842209213E+03  0.46842209213E+03  0.00000000000E+00 0. -1.
         23    2    1    2    0    0  0.14328599071E+03  0.11975916324E+02 -0.16421886872E+03  0.24063208254E+03  0.10129987462E+03 0.  0.
        -24    2    1    2    0    0 -0.11204524947E+03 -0.40535861202E+02 -0.13979071572E+03  0.19898276988E+03  0.76520615095E+02 0.  0.
         13    1    4    4    0    0 -0.12317332800E+03 -0.39630785758E+02 -0.12115856552E+03  0.17726157482E+03  0.00000000000E+00 0. -1.
        -14    1    4    4    0    0  0.11128078533E+02 -0.90507544335E+00 -0.18632150202E+02  0.21721195054E+02  0.00000000000E+00 0.  1.
        -11    1    3    3    0    0  0.14098802840E+03  0.39132359630E+02 -0.15128092851E+03  0.21046350052E+03  0.00000000000E+00 0. -1.
         11    1    3    3    0    0  0.22979623091E+01 -0.27156443306E+02 -0.12937940208E+02  0.30168582012E+02  0.00000000000E+00 0.  1.
          2    1    1    2  501    0 -0.31240741244E+02  0.28559944878E+02 -0.91973560927E+02  0.10124618647E+03  0.00000000000E+00 0. -1.
<scales pt_clust_5="13000.00000" pt_clust_6="13000.00000" pt_clust_7="13000.00000" pt_clust_8="13000.00000" pt_clust_9="13000.00000"></scales>
<clustering>
<clus scale="   76.521">  5  6 -1 -1</clus>
<clus scale="   42.328">  5  9 -1 -1</clus>
<clus scale="  101.300">  7  8 -1 -1</clus>
<clus scale="  175.886">  2  7  1 -1</clus>
<clus scale="  190.847">  1  5  2 -1</clus>
</clustering>
</event>
<event>
 9    1  0.4516508E-005  0.1778150E+03  0.7546771E-02  0.1197087E+00
         21   -1    0    0  501  502  0.00000000000E+00  0.00000000000E+00  0.61145898680E+02  0.61145898680E+02  0.00000000000E+00 0. -1.
          1   -1    0    0  502    0 -0.00000000000E+00 -0.00000000000E+00 -0.66152580329E+03  0.66152580329E+03  0.00000000000E+00 0. -1.
         23    2    1    2    0    0  0.36320536412E+02  0.40220828068E+01 -0.51748242398E+03  0.52648260846E+03  0.89780395219E+02 0.  0.
        -24    2    1    2    0    0 -0.81316615993E+01 -0.18494872161E+02  0.22385840448E+02  0.86240687466E+02  0.80796943663E+02 0.  0.
         13    1    4    4    0    0  0.13528621887E+02 -0.41568769623E+02  0.30821770667E+02  0.53488015155E+02  0.00000000000E+00 0. -1.
        -14    1    4    4    0    0 -0.21660283487E+02  0.23073897462E+02 -0.84359302191E+01  0.32752672310E+02  0.00000000000E+00 0.  1.
        -13    1    3    3    0    0  0.24942712527E+02 -0.42268420462E+02 -0.27875187106E+03  0.28303950943E+03  0.00000000000E+00 0.  1.
         13    1    3    3    0    0  0.11377823885E+02  0.46290503268E+02 -0.23873055292E+03  0.24344309903E+03  0.00000000000E+00 0. -1.
          2    1    1    2  501    0 -0.28188874812E+02  0.14472789355E+02 -0.10528332108E+03  0.10994840605E+03  0.00000000000E+00 0. -1.
<scales pt_clust_5="13000.00000" pt_clust_6="13000.00000" pt_clust_7="13000.00000" pt_clust_8="13000.00000" pt_clust_9="13000.00000"></scales>
<clustering>
<clus scale="   80.797">  5  6 -1 -1</clus>
<clus scale="   31.687">  5  9 -1 -1</clus>
<clus scale="   89.780">  7  8 -1 -1</clus>
<clus scale="   96.932">  2  7  1 -1</clus>
<clus scale="  177.815">  1  5  2 -1</clus>
</clustering>
</event>
<event>
 9    1  0.4516508E-005  0.1806309E+03  0.7546771E-02  0.1191691E+00
          3   -1    0    0  502    0 -0.00000000000E+00  0.00000000000E+00  0.29575045056E+03  0.29575045056E+03  0.00000000000E+00 0. -1.
         21   -1    0    0  501  502  0.00000000000E+00 -0.00000000000E+00 -0.95434399028E+02  0.95434399028E+02  0.00000000000E+00 0. -1.
         23    2    1    2    0    0 -0.33205208907E+02  0.37648610974E+02  0.18195750546E+03  0.20962342584E+03  0.91178084317E+02 0.  0.
        -24    2    1    2    0    0 -0.19483488398E+02 -0.36713491559E+00 -0.42156556450E+02  0.93084958439E+02  0.80671513732E+02 0.  0.
         13    1    4    4    0    0 -0.16253417427E+02  0.17052578104E+02 -0.62094391512E+02  0.66412931386E+02  0.00000000000E+00 0. -1.
        -14    1    4    4    0    0 -0.32300709711E+01 -0.17419713020E+02  0.19937835062E+02  0.26672027053E+02  0.00000000000E+00 0.  1.
        -11    1    3    3    0    0  0.17791298720E+02 -0.18699565489E+02  0.28977955492E+02  0.38806261919E+02  0.00000000000E+00 0.  1.
         11    1    3    3    0    0 -0.50996507627E+02  0.56348176463E+02  0.15297954997E+03  0.17081716392E+03  0.00000000000E+00 0. -1.
          4    1    1    2  501    0  0.52688697305E+02 -0.37281476059E+02  0.60515102527E+02  0.88476465316E+02  0.00000000000E+00 0. -1.
<scales pt_clust_5="13000.00000" pt_clust_6="13000.00000" pt_clust_7="13000.00000" pt_clust_8="13000.00000" pt_clust_9="13000.00000"></scales>
<clustering>
<clus scale="   80.672">  5  6 -1 -1</clus>
<clus scale="   64.545">  5  9 -1 -1</clus>
<clus scale="   91.178">  7  8 -1 -1</clus>
<clus scale="  104.084">  1  7  2 -1</clus>
<clus scale="  180.631">  2  5  1 -1</clus>
</clustering>
</event>
<event>
 9    1  0.4516508E-005  0.4055846E+03  0.7546771E-02  0.1076929E+00
         21   -1    0    0  501  502  0.00000000000E+00  0.00000000000E+00  0.44860949051E+03  0.44860949051E+03  0.00000000000E+00 0.  1.
         -2   -1    0    0    0  501 -0.00000000000E+00 -0.00000000000E+00 -0.17518853017E+03  0.17518853017E+03  0.00000000000E+00 0.  1.
         23    2    1    2    0    0  0.90314048233E+02  0.79979852161E+02  0.10531081915E+03  0.18475372312E+03  0.92142094167E+02 0.  0.
        -24    2    1    2    0    0  0.14260385943E+03 -0.25217373925E+02  0.78289795368E+02  0.18347165572E+03  0.80998640240E+02 0.  0.
         13    1    4    4    0    0  0.26578936647E+02 -0.39216813304E+02  0.11066218669E+02  0.48650380416E+02  0.00000000000E+00 0. -1.
        -14    1    4    4    0    0  0.11602492278E+03  0.13999439379E+02  0.67223576698E+02  0.13482127530E+03  0.00000000000E+00 0.  1.
        -13    1    3    3    0    0  0.51116400380E+02  0.62301849378E+02  0.11300646875E+02  0.81376356784E+02  0.00000000000E+00 0. -1.
         13    1    3    3    0    0  0.39197647853E+02  0.17678002784E+02  0.94010172277E+02  0.10337736634E+03  0.00000000000E+00 0.  1.
         -1    1    1    2    0  502 -0.23291790766E+03 -0.54762478236E+02  0.89820345821E+02  0.25557264184E+03  0.00000000000E+00 0.  1.
<scales pt_clust_5="13000.00000" pt_clust_6="13000.00000" pt_clust_7="13000.00000" pt_clust_8="13000.00000" pt_clust_9="13000.00000"></scales>
<clustering>
<clus scale="   80.999">  5  6 -1 -1</clus>
<clus scale="   92.142">  7  8 -1 -1</clus>
<clus scale="  151.801">  2  7  1 -1</clus>
<clus scale="  177.761">  5  9 -1 -1</clus>
<clus scale="  405.585">  1  5  2 -1</clus>
</clustering>
</event>
<event>
 9    1  0.4516508E-005  0.3341643E+03  0.7546771E-02  0.1100202E+00
          1   -1    0    0  502    0 -0.00000000000E+00  0.00000000000E+00  0.23666092663E+04  0.23666092663E+04  0.00000000000E+00 0. -1.
         21   -1    0    0  501  502  0.00000000000E+00 -0.00000000000E+00 -0.25897905292E+02  0.25897905292E+02  0.00000000000E+00 0. -1.
         23    2    1    2    0    0 -0.41943740734E+02  0.10608979014E+03  0.47355805412E+03  0.49568687163E+03  0.91836393278E+02 0.  0.
        -24    2    1    2    0    0  0.16821538922E+03 -0.41482773620E+02  0.11532484158E+04  0.11689612550E+04  0.80444201062E+02 0.  0.
         13    1    4    4    0    0  0.93302875024E+02 -0.35838583326E+02  0.41350637056E+03  0.42541432632E+03  0.00000000000E+00 0. -1.
        -14    1    4    4    0    0  0.74912514198E+02 -0.56441902943E+01  0.73974204527E+03  0.74354692872E+03  0.00000000000E+00 0.  1.
        -11    1    3    3    0    0 -0.51435211625E+02  0.29369626944E+02  0.12056682775E+03  0.13432987730E+03  0.00000000000E+00 0.  1.
         11    1    3    3    0    0  0.94914708915E+01  0.76720163199E+02  0.35299122636E+03  0.36135699433E+03  0.00000000000E+00 0. -1.
          2    1    1    2  501    0 -0.12627164849E+03 -0.64607016523E+02  0.71390489109E+03  0.72785904495E+03  0.00000000000E+00 0. -1.
<scales pt_clust_5="13000.00000" pt_clust_6="13000.00000" pt_clust_7="13000.00000" pt_clust_8="13000.00000" pt_clust_9="13000.00000"></scales>
<clustering>
<clus scale="   80.444">  5  6 -1 -1</clus>
<clus scale="   91.836">  7  8 -1 -1</clus>
<clus scale="  141.840">  5  9 -1 -1</clus>
<clus scale="  146.452">  1  7  2 -1</clus>
<clus scale="  334.164">  2  5  1 -1</clus>
</clustering>
</event>
<event>
 9    1  0.4516508E-005  0.2058101E+03  0.7546771E-02  0.1163464E+00
          1   -1    0    0  502    0 -0.00000000000E+00  0.00000000000E+00  0.69460560312E+03  0.69460560312E+03  0.00000000000E+00 0. -1.
         21   -1    0    0  501  502  0.00000000000E+00 -0.00000000000E+00 -0.61882519604E+02  0.61882519604E+02  0.00000000000E+00 0. -1.
         23    2    1    2    0    0 -0.53150562222E+02 -0.72982353603E+02  0.48558309379E+03  0.50349015672E+03  0.97775205143E+02 0.  0.
        -24    2    1    2    0    0 -0.31570888261E+02  0.38745838106E+02  0.12618842970E+03  0.15924920050E+03  0.83299622524E+02 0.  0.
         11    1    4    4    0    0 -0.27938157285E+02 -0.16450401263E+00  0.84120590474E+00  0.27951302678E+02  0.00000000000E+00 0. -1.
        -12    1    4    4    0    0 -0.36327309760E+01  0.38910342119E+02  0.12534722380E+03  0.13129789782E+03  0.00000000000E+00 0.  1.
        -11    1    3    3    0    0 -0.78903876155E+02 -0.60248644917E+02  0.42498954796E+03  0.43643079264E+03  0.00000000000E+00 0. -1.
         11    1    3    3    0    0  0.25753313933E+02 -0.12733708686E+02  0.60593545833E+02  0.67059364089E+02  0.00000000000E+00 0.  1.
          2    1    1    2  501    0  0.84721450483E+02  0.34236515496E+02  0.20951560021E+02  0.93748765499E+02  0.00000000000E+00 0. -1.
<scales pt_clust_5="13000.00000" pt_clust_6="13000.00000" pt_clust_7="13000.00000" pt_clust_8="13000.00000" pt_clust_9="13000.00000"></scales>
<clustering>
<clus scale="   83.300">  5  6 -1 -1</clus>
<clus scale="   91.378">  5  9 -1 -1</clus>
<clus scale="   97.775">  7  8 -1 -1</clus>
<clus scale="  133.084">  1  7  2 -1</clus>
<clus scale="  205.810">  2  5  1 -1</clus>
</clustering>
</event>
<event>
 9    1  0.4516508E-005  0.2423382E+03  0.7546771E-02  0.1145201E+00
          1   -1    0    0  502    0 -0.00000000000E+00  0.00000000000E+00  0.35158362563E+03  0.35158362563E+03  0.00000000000E+00 0. -1.
         21   -1    0    0  501  502  0.00000000000E+00 -0.00000000000E+00 -0.10950075513E+03  0.10950075513E+03  0.00000000000E+00 0. -1.
         23    2    1    2    0    0  0.41656149697E+02  0.75047891779E+02  0.10171556990E+02  0.12565826580E+03  0.91209200869E+02 0.  0.
        -24    2    1    2    0    0  0.27412076846E+02  0.32703427852E+02  0.16986517352E+03  0.19319218692E+03  0.81535929258E+02 0.  0.
         13    1    4    4    0    0  0.27552627680E+02 -0.98049737805E+01  0.13524071614E+03  0.13836667267E+03  0.00000000000E+00 0. -1.
        -14    1    4    4    0    0 -0.14055083400E+00  0.42508401632E+02  0.34624457384E+02  0.54825514252E+02  0.00000000000E+00 0.  1.
        -11    1    3    3    0    0  0.20423923956E+02  0.24764534685E+02 -0.40159749472E+02  0.51412297416E+02  0.00000000000E+00 0. -1.
         11    1    3    3    0    0  0.21232225741E+02  0.50283357094E+02  0.50331306462E+02  0.74245968380E+02  0.00000000000E+00 0.  1.
          2    1    1    2  501    0 -0.69068226543E+02 -0.10775131963E+03  0.62046139987E+02  0.14223392804E+03  0.00000000000E+00 0. -1.
<scales pt_clust_5="13000.00000" pt_clust_6="13000.00000" pt_clust_7="13000.00000" pt_clust_8="13000.00000" pt_clust_9="13000.00000"></scales>
<clustering>
<clus scale="   81.536">  5  6 -1 -1</clus>
<clus scale="   91.209">  7  8 -1 -1</clus>
<clus scale="  125.246">  1  7  2 -1</clus>
<clus scale="   97.163">  5  9 -1 -1</clus>
<clus scale="  242.338">  2  5  1 -1</clus>
</clustering>
</event>
<event>
 9    1  0.4516508E-005  0.2707934E+03  0.7546771E-02  0.1139524E+00
         21   -1    0    0  501  502  0.00000000000E+00  0.00000000000E+00  0.58159781292E+02  0.58159781292E+02  0.00000000000E+00 0.  1.
          1   -1    0    0  502    0 -0.00000000000E+00 -0.00000000000E+00 -0.69729214087E+03  0.69729214087E+03  0.00000000000E+00 0. -1.
         23    2    1    2    0    0 -0.44912222599E+02  0.16346764708E+02 -0.32407043128E+03  0.34000866440E+03  0.91103913111E+02 0.  0.
        -24    2    1    2    0    0 -0.17741758663E+02 -0.40939558719E+01  0.10853583284E+02  0.83333978481E+02  0.80592935325E+02 0.  0.
         13    1    4    4    0    0 -0.14871148103E+02 -0.30253258960E+02  0.34296592066E+02  0.48090195996E+02  0.00000000000E+00 0. -1.
        -14    1    4    4    0    0 -0.28706105602E+01  0.26159303088E+02 -0.23443008782E+02  0.35243782485E+02  0.00000000000E+00 0.  1.
        -13    1    3    3    0    0 -0.64793248060E+02  0.30870880055E+01 -0.29654665148E+03  0.30355825077E+03  0.00000000000E+00 0.  1.
         13    1    3    3    0    0  0.19881025461E+02  0.13259676703E+02 -0.27523779804E+02  0.36450413637E+02  0.00000000000E+00 0. -1.
          2    1    1    2  501    0  0.62653981261E+02 -0.12252808836E+02 -0.32591551158E+03  0.33210927927E+03  0.00000000000E+00 0. -1.
<scales pt_clust_5="13000.00000" pt_clust_6="13000.00000" pt_clust_7="13000.00000" pt_clust_8="13000.00000" pt_clust_9="13000.00000"></scales>
<clustering>
<clus scale="   80.593">  5  6 -1 -1</clus>
<clus scale="   63.841">  5  9 -1 -1</clus>
<clus scale="   91.104">  7  8 -1 -1</clus>
<clus scale="  102.880">  2  7  1 -1</clus>
<clus scale="  270.793">  1  5  2 -1</clus>
</clustering>
</event>
<event>
 9    1  0.4516508E-005  0.1880656E+03  0.7546771E-02  0.1183234E+00
          1   -1    0    0  502    0 -0.00000000000E+00  0.00000000000E+00  0.83907438984E+02  0.83907438984E+02  0.00000000000E+00 0. -1.
         21   -1    0    0  501  502  0.00000000000E+00 -0.00000000000E+00 -0.26716614815E+03  0.26716614815E+03  0.00000000000E+00 0. -1.
         23    2    1    2    0    0  0.19273164212E+02 -0.14690534013E+02 -0.63268475592E+02  0.12798992526E+03  0.10858754218E+03 0.  0.
        -24    2    1    2    0    0  0.32618031924E+02 -0.36683062449E+02 -0.11598147779E+03  0.14995355335E+03  0.81392763157E+02 0.  0.
         13    1    4    4    0    0  0.48672245091E+02 -0.42568780856E+01 -0.98099935559E+02  0.10959336572E+03  0.00000000000E+00 0. -1.
        -14    1    4    4    0    0 -0.16054213166E+02 -0.32426184363E+02 -0.17881542227E+02  0.40360187626E+02  0.00000000000E+00 0.  1.
        -13    1    3    3    0    0  0.22665466068E+02 -0.54805100685E+02 -0.83432869389E+01  0.59891008090E+02  0.00000000000E+00 0. -1.
         13    1    3    3    0    0 -0.33923018555E+01  0.40114566672E+02 -0.54925188653E+02  0.68098917170E+02  0.00000000000E+00 0.  1.
          2    1    1    2  501    0 -0.51891196136E+02  0.51373596462E+02 -0.40087557843E+01  0.73130108525E+02  0.00000000000E+00 0. -1.
<scales pt_clust_5="13000.00000" pt_clust_6="13000.00000" pt_clust_7="13000.00000" pt_clust_8="13000.00000" pt_clust_9="13000.00000"></scales>
<clustering>
<clus scale="   81.393">  5  6 -1 -1</clus>
<clus scale="   73.020">  5  9 -1 -1</clus>
<clus scale="  108.588">  7  8 -1 -1</clus>
<clus scale="  111.259">  1  7  2 -1</clus>
<clus scale="  188.066">  2  5  1 -1</clus>
</clustering>
</event>
<event>
 9    1  0.4516508E-005  0.2984480E+03  0.7546771E-02  0.1130737E+00
         -2   -1    0    0    0  501 -0.00000000000E+00  0.00000000000E+00  0.65409699385E+03  0.65409699385E+03  0.00000000000E+00 0.  1.
         21   -1    0    0  501  502  0.00000000000E+00 -0.00000000000E+00 -0.78196030708E+02  0.78196030708E+02  0.00000000000E+00 0.  1.
         23    2    1    2    0    0  0.52812782872E+01 -0.21626864866E+02  0.33647594412E+03  0.34967629999E+03  0.92530214628E+02 0.  0.
        -24    2    1    2    0    0  0.12324355022E+03  0.58470242538E+02  0.94532634382E+02  0.18546229487E+03  0.82777423984E+02 0.  0.
         11    1    4    4    0    0  0.92042818289E+01  0.21071904421E+02  0.54159161201E+02  0.58838411789E+02  0.00000000000E+00 0. -1.
        -12    1    4    4    0    0  0.11403926840E+03  0.37398338118E+02  0.40373473181E+02  0.12662388308E+03  0.00000000000E+00 0.  1.
        -11    1    3    3    0    0  0.43276086043E+02 -0.34178731005E+02  0.19236846587E+03  0.20011654589E+03  0.00000000000E+00 0.  1.
         11    1    3    3    0    0 -0.37994807756E+02  0.12551866140E+02  0.14410747825E+03  0.14955975410E+03  0.00000000000E+00 0. -1.
         -1    1    1    2    0  502 -0.12852482851E+03 -0.36843377672E+02  0.14489238464E+03  0.19715442970E+03  0.00000000000E+00 0.  1.
<scales pt_clust_5="13000.00000" pt_clust_6="13000.00000" pt_clust_7="13000.00000" pt_clust_8="13000.00000" pt_clust_9="13000.00000"></scales>
<clustering>
<clus scale="   82.777">  5  6 -1 -1</clus>
<clus scale="   92.530">  7  8 -1 -1</clus>
<clus scale="   95.171">  1  7  2 -1</clus>
<clus scale="  134.743">  5  9 -1 -1</clus>
<clus scale="  298.448">  2  5  1 -1</clus>
</clustering>
</event>
<event>
 9    1  0.4516508E-005  0.2333413E+03  0.7546771E-02  0.1136752E+00
          1   -1    0    0  502    0 -0.00000000000E+00  0.00000000000E+00  0.42799939142E+03  0.42799939142E+03  0.00000000000E+00 0. -1.
         21   -1    0    0  501  502  0.00000000000E+00 -0.00000000000E+00 -0.53390956078E+03  0.53390956078E+03  0.00000000000E+00 0. -1.
         23    2    1    2    0    0 -0.14468169563E+03  0.93887100913E+01  0.38318792276E+03  0.42000019276E+03  0.92445858949E+02 0.  0.
        -24    2    1    2    0    0  0.77277837415E+02  0.67345990034E+02 -0.24739475945E+03  0.27951212203E+03  0.80096896505E+02 0.  0.
         11    1    4    4    0    0  0.76437336698E+02  0.59776460908E+02 -0.25239219158E+03  0.27040286628E+03  0.00000000000E+00 0. -1.
        -12    1    4    4    0    0  0.84050071685E+00  0.75695291263E+01  0.49974321243E+01  0.91092557592E+01  0.00000000000E+00 0.  1.
        -13    1    3    3    0    0 -0.49103299261E+02 -0.18027966379E+02  0.24025428844E+03  0.24588262379E+03  0.00000000000E+00 0.  1.
         13    1    3    3    0    0 -0.95578396364E+02  0.27416676470E+02  0.14293363433E+03  0.17411756896E+03  0.00000000000E+00 0. -1.
          2    1    1    2  501    0  0.67403858211E+02 -0.76734700125E+02 -0.24170333267E+03  0.26239663742E+03  0.00000000000E+00 0. -1.
<scales pt_clust_5="13000.00000" pt_clust_6="13000.00000" pt_clust_7="13000.00000" pt_clust_8="13000.00000" pt_clust_9="13000.00000"></scales>
<clustering>
<clus scale="   80.097">  5  6 -1 -1</clus>
<clus scale="   92.446">  7  8 -1 -1</clus>
<clus scale="  102.135">  5  9 -1 -1</clus>
<clus scale="  171.951">  1  7  2 -1</clus>
<clus scale="  233.341">  2  5  1 -1</clus>
</clustering>
</event>
<event>
 9    1  0.4516508E-005  0.4396656E+03  0.7546771E-02  0.1077872E+00
          1   -1    0    0  502    0 -0.00000000000E+00  0.00000000000E+00  0.17758283378E+03  0.17758283378E+03  0.00000000000E+00 0. -1.
         21   -1    0    0  501  502  0.00000000000E+00 -0.00000000000E+00 -0.10305767166E+04  0.10305767166E+04  0.00000000000E+00 0. -1.
         23    2    1    2    0    0 -0.51936315098E+02 -0.40166885761E+02  0.10341808584E+03  0.15552967724E+03  0.95830164806E+02 0.  0.
        -24    2    1    2    0    0  0.13430979216E+03 -0.63747282760E+02 -0.12326229318E+03  0.20899373955E+03  0.79887132390E+02 0.  0.
         11    1    4    4    0    0  0.49880119347E+02 -0.64517506749E+02 -0.41675578358E+02  0.91582688401E+02  0.00000000000E+00 0. -1.
        -12    1    4    4    0    0  0.84429672815E+02  0.77022398916E+00 -0.81586714825E+02  0.11741105115E+03  0.00000000000E+00 0.  1.
        -13    1    3    3    0    0 -0.21078440968E+02 -0.68659203191E+02  0.49699273929E+02  0.87340738980E+02  0.00000000000E+00 0.  1.
         13    1    3    3    0    0 -0.30857874130E+02  0.28492317429E+02  0.53718811911E+02  0.68188938263E+02  0.00000000000E+00 0. -1.
          2    1    1    2  501    0 -0.82373477065E+02  0.10391416852E+03 -0.83314967543E+03  0.84363613354E+03  0.00000000000E+00 0. -1.
<scales pt_clust_5="13000.00000" pt_clust_6="13000.00000" pt_clust_7="13000.00000" pt_clust_8="13000.00000" pt_clust_9="13000.00000"></scales>
<clustering>
<clus scale="   79.887">  5  6 -1 -1</clus>
<clus scale="   95.830">  7  8 -1 -1</clus>
<clus scale="  116.164">  1  7  2 -1</clus>
<clus scale="  132.881">  5  9 -1 -1</clus>
<clus scale="  439.666">  2  5  1 -1</clus>
</clustering>
</event>
<event>
 9    1  0.4516508E-005  0.2071431E+03  0.7546771E-02  0.1161349E+00
          3   -1    0    0  502    0 -0.00000000000E+00  0.00000000000E+00  0.51731456217E+02  0.51731456217E+02  0.00000000000E+00 0. -1.
         21   -1    0    0  501  502  0.00000000000E+00 -0.00000000000E+00 -0.58441608542E+03  0.58441608542E+03  0.00000000000E+00 0. -1.
         23    2    1    2    0    0  0.59879148525E+02  0.47744173062E+02 -0.16903199454E+03  0.21763648336E+03  0.11370490412E+03 0.  0.
        -24    2    1    2    0    0 -0.56433225316E+02  0.39826456612E+02 -0.95896825630E+02  0.13677773963E+03  0.68855597636E+02 0.  0.
         11    1    4    4    0    0 -0.27672850563E+02  0.15913214879E+02 -0.94060191436E+02  0.99329435109E+02  0.00000000000E+00 0. -1.
        -12    1    4    4    0    0 -0.28760374754E+02  0.23913241732E+02 -0.18366341938E+01  0.37448304518E+02  0.00000000000E+00 0.  1.
        -13    1    3    3    0    0 -0.15620532423E+02 -0.21636858514E+02 -0.70701647993E+02  0.75570349400E+02  0.00000000000E+00 0.  1.
         13    1    3    3    0    0  0.75499680948E+02  0.69381031576E+02 -0.98330346549E+02  0.14206613396E+03  0.00000000000E+00 0. -1.
          4    1    1    2  501    0 -0.34459232083E+01 -0.87570629673E+02 -0.26775580903E+03  0.28173331865E+03  0.00000000000E+00 0. -1.
<scales pt_clust_5="13000.00000" pt_clust_6="13000.00000" pt_clust_7="13000.00000" pt_clust_8="13000.00000" pt_clust_9="13000.00000"></scales>
<clustering>
<clus scale="   68.856">  5  6 -1 -1</clus>
<clus scale="   87.638">  5  9 -1 -1</clus>
<clus scale="  113.705">  7  8 -1 -1</clus>
<clus scale="  137.091">  1  7  2 -1</clus>
<clus scale="  207.143">  2  5  1 -1</clus>
</clustering>
</event>
<event>
 9    1  0.4516508E-005  0.1399063E+03  0.7546771E-02  0.1234373E+00
         21   -1    0    0  501  502  0.00000000000E+00  0.00000000000E+00  0.15865337047E+03  0.15865337047E+03  0.00000000000E+00 0.  1.
          3   -1    0    0  502    0 -0.00000000000E+00 -0.00000000000E+00 -0.10079024842E+03  0.10079024842E+03  0.00000000000E+00 0. -1.
         23    2    1    2    0    0  0.90771481193E+01  0.16890105691E+02 -0.28756090805E+02  0.94893766051E+02  0.88375583668E+02 0.  0.
        -24    2    1    2    0    0  0.31529837505E+02 -0.34198266683E+02  0.41284681465E+02  0.10127490160E+03  0.79928272055E+02 0.  0.
         13    1    4    4    0    0  0.57260510879E+02 -0.30551729820E+02  0.20700330746E+02  0.68122521930E+02  0.00000000000E+00 0. -1.
        -14    1    4    4    0    0 -0.25730673374E+02 -0.36465368624E+01  0.20584350719E+02  0.33152379672E+02  0.00000000000E+00 0.  1.
        -13    1    3    3    0    0  0.15912197832E+02  0.48770884700E+02 -0.34450366033E+02  0.61795023700E+02  0.00000000000E+00 0. -1.
         13    1    3    3    0    0 -0.68350497129E+01 -0.31880779009E+02  0.56942752287E+01  0.33098742351E+02  0.00000000000E+00 0.  1.
          4    1    1    2  501    0 -0.40606985624E+02  0.17308160992E+02  0.45334531383E+02  0.63274951238E+02  0.00000000000E+00 0. -1.
<scales pt_clust_5="13000.00000" pt_clust_6="13000.00000" pt_clust_7="13000.00000" pt_clust_8="13000.00000" pt_clust_9="13000.00000"></scales>
<clustering>
<clus scale="   79.928">  5  6 -1 -1</clus>
<clus scale="   44.142">  5  9 -1 -1</clus>
<clus scale="   88.376">  7  8 -1 -1</clus>
<clus scale="   90.432">  2  7  1 -1</clus>
<clus scale="  139.906">  1  5  2 -1</clus>
</clustering>
</event>
<event>
 9    1  0.4516508E-005  0.2612489E+03  0.7546771E-02  0.1139795E+00
          1   -1    0    0  502    0 -0.00000000000E+00  0.00000000000E+00  0.78081417933E+03  0.78081417933E+03  0.00000000000E+00 0. -1.
         21   -1    0    0  501  502  0.00000000000E+00 -0.00000000000E+00 -0.49008229898E+02  0.49008229898E+02  0.00000000000E+00 0. -1.
         23    2    1    2    0    0 -0.58745118273E+02  0.37327631626E+02  0.34304000444E+03  0.36143157526E+03  0.90066630602E+02 0.  0.
        -24    2    1    2    0    0 -0.71675393198E+02 -0.12167581194E+02  0.26259910814E+03  0.28519528634E+03  0.84217858727E+02 0.  0.
         11    1    4    4    0    0 -0.90627377554E+02 -0.79858251015E+01  0.20147374150E+03  0.22106280438E+03  0.00000000000E+00 0. -1.
        -12    1    4    4    0    0  0.18951984356E+02 -0.41817560928E+01  0.61125366641E+02  0.64132481958E+02  0.00000000000E+00 0.  1.
        -11    1    3    3    0    0 -0.66853878037E+02 -0.51732050468E+01  0.24977539665E+03  0.25861931836E+03  0.00000000000E+00 0.  1.
         11    1    3    3    0    0  0.81087597639E+01  0.42500836673E+02  0.93264607789E+02  0.10281225690E+03  0.00000000000E+00 0. -1.
          2    1    1    2  501    0  0.13042051147E+03 -0.25160050432E+02  0.12616683685E+03  0.18319554763E+03  0.00000000000E+00 0. -1.
<scales pt_clust_5="13000.00000" pt_clust_6="13000.00000" pt_clust_7="13000.00000" pt_clust_8="13000.00000" pt_clust_9="13000.00000"></scales>
<clustering>
<clus scale="   84.218">  5  6 -1 -1</clus>
<clus scale="   90.067">  7  8 -1 -1</clus>
<clus scale="  113.826">  1  7  2 -1</clus>
<clus scale="  109.842">  5  9 -1 -1</clus>
<clus scale="  261.249">  2  5  1 -1</clus>
</clustering>
</event>
<event>
 9    1  0.4516508E-005  0.4468374E+03  0.7546771E-02  0.1083966E+00
          1   -1    0    0  502    0 -0.00000000000E+00  0.00000000000E+00  0.13331057171E+03  0.13331057171E+03  0.00000000000E+00 0. -1.
         21   -1    0    0  501  502  0.00000000000E+00 -0.00000000000E+00 -0.59324903813E+03  0.59324903813E+03  0.00000000000E+00 0. -1.
         23    2    1    2    0    0 -0.12166829149E+02  0.26285438278E+02 -0.13465924586E+02  0.94894012578E+02  0.89356513480E+02 0.  0.
        -24    2    1    2    0    0  0.18799205050E+02  0.17429601091E+03 -0.65323981922E+02  0.20090913371E+03  0.73244439118E+02 0.  0.
         13    1    4    4    0    0  0.42600548355E+02  0.99081342694E+02 -0.55842007310E+02  0.12145060301E+03  0.00000000000E+00 0. -1.
        -14    1    4    4    0    0 -0.23801343305E+02  0.75214668221E+02 -0.94819746117E+01  0.79458530701E+02  0.00000000000E+00 0.  1.
        -11    1    3    3    0    0 -0.32522393620E+02  0.10416910123E+02  0.29264462567E+02  0.44973624188E+02  0.00000000000E+00 0. -1.
         11    1    3    3    0    0  0.20355564472E+02  0.15868528156E+02 -0.42730387153E+02  0.49920388390E+02  0.00000000000E+00 0.  1.
          2    1    1    2  501    0 -0.66323759014E+01 -0.20058144919E+03 -0.38114855991E+03  0.43075646355E+03  0.00000000000E+00 0. -1.
<scales pt_clust_5="13000.00000" pt_clust_6="13000.00000" pt_clust_7="13000.00000" pt_clust_8="13000.00000" pt_clust_9="13000.00000"></scales>
<clustering>
<clus scale="   73.244">  5  6 -1 -1</clus>
<clus scale="   89.357">  7  8 -1 -1</clus>
<clus scale="   93.934">  1  7  2 -1</clus>
<clus scale="  193.793">  5  9 -1 -1</clus>
<clus scale="  446.837">  2  5  1 -1</clus>
</clustering>
</event>
<event>
 9    1  0.4516508E-005  0.2995184E+03  0.7546771E-02  0.1132208E+00
          1   -1    0    0  502    0 -0.00000000000E+00  0.00000000000E+00  0.24266828292E+03  0.24266828292E+03  0.00000000000E+00 0. -1.
         21   -1    0    0  501  502  0.00000000000E+00 -0.00000000000E+00 -0.17202917951E+03  0.17202917951E+03  0.00000000000E+00 0.  1.
         23    2    1    2    0    0 -0.19539678529E+02 -0.16156477796E+02  0.70836310856E+02  0.11517903997E+03  0.87210076825E+02 0.  0.
        -24    2    1    2    0    0 -0.14441441876E+02 -0.12656604933E+03 -0.18955919972E+02  0.15161194664E+03  0.79995845999E+02 0.  0.
         13    1    4    4    0    0  0.32031798642E+02 -0.53600373928E+02 -0.18416848610E+02  0.65101586172E+02  0.00000000000E+00 0. -1.
        -14    1    4    4    0    0 -0.46473240518E+02 -0.72965675400E+02 -0.53907136231E+00  0.86510360471E+02  0.00000000000E+00 0.  1.
        -11    1    3    3    0    0  0.43044397895E+01  0.31889731841E+02  0.91918405240E+01  0.33465999627E+02  0.00000000000E+00 0.  1.
         11    1    3    3    0    0 -0.23844118318E+02 -0.48046209637E+02  0.61644470332E+02  0.81713040339E+02  0.00000000000E+00 0. -1.
          2    1    1    2  501    0  0.33981120404E+02  0.14272252712E+03  0.18758712524E+02  0.14790647582E+03  0.00000000000E+00 0. -1.
<scales pt_clust_5="13000.00000" pt_clust_6="13000.00000" pt_clust_7="13000.00000" pt_clust_8="13000.00000" pt_clust_9="13000.00000"></scales>
<clustering>
<clus scale="   79.996">  5  6 -1 -1</clus>
<clus scale="   87.210">  7  8 -1 -1</clus>
<clus scale="   90.821">  1  7  2 -1</clus>
<clus scale="  135.707">  5  9 -1 -1</clus>
<clus scale="  299.518">  2  5  1 -1</clus>
</clustering>
</event>
<event>
 9    1  0.4516508E-005  0.3107180E+03  0.7546771E-02  0.1097613E+00
         21   -1    0    0  501  502  0.00000000000E+00  0.00000000000E+00  0.27784298981E+02  0.27784298981E+02  0.00000000000E+00 0. -1.
         -4   -1    0    0    0  501 -0.00000000000E+00 -0.00000000000E+00 -0.23068617078E+04  0.23068617078E+04  0.00000000000E+00 0.  1.
         23    2    1    2    0    0 -0.16039902860E+03 -0.62556420512E+02 -0.81678684208E+03  0.83970808441E+03  0.91256602439E+02 0.  0.
        -24    2    1    2    0    0 -0.35027798903E+02  0.89643708200E+01 -0.22629575989E+03  0.24244164882E+03  0.79125694323E+02 0.  0.
         13    1    4    4    0    0 -0.35078632215E+02  0.36356509435E+02 -0.19207513580E+03  0.19860806633E+03  0.00000000000E+00 0. -1.
        -14    1    4    4    0    0  0.50833311319E-01 -0.27392138615E+02 -0.34220624084E+02  0.43833582498E+02  0.00000000000E+00 0.  1.
        -13    1    3    3    0    0 -0.14905150893E+03 -0.22762928156E+02 -0.57690557001E+03  0.59628394236E+03  0.00000000000E+00 0. -1.
         13    1    3    3    0    0 -0.11347519677E+02 -0.39793492357E+02 -0.23988127208E+03  0.24342414205E+03  0.00000000000E+00 0.  1.
         -3    1    1    2    0  502  0.19542682751E+03  0.53592049692E+02 -0.12359948068E+04  0.12524962735E+04  0.00000000000E+00 0.  1.
<scales pt_clust_5="13000.00000" pt_clust_6="13000.00000" pt_clust_7="13000.00000" pt_clust_8="13000.00000" pt_clust_9="13000.00000"></scales>
<clustering>
<clus scale="   79.126">  5  6 -1 -1</clus>
<clus scale="   91.257">  7  8 -1 -1</clus>
<clus scale="  194.856">  2  7  1 -1</clus>
<clus scale="   60.459">  5  9 -1 -1</clus>
<clus scale="  310.718">  1  5  2 -1</clus>
</clustering>
</event>
<event>
 9    1  0.4516508E-005  0.5581225E+03  0.7546771E-02  0.1026556E+00
         21   -1    0    0  501  502  0.00000000000E+00  0.00000000000E+00  0.15213132249E+03  0.15213132249E+03  0.00000000000E+00 0. -1.
          1   -1    0    0  502    0 -0.00000000000E+00 -0.00000000000E+00 -0.11671804098E+04  0.11671804098E+04  0.00000000000E+00 0. -1.
         23    2    1    2    0    0 -0.22564792290E+03  0.87921354092E+01 -0.51489978672E+03  0.56987855707E+03  0.92981141584E+02 0.  0.
        -24    2    1    2    0    0 -0.57765951802E+00  0.12170636708E+03 -0.46336999471E+03  0.48568975704E+03  0.79812371334E+02 0.  0.
         11    1    4    4    0    0 -0.33431685650E+02  0.72690340113E+02 -0.19247160076E+03  0.20843915240E+03  0.00000000000E+00 0. -1.
        -12    1    4    4    0    0  0.32854026132E+02  0.49016026967E+02 -0.27089839395E+03  0.27725060465E+03  0.00000000000E+00 0.  1.
        -13    1    3    3    0    0 -0.68935483514E+02  0.88400537182E+01 -0.72000335571E+02  0.10007145327E+03  0.00000000000E+00 0.  1.
         13    1    3    3    0    0 -0.15671243939E+03 -0.47918309039E-01 -0.44289945115E+03  0.46980710380E+03  0.00000000000E+00 0. -1.
          2    1    1    2  501    0  0.22622558242E+03 -0.13049850249E+03 -0.36779305882E+02  0.26374341818E+03  0.00000000000E+00 0. -1.
<scales pt_clust_5="13000.00000" pt_clust_6="13000.00000" pt_clust_7="13000.00000" pt_clust_8="13000.00000" pt_clust_9="13000.00000"></scales>
<clustering>
<clus scale="   79.812">  5  6 -1 -1</clus>
<clus scale="   92.981">  7  8 -1 -1</clus>
<clus scale="  244.213">  2  7  1 -1</clus>
<clus scale="  214.597">  5  9 -1 -1</clus>
<clus scale="  558.123">  1  5  2 -1</clus>
</clustering>
</event>
<event>
 9    1  0.4516508E-005  0.2559061E+03  0.7546771E-02  0.1136142E+00
         21   -1    0    0  501  502  0.00000000000E+00  0.00000000000E+00  0.36547875275E+03  0.36547875275E+03  0.00000000000E+00 0. -1.
          1   -1    0    0  502    0 -0.00000000000E+00 -0.00000000000E+00 -0.18691816311E+03  0.18691816311E+03  0.00000000000E+00 0. -1.
         23    2    1    2    0    0 -0.95185030328E+02  0.30496355611E+02 -0.10611836034E+03  0.16960451530E+03  0.86685451515E+02 0.  0.
        -24    2    1    2    0    0 -0.48967847245E+02 -0.52999709101E+02  0.11404652501E+03  0.15828877591E+03  0.82715823655E+02 0.  0.
         11    1    4    4    0    0 -0.39935300431E+02 -0.46929601164E+02  0.12712617206E+03  0.14127377431E+03  0.00000000000E+00 0. -1.
        -12    1    4    4    0    0 -0.90325468145E+01 -0.60701079368E+01 -0.13079647050E+02  0.17015001595E+02  0.00000000000E+00 0.  1.
        -11    1    3    3    0    0 -0.51123709526E+02  0.52264275535E+02 -0.93822192015E+02  0.11894449078E+03  0.00000000000E+00 0. -1.
         11    1    3    3    0    0 -0.44061320801E+02 -0.21767919925E+02 -0.12296168328E+02  0.50660024518E+02  0.00000000000E+00 0.  1.
          2    1    1    2  501    0  0.14415287757E+03  0.22503353490E+02  0.17063242497E+03  0.22450362465E+03  0.00000000000E+00 0. -1.
<scales pt_clust_5="13000.00000" pt_clust_6="13000.00000" pt_clust_7="13000.00000" pt_clust_8="13000.00000" pt_clust_9="13000.00000"></scales>
<clustering>
<clus scale="   82.716">  5  6 -1 -1</clus>
<clus scale="   86.685">  7  8 -1 -1</clus>
<clus scale="  132.305">  2  7  1 -1</clus>
<clus scale="   99.921">  5  9 -1 -1</clus>
<clus scale="  255.906">  1  5  2 -1</clus>
</clustering>
</event>
<event>
 9    1  0.4516508E-005  0.5694977E+03  0.7546771E-02  0.1051675E+00
         -4   -1    0    0    0  501 -0.00000000000E+00  0.00000000000E+00  0.49323196934E+03  0.49323196934E+03  0.00000000000E+00 0.  1.
         21   -1    0    0  501  502  0.00000000000E+00 -0.00000000000E+00 -0.25156801534E+03  0.25156801534E+03  0.00000000000E+00 0.  1.
         23    2    1    2    0    0 -0.15997922293E+02 -0.60333246765E+02  0.11866837076E+03  0.16217184871E+03  0.91222212827E+02 0.  0.
        -24    2    1    2    0    0  0.10583818854E+03  0.27724575913E+03 -0.20113402653E+02  0.30766906029E+03  0.78668726848E+02 0.  0.
         11    1    4    4    0    0  0.18928297512E+02  0.23568980454E+02  0.20408521812E+02  0.36473072929E+02  0.00000000000E+00 0. -1.
        -12    1    4    4    0    0  0.86909891030E+02  0.25367677867E+03 -0.40521924465E+02  0.27119598736E+03  0.00000000000E+00 0.  1.
        -13    1    3    3    0    0 -0.41138448809E+02 -0.50210765665E+01  0.19338860596E+02  0.45733737103E+02  0.00000000000E+00 0.  1.
         13    1    3    3    0    0  0.25140526516E+02 -0.55312170198E+02  0.99329510166E+02  0.11643811161E+03  0.00000000000E+00 0. -1.
         -3    1    1    2    0  502 -0.89840266249E+02 -0.21691251236E+03  0.14310898589E+03  0.27495907569E+03  0.00000000000E+00 0.  1.
<scales pt_clust_5="13000.00000" pt_clust_6="13000.00000" pt_clust_7="13000.00000" pt_clust_8="13000.00000" pt_clust_9="13000.00000"></scales>
<clustering>
<clus scale="   78.669">  5  6 -1 -1</clus>
<clus scale="   91.222">  7  8 -1 -1</clus>
<clus scale="  110.533">  1  7  2 -1</clus>
<clus scale="  271.479">  5  9 -1 -1</clus>
<clus scale="  569.498">  2  5  1 -1</clus>
</clustering>
</event>
<event>
 9    1  0.4516508E-005  0.2105646E+03  0.7546771E-02  0.1149526E+00
          1   -1    0    0  502    0 -0.00000000000E+00  0.00000000000E+00  0.16591623760E+04  0.16591623760E+04  0.00000000000E+00 0. -1.
         21   -1    0    0  501  502  0.00000000000E+00 -0.00000000000E+00 -0.22106395476E+02  0.22106395476E+02  0.00000000000E+00 0. -1.
         23    2    1    2    0    0  0.12603786434E+03  0.74523937442E+02  0.76492806299E+03  0.78408173859E+03  0.90718635006E+02 0.  0.
        -24    2    1    2    0    0 -0.39421146733E+02 -0.75110278694E+01  0.30188729974E+03  0.31652573058E+03  0.86267920021E+02 0.  0.
         13    1    4    4    0    0 -0.44665616596E+02 -0.98892910719E+01  0.64542023197E+02  0.79110607014E+02  0.00000000000E+00 0. -1.
        -14    1    4    4    0    0  0.52444698628E+01  0.23782632025E+01  0.23734527654E+03  0.23741512356E+03  0.00000000000E+00 0.  1.
        -13    1    3    3    0    0  0.12442539325E+02 -0.16752954090E+02  0.45693936237E+02  0.50233594978E+02  0.00000000000E+00 0.  1.
         13    1    3    3    0    0  0.11359532501E+03  0.91276891532E+02  0.71923412675E+03  0.73384814361E+03  0.00000000000E+00 0. -1.
          2    1    1    2  501    0 -0.86616717606E+02 -0.67012909573E+02  0.57024061781E+03  0.58066130233E+03  0.00000000000E+00 0. -1.
<scales pt_clust_5="13000.00000" pt_clust_6="13000.00000" pt_clust_7="13000.00000" pt_clust_8="13000.00000" pt_clust_9="13000.00000"></scales>
<clustering>
<clus scale="   86.268">  5  6 -1 -1</clus>
<clus scale="   90.719">  7  8 -1 -1</clus>
<clus scale="  109.513">  5  9 -1 -1</clus>
<clus scale="  172.248">  1  7  2 -1</clus>
<clus scale="  210.565">  2  5  1 -1</clus>
</clustering>
</event>
<event>
 9    1  0.4516508E-005  0.3652396E+03  0.7546771E-02  0.1099749E+00
         21   -1    0    0  501  502  0.00000000000E+00  0.00000000000E+00  0.19951056594E+03  0.19951056594E+03  0.00000000000E+00 0.  1.
          1   -1    0    0  502    0 -0.00000000000E+00 -0.00000000000E+00 -0.29234790535E+03  0.29234790535E+03  0.00000000000E+00 0. -1.
         23    2    1    2    0    0  0.11306037625E+02 -0.66404094301E+02 -0.50347631980E+02  0.12415573194E+03  0.91336912044E+02 0.  0.
        -24    2    1    2    0    0  0.10474803048E+03 -0.97397134584E+02 -0.17318114409E+02  0.16538368833E+03  0.81200342137E+02 0.  0.
         13    1    4    4    0    0 -0.47162831314E+01 -0.31145691844E+02 -0.20161287703E+02  0.37400200118E+02  0.00000000000E+00 0. -1.
        -14    1    4    4    0    0  0.10946431361E+03 -0.66251442740E+02  0.28431732938E+01  0.12798348821E+03  0.00000000000E+00 0.  1.
        -13    1    3    3    0    0 -0.31547712150E+02  0.29633032509E+01 -0.17954284368E+02  0.36419714925E+02  0.00000000000E+00 0. -1.
         13    1    3    3    0    0  0.42853749774E+02 -0.69367397552E+02 -0.32393347612E+02  0.87736017019E+02  0.00000000000E+00 0.  1.
          2    1    1    2  501    0 -0.11605406811E+03  0.16380122889E+03 -0.25171593026E+02  0.20231905102E+03  0.00000000000E+00 0. -1.
<scales pt_clust_5="13000.00000" pt_clust_6="13000.00000" pt_clust_7="13000.00000" pt_clust_8="13000.00000" pt_clust_9="13000.00000"></scales>
<clustering>
<clus scale="   81.200">  5  6 -1 -1</clus>
<clus scale="   91.337">  7  8 -1 -1</clus>
<clus scale="  113.489">  2  7  1 -1</clus>
<clus scale="  167.854">  5  9 -1 -1</clus>
<clus scale="  365.240">  1  5  2 -1</clus>
</clustering>
</event>
<event>
 9    1  0.4516508E-005  0.3049029E+03  0.7546771E-02  0.1127675E+00
          1   -1    0    0  502    0 -0.00000000000E+00  0.00000000000E+00  0.80949286710E+03  0.80949286710E+03  0.00000000000E+00 0. -1.
         21   -1    0    0  501  502  0.00000000000E+00 -0.00000000000E+00 -0.50283726853E+02  0.50283726853E+02  0.00000000000E+00 0. -1.
         23    2    1    2    0    0 -0.17317671159E+02 -0.22894708975E+02  0.22426978212E+03  0.24404460996E+03  0.91851875577E+02 0.  0.
        -24    2    1    2    0    0 -0.46108734979E+02  0.84319667671E+02  0.51124041147E+03  0.52431221250E+03  0.65579844954E+02 0.  0.
         11    1    4    4    0    0 -0.40635935631E+02  0.85865321434E+02  0.34121627696E+03  0.35419299873E+03  0.00000000000E+00 0. -1.
        -12    1    4    4    0    0 -0.54727993478E+01 -0.15456537621E+01  0.17002413451E+03  0.17011921377E+03  0.00000000000E+00 0.  1.
        -13    1    3    3    0    0  0.93265940670E+01 -0.46975460991E+02  0.18380062846E+03  0.18993775379E+03  0.00000000000E+00 0.  1.
         13    1    3    3    0    0 -0.26644265226E+02  0.24080752016E+02  0.40469153658E+02  0.54106856173E+02  0.00000000000E+00 0. -1.
          2    1    1    2  501    0  0.63426406138E+02 -0.61424958696E+02  0.23698946665E+02  0.91419771491E+02  0.00000000000E+00 0. -1.
<scales pt_clust_5="13000.00000" pt_clust_6="13000.00000" pt_clust_7="13000.00000" pt_clust_8="13000.00000" pt_clust_9="13000.00000"></scales>
<clustering>
<clus scale="   65.580">  5  6 -1 -1</clus>
<clus scale="   88.295">  5  9 -1 -1</clus>
<clus scale="   91.852">  7  8 -1 -1</clus>
<clus scale="   96.233">  1  7  2 -1</clus>
<clus scale="  304.903">  2  5  1 -1</clus>
</clustering>
</event>
<event>
 9    1  0.4516508E-005  0.1990378E+03  0.7546771E-02  0.1183449E+00
          1   -1    0    0  502    0 -0.00000000000E+00  0.00000000000E+00  0.69543282816E+03  0.69543282816E+03  0.00000000000E+00 0. -1.
         21   -1    0    0  501  502  0.00000000000E+00 -0.00000000000E+00 -0.31693650215E+02  0.31693650215E+02  0.00000000000E+00 0.  1.
         23    2    1    2    0    0  0.89504402174E+01  0.20691530938E+02  0.27438375824E+03  0.28984659973E+03  0.90644110434E+02 0.  0.
        -24    2    1    2    0    0  0.14013384422E+02 -0.79284897776E+02  0.14966966418E+03  0.18946990855E+03  0.83757793129E+02 0.  0.
         11    1    4    4    0    0  0.27114323400E+02 -0.11643735711E+02  0.59694337948E+01  0.30106432112E+02  0.00000000000E+00 0. -1.
        -12    1    4    4    0    0 -0.13100938978E+02 -0.67641162066E+02  0.14370023039E+03  0.15936347644E+03  0.00000000000E+00 0.  1.
        -13    1    3    3    0    0  0.39743583457E+02  0.39369768122E+02  0.19084197586E+03  0.19887229776E+03  0.00000000000E+00 0.  1.
         13    1    3    3    0    0 -0.30793143239E+02 -0.18678237184E+02  0.83541782379E+02  0.90974301964E+02  0.00000000000E+00 0. -1.
          2    1    1    2  501    0 -0.22963824639E+02  0.58593366838E+02  0.23968575553E+03  0.24780997010E+03  0.00000000000E+00 0. -1.
<scales pt_clust_5="13000.00000" pt_clust_6="13000.00000" pt_clust_7="13000.00000" pt_clust_8="13000.00000" pt_clust_9="13000.00000"></scales>
<clustering>
<clus scale="   83.758">  5  6 -1 -1</clus>
<clus scale="   62.933">  5  9 -1 -1</clus>
<clus scale="   90.644">  7  8 -1 -1</clus>
<clus scale="   93.406">  1  7  2 -1</clus>
<clus scale="  199.038">  2  5  1 -1</clus>
</clustering>
</event>
<event>
 9    1  0.4516508E-005  0.2786387E+03  0.7546771E-02  0.1124148E+00
         -2   -1    0    0    0  501 -0.00000000000E+00  0.00000000000E+00  0.13285794303E+03  0.13285794303E+03  0.00000000000E+00 0.  1.
         21   -1    0    0  501  502  0.00000000000E+00 -0.00000000000E+00 -0.32998116738E+03  0.32998116738E+03  0.00000000000E+00 0.  1.
         23    2    1    2    0    0  0.45355571259E+02  0.91214920692E+02 -0.41625400400E+02  0.14374804026E+03  0.92485325970E+02 0.  0.
        -24    2    1    2    0    0 -0.13542069577E+03 -0.24902761276E+02 -0.56013687373E+02  0.16940432201E+03  0.81248869406E+02 0.  0.
         13    1    4    4    0    0 -0.80692912910E+01  0.19889205753E+02 -0.20799243931E+02  0.29888166814E+02  0.00000000000E+00 0. -1.
        -14    1    4    4    0    0 -0.12735140448E+03 -0.44791967029E+02 -0.35214443442E+02  0.13951615519E+03  0.00000000000E+00 0.  1.
        -13    1    3    3    0    0  0.16069487776E+02  0.52426469879E+02 -0.68867594876E+02  0.88031294466E+02  0.00000000000E+00 0.  1.
         13    1    3    3    0    0  0.29286083483E+02  0.38788450813E+02  0.27242194476E+02  0.55716745796E+02  0.00000000000E+00 0. -1.
         -1    1    1    2    0  502  0.90065124511E+02 -0.66312159416E+02 -0.99484136573E+02  0.14968674814E+03  0.00000000000E+00 0.  1.
<scales pt_clust_5="13000.00000" pt_clust_6="13000.00000" pt_clust_7="13000.00000" pt_clust_8="13000.00000" pt_clust_9="13000.00000"></scales>
<clustering>
<clus scale="   81.249">  5  6 -1 -1</clus>
<clus scale="   92.485">  7  8 -1 -1</clus>
<clus scale="  111.844">  5  9 -1 -1</clus>
<clus scale="  137.589">  1  7  2 -1</clus>
<clus scale="  278.639">  2  5  1 -1</clus>
</clustering>
</event>
<event>
 9    1  0.4516508E-005  0.1558313E+03  0.7546771E-02  0.1216464E+00
          1   -1    0    0  502    0 -0.00000000000E+00  0.00000000000E+00  0.41120072152E+03  0.41120072152E+03  0.00000000000E+00 0. -1.
         21   -1    0    0  501  502  0.00000000000E+00 -0.00000000000E+00 -0.12812808311E+03  0.12812808311E+03  0.00000000000E+00 0. -1.
         23    2    1    2    0    0  0.28097093596E+02  0.57073620759E+01  0.35514983797E+03  0.36763569382E+03  0.90568070064E+02 0.  0.
        -24    2    1    2    0    0 -0.15663152552E+02 -0.54376460404E+02 -0.23687510894E+02  0.10194466287E+03  0.81421633000E+02 0.  0.
         13    1    4    4    0    0 -0.23995709017E+02 -0.72976443564E+02 -0.26729618495E+02  0.81337739527E+02  0.00000000000E+00 0. -1.
        -14    1    4    4    0    0  0.83325564652E+01  0.18599983160E+02  0.30421076013E+01  0.20606923338E+02  0.00000000000E+00 0.  1.
        -13    1    3    3    0    0  0.42394385040E+02  0.33337295294E+02  0.29528702999E+03  0.30017176619E+03  0.00000000000E+00 0. -1.
         13    1    3    3    0    0 -0.14297291444E+02 -0.27629933218E+02  0.59862807979E+02  0.67463927631E+02  0.00000000000E+00 0.  1.
          2    1    1    2  501    0 -0.12433941043E+02  0.48669098328E+02 -0.48389688663E+02  0.69748447946E+02  0.00000000000E+00 0. -1.
<scales pt_clust_5="13000.00000" pt_clust_6="13000.00000" pt_clust_7="13000.00000" pt_clust_8="13000.00000" pt_clust_9="13000.00000"></scales>
<clustering>
<clus scale="   81.422">  5  6 -1 -1</clus>
<clus scale="   50.232">  5  9 -1 -1</clus>
<clus scale="   90.568">  7  8 -1 -1</clus>
<clus scale="   94.998">  1  7  2 -1</clus>
<clus scale="  155.831">  2  5  1 -1</clus>
</clustering>
</event>
<event>
 9    1  0.4516508E-005  0.3602174E+03  0.7546771E-02  0.1084256E+00
         21   -1    0    0  501  502  0.00000000000E+00  0.00000000000E+00  0.44779487377E+03  0.44779487377E+03  0.00000000000E+00 0.  1.
         -2   -1    0    0    0  501 -0.00000000000E+00 -0.00000000000E+00 -0.26197662657E+03  0.26197662657E+03  0.00000000000E+00 0.  1.
         23    2    1    2    0    0 -0.30596687718E+02  0.15026664468E+03 -0.13818742221E+03  0.22527564786E+03  0.90206053354E+02 0.  0.
        -24    2    1    2    0    0 -0.16961163109E+01  0.46158420838E+02 -0.12996879593E+02  0.93092799868E+02  0.79773892241E+02 0.  0.
         13    1    4    4    0    0  0.29037034525E+02  0.24743613248E+01  0.15013099245E+02  0.32782083322E+02  0.00000000000E+00 0. -1.
        -14    1    4    4    0    0 -0.30733150836E+02  0.43684059513E+02 -0.28009978838E+02  0.60310716547E+02  0.00000000000E+00 0.  1.
        -11    1    3    3    0    0  0.17607040270E+02  0.72934358569E+02 -0.10336032880E+03  0.12772151775E+03  0.00000000000E+00 0.  1.
         11    1    3    3    0    0 -0.48203727988E+02  0.77332286107E+02 -0.34827093407E+02  0.97554130111E+02  0.00000000000E+00 0. -1.
         -1    1    1    2    0  502  0.32292804029E+02 -0.19642506551E+03  0.33700254900E+03  0.39140305260E+03  0.00000000000E+00 0.  1.
<scales pt_clust_5="13000.00000" pt_clust_6="13000.00000" pt_clust_7="13000.00000" pt_clust_8="13000.00000" pt_clust_9="13000.00000"></scales>
<clustering>
<clus scale="   79.774">  5  6 -1 -1</clus>
<clus scale="   90.206">  7  8 -1 -1</clus>
<clus scale="  177.914">  2  7  1 -1</clus>
<clus scale="  147.132">  5  9 -1 -1</clus>
<clus scale="  360.217">  1  5  2 -1</clus>
</clustering>
</event>
<event>
 9    1  0.4516508E-005  0.2895385E+03  0.7546771E-02  0.1109425E+00
         21   -1    0    0  501  502  0.00000000000E+00  0.00000000000E+00  0.20725460396E+03  0.20725460396E+03  0.00000000000E+00 0.  1.
          1   -1    0    0  502    0 -0.00000000000E+00 -0.00000000000E+00 -0.26323278746E+03  0.26323278746E+03  0.00000000000E+00 0. -1.
         23    2    1    2    0    0  0.26081727641E+02 -0.14931056465E+03 -0.20573791098E+02  0.17879227527E+03  0.92571570066E+02 0.  0.
        -24    2    1    2    0    0  0.36713534869E+02  0.11275491969E+03 -0.11518316666E+03  0.18378676153E+03  0.80304771189E+02 0.  0.
         13    1    4    4    0    0  0.29239940383E+02  0.11866593574E+03 -0.77038004858E+02  0.14446948678E+03  0.00000000000E+00 0. -1.
        -14    1    4    4    0    0  0.74735944858E+01 -0.59110160428E+01 -0.38145161804E+02  0.39317274756E+02  0.00000000000E+00 0.  1.
        -11    1    3    3    0    0  0.59359893747E+02 -0.11022727348E+03 -0.23484869903E+02  0.12737812967E+03  0.00000000000E+00 0.  1.
         11    1    3    3    0    0 -0.33278166106E+02 -0.39083291171E+02  0.29110788052E+01  0.51414145601E+02  0.00000000000E+00 0. -1.
          2    1    1    2  501    0 -0.62795262510E+02  0.36555644955E+02  0.79778774267E+02  0.10790835461E+03  0.00000000000E+00 0. -1.
<scales pt_clust_5="13000.00000" pt_clust_6="13000.00000" pt_clust_7="13000.00000" pt_clust_8="13000.00000" pt_clust_9="13000.00000"></scales>
<clustering>
<clus scale="   80.305">  5  6 -1 -1</clus>
<clus scale="   72.661">  5  9 -1 -1</clus>
<clus scale="   92.572">  7  8 -1 -1</clus>
<clus scale="  177.605">  2  7  1 -1</clus>
<clus scale="  289.539">  1  5  2 -1</clus>
</clustering>
</event>
<event>
 9    1  0.4516508E-005  0.2588595E+03  0.7546771E-02  0.1148759E+00
         21   -1    0    0  501  502  0.00000000000E+00  0.00000000000E+00  0.14706947702E+03  0.14706947702E+03  0.00000000000E+00 0. -1.
          1   -1    0    0  502    0 -0.00000000000E+00 -0.00000000000E+00 -0.21229003928E+03  0.21229003928E+03  0.00000000000E+00 0. -1.
         23    2    1    2    0    0  0.11892839850E+01 -0.34360265576E+02 -0.13284765847E+02  0.95341377072E+02  0.87928669565E+02 0.  0.
        -24    2    1    2    0    0  0.43429030764E+02 -0.46341961242E+02  0.60247914293E+02  0.11879820819E+03  0.80309059318E+02 0.  0.
         13    1    4    4    0    0  0.43518127562E+02 -0.62734898262E+01  0.64973276223E+02  0.78451964438E+02  0.00000000000E+00 0. -1.
        -14    1    4    4    0    0 -0.89096797558E-01 -0.40068471415E+02 -0.47253619296E+01  0.40346243755E+02  0.00000000000E+00 0.  1.
        -13    1    3    3    0    0 -0.36068952828E+01 -0.61589929178E+02  0.54612888761E+01  0.61936699508E+02  0.00000000000E+00 0. -1.
         13    1    3    3    0    0  0.47961792678E+01  0.27229663602E+02 -0.18746054723E+02  0.33404677564E+02  0.00000000000E+00 0.  1.
          2    1    1    2  501    0 -0.44618314749E+02  0.80702226818E+02 -0.11218371071E+03  0.14521993104E+03  0.00000000000E+00 0. -1.
<scales pt_clust_5="13000.00000" pt_clust_6="13000.00000" pt_clust_7="13000.00000" pt_clust_8="13000.00000" pt_clust_9="13000.00000"></scales>
<clustering>
<clus scale="   80.309">  5  6 -1 -1</clus>
<clus scale="   87.929">  7  8 -1 -1</clus>
<clus scale="   92.215">  5  9 -1 -1</clus>
<clus scale="   94.411">  2  7  1 -1</clus>
<clus scale="  258.860">  1  5  2 -1</clus>
</clustering>
</event>
<event>
 9    1  0.4516508E-005  0.1618641E+03  0.7546771E-02  0.1211098E+00
         21   -1    0    0  501  502  0.00000000000E+00  0.00000000000E+00  0.19250804246E+03  0.19250804246E+03  0.00000000000E+00 0. -1.
          1   -1    0    0  502    0 -0.00000000000E+00 -0.00000000000E+00 -0.14219608890E+03  0.14219608890E+03  0.00000000000E+00 0. -1.
         23    2    1    2    0    0  0.20769761748E+02  0.15703318770E+02 -0.82121386232E+02  0.12556646754E+03  0.91351182090E+02 0.  0.
        -24    2    1    2    0    0  0.44215892762E+02 -0.67477579157E+01  0.52974176858E+02  0.10609837065E+03  0.80312037897E+02 0.  0.
         11    1    4    4    0    0  0.48599322627E+02 -0.35381479645E+02  0.22861816961E+02  0.64314896692E+02  0.00000000000E+00 0. -1.
        -12    1    4    4    0    0 -0.43834298649E+01  0.28633721730E+02  0.30112359897E+02  0.41783473959E+02  0.00000000000E+00 0.  1.
        -13    1    3    3    0    0  0.20276366555E+02 -0.36548563477E+02 -0.27832009345E+02  0.50215030390E+02  0.00000000000E+00 0.  1.
         13    1    3    3    0    0  0.49339519318E+00  0.52251882247E+02 -0.54289376887E+02  0.75351437145E+02  0.00000000000E+00 0. -1.
          2    1    1    2  501    0 -0.64985654511E+02 -0.89555608544E+01  0.79459162940E+02  0.10303929317E+03  0.00000000000E+00 0. -1.
<scales pt_clust_5="13000.00000" pt_clust_6="13000.00000" pt_clust_7="13000.00000" pt_clust_8="13000.00000" pt_clust_9="13000.00000"></scales>
<clustering>
<clus scale="   80.312">  5  6 -1 -1</clus>
<clus scale="   65.600">  5  9 -1 -1</clus>
<clus scale="   91.351">  7  8 -1 -1</clus>
<clus scale="   94.990">  2  7  1 -1</clus>
<clus scale="  161.864">  1  5  2 -1</clus>
</clustering>
</event>
<event>
 9    1  0.4516508E-005  0.2101767E+03  0.7546771E-02  0.1177890E+00
         21   -1    0    0  501  502  0.00000000000E+00  0.00000000000E+00  0.40604205796E+03  0.40604205796E+03  0.00000000000E+00 0. -1.
          1   -1    0    0  502    0 -0.00000000000E+00 -0.00000000000E+00 -0.20984884580E+03  0.20984884580E+03  0.00000000000E+00 0. -1.
         23    2    1    2    0    0 -0.19042355148E+02 -0.77942688753E+01 -0.17078439694E+03  0.19298806856E+03  0.87485555664E+02 0.  0.
        -24    2    1    2    0    0 -0.25280942239E+02  0.72419043211E+02  0.11923852007E+03  0.16306524672E+03  0.80553126318E+02 0.  0.
         11    1    4    4    0    0 -0.13207394674E+02  0.88840531614E+02  0.10514841162E+03  0.13828688947E+03  0.00000000000E+00 0. -1.
        -12    1    4    4    0    0 -0.12073547565E+02 -0.16421488403E+02  0.14090108446E+02  0.24778357254E+02  0.00000000000E+00 0.  1.
        -11    1    3    3    0    0 -0.37833369239E+02  0.29588619064E+02 -0.92054050584E+02  0.10383062378E+03  0.00000000000E+00 0. -1.
         11    1    3    3    0    0  0.18791014091E+02 -0.37382887939E+02 -0.78730346360E+02  0.89157444777E+02  0.00000000000E+00 0.  1.
          2    1    1    2  501    0  0.44323297387E+02 -0.64624774336E+02  0.24773908904E+03  0.25983758848E+03  0.00000000000E+00 0. -1.
<scales pt_clust_5="13000.00000" pt_clust_6="13000.00000" pt_clust_7="13000.00000" pt_clust_8="13000.00000" pt_clust_9="13000.00000"></scales>
<clustering>
<clus scale="   80.553">  5  6 -1 -1</clus>
<clus scale="   78.364">  5  9 -1 -1</clus>
<clus scale="   87.486">  7  8 -1 -1</clus>
<clus scale="   89.873">  2  7  1 -1</clus>
<clus scale="  210.177">  1  5  2 -1</clus>
</clustering>
</event>
<event>
 9    1  0.4516508E-005  0.1909922E+03  0.7546771E-02  0.1189889E+00
          3   -1    0    0  502    0 -0.00000000000E+00  0.00000000000E+00  0.51763457546E+02  0.51763457546E+02  0.00000000000E+00 0. -1.
         21   -1    0    0  501  502  0.00000000000E+00 -0.00000000000E+00 -0.38631781360E+03  0.38631781360E+03  0.00000000000E+00 0. -1.
         23    2    1    2    0    0 -0.15570900953E+02  0.23115614197E+01 -0.10059769450E+03  0.13606515680E+03  0.90255384785E+02 0.  0.
        -24    2    1    2    0    0 -0.47323444235E+02 -0.59140899666E+01 -0.21994591618E+03  0.23747947472E+03  0.75801121595E+02 0.  0.
         13    1    4    4    0    0 -0.82151841196E+01 -0.37259146920E+02 -0.11533349900E+03  0.12148065389E+03  0.00000000000E+00 0. -1.
        -14    1    4    4    0    0 -0.39108260115E+02  0.31345056954E+02 -0.10461241719E+03  0.11599882083E+03  0.00000000000E+00 0.  1.
        -13    1    3    3    0    0 -0.39336722808E+02  0.27805877380E+02 -0.28465509983E+02  0.55953818786E+02  0.00000000000E+00 0. -1.
         13    1    3    3    0    0  0.23765821855E+02 -0.25494315960E+02 -0.72132184515E+02  0.80111338009E+02  0.00000000000E+00 0.  1.
          4    1    1    2  501    0  0.62894345188E+02  0.36025285469E+01 -0.14010745374E+02  0.64536639628E+02  0.00000000000E+00 0. -1.
<scales pt_clust_5="13000.00000" pt_clust_6="13000.00000" pt_clust_7="13000.00000" pt_clust_8="13000.00000" pt_clust_9="13000.00000"></scales>
<clustering>
<clus scale="   75.801">  5  6 -1 -1</clus>
<clus scale="   62.997">  5  9 -1 -1</clus>
<clus scale="   90.255">  7  8 -1 -1</clus>
<clus scale="   91.618">  1  7  2 -1</clus>
<clus scale="  190.992">  2  5  1 -1</clus>
</clustering>
</event>
<event>
 9    1  0.4516508E-005  0.3898739E+03  0.7546771E-02  0.1094169E+00
         21   -1    0    0  501  502  0.00000000000E+00  0.00000000000E+00  0.12305480164E+04  0.12305480164E+04  0.00000000000E+00 0.  1.
         -2   -1    0    0    0  501 -0.00000000000E+00 -0.00000000000E+00 -0.51185760765E+02  0.51185760765E+02  0.00000000000E+00 0.  1.
         23    2    1    2    0    0 -0.99974979435E+01  0.20228857476E+02  0.19324641000E+03  0.22134415810E+03  0.10554574699E+03 0.  0.
        -24    2    1    2    0    0  0.14915738136E+03  0.20022823845E+02  0.20879792397E+03  0.26968814421E+03  0.80537470682E+02 0.  0.
         13    1    4    4    0    0  0.71315912720E+02  0.13197655998E+02  0.16470425732E+03  0.17996563536E+03  0.00000000000E+00 0. -1.
        -14    1    4    4    0    0  0.77841468638E+02  0.68251678462E+01  0.44093666656E+02  0.89722508854E+02  0.00000000000E+00 0.  1.
        -11    1    3    3    0    0 -0.17192115036E+02  0.50811878210E+02  0.17896776464E+03  0.18683382073E+03  0.00000000000E+00 0. -1.
         11    1    3    3    0    0  0.71946170920E+01 -0.30583020734E+02  0.14278645358E+02  0.34510337373E+02  0.00000000000E+00 0.  1.
         -1    1    1    2    0  502 -0.13915988341E+03 -0.40251681321E+02  0.77731792164E+03  0.79070147484E+03  0.00000000000E+00 0.  1.
<scales pt_clust_5="13000.00000" pt_clust_6="13000.00000" pt_clust_7="13000.00000" pt_clust_8="13000.00000" pt_clust_9="13000.00000"></scales>
<clustering>
<clus scale="   80.537">  5  6 -1 -1</clus>
<clus scale="  105.546">  7  8 -1 -1</clus>
<clus scale="  107.931">  2  7  1 -1</clus>
<clus scale="  145.637">  5  9 -1 -1</clus>
<clus scale="  389.874">  1  5  2 -1</clus>
</clustering>
</event>
<event>
 9    1  0.4516508E-005  0.2153586E+03  0.7546771E-02  0.1158632E+00
          1   -1    0    0  502    0 -0.00000000000E+00  0.00000000000E+00  0.75345687599E+03  0.75345687599E+03  0.00000000000E+00 0. -1.
         21   -1    0    0  501  502  0.00000000000E+00 -0.00000000000E+00 -0.40644774217E+02  0.40644774217E+02  0.00000000000E+00 0. -1.
         23    2    1    2    0    0  0.90589174586E+02  0.21766039181E+02  0.33336276531E+03  0.35779769241E+03  0.90599648946E+02 0.  0.
        -24    2    1    2    0    0 -0.12224298795E+02  0.17252003648E+02  0.51912475793E+02  0.97270247784E+02  0.79495476916E+02 0.  0.
         13    1    4    4    0    0 -0.33946327868E+02  0.32260921373E+01 -0.52788312252E+01  0.34505461963E+02  0.00000000000E+00 0. -1.
        -14    1    4    4    0    0  0.21722029073E+02  0.14025911511E+02  0.57191307018E+02  0.62764785821E+02  0.00000000000E+00 0.  1.
        -11    1    3    3    0    0  0.24307362953E+02  0.39818158722E+02  0.60372321664E+02  0.76296467027E+02  0.00000000000E+00 0. -1.
         11    1    3    3    0    0  0.66281811633E+02 -0.18052119541E+02  0.27299044364E+03  0.28150122539E+03  0.00000000000E+00 0.  1.
          2    1    1    2  501    0 -0.78364875790E+02 -0.39018042829E+02  0.32753686067E+03  0.33903371001E+03  0.00000000000E+00 0. -1.
<scales pt_clust_5="13000.00000" pt_clust_6="13000.00000" pt_clust_7="13000.00000" pt_clust_8="13000.00000" pt_clust_9="13000.00000"></scales>
<clustering>
<clus scale="   79.495">  5  6 -1 -1</clus>
<clus scale="   87.541">  5  9 -1 -1</clus>
<clus scale="   90.600">  7  8 -1 -1</clus>
<clus scale="  129.956">  1  7  2 -1</clus>
<clus scale="  215.359">  2  5  1 -1</clus>
</clustering>
</event>
<event>
 9    1  0.4903627E-005  0.7332643E+03  0.7546771E-02  0.1000463E+00
          1   -1    0    0  502    0 -0.00000000000E+00  0.00000000000E+00  0.48752211173E+03  0.48752211173E+03  0.00000000000E+00 0. -1.
         21   -1    0    0  501  502  0.00000000000E+00 -0.00000000000E+00 -0.53786600835E+03  0.53786600835E+03  0.00000000000E+00 0.  1.
         23    2    1    2    0    0  0.86442272793E+02 -0.20405877391E+03 -0.15383017216E+03  0.28485722438E+03  0.91474951086E+02 0.  0.
        -24    2    1    2    0    0  0.66143275929E+02 -0.12921933324E+03 -0.20400120533E+03  0.26209051563E+03  0.77475012569E+02 0.  0.
         13    1    4    4    0    0  0.56165147583E+00 -0.49873435351E+02 -0.11744230099E+03  0.12759454952E+03  0.00000000000E+00 0. -1.
        -14    1    4    4    0    0  0.65581624453E+02 -0.79345897893E+02 -0.86558904335E+02  0.13449596610E+03  0.00000000000E+00 0.  1.
        -13    1    3    3    0    0  0.23249655639E+02 -0.25090504802E+02 -0.68900866104E+02  0.76924698689E+02  0.00000000000E+00 0.  1.
         13    1    3    3    0    0  0.63192617155E+02 -0.17896826911E+03 -0.84929306055E+02  0.20793252569E+03  0.00000000000E+00 0. -1.
          2    1    1    2  501    0 -0.15258554872E+03  0.33327810716E+03  0.30748748087E+03  0.47844038007E+03  0.00000000000E+00 0. -1.
<scales pt_clust_5="13000.00000" pt_clust_6="13000.00000" pt_clust_7="13000.00000" pt_clust_8="13000.00000" pt_clust_9="13000.00000"></scales>
<clustering>
<clus scale="   77.475">  5  6 -1 -1</clus>
<clus scale="   91.475">  7  8 -1 -1</clus>
<clus scale="  239.750">  1  7  2 -1</clus>
<clus scale="  160.380">  5  9 -1 -1</clus>
<clus scale="  733.264">  2  5  1 -1</clus>
</clustering>
</event>
<event>
 9    1  0.4516508E-005  0.2986468E+03  0.7546771E-02  0.1119306E+00
          3   -1    0    0  502    0 -0.00000000000E+00  0.00000000000E+00  0.15519065441E+03  0.15519065441E+03  0.00000000000E+00 0. -1.
         21   -1    0    0  501  502  0.00000000000E+00 -0.00000000000E+00 -0.31930127306E+03  0.31930127306E+03  0.00000000000E+00 0. -1.
         23    2    1    2    0    0 -0.83700297484E+02  0.17079769090E+02  0.13850471825E+02  0.12684256577E+03  0.92734797198E+02 0.  0.
        -24    2    1    2    0    0 -0.66384835872E+02  0.14916216360E+02  0.91780223759E+01  0.10563626723E+03  0.80282905492E+02 0.  0.
         13    1    4    4    0    0 -0.58244447256E+02 -0.20193953994E+02 -0.13428709760E+02  0.63091533979E+02  0.00000000000E+00 0. -1.
        -14    1    4    4    0    0 -0.81403886167E+01  0.35110170354E+02  0.22606732136E+02  0.42544733246E+02  0.00000000000E+00 0.  1.
        -11    1    3    3    0    0 -0.18300676248E+02 -0.14231101433E+02 -0.33136460720E+02  0.40440870764E+02  0.00000000000E+00 0.  1.
         11    1    3    3    0    0 -0.65399621236E+02  0.31310870523E+02  0.46986932545E+02  0.86401695010E+02  0.00000000000E+00 0. -1.
          4    1    1    2  501    0  0.15008513336E+03 -0.31995985450E+02 -0.18713911284E+03  0.24201309447E+03  0.00000000000E+00 0. -1.
<scales pt_clust_5="13000.00000" pt_clust_6="13000.00000" pt_clust_7="13000.00000" pt_clust_8="13000.00000" pt_clust_9="13000.00000"></scales>
<clustering>
<clus scale="   80.283">  5  6 -1 -1</clus>
<clus scale="   92.735">  7  8 -1 -1</clus>
<clus scale="  126.084">  1  7  2 -1</clus>
<clus scale="  125.834">  5  9 -1 -1</clus>
<clus scale="  298.647">  2  5  1 -1</clus>
</clustering>
</event>
<event>
 9    1  0.4516508E-005  0.5802493E+03  0.7546771E-02  0.1026336E+00
         21   -1    0    0  501  502  0.00000000000E+00  0.00000000000E+00  0.53622389145E+03  0.53622389145E+03  0.00000000000E+00 0. -1.
          1   -1    0    0  502    0 -0.00000000000E+00 -0.00000000000E+00 -0.29923215841E+03  0.29923215841E+03  0.00000000000E+00 0. -1.
         23    2    1    2    0    0  0.15082279689E+03  0.12368223787E+03  0.92319491107E+02  0.23744322481E+03  0.99053442868E+02 0.  0.
        -24    2    1    2    0    0 -0.26892583294E+03 -0.13717348238E+03 -0.98018515840E+02  0.32777377401E+03  0.81794557230E+02 0.  0.
         13    1    4    4    0    0 -0.26765071197E+03 -0.13839772227E+03 -0.82843576952E+02  0.31249622620E+03  0.00000000000E+00 0. -1.
        -14    1    4    4    0    0 -0.12751209643E+01  0.12242398881E+01 -0.15174938888E+02  0.15277547808E+02  0.00000000000E+00 0.  1.
        -11    1    3    3    0    0  0.97959282537E+02  0.65561149419E+02  0.10500252575E+03  0.15786011454E+03  0.00000000000E+00 0.  1.
         11    1    3    3    0    0  0.52863514356E+02  0.58121088447E+02 -0.12683034647E+02  0.79583110269E+02  0.00000000000E+00 0. -1.
          2    1    1    2  501    0  0.11810303604E+03  0.13491244513E+02  0.24269075777E+03  0.27023905104E+03  0.00000000000E+00 0. -1.
<scales pt_clust_5="13000.00000" pt_clust_6="13000.00000" pt_clust_7="13000.00000" pt_clust_8="13000.00000" pt_clust_9="13000.00000"></scales>
<clustering>
<clus scale="   81.795">  5  6 -1 -1</clus>
<clus scale="   99.053">  7  8 -1 -1</clus>
<clus scale="  118.871">  5  9 -1 -1</clus>
<clus scale="  218.761">  2  7  1 -1</clus>
<clus scale="  580.249">  1  5  2 -1</clus>
</clustering>
</event>
<event>
 9    1  0.4516508E-005  0.1719233E+03  0.7546771E-02  0.1208437E+00
         21   -1    0    0  501  502  0.00000000000E+00  0.00000000000E+00  0.53287151834E+03  0.53287151834E+03  0.00000000000E+00 0. -1.
          3   -1    0    0  502    0 -0.00000000000E+00 -0.00000000000E+00 -0.58146138946E+02  0.58146138946E+02  0.00000000000E+00 0. -1.
         23    2    1    2    0    0 -0.10614248644E+02  0.34462997730E+01 -0.23169784211E+01  0.83940713952E+02  0.83163308096E+02 0.  0.
        -24    2    1    2    0    0  0.11542371917E+02  0.60982861365E+02  0.25890016758E+03  0.27961707131E+03  0.85465045889E+02 0.  0.
         11    1    4    4    0    0  0.46044729450E+02  0.30015913918E+02  0.17891162421E+03  0.18716420992E+03  0.00000000000E+00 0. -1.
        -12    1    4    4    0    0 -0.34502357532E+02  0.30966947447E+02  0.79988543369E+02  0.92452861393E+02  0.00000000000E+00 0.  1.
        -13    1    3    3    0    0  0.26552721651E+02 -0.24685698395E+02  0.55211903564E+01  0.36673072891E+02  0.00000000000E+00 0.  1.
         13    1    3    3    0    0 -0.37166970294E+02  0.28131998168E+02 -0.78381687775E+01  0.47267641062E+02  0.00000000000E+00 0. -1.
          4    1    1    2  501    0 -0.92812327397E+00 -0.64429161138E+02  0.21814219023E+03  0.22745987202E+03  0.00000000000E+00 0. -1.
<scales pt_clust_5="13000.00000" pt_clust_6="13000.00000" pt_clust_7="13000.00000" pt_clust_8="13000.00000" pt_clust_9="13000.00000"></scales>
<clustering>
<clus scale="   83.163">  7  8 -1 -1</clus>
<clus scale="   83.909">  2  7  1 -1</clus>
<clus scale="   85.465">  5  6 -1 -1</clus>
<clus scale="   63.500">  5  9 -1 -1</clus>
<clus scale="  171.923">  1  5  2 -1</clus>
</clustering>
</event>
<event>
 9    1  0.4516508E-005  0.2417032E+03  0.7546771E-02  0.1148316E+00
         21   -1    0    0  501  502  0.00000000000E+00  0.00000000000E+00  0.81024364785E+02  0.81024364785E+02  0.00000000000E+00 0. -1.
         -4   -1    0    0    0  501 -0.00000000000E+00 -0.00000000000E+00 -0.41590583287E+03  0.41590583287E+03  0.00000000000E+00 0.  1.
         23    2    1    2    0    0 -0.13864749437E+02 -0.72631256081E+02 -0.16116760797E+03  0.19927782391E+03  0.90934716173E+02 0.  0.
        -24    2    1    2    0    0 -0.88481972483E+02  0.70685313890E+02 -0.88430358043E+02  0.16441606524E+03  0.79920217915E+02 0.  0.
         13    1    4    4    0    0 -0.59268940740E+02  0.44144156629E+01 -0.65508183611E+02  0.88451209840E+02  0.00000000000E+00 0. -1.
        -14    1    4    4    0    0 -0.29213031744E+02  0.66270898227E+02 -0.22922174432E+02  0.75964855402E+02  0.00000000000E+00 0.  1.
        -11    1    3    3    0    0  0.34263194543E+02 -0.54715719359E+02 -0.74908944138E+02  0.98889465350E+02  0.00000000000E+00 0. -1.
         11    1    3    3    0    0 -0.48127943980E+02 -0.17915536723E+02 -0.86258663834E+02  0.10038835856E+03  0.00000000000E+00 0.  1.
         -3    1    1    2    0  502  0.10234672192E+03  0.19459421912E+01 -0.85283502070E+02  0.13323630851E+03  0.00000000000E+00 0.  1.
<scales pt_clust_5="13000.00000" pt_clust_6="13000.00000" pt_clust_7="13000.00000" pt_clust_8="13000.00000" pt_clust_9="13000.00000"></scales>
<clustering>
<clus scale="   79.920">  5  6 -1 -1</clus>
<clus scale="   90.935">  7  8 -1 -1</clus>
<clus scale="  102.365">  5  9 -1 -1</clus>
<clus scale="  117.203">  2  7  1 -1</clus>
<clus scale="  241.703">  1  5  2 -1</clus>
</clustering>
</event>
<event>
 9    1  0.4516508E-005  0.7383147E+03  0.7546771E-02  0.9932263E-01
         21   -1    0    0  501  502  0.00000000000E+00  0.00000000000E+00  0.16791527291E+03  0.16791527291E+03  0.00000000000E+00 0. -1.
          1   -1    0    0  502    0 -0.00000000000E+00 -0.00000000000E+00 -0.16932446189E+04  0.16932446189E+04  0.00000000000E+00 0. -1.
         23    2    1    2    0    0  0.19314843460E+03  0.20359030408E+03 -0.24776011688E+03  0.38559502960E+03  0.92429008590E+02 0.  0.
        -24    2    1    2    0    0  0.24448978517E+03 -0.10600648072E+02 -0.39130796081E+03  0.46847437252E+03  0.80365967473E+02 0.  0.
         11    1    4    4    0    0  0.17038236560E+03  0.27884299855E+01 -0.32987162540E+03  0.37128589401E+03  0.00000000000E+00 0. -1.
        -12    1    4    4    0    0  0.74107419573E+02 -0.13389078057E+02 -0.61436335406E+02  0.97188478510E+02  0.00000000000E+00 0.  1.
        -11    1    3    3    0    0  0.83563631829E+02  0.27339421655E+02 -0.73754667493E+02  0.11476094945E+03  0.00000000000E+00 0.  1.
         11    1    3    3    0    0  0.10958480277E+03  0.17625088243E+03 -0.17400544939E+03  0.27083408016E+03  0.00000000000E+00 0. -1.
          2    1    1    2  501    0 -0.43763821977E+03 -0.19298965601E+03 -0.88626126833E+03  0.10070904897E+04  0.00000000000E+00 0. -1.
<scales pt_clust_5="13000.00000" pt_clust_6="13000.00000" pt_clust_7="13000.00000" pt_clust_8="13000.00000" pt_clust_9="13000.00000"></scales>
<clustering>
<clus scale="   80.366">  5  6 -1 -1</clus>
<clus scale="   92.429">  7  8 -1 -1</clus>
<clus scale="  295.463">  2  7  1 -1</clus>
<clus scale="  309.379">  5  9 -1 -1</clus>
<clus scale="  738.315">  1  5  2 -1</clus>
</clustering>
</event>
<event>
 9    1  0.4516508E-005  0.6942638E+03  0.7546771E-02  0.1008017E+00
          1   -1    0    0  502    0 -0.00000000000E+00  0.00000000000E+00  0.13718912001E+04  0.13718912001E+04  0.00000000000E+00 0. -1.
         21   -1    0    0  501  502  0.00000000000E+00 -0.00000000000E+00 -0.16261163982E+03  0.16261163982E+03  0.00000000000E+00 0.  1.
         23    2    1    2    0    0 -0.21013731235E+02 -0.20028240999E+03  0.47047465410E+03  0.52068093174E+03  0.95956301924E+02 0.  0.
        -24    2    1    2    0    0 -0.15157896973E+03 -0.15388511679E+03  0.75946012974E+02  0.24271569646E+03  0.80537563817E+02 0.  0.
         11    1    4    4    0    0 -0.10420482531E+03 -0.10133255365E+03  0.89470958841E+02  0.17068094364E+03  0.00000000000E+00 0. -1.
        -12    1    4    4    0    0 -0.47374144428E+02 -0.52552563134E+02 -0.13524945867E+02  0.72034752814E+02  0.00000000000E+00 0.  1.
        -13    1    3    3    0    0 -0.45145769126E+02 -0.18742551192E+03  0.37911369904E+03  0.42531595290E+03  0.00000000000E+00 0.  1.
         13    1    3    3    0    0  0.24132037891E+02 -0.12856898065E+02  0.91360955060E+02  0.95364978845E+02  0.00000000000E+00 0. -1.
          2    1    1    2  501    0  0.17259270097E+03  0.35416752678E+03  0.66285889318E+03  0.77110621170E+03  0.00000000000E+00 0. -1.
<scales pt_clust_5="13000.00000" pt_clust_6="13000.00000" pt_clust_7="13000.00000" pt_clust_8="13000.00000" pt_clust_9="13000.00000"></scales>
<clustering>
<clus scale="   80.538">  5  6 -1 -1</clus>
<clus scale="   95.956">  7  8 -1 -1</clus>
<clus scale="  223.074">  1  7  2 -1</clus>
<clus scale="  245.690">  5  9 -1 -1</clus>
<clus scale="  694.264">  2  5  1 -1</clus>
</clustering>
</event>
<event>
 9    1  0.4516508E-005  0.2918539E+03  0.7546771E-02  0.1102145E+00
          3   -1    0    0  502    0 -0.00000000000E+00  0.00000000000E+00  0.23787069512E+03  0.23787069512E+03  0.00000000000E+00 0. -1.
         21   -1    0    0  501  502  0.00000000000E+00 -0.00000000000E+00 -0.28589402734E+03  0.28589402734E+03  0.00000000000E+00 0. -1.
         23    2    1    2    0    0 -0.19516563357E+02 -0.18627211446E+03 -0.92400357716E+02  0.22855628076E+03  0.92854458680E+02 0.  0.
        -24    2    1    2    0    0 -0.76895932777E+02  0.79433861623E+02 -0.18142324195E+02  0.13830576243E+03  0.81096344823E+02 0.  0.
         13    1    4    4    0    0 -0.14167913580E+02  0.45066089175E+02 -0.41687507490E+02  0.63004209776E+02  0.00000000000E+00 0. -1.
        -14    1    4    4    0    0 -0.62728019197E+02  0.34367772448E+02  0.23545183295E+02  0.75301552653E+02  0.00000000000E+00 0.  1.
        -13    1    3    3    0    0 -0.43600223471E+01 -0.71166618018E+02 -0.86789805150E+02  0.11232171470E+03  0.00000000000E+00 0. -1.
         13    1    3    3    0    0 -0.15156541010E+02 -0.11510549644E+03 -0.56105525663E+01  0.11623456606E+03  0.00000000000E+00 0.  1.
          4    1    1    2  501    0  0.96412496134E+02  0.10683825284E+03  0.62519349694E+02  0.15690267928E+03  0.00000000000E+00 0. -1.
<scales pt_clust_5="13000.00000" pt_clust_6="13000.00000" pt_clust_7="13000.00000" pt_clust_8="13000.00000" pt_clust_9="13000.00000"></scales>
<clustering>
<clus scale="   81.096">  5  6 -1 -1</clus>
<clus scale="   92.854">  7  8 -1 -1</clus>
<clus scale="  143.909">  5  9 -1 -1</clus>
<clus scale="  209.046">  1  7  2 -1</clus>
<clus scale="  291.854">  2  5  1 -1</clus>
</clustering>
</event>
<event>
 9    1  0.4516508E-005  0.1414128E+03  0.7546771E-02  0.1223156E+00
          1   -1    0    0  502    0 -0.00000000000E+00  0.00000000000E+00  0.22856702400E+03  0.22856702400E+03  0.00000000000E+00 0. -1.
         21   -1    0    0  501  502  0.00000000000E+00 -0.00000000000E+00 -0.14079224297E+03  0.14079224297E+03  0.00000000000E+00 0. -1.
         23    2    1    2    0    0 -0.38177346264E+02  0.46177801698E+02  0.17226194314E+03  0.20463023044E+03  0.92787148982E+02 0.  0.
        -24    2    1    2    0    0 -0.11261999828E+01 -0.23305860471E+02 -0.20119547754E+02  0.85918604341E+02  0.80204606548E+02 0.  0.
         13    1    4    4    0    0 -0.29632101058E+02  0.78498139291E+01 -0.29628566694E+02  0.42632534011E+02  0.00000000000E+00 0. -1.
        -14    1    4    4    0    0  0.28505901075E+02 -0.31155674400E+02  0.95090189407E+01  0.43286070331E+02  0.00000000000E+00 0.  1.
        -11    1    3    3    0    0 -0.59774039397E+02  0.35115335154E+02  0.66300369115E+02  0.95925812447E+02  0.00000000000E+00 0.  1.
         11    1    3    3    0    0  0.21596693132E+02  0.11062466545E+02  0.10596157403E+03  0.10870441799E+03  0.00000000000E+00 0. -1.
          2    1    1    2  501    0  0.39303546247E+02 -0.22871941227E+02 -0.64367614356E+02  0.78810432184E+02  0.00000000000E+00 0. -1.
<scales pt_clust_5="13000.00000" pt_clust_6="13000.00000" pt_clust_7="13000.00000" pt_clust_8="13000.00000" pt_clust_9="13000.00000"></scales>
<clustering>
<clus scale="   80.205">  5  6 -1 -1</clus>
<clus scale="   45.474">  5  9 -1 -1</clus>
<clus scale="   92.787">  7  8 -1 -1</clus>
<clus scale="  110.451">  1  7  2 -1</clus>
<clus scale="  141.413">  2  5  1 -1</clus>
</clustering>
</event>
<event>
 9    1  0.4516508E-005  0.2003155E+03  0.7546771E-02  0.1168291E+00
         21   -1    0    0  501  502  0.00000000000E+00  0.00000000000E+00  0.51726899491E+02  0.51726899491E+02  0.00000000000E+00 0. -1.
          1   -1    0    0  502    0 -0.00000000000E+00 -0.00000000000E+00 -0.52493525539E+03  0.52493525539E+03  0.00000000000E+00 0. -1.
         23    2    1    2    0    0 -0.39713376470E+02  0.76802821371E+02 -0.17853491091E+03  0.22034946143E+03  0.95934066411E+02 0.  0.
        -24    2    1    2    0    0 -0.43954676792E+02 -0.46406018939E+02 -0.10334775293E+03  0.14529177227E+03  0.79645519949E+02 0.  0.
         11    1    4    4    0    0 -0.40984108442E+02 -0.64997459418E+02 -0.58254295987E+02  0.96425773922E+02  0.00000000000E+00 0. -1.
        -12    1    4    4    0    0 -0.29705683508E+01  0.18591440479E+02 -0.45093456947E+02  0.48865998351E+02  0.00000000000E+00 0.  1.
        -11    1    3    3    0    0 -0.14129997802E+02  0.22247115745E+02  0.53073616867E+01  0.26884179083E+02  0.00000000000E+00 0.  1.
         11    1    3    3    0    0 -0.25583378667E+02  0.54555705626E+02 -0.18384227260E+03  0.19346528235E+03  0.00000000000E+00 0. -1.
          2    1    1    2  501    0  0.83668053262E+02 -0.30396802432E+02 -0.19132569205E+03  0.21102092118E+03  0.00000000000E+00 0. -1.
<scales pt_clust_5="13000.00000" pt_clust_6="13000.00000" pt_clust_7="13000.00000" pt_clust_8="13000.00000" pt_clust_9="13000.00000"></scales>
<clustering>
<clus scale="   79.646">  5  6 -1 -1</clus>
<clus scale="   89.019">  5  9 -1 -1</clus>
<clus scale="   95.934">  7  8 -1 -1</clus>
<clus scale="  129.148">  2  7  1 -1</clus>
<clus scale="  200.315">  1  5  2 -1</clus>
</clustering>
</event>
<event>
 9    1  0.4516508E-005  0.2817629E+03  0.7546771E-02  0.1098595E+00
          1   -1    0    0  502    0 -0.00000000000E+00  0.00000000000E+00  0.18865928609E+04  0.18865928609E+04  0.00000000000E+00 0. -1.
         21   -1    0    0  501  502  0.00000000000E+00 -0.00000000000E+00 -0.39905412894E+02  0.39905412894E+02  0.00000000000E+00 0. -1.
         23    2    1    2    0    0  0.18773217821E+03  0.14442297427E+03  0.10812688275E+04  0.11108660144E+04  0.93699831744E+02 0.  0.
        -24    2    1    2    0    0 -0.61609981636E+02 -0.45912204542E+02  0.18235206989E+03  0.21100197342E+03  0.73251860276E+02 0.  0.
         11    1    4    4    0    0 -0.63039223131E+02 -0.62262153530E+02  0.16383003418E+03  0.18625466307E+03  0.00000000000E+00 0. -1.
        -12    1    4    4    0    0  0.14292414950E+01  0.16349948988E+02  0.18522035707E+02  0.24747310356E+02  0.00000000000E+00 0.  1.
        -13    1    3    3    0    0  0.12166374541E+03  0.99641524308E+02  0.88712805745E+03  0.90095876189E+03  0.00000000000E+00 0. -1.
         13    1    3    3    0    0  0.66068432806E+02  0.44781449961E+02  0.19414077001E+03  0.20990725251E+03  0.00000000000E+00 0.  1.
          2    1    1    2  501    0 -0.12612219658E+03 -0.98510769726E+02  0.58306655068E+03  0.60463028600E+03  0.00000000000E+00 0. -1.
<scales pt_clust_5="13000.00000" pt_clust_6="13000.00000" pt_clust_7="13000.00000" pt_clust_8="13000.00000" pt_clust_9="13000.00000"></scales>
<clustering>
<clus scale="   73.252">  5  6 -1 -1</clus>
<clus scale="   93.700">  7  8 -1 -1</clus>
<clus scale="  160.035">  5  9 -1 -1</clus>
<clus scale="  254.718">  1  7  2 -1</clus>
<clus scale="  281.763">  2  5  1 -1</clus>
</clustering>
</event>
<event>
 9    1  0.4516508E-005  0.2277475E+03  0.7546771E-02  0.1163947E+00
         21   -1    0    0  501  502  0.00000000000E+00  0.00000000000E+00  0.71919606884E+02  0.71919606884E+02  0.00000000000E+00 0.  1.
         -4   -1    0    0    0  501 -0.00000000000E+00 -0.00000000000E+00 -0.39168455982E+03  0.39168455982E+03  0.00000000000E+00 0.  1.
         23    2    1    2    0    0  0.17816222361E+02 -0.28171686564E+02 -0.45916788901E+02  0.10742762415E+03  0.91221056918E+02 0.  0.
        -24    2    1    2    0    0  0.39975284451E+02  0.59877154751E+02 -0.26909938420E+03  0.29008837506E+03  0.80953627075E+02 0.  0.
         11    1    4    4    0    0 -0.18517844708E+02  0.20505966257E+02 -0.14272496175E+03  0.14537475685E+03  0.00000000000E+00 0. -1.
        -12    1    4    4    0    0  0.58493129159E+02  0.39371188494E+02 -0.12637442246E+03  0.14471361820E+03  0.00000000000E+00 0.  1.
        -11    1    3    3    0    0  0.14109102237E+02 -0.60095020763E+02 -0.42849796619E+02  0.75143751282E+02  0.00000000000E+00 0. -1.
         11    1    3    3    0    0  0.37071201242E+01  0.31923334199E+02 -0.30669922823E+01  0.32283872872E+02  0.00000000000E+00 0.  1.
         -3    1    1    2    0  502 -0.57791506812E+02 -0.31705468187E+02 -0.47487798296E+01  0.66088167492E+02  0.00000000000E+00 0.  1.
<scales pt_clust_5="13000.00000" pt_clust_6="13000.00000" pt_clust_7="13000.00000" pt_clust_8="13000.00000" pt_clust_9="13000.00000"></scales>
<clustering>
<clus scale="   80.954">  5  6 -1 -1</clus>
<clus scale="   65.917">  5  9 -1 -1</clus>
<clus scale="   91.221">  7  8 -1 -1</clus>
<clus scale="   97.120">  2  7  1 -1</clus>
<clus scale="  227.747">  1  5  2 -1</clus>
</clustering>
</event>
<event>
 9    1  0.4516508E-005  0.2044125E+03  0.7546771E-02  0.1164990E+00
         21   -1    0    0  501  502  0.00000000000E+00  0.00000000000E+00  0.31733562426E+03  0.31733562426E+03  0.00000000000E+00 0.  1.
          1   -1    0    0  502    0 -0.00000000000E+00 -0.00000000000E+00 -0.12054254539E+03  0.12054254539E+03  0.00000000000E+00 0. -1.
         23    2    1    2    0    0 -0.85387167109E+02 -0.40579068415E+02  0.19312351973E+03  0.23343269698E+03  0.90865290654E+02 0.  0.
        -24    2    1    2    0    0  0.28696917634E-01  0.35404187769E+02  0.56642149534E+02  0.10385251489E+03  0.79520779738E+02 0.  0.
         13    1    4    4    0    0 -0.38552313770E+02  0.28120903418E+02  0.29074059163E+02  0.55878144406E+02  0.00000000000E+00 0. -1.
        -14    1    4    4    0    0  0.38581010688E+02  0.72832843512E+01  0.27568090371E+02  0.47974370484E+02  0.00000000000E+00 0.  1.
        -11    1    3    3    0    0 -0.65669372760E+02 -0.56185286172E+02  0.18917008774E+03  0.20797734251E+03  0.00000000000E+00 0.  1.
         11    1    3    3    0    0 -0.19717794349E+02  0.15606217757E+02  0.39534319870E+01  0.25455354469E+02  0.00000000000E+00 0. -1.
          2    1    1    2  501    0  0.85358470192E+02  0.51748806460E+01 -0.52972590390E+02  0.10059295778E+03  0.00000000000E+00 0. -1.
<scales pt_clust_5="13000.00000" pt_clust_6="13000.00000" pt_clust_7="13000.00000" pt_clust_8="13000.00000" pt_clust_9="13000.00000"></scales>
<clustering>
<clus scale="   79.521">  5  6 -1 -1</clus>
<clus scale="   85.515">  5  9 -1 -1</clus>
<clus scale="   90.865">  7  8 -1 -1</clus>
<clus scale="  131.126">  2  7  1 -1</clus>
<clus scale="  204.413">  1  5  2 -1</clus>
</clustering>
</event>
<event>
 9    1  0.4516508E-005  0.6869017E+03  0.7546771E-02  0.1036706E+00
         21   -1    0    0  501  502  0.00000000000E+00  0.00000000000E+00  0.43296818149E+03  0.43296818149E+03  0.00000000000E+00 0.  1.
          1   -1    0    0  502    0 -0.00000000000E+00 -0.00000000000E+00 -0.43898315450E+03  0.43898315450E+03  0.00000000000E+00 0. -1.
         23    2    1    2    0    0  0.17068921922E+02  0.13013339586E+02 -0.14173990458E+03  0.17176907434E+03  0.94624094420E+02 0.  0.
        -24    2    1    2    0    0  0.27428805572E+03 -0.11519129518E+03  0.22148978283E+03  0.37973751955E+03  0.81485507040E+02 0.  0.
         11    1    4    4    0    0  0.21964005624E+02 -0.32241677416E+02  0.10158403977E+02  0.40312981495E+02  0.00000000000E+00 0. -1.
        -12    1    4    4    0    0  0.25232405010E+03 -0.82949617766E+02  0.21133137885E+03  0.33942453805E+03  0.00000000000E+00 0.  1.
        -13    1    3    3    0    0  0.32844222650E+02 -0.28487236802E+02 -0.10667364924E+03  0.11519345930E+03  0.00000000000E+00 0.  1.
         13    1    3    3    0    0 -0.15775300729E+02  0.41500576388E+02 -0.35066255342E+02  0.56575615042E+02  0.00000000000E+00 0. -1.
          2    1    1    2  501    0 -0.29135697764E+03  0.10217795560E+03 -0.85764851249E+02  0.32044474210E+03  0.00000000000E+00 0. -1.
<scales pt_clust_5="13000.00000" pt_clust_6="13000.00000" pt_clust_7="13000.00000" pt_clust_8="13000.00000" pt_clust_9="13000.00000"></scales>
<clustering>
<clus scale="   81.486">  5  6 -1 -1</clus>
<clus scale="   94.624">  7  8 -1 -1</clus>
<clus scale="   97.028">  2  7  1 -1</clus>
<clus scale="  300.539">  5  9 -1 -1</clus>
<clus scale="  686.902">  1  5  2 -1</clus>
</clustering>
</event>
<event>
 9    1  0.4516508E-005  0.1778548E+03  0.7546771E-02  0.1190698E+00
         21   -1    0    0  501  502  0.00000000000E+00  0.00000000000E+00  0.31443288162E+03  0.31443288162E+03  0.00000000000E+00 0.  1.
          3   -1    0    0  502    0 -0.00000000000E+00 -0.00000000000E+00 -0.68262077201E+02  0.68262077201E+02  0.00000000000E+00 0. -1.
         23    2    1    2    0    0  0.56425196611E+02 -0.27525047925E+02  0.65987297482E+02  0.12951828203E+03  0.92082739283E+02 0.  0.
        -24    2    1    2    0    0  0.22901330115E+02 -0.19001841360E+02  0.73423420039E+02  0.11226831855E+03  0.79546438285E+02 0.  0.
         13    1    4    4    0    0  0.16978784744E+02  0.28054277456E+02  0.48896272737E+02  0.58874163285E+02  0.00000000000E+00 0. -1.
        -14    1    4    4    0    0  0.59225453708E+01 -0.47056118816E+02  0.24527147301E+02  0.53394155265E+02  0.00000000000E+00 0.  1.
        -13    1    3    3    0    0  0.18497305236E+02 -0.56887630395E+02  0.20014046385E+02  0.63078640170E+02  0.00000000000E+00 0. -1.
         13    1    3    3    0    0  0.37927891375E+02  0.29362582470E+02  0.45973251097E+02  0.66439641855E+02  0.00000000000E+00 0.  1.
          4    1    1    2  501    0 -0.79326526725E+02  0.46526889285E+02  0.10676008689E+03  0.14090835824E+03  0.00000000000E+00 0. -1.
<scales pt_clust_5="13000.00000" pt_clust_6="13000.00000" pt_clust_7="13000.00000" pt_clust_8="13000.00000" pt_clust_9="13000.00000"></scales>
<clustering>
<clus scale="   79.546">  5  6 -1 -1</clus>
<clus scale="   91.964">  5  9 -1 -1</clus>
<clus scale="   92.083">  7  8 -1 -1</clus>
<clus scale="  111.448">  2  7  1 -1</clus>
<clus scale="  177.855">  1  5  2 -1</clus>
</clustering>
</event>
<event>
 9    1  0.4516508E-005  0.1496223E+03  0.7546771E-02  0.1201990E+00
          1   -1    0    0  502    0 -0.00000000000E+00  0.00000000000E+00  0.24547940729E+03  0.24547940729E+03  0.00000000000E+00 0. -1.
         21   -1    0    0  501  502  0.00000000000E+00 -0.00000000000E+00 -0.12492046755E+03  0.12492046755E+03  0.00000000000E+00 0. -1.
         23    2    1    2    0    0 -0.63748206416E+02 -0.81008073365E+02  0.15888264938E+03  0.21594748076E+03  0.10374717539E+03 0.  0.
        -24    2    1    2    0    0  0.40473652978E+02  0.23511015748E+02 -0.38385068493E+01  0.83481655854E+02  0.69018608233E+02 0.  0.
         13    1    4    4    0    0 -0.23044737777E+01  0.23043862523E+02  0.23274053380E+02  0.32833089408E+02  0.00000000000E+00 0. -1.
        -14    1    4    4    0    0  0.42778126755E+02  0.46715322541E+00 -0.27112560229E+02  0.50648566446E+02  0.00000000000E+00 0.  1.
        -13    1    3    3    0    0 -0.45593610091E+00 -0.75550384987E+02  0.52366011749E+02  0.91925337834E+02  0.00000000000E+00 0. -1.
         13    1    3    3    0    0 -0.63292270315E+02 -0.54576883772E+01  0.10651663763E+03  0.12402214293E+03  0.00000000000E+00 0.  1.
          2    1    1    2  501    0  0.23274553438E+02  0.57497057616E+02 -0.34485202790E+02  0.70970738222E+02  0.00000000000E+00 0. -1.
<scales pt_clust_5="13000.00000" pt_clust_6="13000.00000" pt_clust_7="13000.00000" pt_clust_8="13000.00000" pt_clust_9="13000.00000"></scales>
<clustering>
<clus scale="   69.019">  5  6 -1 -1</clus>
<clus scale="   62.029">  5  9 -1 -1</clus>
<clus scale="  103.747">  7  8 -1 -1</clus>
<clus scale="  146.252">  1  7  2 -1</clus>
<clus scale="  149.622">  2  5  1 -1</clus>
</clustering>
</event>
<event>
 9    1  0.4516508E-005  0.3006499E+03  0.7546771E-02  0.1116553E+00
         -2   -1    0    0    0  501 -0.00000000000E+00  0.00000000000E+00  0.23127173796E+03  0.23127173796E+03  0.00000000000E+00 0.  1.
         21   -1    0    0  501  502  0.00000000000E+00 -0.00000000000E+00 -0.21321600735E+03  0.21321600735E+03  0.00000000000E+00 0.  1.
         23    2    1    2    0    0 -0.34148789392E+02 -0.90632335993E+02  0.51285241631E+02  0.14200703545E+03  0.90307596379E+02 0.  0.
        -24    2    1    2    0    0  0.36004346984E+02 -0.78322576575E+02 -0.59967924511E+02  0.13141303806E+03  0.79009465255E+02 0.  0.
         13    1    4    4    0    0 -0.23214021437E+02 -0.27549936082E+02 -0.59090571961E+01  0.36507625592E+02  0.00000000000E+00 0. -1.
        -14    1    4    4    0    0  0.59218368421E+02 -0.50772640493E+02 -0.54058867315E+02  0.94905412472E+02  0.00000000000E+00 0.  1.
        -13    1    3    3    0    0  0.61034562902E+01 -0.91163241448E+02  0.42668429535E+02  0.10083939532E+03  0.00000000000E+00 0.  1.
         13    1    3    3    0    0 -0.40252245682E+02  0.53090545410E+00  0.86168120956E+01  0.41167640128E+02  0.00000000000E+00 0. -1.
         -1    1    1    2    0  502 -0.18555575920E+01  0.16895491257E+03  0.26738413488E+02  0.17106767179E+03  0.00000000000E+00 0.  1.
<scales pt_clust_5="13000.00000" pt_clust_6="13000.00000" pt_clust_7="13000.00000" pt_clust_8="13000.00000" pt_clust_9="13000.00000"></scales>
<clustering>
<clus scale="   79.009">  5  6 -1 -1</clus>
<clus scale="   90.308">  7  8 -1 -1</clus>
<clus scale="  132.423">  1  7  2 -1</clus>
<clus scale="  105.858">  5  9 -1 -1</clus>
<clus scale="  300.650">  2  5  1 -1</clus>
</clustering>
</event>
<event>
 9    1  0.4516508E-005  0.1747623E+03  0.7546771E-02  0.1190585E+00
         21   -1    0    0  501  502  0.00000000000E+00  0.00000000000E+00  0.36939684679E+03  0.36939684679E+03  0.00000000000E+00 0. -1.
          1   -1    0    0  502    0 -0.00000000000E+00 -0.00000000000E+00 -0.58955398529E+02  0.58955398529E+02  0.00000000000E+00 0. -1.
         23    2    1    2    0    0 -0.40909935840E+02  0.58887819907E+02  0.97562497937E+02  0.15292658776E+03  0.93416818909E+02 0.  0.
        -24    2    1    2    0    0  0.68977680313E+02 -0.26842975282E+00  0.14933068969E+03  0.18452784344E+03  0.83623427862E+02 0.  0.
         11    1    4    4    0    0  0.53951823515E+02 -0.67685053781E+01  0.15721803028E+03  0.16635540560E+03  0.00000000000E+00 0. -1.
        -12    1    4    4    0    0  0.15025856799E+02  0.65000756253E+01 -0.78873405936E+01  0.18172437847E+02  0.00000000000E+00 0.  1.
        -11    1    3    3    0    0 -0.57933749642E+02  0.70434711459E+02  0.95818976102E+02  0.13228244066E+03  0.00000000000E+00 0. -1.
         11    1    3    3    0    0  0.17023813802E+02 -0.11546891552E+02  0.17435218347E+01  0.20644147095E+02  0.00000000000E+00 0.  1.
          2    1    1    2  501    0 -0.28067744474E+02 -0.58619390154E+02  0.63548260633E+02  0.90897814118E+02  0.00000000000E+00 0. -1.
<scales pt_clust_5="13000.00000" pt_clust_6="13000.00000" pt_clust_7="13000.00000" pt_clust_8="13000.00000" pt_clust_9="13000.00000"></scales>
<clustering>
<clus scale="   83.623">  5  6 -1 -1</clus>
<clus scale="   64.993">  5  9 -1 -1</clus>
<clus scale="   93.417">  7  8 -1 -1</clus>
<clus scale="  117.763">  2  7  1 -1</clus>
<clus scale="  174.762">  1  5  2 -1</clus>
</clustering>
</event>
<event>
 9    1  0.4516508E-005  0.1937140E+03  0.7546771E-02  0.1166888E+00
         21   -1    0    0  501  502  0.00000000000E+00  0.00000000000E+00  0.35471015210E+02  0.35471015210E+02  0.00000000000E+00 0.  1.
         -2   -1    0    0    0  501 -0.00000000000E+00 -0.00000000000E+00 -0.82050871309E+03  0.82050871309E+03  0.00000000000E+00 0.  1.
         23    2    1    2    0    0 -0.11016294575E+03 -0.43167404887E+02 -0.34076939406E+03  0.37131549299E+03  0.88046101240E+02 0.  0.
        -24    2    1    2    0    0  0.69568093019E+02 -0.88715958947E+01 -0.15168906655E+03  0.18473322699E+03  0.78729711446E+02 0.  0.
         11    1    4    4    0    0 -0.28942633913E+01  0.22031309844E+02 -0.59254708976E+02  0.63284088915E+02  0.00000000000E+00 0. -1.
        -12    1    4    4    0    0  0.72462356411E+02 -0.30902905738E+02 -0.92434357575E+02  0.12144913808E+03  0.00000000000E+00 0.  1.
        -11    1    3    3    0    0 -0.94539694838E+02  0.68775740313E+01 -0.22993500449E+03  0.24870697862E+03  0.00000000000E+00 0.  1.
         11    1    3    3    0    0 -0.15623250912E+02 -0.50044978918E+02 -0.11083438957E+03  0.12260851437E+03  0.00000000000E+00 0. -1.
         -1    1    1    2    0  502  0.40594852730E+02  0.52039000781E+02 -0.29257923727E+03  0.29993100832E+03  0.00000000000E+00 0.  1.
<scales pt_clust_5="13000.00000" pt_clust_6="13000.00000" pt_clust_7="13000.00000" pt_clust_8="13000.00000" pt_clust_9="13000.00000"></scales>
<clustering>
<clus scale="   78.730">  5  6 -1 -1</clus>
<clus scale="   66.000">  5  9 -1 -1</clus>
<clus scale="   88.046">  7  8 -1 -1</clus>
<clus scale="  147.484">  2  7  1 -1</clus>
<clus scale="  193.714">  1  5  2 -1</clus>
</clustering>
</event>
<event>
 9    1  0.4516508E-005  0.3641979E+03  0.7546771E-02  0.1107349E+00
         21   -1    0    0  501  502  0.00000000000E+00  0.00000000000E+00  0.42262103910E+02  0.42262103910E+02  0.00000000000E+00 0. -1.
          1   -1    0    0  502    0 -0.00000000000E+00 -0.00000000000E+00 -0.15045658742E+04  0.15045658742E+04  0.00000000000E+00 0. -1.
         23    2    1    2    0    0 -0.11119460425E+02 -0.25063189429E+02 -0.10271048176E+03  0.13930034931E+03  0.90018544704E+02 0.  0.
        -24    2    1    2    0    0  0.11714787815E+03 -0.10022808874E+03 -0.43573191324E+03  0.46919945033E+03  0.80725019955E+02 0.  0.
         11    1    4    4    0    0  0.12516012931E+03 -0.77994341745E+02 -0.40037552592E+03  0.42667169705E+03  0.00000000000E+00 0. -1.
        -12    1    4    4    0    0 -0.80122511612E+01 -0.22233746999E+02 -0.35356387323E+02  0.42527753277E+02  0.00000000000E+00 0.  1.
        -11    1    3    3    0    0  0.27631368795E+02 -0.42964461656E+02 -0.50088207035E+02  0.71542057496E+02  0.00000000000E+00 0.  1.
         11    1    3    3    0    0 -0.38750829219E+02  0.17901272227E+02 -0.52622274720E+02  0.67758291812E+02  0.00000000000E+00 0. -1.
          2    1    1    2  501    0 -0.10602841772E+03  0.12529127817E+03 -0.92386137533E+03  0.93832817850E+03  0.00000000000E+00 0. -1.
<scales pt_clust_5="13000.00000" pt_clust_6="13000.00000" pt_clust_7="13000.00000" pt_clust_8="13000.00000" pt_clust_9="13000.00000"></scales>
<clustering>
<clus scale="   80.725">  5  6 -1 -1</clus>
<clus scale="   90.019">  7  8 -1 -1</clus>
<clus scale="   94.102">  2  7  1 -1</clus>
<clus scale="  156.974">  5  9 -1 -1</clus>
<clus scale="  364.198">  1  5  2 -1</clus>
</clustering>
</event>
<event>
 9    1  0.4516508E-005  0.2085362E+03  0.7546771E-02  0.1147603E+00
          3   -1    0    0  502    0 -0.00000000000E+00  0.00000000000E+00  0.93978892383E+02  0.93978892383E+02  0.00000000000E+00 0. -1.
         21   -1    0    0  501  502  0.00000000000E+00 -0.00000000000E+00 -0.42290087630E+03  0.42290087630E+03  0.00000000000E+00 0. -1.
         23    2    1    2    0    0  0.21407412700E+02  0.15894030392E+03 -0.19405665075E+03  0.26853322718E+03  0.93444169811E+02 0.  0.
        -24    2    1    2    0    0 -0.39597847188E+02 -0.77409521040E+02 -0.10860072449E+03  0.16077948073E+03  0.80595909411E+02 0.  0.
         11    1    4    4    0    0 -0.64299822911E+02 -0.58904479882E+02 -0.73565834109E+02  0.11408828566E+03  0.00000000000E+00 0. -1.
        -12    1    4    4    0    0  0.24701975723E+02 -0.18505041157E+02 -0.35034890384E+02  0.46691195070E+02  0.00000000000E+00 0.  1.
        -13    1    3    3    0    0  0.26276649440E+02  0.61954668820E+01 -0.57775059616E+02  0.63771495430E+02  0.00000000000E+00 0.  1.
         13    1    3    3    0    0 -0.48692367405E+01  0.15274483704E+03 -0.13628159114E+03  0.20476173175E+03  0.00000000000E+00 0. -1.
          4    1    1    2  501    0  0.18190434488E+02 -0.81530782879E+02 -0.26264608676E+02  0.87567060774E+02  0.00000000000E+00 0. -1.
<scales pt_clust_5="13000.00000" pt_clust_6="13000.00000" pt_clust_7="13000.00000" pt_clust_8="13000.00000" pt_clust_9="13000.00000"></scales>
<clustering>
<clus scale="   80.596">  5  6 -1 -1</clus>
<clus scale="   83.535">  5  9 -1 -1</clus>
<clus scale="   93.444">  7  8 -1 -1</clus>
<clus scale="  185.613">  1  7  2 -1</clus>
<clus scale="  208.536">  2  5  1 -1</clus>
</clustering>
</event>
<event>
 9    1  0.4516508E-005  0.5494090E+03  0.7546771E-02  0.1017200E+00
          1   -1    0    0  502    0 -0.00000000000E+00  0.00000000000E+00  0.12613788841E+04  0.12613788841E+04  0.00000000000E+00 0. -1.
         21   -1    0    0  501  502  0.00000000000E+00 -0.00000000000E+00 -0.17082222031E+03  0.17082222031E+03  0.00000000000E+00 0. -1.
         23    2    1    2    0    0  0.26710173671E+02  0.32796905238E+03  0.62849909233E+03  0.71432403145E+03  0.83490000359E+02 0.  0.
        -24    2    1    2    0    0 -0.92692843514E+02  0.54602437520E+02  0.31057395573E+02  0.13781172386E+03  0.80337537877E+02 0.  0.
         11    1    4    4    0    0 -0.28612302572E+02  0.40599071700E+02 -0.21144515368E+02  0.53981839646E+02  0.00000000000E+00 0. -1.
        -12    1    4    4    0    0 -0.64080540942E+02  0.14003365820E+02  0.52201910941E+02  0.83829884216E+02  0.00000000000E+00 0.  1.
        -11    1    3    3    0    0 -0.16227256854E+02  0.16994366092E+03  0.38172027986E+03  0.41815612373E+03  0.00000000000E+00 0. -1.
         11    1    3    3    0    0  0.42937430525E+02  0.15802539146E+03  0.24677881246E+03  0.29616790772E+03  0.00000000000E+00 0.  1.
          2    1    1    2  501    0  0.65982669843E+02 -0.38257148990E+03  0.43100017587E+03  0.58006534908E+03  0.00000000000E+00 0. -1.
<scales pt_clust_5="13000.00000" pt_clust_6="13000.00000" pt_clust_7="13000.00000" pt_clust_8="13000.00000" pt_clust_9="13000.00000"></scales>
<clustering>
<clus scale="   80.338">  5  6 -1 -1</clus>
<clus scale="   83.490">  7  8 -1 -1</clus>
<clus scale="  339.482">  1  7  2 -1</clus>
<clus scale="  134.938">  5  9 -1 -1</clus>
<clus scale="  549.409">  2  5  1 -1</clus>
</clustering>
</event>
<event>
 9    1  0.4516508E-005  0.3402391E+03  0.7546771E-02  0.1108742E+00
          3   -1    0    0  502    0 -0.00000000000E+00  0.00000000000E+00  0.79184871242E+03  0.79184871242E+03  0.00000000000E+00 0. -1.
         21   -1    0    0  501  502  0.00000000000E+00 -0.00000000000E+00 -0.64494463682E+02  0.64494463682E+02  0.00000000000E+00 0. -1.
         23    2    1    2    0    0  0.14679648223E+02  0.54411991247E+02  0.19435896767E+03  0.22400892425E+03  0.96064733217E+02 0.  0.
        -24    2    1    2    0    0 -0.15247334236E+03 -0.89323121547E+02  0.25853994433E+03  0.32325235166E+03  0.80140126436E+02 0.  0.
         11    1    4    4    0    0 -0.14170672181E+03 -0.45414258071E+02  0.20015770878E+03  0.24941202502E+03  0.00000000000E+00 0. -1.
        -12    1    4    4    0    0 -0.10766620551E+02 -0.43908863476E+02  0.58382235549E+02  0.73840326635E+02  0.00000000000E+00 0.  1.
        -11    1    3    3    0    0 -0.12795270163E+02  0.74574011062E+02  0.15065999538E+03  0.16859251547E+03  0.00000000000E+00 0. -1.
         11    1    3    3    0    0  0.27474918386E+02 -0.20162019815E+02  0.43698972289E+02  0.55416408783E+02  0.00000000000E+00 0.  1.
          4    1    1    2  501    0  0.13779369413E+03  0.34911130300E+02  0.27445533674E+03  0.30908190019E+03  0.00000000000E+00 0. -1.
<scales pt_clust_5="13000.00000" pt_clust_6="13000.00000" pt_clust_7="13000.00000" pt_clust_8="13000.00000" pt_clust_9="13000.00000"></scales>
<clustering>
<clus scale="   80.140">  5  6 -1 -1</clus>
<clus scale="   96.065">  7  8 -1 -1</clus>
<clus scale="  111.376">  1  7  2 -1</clus>
<clus scale="  157.894">  5  9 -1 -1</clus>
<clus scale="  340.239">  2  5  1 -1</clus>
</clustering>
</event>
<event>
 9    1  0.4516508E-005  0.2207078E+03  0.7546771E-02  0.1155012E+00
          1   -1    0    0  502    0 -0.00000000000E+00  0.00000000000E+00  0.82956565909E+03  0.82956565909E+03  0.00000000000E+00 0. -1.
         21   -1    0    0  501  502  0.00000000000E+00 -0.00000000000E+00 -0.53239930234E+02  0.53239930234E+02  0.00000000000E+00 0. -1.
         23    2    1    2    0    0  0.11953843202E+01  0.96248293377E+02  0.55460381541E+03  0.56995970109E+03  0.89462315411E+02 0.  0.
        -24    2    1    2    0    0  0.67489820891E+02 -0.88239181566E+02  0.17673921066E+03  0.23035196823E+03  0.97387122334E+02 0.  0.
         11    1    4    4    0    0  0.59781200122E+02 -0.13281985649E+02  0.36883500278E+02  0.71488429998E+02  0.00000000000E+00 0. -1.
        -12    1    4    4    0    0  0.77086207690E+01 -0.74957195917E+02  0.13985571038E+03  0.15886353824E+03  0.00000000000E+00 0.  1.
        -11    1    3    3    0    0 -0.43520320128E+02  0.37621880656E+02  0.25664136205E+03  0.26300991023E+03  0.00000000000E+00 0.  1.
         11    1    3    3    0    0  0.44715704448E+02  0.58626412721E+02  0.29796245336E+03  0.30694979086E+03  0.00000000000E+00 0. -1.
          2    1    1    2  501    0 -0.68685205211E+02 -0.80091118111E+01  0.44982702784E+02  0.82493919998E+02  0.00000000000E+00 0. -1.
<scales pt_clust_5="13000.00000" pt_clust_6="13000.00000" pt_clust_7="13000.00000" pt_clust_8="13000.00000" pt_clust_9="13000.00000"></scales>
<clustering>
<clus scale="   89.462">  7  8 -1 -1</clus>
<clus scale="   97.387">  5  6 -1 -1</clus>
<clus scale="   69.151">  5  9 -1 -1</clus>
<clus scale="  131.410">  1  7  2 -1</clus>
<clus scale="  220.708">  2  5  1 -1</clus>
</clustering>
</event>
<event>
 9    1  0.4516508E-005  0.3342000E+03  0.7546771E-02  0.1113185E+00
          1   -1    0    0  502    0 -0.00000000000E+00  0.00000000000E+00  0.26848370889E+03  0.26848370889E+03  0.00000000000E+00 0. -1.
         21   -1    0    0  501  502  0.00000000000E+00 -0.00000000000E+00 -0.19297765381E+03  0.19297765381E+03  0.00000000000E+00 0.  1.
         23    2    1    2    0    0 -0.30953289888E+02 -0.74395506763E+02 -0.33088129424E+02  0.11006086484E+03  0.67273858815E+02 0.  0.
        -24    2    1    2    0    0 -0.27368778802E+02 -0.20148730537E+01 -0.93231617788E+02  0.12785259625E+03  0.83072510766E+02 0.  0.
         13    1    4    4    0    0  0.22363790811E+02 -0.33292213753E+01 -0.49678373336E+00  0.22615694738E+02  0.00000000000E+00 0. -1.
        -14    1    4    4    0    0 -0.49732569613E+02  0.13143483215E+01 -0.92734834055E+02  0.10523690151E+03  0.00000000000E+00 0.  1.
        -11    1    3    3    0    0 -0.92143679548E+01 -0.34415159345E+02 -0.50100541250E+02  0.61476597199E+02  0.00000000000E+00 0.  1.
         11    1    3    3    0    0 -0.21738921933E+02 -0.39980347418E+02  0.17012411826E+02  0.48584267645E+02  0.00000000000E+00 0. -1.
          2    1    1    2  501    0  0.58322068690E+02  0.76410379817E+02  0.20182580230E+03  0.22354790161E+03  0.00000000000E+00 0. -1.
<scales pt_clust_5="13000.00000" pt_clust_6="13000.00000" pt_clust_7="13000.00000" pt_clust_8="13000.00000" pt_clust_9="13000.00000"></scales>
<clustering>
<clus scale="   67.274">  7  8 -1 -1</clus>
<clus scale="   83.073">  5  6 -1 -1</clus>
<clus scale="   96.125">  5  9 -1 -1</clus>
<clus scale="  104.969">  1  7  2 -1</clus>
<clus scale="  334.200">  2  5  1 -1</clus>
</clustering>
</event>
<event>
 9    1  0.4516508E-005  0.1795476E+03  0.7546771E-02  0.1197990E+00
         21   -1    0    0  501  502  0.00000000000E+00  0.00000000000E+00  0.59072581719E+02  0.59072581719E+02  0.00000000000E+00 0. -1.
          3   -1    0    0  502    0 -0.00000000000E+00 -0.00000000000E+00 -0.33730971692E+03  0.33730971692E+03  0.00000000000E+00 0. -1.
         23    2    1    2    0    0  0.17182918964E+01  0.64968620480E+01 -0.14854188133E+03  0.17489146403E+03  0.92071558776E+02 0.  0.
        -24    2    1    2    0    0 -0.31050166047E+02 -0.67416672114E+02 -0.96578608510E+02  0.14620275920E+03  0.80862220383E+02 0.  0.
         13    1    4    4    0    0 -0.18068440273E+02 -0.79681372489E+02 -0.48736257923E+02  0.95135758219E+02  0.00000000000E+00 0. -1.
        -14    1    4    4    0    0 -0.12981725774E+02  0.12264700375E+02 -0.47842350587E+02  0.51067000979E+02  0.00000000000E+00 0.  1.
        -13    1    3    3    0    0  0.29666833272E+02 -0.26861337589E+02 -0.10891176322E+03  0.11603199826E+03  0.00000000000E+00 0. -1.
         13    1    3    3    0    0 -0.27948541376E+02  0.33358199637E+02 -0.39630118115E+02  0.58859465762E+02  0.00000000000E+00 0.  1.
          4    1    1    2  501    0  0.29331874150E+02  0.60919810066E+02 -0.33116645355E+02  0.75288075411E+02  0.00000000000E+00 0. -1.
<scales pt_clust_5="13000.00000" pt_clust_6="13000.00000" pt_clust_7="13000.00000" pt_clust_8="13000.00000" pt_clust_9="13000.00000"></scales>
<clustering>
<clus scale="   80.862">  5  6 -1 -1</clus>
<clus scale="   67.614">  5  9 -1 -1</clus>
<clus scale="   92.072">  7  8 -1 -1</clus>
<clus scale="   92.316">  2  7  1 -1</clus>
<clus scale="  179.548">  1  5  2 -1</clus>
</clustering>
</event>
<event>
 9    1  0.4516508E-005  0.2202047E+03  0.7546771E-02  0.1143821E+00
          1   -1    0    0  502    0 -0.00000000000E+00  0.00000000000E+00  0.45186833699E+03  0.45186833699E+03  0.00000000000E+00 0. -1.
         21   -1    0    0  501  502  0.00000000000E+00 -0.00000000000E+00 -0.90975207325E+02  0.90975207325E+02  0.00000000000E+00 0. -1.
         23    2    1    2    0    0  0.90746732954E+02 -0.11566820804E+03  0.22699582945E+03  0.28512547602E+03  0.90306846882E+02 0.  0.
        -24    2    1    2    0    0 -0.67791839599E+02  0.14091334404E+03  0.82123143602E+02  0.19571155805E+03  0.84300054533E+02 0.  0.
         13    1    4    4    0    0 -0.64397533833E+02  0.14385716487E+03  0.53062461473E+02  0.16630559541E+03  0.00000000000E+00 0. -1.
        -14    1    4    4    0    0 -0.33943057664E+01 -0.29438208311E+01  0.29060682129E+02  0.29405962636E+02  0.00000000000E+00 0.  1.
        -11    1    3    3    0    0 -0.69757557533E+01 -0.32203286131E+02  0.12830937863E+02  0.35360228681E+02  0.00000000000E+00 0.  1.
         11    1    3    3    0    0  0.97722488707E+02 -0.83464921907E+02  0.21416489159E+03  0.24976524734E+03  0.00000000000E+00 0. -1.
          2    1    1    2  501    0 -0.22954893354E+02 -0.25245136000E+02  0.51774156614E+02  0.62006510252E+02  0.00000000000E+00 0. -1.
<scales pt_clust_5="13000.00000" pt_clust_6="13000.00000" pt_clust_7="13000.00000" pt_clust_8="13000.00000" pt_clust_9="13000.00000"></scales>
<clustering>
<clus scale="   84.300">  5  6 -1 -1</clus>
<clus scale="   34.121">  5  9 -1 -1</clus>
<clus scale="   90.307">  7  8 -1 -1</clus>
<clus scale="  172.538">  1  7  2 -1</clus>
<clus scale="  220.205">  2  5  1 -1</clus>
</clustering>
</event>
<event>
 9    1  0.4516508E-005  0.1672871E+03  0.7546771E-02  0.1194289E+00
          1   -1    0    0  502    0 -0.00000000000E+00  0.00000000000E+00  0.47276746756E+03  0.47276746756E+03  0.00000000000E+00 0. -1.
         21   -1    0    0  501  502  0.00000000000E+00 -0.00000000000E+00 -0.60654328266E+02  0.60654328266E+02  0.00000000000E+00 0. -1.
         23    2    1    2    0    0  0.31772662448E+02  0.73002789484E+02  0.31855583036E+03  0.34175032718E+03  0.94744708114E+02 0.  0.
        -24    2    1    2    0    0  0.27282470939E+02 -0.49079865047E+02  0.22289472770E+02  0.96073772211E+02  0.74700620726E+02 0.  0.
         13    1    4    4    0    0  0.36344088354E+02 -0.33407263990E+02 -0.17487105951E+02  0.52371145874E+02  0.00000000000E+00 0. -1.
        -14    1    4    4    0    0 -0.90616174148E+01 -0.15672601057E+02  0.39776578721E+02  0.43702626337E+02  0.00000000000E+00 0.  1.
        -11    1    3    3    0    0 -0.10196145052E+02  0.32218001009E+02  0.24027385053E+02  0.41464155549E+02  0.00000000000E+00 0.  1.
         11    1    3    3    0    0  0.41968807499E+02  0.40784788475E+02  0.29452844531E+03  0.30028617163E+03  0.00000000000E+00 0. -1.
          2    1    1    2  501    0 -0.59055133387E+02 -0.23922924437E+02  0.71267836160E+02  0.95597696436E+02  0.00000000000E+00 0. -1.
<scales pt_clust_5="13000.00000" pt_clust_6="13000.00000" pt_clust_7="13000.00000" pt_clust_8="13000.00000" pt_clust_9="13000.00000"></scales>
<clustering>
<clus scale="   74.701">  5  6 -1 -1</clus>
<clus scale="   63.717">  5  9 -1 -1</clus>
<clus scale="   94.745">  7  8 -1 -1</clus>
<clus scale="  123.756">  1  7  2 -1</clus>
<clus scale="  167.287">  2  5  1 -1</clus>
</clustering>
</event>
<event>
 9    1  0.4516508E-005  0.3750446E+03  0.7546771E-02  0.1089539E+00
         21   -1    0    0  501  502  0.00000000000E+00  0.00000000000E+00  0.85677588155E+02  0.85677588155E+02  0.00000000000E+00 0.  1.
         -2   -1    0    0    0  501 -0.00000000000E+00 -0.00000000000E+00 -0.77706447395E+03  0.77706447395E+03  0.00000000000E+00 0.  1.
         23    2    1    2    0    0 -0.47136104209E+02  0.90528710942E+02 -0.23519336448E+03  0.27217373143E+03  0.91352950484E+02 0.  0.
        -24    2    1    2    0    0 -0.11216876543E+03 -0.14144760931E+03 -0.17845103699E+03  0.26635904132E+03  0.80703829985E+02 0.  0.
         11    1    4    4    0    0 -0.58441165140E+01 -0.57796956235E+02 -0.80783709896E+02  0.99502008183E+02  0.00000000000E+00 0. -1.
        -12    1    4    4    0    0 -0.10632464891E+03 -0.83650653076E+02 -0.97667327095E+02  0.16685703314E+03  0.00000000000E+00 0.  1.
        -13    1    3    3    0    0 -0.49588031163E+02  0.25710257971E+02 -0.46618919178E+02  0.72755163561E+02  0.00000000000E+00 0. -1.
         13    1    3    3    0    0  0.24519269536E+01  0.64818452972E+02 -0.18857444530E+03  0.19941856787E+03  0.00000000000E+00 0.  1.
         -1    1    1    2    0  502  0.15930486964E+03  0.50918898369E+02 -0.27774248433E+03  0.32420928935E+03  0.00000000000E+00 0.  1.
<scales pt_clust_5="13000.00000" pt_clust_6="13000.00000" pt_clust_7="13000.00000" pt_clust_8="13000.00000" pt_clust_9="13000.00000"></scales>
<clustering>
<clus scale="   80.704">  5  6 -1 -1</clus>
<clus scale="   91.353">  7  8 -1 -1</clus>
<clus scale="  136.977">  2  7  1 -1</clus>
<clus scale="  167.574">  5  9 -1 -1</clus>
<clus scale="  375.045">  1  5  2 -1</clus>
</clustering>
</event>
<event>
 9    1  0.4516508E-005  0.3883188E+03  0.7546771E-02  0.1077305E+00
          1   -1    0    0  502    0 -0.00000000000E+00  0.00000000000E+00  0.47124057058E+03  0.47124057058E+03  0.00000000000E+00 0. -1.
         21   -1    0    0  501  502  0.00000000000E+00 -0.00000000000E+00 -0.16616610692E+03  0.16616610692E+03  0.00000000000E+00 0. -1.
         23    2    1    2    0    0 -0.68450335724E+01  0.14552685062E+03  0.99663118949E+02  0.19810576836E+03  0.89934639832E+02 0.  0.
        -24    2    1    2    0    0 -0.31309961167E+02  0.10082760210E+03  0.11227443251E+03  0.17317912423E+03  0.78986972718E+02 0.  0.
         11    1    4    4    0    0 -0.26039502673E+02  0.57387352472E+02  0.12521996681E+02  0.64250792400E+02  0.00000000000E+00 0. -1.
        -12    1    4    4    0    0 -0.52704584942E+01  0.43440249624E+02  0.99752435831E+02  0.10892833183E+03  0.00000000000E+00 0.  1.
        -11    1    3    3    0    0 -0.11651969075E+02  0.52298606542E+02 -0.95572696644E+01  0.54426593068E+02  0.00000000000E+00 0.  1.
         11    1    3    3    0    0  0.48069355023E+01  0.93228244078E+02  0.10922038861E+03  0.14367917529E+03  0.00000000000E+00 0. -1.
          2    1    1    2  501    0  0.38154994739E+02 -0.24635445272E+03  0.93136912198E+02  0.26612178492E+03  0.00000000000E+00 0. -1.
<scales pt_clust_5="13000.00000" pt_clust_6="13000.00000" pt_clust_7="13000.00000" pt_clust_8="13000.00000" pt_clust_9="13000.00000"></scales>
<clustering>
<clus scale="   78.987">  5  6 -1 -1</clus>
<clus scale="   89.935">  7  8 -1 -1</clus>
<clus scale="  171.211">  1  7  2 -1</clus>
<clus scale="  168.792">  5  9 -1 -1</clus>
<clus scale="  388.319">  2  5  1 -1</clus>
</clustering>
</event>
<event>
 9    1  0.4516508E-005  0.2073660E+03  0.7546771E-02  0.1175189E+00
         -2   -1    0    0    0  501 -0.00000000000E+00  0.00000000000E+00  0.51780581011E+02  0.51780581011E+02  0.00000000000E+00 0.  1.
         21   -1    0    0  501  502  0.00000000000E+00 -0.00000000000E+00 -0.50803170329E+03  0.50803170329E+03  0.00000000000E+00 0.  1.
         23    2    1    2    0    0  0.36726401861E+02 -0.78934725675E+01 -0.70714384167E+02  0.12204608372E+03  0.92106389135E+02 0.  0.
        -24    2    1    2    0    0  0.60532167315E+02 -0.19781477787E+01 -0.25845438256E+03  0.27743341149E+03  0.80638536683E+02 0.  0.
         11    1    4    4    0    0  0.93605702855E+01  0.35832343072E+02 -0.87018893365E+02  0.94572009012E+02  0.00000000000E+00 0. -1.
        -12    1    4    4    0    0  0.51171597030E+02 -0.37810490851E+02 -0.17143548919E+03  0.18286140247E+03  0.00000000000E+00 0.  1.
        -13    1    3    3    0    0 -0.18795075674E+02  0.19491453759E+02 -0.49828280531E+02  0.56710044788E+02  0.00000000000E+00 0. -1.
         13    1    3    3    0    0  0.55521477535E+02 -0.27384926327E+02 -0.20886103636E+02  0.65336038927E+02  0.00000000000E+00 0.  1.
         -1    1    1    2    0  502 -0.97258569176E+02  0.98716203462E+01 -0.12708235556E+03  0.16033278910E+03  0.00000000000E+00 0.  1.
<scales pt_clust_5="13000.00000" pt_clust_6="13000.00000" pt_clust_7="13000.00000" pt_clust_8="13000.00000" pt_clust_9="13000.00000"></scales>
<clustering>
<clus scale="   80.639">  5  6 -1 -1</clus>
<clus scale="   92.106">  7  8 -1 -1</clus>
<clus scale="   97.758">  5  9 -1 -1</clus>
<clus scale="   99.472">  1  7  2 -1</clus>
<clus scale="  207.366">  2  5  1 -1</clus>
</clustering>
</event>
<event>
 9    1  0.4516508E-005  0.1811254E+03  0.7546771E-02  0.1196165E+00
          1   -1    0    0  502    0 -0.00000000000E+00  0.00000000000E+00  0.48538266147E+03  0.48538266147E+03  0.00000000000E+00 0. -1.
         21   -1    0    0  501  502  0.00000000000E+00 -0.00000000000E+00 -0.40410512166E+02  0.40410512166E+02  0.00000000000E+00 0. -1.
         23    2    1    2    0    0 -0.13913922426E+01 -0.24020214750E+02  0.10549587087E+03  0.14101978308E+03  0.90433919303E+02 0.  0.
        -24    2    1    2    0    0  0.62909112407E+02  0.31325313946E+01  0.12434145889E+03  0.16004307264E+03  0.78648696903E+02 0.  0.
         13    1    4    4    0    0  0.68175991235E+02  0.28963388732E+02  0.97182235065E+02  0.12219341423E+03  0.00000000000E+00 0. -1.
        -14    1    4    4    0    0 -0.52668788282E+01 -0.25830857338E+02  0.27159223824E+02  0.37849658415E+02  0.00000000000E+00 0.  1.
        -11    1    3    3    0    0 -0.72932116002E+01  0.20016959870E+02  0.92218649012E+02  0.94647497819E+02  0.00000000000E+00 0.  1.
         11    1    3    3    0    0  0.59018193576E+01 -0.44037174620E+02  0.13277221861E+02  0.46372285263E+02  0.00000000000E+00 0. -1.
          2    1    1    2  501    0 -0.61517720164E+02  0.20887683356E+02  0.21513481954E+03  0.22473031791E+03  0.00000000000E+00 0. -1.
<scales pt_clust_5="13000.00000" pt_clust_6="13000.00000" pt_clust_7="13000.00000" pt_clust_8="13000.00000" pt_clust_9="13000.00000"></scales>
<clustering>
<clus scale="   78.649">  5  6 -1 -1</clus>
<clus scale="   64.967">  5  9 -1 -1</clus>
<clus scale="   90.434">  7  8 -1 -1</clus>
<clus scale="   93.580">  1  7  2 -1</clus>
<clus scale="  181.125">  2  5  1 -1</clus>
</clustering>
</event>
<event>
 9    1  0.4516508E-005  0.3113306E+03  0.7546771E-02  0.1108706E+00
         21   -1    0    0  501  502  0.00000000000E+00  0.00000000000E+00  0.50905010586E+03  0.50905010586E+03  0.00000000000E+00 0.  1.
         -4   -1    0    0    0  501 -0.00000000000E+00 -0.00000000000E+00 -0.14783164112E+03  0.14783164112E+03  0.00000000000E+00 0.  1.
         23    2    1    2    0    0  0.45252698493E+02 -0.10308829631E+03 -0.38225357041E+02  0.15044110800E+03  0.92175623117E+02 0.  0.
        -24    2    1    2    0    0 -0.55442532464E+02 -0.22936507371E+02  0.36064539450E+03  0.37418557549E+03  0.79685547984E+02 0.  0.
         13    1    4    4    0    0 -0.18170510286E+02 -0.19111637377E+02  0.24618317845E+02  0.36076082115E+02  0.00000000000E+00 0. -1.
        -14    1    4    4    0    0 -0.37272022179E+02 -0.38248699943E+01  0.33602707665E+03  0.33810949337E+03  0.00000000000E+00 0.  1.
        -13    1    3    3    0    0  0.69066459311E+02 -0.68074218584E+02 -0.46091671796E+02  0.10737186432E+03  0.00000000000E+00 0.  1.
         13    1    3    3    0    0 -0.23813760818E+02 -0.35014077731E+02  0.78663147552E+01  0.43069243684E+02  0.00000000000E+00 0. -1.
         -3    1    1    2    0  502  0.10189833971E+02  0.12602480369E+03  0.38798427287E+02  0.13225506350E+03  0.00000000000E+00 0.  1.
<scales pt_clust_5="13000.00000" pt_clust_6="13000.00000" pt_clust_7="13000.00000" pt_clust_8="13000.00000" pt_clust_9="13000.00000"></scales>
<clustering>
<clus scale="   79.686">  5  6 -1 -1</clus>
<clus scale="   92.176">  7  8 -1 -1</clus>
<clus scale="  126.436">  5  9 -1 -1</clus>
<clus scale="  145.504">  2  7  1 -1</clus>
<clus scale="  311.331">  1  5  2 -1</clus>
</clustering>
</event>
<event>
 9    1  0.4516508E-005  0.3732097E+03  0.7546771E-02  0.1096631E+00
         21   -1    0    0  501  502  0.00000000000E+00  0.00000000000E+00  0.31255786208E+02  0.31255786208E+02  0.00000000000E+00 0.  1.
         -2   -1    0    0    0  501 -0.00000000000E+00 -0.00000000000E+00 -0.19207589889E+04  0.19207589889E+04  0.00000000000E+00 0.  1.
         23    2    1    2    0    0 -0.71450913669E+02  0.29259779376E+01 -0.38504481333E+03  0.40195654448E+03  0.90530442215E+02 0.  0.
        -24    2    1    2    0    0 -0.10375293108E+03  0.41619451193E+02 -0.29515001174E+03  0.32731237206E+03  0.86735287190E+02 0.  0.
         11    1    4    4    0    0 -0.24935886322E+02 -0.18254197734E+02 -0.13930859958E+03  0.14269512984E+03  0.00000000000E+00 0. -1.
        -12    1    4    4    0    0 -0.78817044761E+02  0.59873648927E+02 -0.15584141216E+03  0.18461724222E+03  0.00000000000E+00 0.  1.
        -11    1    3    3    0    0 -0.79893551780E+02  0.31263955607E+02 -0.28802586927E+03  0.30053172196E+03  0.00000000000E+00 0.  1.
         11    1    3    3    0    0  0.84426381107E+01 -0.28337977669E+02 -0.97018944059E+02  0.10142482252E+03  0.00000000000E+00 0. -1.
         -1    1    1    2    0  502  0.17520384475E+03 -0.44545429131E+02 -0.12093083776E+04  0.12227458586E+04  0.00000000000E+00 0.  1.
<scales pt_clust_5="13000.00000" pt_clust_6="13000.00000" pt_clust_7="13000.00000" pt_clust_8="13000.00000" pt_clust_9="13000.00000"></scales>
<clustering>
<clus scale="   86.735">  5  6 -1 -1</clus>
<clus scale="   90.530">  7  8 -1 -1</clus>
<clus scale="  115.367">  2  7  1 -1</clus>
<clus scale="  125.620">  5  9 -1 -1</clus>
<clus scale="  373.210">  1  5  2 -1</clus>
</clustering>
</event>
<event>
 9    1  0.4516508E-005  0.1556511E+03  0.7546771E-02  0.1205900E+00
         21   -1    0    0  501  502  0.00000000000E+00  0.00000000000E+00  0.62006722188E+02  0.62006722188E+02  0.00000000000E+00 0. -1.
          3   -1    0    0  502    0 -0.00000000000E+00 -0.00000000000E+00 -0.36998105646E+03  0.36998105646E+03  0.00000000000E+00 0. -1.
         23    2    1    2    0    0  0.50250650524E+02 -0.49935174358E+02 -0.22711373713E+03  0.25658622675E+03  0.96110315001E+02 0.  0.
        -24    2    1    2    0    0  0.11110693502E+02  0.28029175246E+02 -0.66239708051E+02  0.10862687305E+03  0.80641282542E+02 0.  0.
         13    1    4    4    0    0  0.27337871079E+02  0.50146279649E+02 -0.34708551908E+02  0.66833316043E+02  0.00000000000E+00 0. -1.
        -14    1    4    4    0    0 -0.16227177576E+02 -0.22117104403E+02 -0.31531156143E+02  0.41793557003E+02  0.00000000000E+00 0.  1.
        -11    1    3    3    0    0  0.19926305287E+02  0.28764009135E+02 -0.62745981107E+02  0.71843468798E+02  0.00000000000E+00 0.  1.
         11    1    3    3    0    0  0.30324345237E+02 -0.78699183493E+02 -0.16436775602E+03  0.18474275795E+03  0.00000000000E+00 0. -1.
          4    1    1    2  501    0 -0.61361344026E+02  0.21905999112E+02 -0.14620889092E+02  0.66774678851E+02  0.00000000000E+00 0. -1.
<scales pt_clust_5="13000.00000" pt_clust_6="13000.00000" pt_clust_7="13000.00000" pt_clust_8="13000.00000" pt_clust_9="13000.00000"></scales>
<clustering>
<clus scale="   80.641">  5  6 -1 -1</clus>
<clus scale="   65.154">  5  9 -1 -1</clus>
<clus scale="   96.110">  7  8 -1 -1</clus>
<clus scale="  119.398">  2  7  1 -1</clus>
<clus scale="  155.651">  1  5  2 -1</clus>
</clustering>
</event>
<event>
 9    1  0.4516508E-005  0.2013878E+03  0.7546771E-02  0.1164701E+00
         21   -1    0    0  501  502  0.00000000000E+00  0.00000000000E+00  0.15217765444E+03  0.15217765444E+03  0.00000000000E+00 0.  1.
          1   -1    0    0  502    0 -0.00000000000E+00 -0.00000000000E+00 -0.50435713223E+03  0.50435713223E+03  0.00000000000E+00 0. -1.
         23    2    1    2    0    0 -0.99919043230E+02  0.32896854739E+02  0.94003236753E+02  0.16700841115E+03  0.89382227661E+02 0.  0.
        -24    2    1    2    0    0  0.96766785436E+02 -0.65639552373E+02 -0.22324501019E+03  0.26417500322E+03  0.79232166129E+02 0.  0.
         11    1    4    4    0    0  0.11042760531E+03 -0.63577990516E+02 -0.20218652989E+03  0.23898914152E+03  0.00000000000E+00 0. -1.
        -12    1    4    4    0    0 -0.13660819877E+02 -0.20615618575E+01 -0.21058480302E+02  0.25185861701E+02  0.00000000000E+00 0.  1.
        -11    1    3    3    0    0 -0.11116056996E+03  0.97017031188E+01  0.69581161320E+02  0.13150031699E+03  0.00000000000E+00 0.  1.
         11    1    3    3    0    0  0.11241526734E+02  0.23195151620E+02  0.24422075433E+02  0.35508094155E+02  0.00000000000E+00 0. -1.
          2    1    1    2  501    0  0.31522577944E+01  0.32742697634E+02 -0.22293770435E+03  0.22535137230E+03  0.00000000000E+00 0. -1.
<scales pt_clust_5="13000.00000" pt_clust_6="13000.00000" pt_clust_7="13000.00000" pt_clust_8="13000.00000" pt_clust_9="13000.00000"></scales>
<clustering>
<clus scale="   79.232">  5  6 -1 -1</clus>
<clus scale="   32.894">  5  9 -1 -1</clus>
<clus scale="   89.382">  7  8 -1 -1</clus>
<clus scale="  138.041">  2  7  1 -1</clus>
<clus scale="  201.388">  1  5  2 -1</clus>
</clustering>
</event>
<event>
 9    1  0.4516508E-005  0.6084284E+03  0.7546771E-02  0.1038714E+00
         21   -1    0    0  501  502  0.00000000000E+00  0.00000000000E+00  0.37663956865E+03  0.37663956865E+03  0.00000000000E+00 0. -1.
          1   -1    0    0  502    0 -0.00000000000E+00 -0.00000000000E+00 -0.60517474953E+03  0.60517474953E+03  0.00000000000E+00 0. -1.
         23    2    1    2    0    0 -0.51684979593E+01 -0.95313794117E+02 -0.33879221496E+03  0.36347646505E+03  0.90683752743E+02 0.  0.
        -24    2    1    2    0    0 -0.14422162360E+03 -0.15555611735E+03 -0.10984598238E+03  0.25268985470E+03  0.82391992747E+02 0.  0.
         11    1    4    4    0    0 -0.92919766560E+02 -0.12886366438E+03 -0.43583543947E+02  0.16474056063E+03  0.00000000000E+00 0. -1.
        -12    1    4    4    0    0 -0.51301857037E+02 -0.26692452969E+02 -0.66262438430E+02  0.87949294072E+02  0.00000000000E+00 0.  1.
        -13    1    3    3    0    0  0.37294167879E+02 -0.62593869012E+02 -0.24319083695E+03  0.25387128741E+03  0.00000000000E+00 0. -1.
         13    1    3    3    0    0 -0.42462665838E+02 -0.32719925105E+02 -0.95601378013E+02  0.10960517765E+03  0.00000000000E+00 0.  1.
          2    1    1    2  501    0  0.14939012156E+03  0.25086991146E+03  0.22010301645E+03  0.36564799842E+03  0.00000000000E+00 0. -1.
<scales pt_clust_5="13000.00000" pt_clust_6="13000.00000" pt_clust_7="13000.00000" pt_clust_8="13000.00000" pt_clust_9="13000.00000"></scales>
<clustering>
<clus scale="   82.392">  5  6 -1 -1</clus>
<clus scale="   90.684">  7  8 -1 -1</clus>
<clus scale="  131.662">  2  7  1 -1</clus>
<clus scale="  268.066">  5  9 -1 -1</clus>
<clus scale="  608.428">  1  5  2 -1</clus>
</clustering>
</event>
<event>
 9    1  0.4516508E-005  0.2745189E+03  0.7546771E-02  0.1141333E+00
         21   -1    0    0  501  502  0.00000000000E+00  0.00000000000E+00  0.11368840534E+03  0.11368840534E+03  0.00000000000E+00 0. -1.
          1   -1    0    0  502    0 -0.00000000000E+00 -0.00000000000E+00 -0.39356703308E+03  0.39356703308E+03  0.00000000000E+00 0. -1.
         23    2    1    2    0    0 -0.35431780972E+02 -0.85732587668E+01 -0.20021538200E+03  0.22141127362E+03  0.87222938660E+02 0.  0.
        -24    2    1    2    0    0  0.28661867442E+02 -0.11403825770E+03 -0.80331446886E+02  0.16304407444E+03  0.79397745478E+02 0.  0.
         11    1    4    4    0    0 -0.25647674257E+02 -0.27318257732E+02 -0.34468627289E+02  0.50913423255E+02  0.00000000000E+00 0. -1.
        -12    1    4    4    0    0  0.54309541699E+02 -0.86719999969E+02 -0.45862819596E+02  0.11213065119E+03  0.00000000000E+00 0.  1.
        -11    1    3    3    0    0  0.20709283460E+02 -0.27921624801E+02 -0.64453912268E+02  0.73231129717E+02  0.00000000000E+00 0. -1.
         11    1    3    3    0    0 -0.56141064432E+02  0.19348366034E+02 -0.13576146973E+03  0.14818014390E+03  0.00000000000E+00 0.  1.
          2    1    1    2  501    0  0.67699135300E+01  0.12261151647E+03  0.66820114314E+00  0.12280009036E+03  0.00000000000E+00 0. -1.
<scales pt_clust_5="13000.00000" pt_clust_6="13000.00000" pt_clust_7="13000.00000" pt_clust_8="13000.00000" pt_clust_9="13000.00000"></scales>
<clustering>
<clus scale="   79.398">  5  6 -1 -1</clus>
<clus scale="   87.223">  7  8 -1 -1</clus>
<clus scale="   94.534">  2  7  1 -1</clus>
<clus scale="  119.854">  5  9 -1 -1</clus>
<clus scale="  274.519">  1  5  2 -1</clus>
</clustering>
</event>
<event>
 9    1  0.4516508E-005  0.3657328E+03  0.7546771E-02  0.1059424E+00
         21   -1    0    0  501  502  0.00000000000E+00  0.00000000000E+00  0.24198919510E+03  0.24198919510E+03  0.00000000000E+00 0. -1.
          1   -1    0    0  502    0 -0.00000000000E+00 -0.00000000000E+00 -0.81488228986E+03  0.81488228986E+03  0.00000000000E+00 0. -1.
         23    2    1    2    0    0 -0.25572993231E+03  0.19338513506E+03 -0.60292302895E+03  0.68990789455E+03  0.98290973077E+02 0.  0.
        -24    2    1    2    0    0  0.12341982953E+03 -0.18059163174E+03  0.15900678171E+02  0.23328759069E+03  0.79526578124E+02 0.  0.
         13    1    4    4    0    0  0.10050196257E+03 -0.17333732105E+03  0.33957019629E+02  0.20322290848E+03  0.00000000000E+00 0. -1.
        -14    1    4    4    0    0  0.22917866960E+02 -0.72543106903E+01 -0.18056341457E+02  0.30064682210E+02  0.00000000000E+00 0.  1.
        -13    1    3    3    0    0 -0.14541195835E+03  0.64513007579E+02 -0.22396433126E+03  0.27471182620E+03  0.00000000000E+00 0. -1.
         13    1    3    3    0    0 -0.11031797396E+03  0.12887212748E+03 -0.37895869769E+03  0.41519606835E+03  0.00000000000E+00 0.  1.
          2    1    1    2  501    0  0.13231010277E+03 -0.12793503321E+02  0.14129256013E+02  0.13367599971E+03  0.00000000000E+00 0. -1.
<scales pt_clust_5="13000.00000" pt_clust_6="13000.00000" pt_clust_7="13000.00000" pt_clust_8="13000.00000" pt_clust_9="13000.00000"></scales>
<clustering>
<clus scale="   79.527">  5  6 -1 -1</clus>
<clus scale="   98.291">  7  8 -1 -1</clus>
<clus scale="  132.927">  5  9 -1 -1</clus>
<clus scale="  335.346">  2  7  1 -1</clus>
<clus scale="  365.733">  1  5  2 -1</clus>
</clustering>
</event>
<event>
 9    1  0.4516508E-005  0.2060901E+03  0.7546771E-02  0.1165572E+00
          1   -1    0    0  502    0 -0.00000000000E+00  0.00000000000E+00  0.32984152347E+03  0.32984152347E+03  0.00000000000E+00 0. -1.
         21   -1    0    0  501  502  0.00000000000E+00 -0.00000000000E+00 -0.11061404881E+03  0.11061404881E+03  0.00000000000E+00 0.  1.
         23    2    1    2    0    0  0.81759041718E+02  0.15724913231E+02  0.19589224591E+03  0.23304861028E+03  0.94900310572E+02 0.  0.
        -24    2    1    2    0    0 -0.61082273773E-01  0.52178270390E+02 -0.97459339109E+01  0.96142582054E+02  0.80161320001E+02 0.  0.
         13    1    4    4    0    0 -0.13065014457E+02  0.17308891119E+02  0.32986485560E+02  0.39476582224E+02  0.00000000000E+00 0. -1.
        -14    1    4    4    0    0  0.13003932183E+02  0.34869379271E+02 -0.42732419471E+02  0.56665999830E+02  0.00000000000E+00 0.  1.
        -11    1    3    3    0    0  0.30538544543E+02  0.50317164730E+02  0.13000624115E+03  0.14270964406E+03  0.00000000000E+00 0.  1.
         11    1    3    3    0    0  0.51220497175E+02 -0.34592251499E+02  0.65886004757E+02  0.90338966219E+02  0.00000000000E+00 0. -1.
          2    1    1    2  501    0 -0.81697959444E+02 -0.67903183621E+02  0.33081162658E+02  0.11126437995E+03  0.00000000000E+00 0. -1.
<scales pt_clust_5="13000.00000" pt_clust_6="13000.00000" pt_clust_7="13000.00000" pt_clust_8="13000.00000" pt_clust_9="13000.00000"></scales>
<clustering>
<clus scale="   80.161">  5  6 -1 -1</clus>
<clus scale="   94.900">  7  8 -1 -1</clus>
<clus scale="  106.233">  5  9 -1 -1</clus>
<clus scale="  126.245">  1  7  2 -1</clus>
<clus scale="  206.090">  2  5  1 -1</clus>
</clustering>
</event>
<event>
 9    1  0.4516508E-005  0.3440039E+03  0.7546771E-02  0.1096755E+00
          1   -1    0    0  502    0 -0.00000000000E+00  0.00000000000E+00  0.15691971015E+04  0.15691971015E+04  0.00000000000E+00 0. -1.
         21   -1    0    0  501  502  0.00000000000E+00 -0.00000000000E+00 -0.41305917609E+02  0.41305917609E+02  0.00000000000E+00 0. -1.
         23    2    1    2    0    0  0.71854688878E+02  0.91545788457E+02  0.28133006052E+03  0.31734667485E+03  0.89546531966E+02 0.  0.
        -24    2    1    2    0    0  0.55737531695E+02 -0.15340650902E+03  0.47775977250E+03  0.51138781036E+03  0.81380973918E+02 0.  0.
         13    1    4    4    0    0  0.49592781053E+02 -0.15490298163E+03  0.37900584907E+03  0.41243158375E+03  0.00000000000E+00 0. -1.
        -14    1    4    4    0    0  0.61447506416E+01  0.14964726096E+01  0.98753923435E+02  0.98956226608E+02  0.00000000000E+00 0.  1.
        -13    1    3    3    0    0  0.39275319695E+02  0.10402610624E+03  0.19961117441E+03  0.22849201838E+03  0.00000000000E+00 0. -1.
         13    1    3    3    0    0  0.32579369183E+02 -0.12480317780E+02  0.81718886110E+02  0.88854656464E+02  0.00000000000E+00 0.  1.
          2    1    1    2  501    0 -0.12759222057E+03  0.61860720559E+02  0.76880135087E+03  0.78176853390E+03  0.00000000000E+00 0. -1.
<scales pt_clust_5="13000.00000" pt_clust_6="13000.00000" pt_clust_7="13000.00000" pt_clust_8="13000.00000" pt_clust_9="13000.00000"></scales>
<clustering>
<clus scale="   81.381">  5  6 -1 -1</clus>
<clus scale="   89.547">  7  8 -1 -1</clus>
<clus scale="  141.798">  5  9 -1 -1</clus>
<clus scale="  146.841">  1  7  2 -1</clus>
<clus scale="  344.004">  2  5  1 -1</clus>
</clustering>
</event>
<event>
 9    1  0.4516508E-005  0.2028140E+03  0.7546771E-02  0.1164381E+00
         21   -1    0    0  501  502  0.00000000000E+00  0.00000000000E+00  0.12280084764E+03  0.12280084764E+03  0.00000000000E+00 0.  1.
          3   -1    0    0  502    0 -0.00000000000E+00 -0.00000000000E+00 -0.28159914109E+03  0.28159914109E+03  0.00000000000E+00 0. -1.
         23    2    1    2    0    0  0.83883248379E+02  0.69073180321E+02  0.15433531327E+02  0.13702335952E+03  0.82034770476E+02 0.  0.
        -24    2    1    2    0    0 -0.55576690223E+02  0.16190630147E+02 -0.41892737356E+02  0.10742409665E+03  0.80212406134E+02 0.  0.
         11    1    4    4    0    0 -0.34212423175E+02  0.31824065039E+02 -0.59482321298E+02  0.75639986529E+02  0.00000000000E+00 0. -1.
        -12    1    4    4    0    0 -0.21364267048E+02 -0.15633434893E+02  0.17589583943E+02  0.31784110123E+02  0.00000000000E+00 0.  1.
        -11    1    3    3    0    0  0.59510289383E+02  0.80886089999E+02  0.31853177108E+02  0.10535017318E+03  0.00000000000E+00 0.  1.
         11    1    3    3    0    0  0.24372958996E+02 -0.11812909678E+02 -0.16419645781E+02  0.31673186339E+02  0.00000000000E+00 0. -1.
          4    1    1    2  501    0 -0.28306558156E+02 -0.85263810467E+02 -0.13233908742E+03  0.15995253255E+03  0.00000000000E+00 0. -1.
<scales pt_clust_5="13000.00000" pt_clust_6="13000.00000" pt_clust_7="13000.00000" pt_clust_8="13000.00000" pt_clust_9="13000.00000"></scales>
<clustering>
<clus scale="   80.212">  5  6 -1 -1</clus>
<clus scale="   82.035">  7  8 -1 -1</clus>
<clus scale="   89.840">  5  9 -1 -1</clus>
<clus scale="  136.151">  2  7  1 -1</clus>
<clus scale="  202.814">  1  5  2 -1</clus>
</clustering>
</event>
<event>
 9    1  0.4516508E-005  0.1308151E+03  0.7546771E-02  0.1239428E+00
         21   -1    0    0  501  502  0.00000000000E+00  0.00000000000E+00  0.20903537599E+03  0.20903537599E+03  0.00000000000E+00 0.  1.
         -4   -1    0    0    0  501 -0.00000000000E+00 -0.00000000000E+00 -0.64198656944E+02  0.64198656944E+02  0.00000000000E+00 0.  1.
         23    2    1    2    0    0  0.37181780080E+02 -0.22283950553E+02  0.49632794245E+02  0.11144285967E+03  0.89872339933E+02 0.  0.
        -24    2    1    2    0    0 -0.24983682712E+02 -0.17515969037E+02  0.79466496691E+02  0.11728843377E+03  0.80688654883E+02 0.  0.
         11    1    4    4    0    0 -0.15222240047E+01  0.23304872077E+02 -0.17408233283E+01  0.23419323097E+02  0.00000000000E+00 0. -1.
        -12    1    4    4    0    0 -0.23461458707E+02 -0.40820841114E+02  0.81207320019E+02  0.93869110674E+02  0.00000000000E+00 0.  1.
        -11    1    3    3    0    0  0.62635575117E+02 -0.24161572443E+02  0.15634851982E+02  0.68930729357E+02  0.00000000000E+00 0.  1.
         11    1    3    3    0    0 -0.25453795038E+02  0.18776218903E+01  0.33997942263E+02  0.42512130315E+02  0.00000000000E+00 0. -1.
         -3    1    1    2    0  502 -0.12198097368E+02  0.39799919590E+02  0.15737428109E+02  0.44502739491E+02  0.00000000000E+00 0.  1.
<scales pt_clust_5="13000.00000" pt_clust_6="13000.00000" pt_clust_7="13000.00000" pt_clust_8="13000.00000" pt_clust_9="13000.00000"></scales>
<clustering>
<clus scale="   80.689">  5  6 -1 -1</clus>
<clus scale="   41.627">  5  9 -1 -1</clus>
<clus scale="   89.872">  7  8 -1 -1</clus>
<clus scale="   99.780">  2  7  1 -1</clus>
<clus scale="  130.815">  1  5  2 -1</clus>
</clustering>
</event>
<event>
 9    1  0.4516508E-005  0.2450070E+03  0.7546771E-02  0.1149366E+00
         21   -1    0    0  501  502  0.00000000000E+00  0.00000000000E+00  0.23591641720E+03  0.23591641720E+03  0.00000000000E+00 0. -1.
          3   -1    0    0  502    0 -0.00000000000E+00 -0.00000000000E+00 -0.13641001195E+03  0.13641001195E+03  0.00000000000E+00 0. -1.
         23    2    1    2    0    0 -0.60059370176E+02 -0.20198086151E+01  0.56949218215E+02  0.12365080717E+03  0.91842806384E+02 0.  0.
        -24    2    1    2    0    0 -0.72078954128E+02 -0.17830738771E+02  0.35982424875E+02  0.11489293074E+03  0.79952109165E+02 0.  0.
         11    1    4    4    0    0 -0.58434350305E+02  0.19231325937E+02  0.77731206339E-01  0.61517666040E+02  0.00000000000E+00 0. -1.
        -12    1    4    4    0    0 -0.13644603823E+02 -0.37062064708E+02  0.35904693668E+02  0.53375264696E+02  0.00000000000E+00 0.  1.
        -13    1    3    3    0    0 -0.36710991079E+02  0.42497411791E+02  0.14866392133E+02  0.58092482216E+02  0.00000000000E+00 0.  1.
         13    1    3    3    0    0 -0.23348379097E+02 -0.44517220406E+02  0.42082826082E+02  0.65558324950E+02  0.00000000000E+00 0. -1.
          4    1    1    2  501    0  0.13213832430E+03  0.19850547386E+02  0.65747621571E+01  0.13378269125E+03  0.00000000000E+00 0. -1.
<scales pt_clust_5="13000.00000" pt_clust_6="13000.00000" pt_clust_7="13000.00000" pt_clust_8="13000.00000" pt_clust_9="13000.00000"></scales>
<clustering>
<clus scale="   79.952">  5  6 -1 -1</clus>
<clus scale="   91.843">  7  8 -1 -1</clus>
<clus scale="  109.756">  2  7  1 -1</clus>
<clus scale="   96.875">  5  9 -1 -1</clus>
<clus scale="  245.007">  1  5  2 -1</clus>
</clustering>
</event>
<event>
 9    1  0.4516508E-005  0.1573592E+03  0.7546771E-02  0.1213560E+00
         21   -1    0    0  501  502  0.00000000000E+00  0.00000000000E+00  0.16343874799E+03  0.16343874799E+03  0.00000000000E+00 0.  1.
          1   -1    0    0  502    0 -0.00000000000E+00 -0.00000000000E+00 -0.99906858955E+02  0.99906858955E+02  0.00000000000E+00 0. -1.
         23    2    1    2    0    0 -0.42128091274E+01  0.46315565638E+02  0.28000656504E+02  0.10202487822E+03  0.86383792632E+02 0.  0.
        -24    2    1    2    0    0 -0.38297744198E+02 -0.22300207696E+02  0.55848187186E+02  0.10843724162E+03  0.81704338227E+02 0.  0.
         11    1    4    4    0    0 -0.38668337013E+02  0.16569654667E+02  0.55400560945E+02  0.69563035415E+02  0.00000000000E+00 0. -1.
        -12    1    4    4    0    0  0.37059281565E+00 -0.38869862363E+02  0.44762624153E+00  0.38874206209E+02  0.00000000000E+00 0.  1.
        -13    1    3    3    0    0 -0.44748424642E+02  0.19895977849E+02  0.20378550470E+02  0.53042970899E+02  0.00000000000E+00 0. -1.
         13    1    3    3    0    0  0.40535615515E+02  0.26419587789E+02  0.76221060345E+01  0.48981907318E+02  0.00000000000E+00 0.  1.
          2    1    1    2  501    0  0.42510553325E+02 -0.24015357942E+02 -0.20316954660E+02  0.52883487099E+02  0.00000000000E+00 0. -1.
<scales pt_clust_5="13000.00000" pt_clust_6="13000.00000" pt_clust_7="13000.00000" pt_clust_8="13000.00000" pt_clust_9="13000.00000"></scales>
<clustering>
<clus scale="   81.704">  5  6 -1 -1</clus>
<clus scale="   48.825">  5  9 -1 -1</clus>
<clus scale="   86.384">  7  8 -1 -1</clus>
<clus scale="   98.107">  2  7  1 -1</clus>
<clus scale="  157.359">  1  5  2 -1</clus>
</clustering>
</event>
<event>
 9    1  0.4516508E-005  0.3961622E+03  0.7546771E-02  0.1085746E+00
          1   -1    0    0  502    0 -0.00000000000E+00  0.00000000000E+00  0.30928987284E+03  0.30928987284E+03  0.00000000000E+00 0. -1.
         21   -1    0    0  501  502  0.00000000000E+00 -0.00000000000E+00 -0.11654863169E+04  0.11654863169E+04  0.00000000000E+00 0. -1.
         23    2    1    2    0    0 -0.13633090778E+02  0.89305437957E+02  0.26017681499E+03  0.29019452004E+03  0.91430640346E+02 0.  0.
        -24    2    1    2    0    0 -0.40029912142E+02  0.10325925374E+03 -0.18090590692E+03  0.22799396057E+03  0.83602820202E+02 0.  0.
         11    1    4    4    0    0 -0.41801330119E+02  0.10577535687E+03 -0.18830101136E+03  0.21998419989E+03  0.00000000000E+00 0. -1.
        -12    1    4    4    0    0  0.17714179773E+01 -0.25161031285E+01  0.73951044334E+01  0.80097606821E+01  0.00000000000E+00 0.  1.
        -13    1    3    3    0    0  0.21845520034E+02  0.11540122685E+02  0.11526778510E+02  0.27262938213E+02  0.00000000000E+00 0.  1.
         13    1    3    3    0    0 -0.35478610812E+02  0.77765315272E+02  0.24865003648E+03  0.26293158183E+03  0.00000000000E+00 0. -1.
          2    1    1    2  501    0  0.53663002920E+02 -0.19256469170E+03 -0.93546735215E+03  0.95658770916E+03  0.00000000000E+00 0. -1.
<scales pt_clust_5="13000.00000" pt_clust_6="13000.00000" pt_clust_7="13000.00000" pt_clust_8="13000.00000" pt_clust_9="13000.00000"></scales>
<clustering>
<clus scale="   83.603">  5  6 -1 -1</clus>
<clus scale="   91.431">  7  8 -1 -1</clus>
<clus scale="  128.534">  1  7  2 -1</clus>
<clus scale="  172.164">  5  9 -1 -1</clus>
<clus scale="  396.162">  2  5  1 -1</clus>
</clustering>
</event>
<event>
 9    1  0.4516508E-005  0.3796139E+03  0.7546771E-02  0.1087979E+00
         21   -1    0    0  501  502  0.00000000000E+00  0.00000000000E+00  0.18602507812E+03  0.18602507812E+03  0.00000000000E+00 0. -1.
          3   -1    0    0  502    0 -0.00000000000E+00 -0.00000000000E+00 -0.44406028487E+03  0.44406028487E+03  0.00000000000E+00 0. -1.
         23    2    1    2    0    0 -0.74863741067E+02 -0.63221627679E+02 -0.20478478122E+03  0.24675475921E+03  0.96693074426E+02 0.  0.
        -24    2    1    2    0    0  0.56706853910E+01 -0.12706331407E+03 -0.93163249392E+02  0.17695940540E+03  0.80361667897E+02 0.  0.
         13    1    4    4    0    0  0.41773466801E+02 -0.76036056526E+02 -0.64978128071E+02  0.10839124295E+03  0.00000000000E+00 0. -1.
        -14    1    4    4    0    0 -0.36102781410E+02 -0.51027257542E+02 -0.28185121321E+02  0.68568162450E+02  0.00000000000E+00 0.  1.
        -11    1    3    3    0    0 -0.21864184994E+02  0.18529109451E+02 -0.12644644317E+02  0.31325030126E+02  0.00000000000E+00 0.  1.
         11    1    3    3    0    0 -0.52999556072E+02 -0.81750737130E+02 -0.19214013690E+03  0.21542972908E+03  0.00000000000E+00 0. -1.
          4    1    1    2  501    0  0.69193055676E+02  0.19028494175E+03  0.39912823859E+02  0.20637119837E+03  0.00000000000E+00 0. -1.
<scales pt_clust_5="13000.00000" pt_clust_6="13000.00000" pt_clust_7="13000.00000" pt_clust_8="13000.00000" pt_clust_9="13000.00000"></scales>
<clustering>
<clus scale="   80.362">  5  6 -1 -1</clus>
<clus scale="   96.693">  7  8 -1 -1</clus>
<clus scale="  137.663">  2  7  1 -1</clus>
<clus scale="  171.079">  5  9 -1 -1</clus>
<clus scale="  379.614">  1  5  2 -1</clus>
</clustering>
</event>
<event>
 9    1  0.4516508E-005  0.3086253E+03  0.7546771E-02  0.1101908E+00
         21   -1    0    0  501  502  0.00000000000E+00  0.00000000000E+00  0.11822142566E+03  0.11822142566E+03  0.00000000000E+00 0. -1.
          1   -1    0    0  502    0 -0.00000000000E+00 -0.00000000000E+00 -0.87428913963E+03  0.87428913963E+03  0.00000000000E+00 0. -1.
         23    2    1    2    0    0  0.47329651143E+02 -0.14332805933E+03 -0.63757437456E+03  0.66191981912E+03  0.94094289783E+02 0.  0.
        -24    2    1    2    0    0 -0.14923992897E+03  0.10149738163E+03 -0.88593528886E+02  0.21644387151E+03  0.80155232377E+02 0.  0.
         13    1    4    4    0    0 -0.62529357080E+02  0.10259916267E+01 -0.43890337323E+02  0.76402453272E+02  0.00000000000E+00 0. -1.
        -14    1    4    4    0    0 -0.86710571893E+02  0.10047139000E+03 -0.44703191563E+02  0.14004141824E+03  0.00000000000E+00 0.  1.
        -11    1    3    3    0    0  0.46988831784E+02 -0.16756073851E+02 -0.21993035538E+03  0.22551735530E+03  0.00000000000E+00 0.  1.
         11    1    3    3    0    0  0.34081935869E+00 -0.12657198548E+03 -0.41764401918E+03  0.43640246381E+03  0.00000000000E+00 0. -1.
          2    1    1    2  501    0  0.10191027783E+03  0.41830677702E+02 -0.29899810521E+02  0.11414687466E+03  0.00000000000E+00 0. -1.
<scales pt_clust_5="13000.00000" pt_clust_6="13000.00000" pt_clust_7="13000.00000" pt_clust_8="13000.00000" pt_clust_9="13000.00000"></scales>
<clustering>
<clus scale="   80.155">  5  6 -1 -1</clus>
<clus scale="   94.094">  7  8 -1 -1</clus>
<clus scale="  110.161">  5  9 -1 -1</clus>
<clus scale="  177.867">  2  7  1 -1</clus>
<clus scale="  308.625">  1  5  2 -1</clus>
</clustering>
</event>
<event>
 9    1  0.4516508E-005  0.4817918E+03  0.7546771E-02  0.1046555E+00
          1   -1    0    0  502    0 -0.00000000000E+00  0.00000000000E+00  0.55489370332E+03  0.55489370332E+03  0.00000000000E+00 0. -1.
         21   -1    0    0  501  502  0.00000000000E+00 -0.00000000000E+00 -0.21721117665E+03  0.21721117665E+03  0.00000000000E+00 0. -1.
         23    2    1    2    0    0 -0.26653019905E+02 -0.18953770309E+03  0.82002612913E+02  0.22667331280E+03  0.89562480153E+02 0.  0.
        -24    2    1    2    0    0  0.59583476373E+02 -0.40428941165E+02 -0.82428054175E+02  0.13520471478E+03  0.79380355531E+02 0.  0.
         13    1    4    4    0    0  0.60950608146E+02 -0.13543671267E+01 -0.72766172852E+02  0.94930115639E+02  0.00000000000E+00 0. -1.
        -14    1    4    4    0    0 -0.13671317737E+01 -0.39074574039E+02 -0.96618813235E+01  0.40274599145E+02  0.00000000000E+00 0.  1.
        -11    1    3    3    0    0  0.12768209753E+02 -0.13621501086E+03  0.83616666244E+02  0.16034120879E+03  0.00000000000E+00 0. -1.
         11    1    3    3    0    0 -0.39421229658E+02 -0.53322692226E+02 -0.16140533305E+01  0.66332104009E+02  0.00000000000E+00 0.  1.
          2    1    1    2  501    0 -0.32930456467E+02  0.22996664425E+03  0.33810796793E+03  0.41022685238E+03  0.00000000000E+00 0. -1.
<scales pt_clust_5="13000.00000" pt_clust_6="13000.00000" pt_clust_7="13000.00000" pt_clust_8="13000.00000" pt_clust_9="13000.00000"></scales>
<clustering>
<clus scale="   79.380">  5  6 -1 -1</clus>
<clus scale="   89.562">  7  8 -1 -1</clus>
<clus scale="  211.321">  1  7  2 -1</clus>
<clus scale="   78.384">  5  9 -1 -1</clus>
<clus scale="  481.792">  2  5  1 -1</clus>
</clustering>
</event>
<event>
 9    1  0.5240393E-005  0.1098739E+04  0.7546771E-02  0.9649310E-01
         21   -1    0    0  501  502  0.00000000000E+00  0.00000000000E+00  0.57800474887E+03  0.57800474887E+03  0.00000000000E+00 0. -1.
          1   -1    0    0  502    0 -0.00000000000E+00 -0.00000000000E+00 -0.76347893486E+03  0.76347893486E+03  0.00000000000E+00 0. -1.
         23    2    1    2    0    0  0.26129367185E+02  0.20342779032E+03 -0.18558106793E+01  0.22750708928E+03  0.98439940759E+02 0.  0.
        -24    2    1    2    0    0  0.45464719173E+02 -0.51256081644E+03 -0.45887937619E+03  0.69390807665E+03  0.78437909929E+02 0.  0.
         13    1    4    4    0    0  0.39647204345E+02 -0.50008465071E+03 -0.42551074368E+03  0.65781148642E+03  0.00000000000E+00 0. -1.
        -14    1    4    4    0    0  0.58175148283E+01 -0.12476165724E+02 -0.33368632519E+02  0.36096590229E+02  0.00000000000E+00 0.  1.
        -11    1    3    3    0    0 -0.31447504890E+01  0.25238273120E+02  0.34941673321E+02  0.43217825260E+02  0.00000000000E+00 0.  1.
         11    1    3    3    0    0  0.29274117674E+02  0.17818951720E+03 -0.36797484000E+02  0.18428926402E+03  0.00000000000E+00 0. -1.
          2    1    1    2  501    0 -0.71594086359E+02  0.30913302611E+03  0.27526100088E+03  0.42006851779E+03  0.00000000000E+00 0. -1.
<scales pt_clust_5="13000.00000" pt_clust_6="13000.00000" pt_clust_7="13000.00000" pt_clust_8="13000.00000" pt_clust_9="13000.00000"></scales>
<clustering>
<clus scale="   78.438">  5  6 -1 -1</clus>
<clus scale="   98.440">  7  8 -1 -1</clus>
<clus scale="  227.500">  2  7  1 -1</clus>
<clus scale="  338.868">  5  9 -1 -1</clus>
<clus scale=" 1098.739">  1  5  2 -1</clus>
</clustering>
</event>
<event>
 9    1  0.4516508E-005  0.2496603E+03  0.7546771E-02  0.1150911E+00
         -2   -1    0    0    0  501 -0.00000000000E+00  0.00000000000E+00  0.13001184652E+03  0.13001184652E+03  0.00000000000E+00 0.  1.
         21   -1    0    0  501  502  0.00000000000E+00 -0.00000000000E+00 -0.27569473725E+03  0.27569473725E+03  0.00000000000E+00 0. -1.
         23    2    1    2    0    0 -0.30540017738E+02 -0.14343329911E+02  0.25244176249E+02  0.10314033404E+03  0.94139451211E+02 0.  0.
        -24    2    1    2    0    0  0.76754630833E+02  0.17288113268E+02 -0.21235676913E+03  0.24043025025E+03  0.80753672515E+02 0.  0.
         13    1    4    4    0    0  0.66391219519E+02 -0.10652881772E+02 -0.19425259319E+03  0.20556105633E+03  0.00000000000E+00 0. -1.
        -14    1    4    4    0    0  0.10363411314E+02  0.27940995040E+02 -0.18104175939E+02  0.34869193916E+02  0.00000000000E+00 0.  1.
        -11    1    3    3    0    0  0.30959736277E+01  0.37172999901E+02  0.17253657300E+02  0.41098730693E+02  0.00000000000E+00 0. -1.
         11    1    3    3    0    0 -0.33635991365E+02 -0.51516329812E+02  0.79905189491E+01  0.62041603344E+02  0.00000000000E+00 0.  1.
         -1    1    1    2    0  502 -0.46214613095E+02 -0.29447833569E+01  0.41429702151E+02  0.62135999492E+02  0.00000000000E+00 0.  1.
<scales pt_clust_5="13000.00000" pt_clust_6="13000.00000" pt_clust_7="13000.00000" pt_clust_8="13000.00000" pt_clust_9="13000.00000"></scales>
<clustering>
<clus scale="   80.754">  5  6 -1 -1</clus>
<clus scale="   46.308">  5  9 -1 -1</clus>
<clus scale="   94.139">  7  8 -1 -1</clus>
<clus scale="  100.003">  1  7  2 -1</clus>
<clus scale="  249.660">  2  5  1 -1</clus>
</clustering>
</event>
<event>
 9    1  0.4516508E-005  0.3695156E+03  0.7546771E-02  0.1105447E+00
         21   -1    0    0  501  502  0.00000000000E+00  0.00000000000E+00  0.12264686169E+03  0.12264686169E+03  0.00000000000E+00 0. -1.
          3   -1    0    0  502    0 -0.00000000000E+00 -0.00000000000E+00 -0.48848990473E+03  0.48848990473E+03  0.00000000000E+00 0. -1.
         23    2    1    2    0    0 -0.26496844794E+02 -0.96609458026E+00 -0.16594939200E+03  0.19101863130E+03  0.90806941786E+02 0.  0.
        -24    2    1    2    0    0 -0.13303343444E+03  0.78993645333E+02 -0.16264997700E+03  0.23866483554E+03  0.81043186166E+02 0.  0.
         13    1    4    4    0    0 -0.10034108002E+03  0.57667507828E+02 -0.63277508125E+02  0.13190116312E+03  0.00000000000E+00 0. -1.
        -14    1    4    4    0    0 -0.32692354425E+02  0.21326137505E+02 -0.99372468871E+02  0.10676367242E+03  0.00000000000E+00 0.  1.
        -11    1    3    3    0    0 -0.39257921327E+02 -0.36037726080E+02 -0.12343325627E+03  0.13444579146E+03  0.00000000000E+00 0. -1.
         11    1    3    3    0    0  0.12761076532E+02  0.35071631500E+02 -0.42516135729E+02  0.56572839841E+02  0.00000000000E+00 0.  1.
          4    1    1    2  501    0  0.15953027924E+03 -0.78027550752E+02 -0.37243674050E+02  0.18145329958E+03  0.00000000000E+00 0. -1.
<scales pt_clust_5="13000.00000" pt_clust_6="13000.00000" pt_clust_7="13000.00000" pt_clust_8="13000.00000" pt_clust_9="13000.00000"></scales>
<clustering>
<clus scale="   81.043">  5  6 -1 -1</clus>
<clus scale="   90.807">  7  8 -1 -1</clus>
<clus scale="   94.599">  2  7  1 -1</clus>
<clus scale="  169.401">  5  9 -1 -1</clus>
<clus scale="  369.516">  1  5  2 -1</clus>
</clustering>
</event>
<event>
 9    1  0.4516508E-005  0.3031600E+03  0.7546771E-02  0.1115822E+00
         21   -1    0    0  501  502  0.00000000000E+00  0.00000000000E+00  0.93877836091E+02  0.93877836091E+02  0.00000000000E+00 0. -1.
          3   -1    0    0  502    0 -0.00000000000E+00 -0.00000000000E+00 -0.58488799744E+03  0.58488799744E+03  0.00000000000E+00 0. -1.
         23    2    1    2    0    0 -0.52484659988E+02  0.77046878598E+02 -0.44147247930E+02  0.13877279908E+03  0.92833448877E+02 0.  0.
        -24    2    1    2    0    0 -0.15739201805E+02  0.67561049687E+02 -0.62093365483E+02  0.12332343721E+03  0.80875621918E+02 0.  0.
         11    1    4    4    0    0 -0.36010572777E+02  0.65578378246E+02 -0.21397037324E+02  0.77814640340E+02  0.00000000000E+00 0. -1.
        -12    1    4    4    0    0  0.20271370971E+02  0.19826714409E+01 -0.40696328159E+02  0.45508796872E+02  0.00000000000E+00 0.  1.
        -11    1    3    3    0    0 -0.79056068562E+02  0.49440276509E+02 -0.30797724693E+02  0.98197264545E+02  0.00000000000E+00 0.  1.
         11    1    3    3    0    0  0.26571408575E+02  0.27606602089E+02 -0.13349523236E+02  0.40575534540E+02  0.00000000000E+00 0. -1.
          4    1    1    2  501    0  0.68223861793E+02 -0.14460792828E+03 -0.38476954793E+03  0.41666959723E+03  0.00000000000E+00 0. -1.
<scales pt_clust_5="13000.00000" pt_clust_6="13000.00000" pt_clust_7="13000.00000" pt_clust_8="13000.00000" pt_clust_9="13000.00000"></scales>
<clustering>
<clus scale="   80.876">  5  6 -1 -1</clus>
<clus scale="   92.833">  7  8 -1 -1</clus>
<clus scale="  131.563">  2  7  1 -1</clus>
<clus scale="   85.939">  5  9 -1 -1</clus>
<clus scale="  303.160">  1  5  2 -1</clus>
</clustering>
</event>
<event>
 9    1  0.4516508E-005  0.1981445E+03  0.7546771E-02  0.1178716E+00
          1   -1    0    0  502    0 -0.00000000000E+00  0.00000000000E+00  0.12612251611E+03  0.12612251611E+03  0.00000000000E+00 0. -1.
         21   -1    0    0  501  502  0.00000000000E+00 -0.00000000000E+00 -0.24946611631E+03  0.24946611631E+03  0.00000000000E+00 0. -1.
         23    2    1    2    0    0  0.46113446704E+02 -0.23783909790E+02  0.46044617590E+02  0.11490946872E+03  0.91607613548E+02 0.  0.
        -24    2    1    2    0    0 -0.11553231527E+02  0.39753391299E+02 -0.19498082845E+03  0.21480526554E+03  0.80062284289E+02 0.  0.
         13    1    4    4    0    0 -0.63452750921E+01  0.36923468211E+02 -0.20209912552E+03  0.20554235952E+03  0.00000000000E+00 0. -1.
        -14    1    4    4    0    0 -0.52079564346E+01  0.28299230884E+01  0.71182970705E+01  0.92629060286E+01  0.00000000000E+00 0.  1.
        -11    1    3    3    0    0  0.67752931114E+02 -0.14842003159E+02  0.56314094872E+02  0.89342162575E+02  0.00000000000E+00 0. -1.
         11    1    3    3    0    0 -0.21639484409E+02 -0.89419066314E+01 -0.10269477282E+02  0.25567306142E+02  0.00000000000E+00 0.  1.
          2    1    1    2  501    0 -0.34560215178E+02 -0.15969481509E+02  0.25592610651E+02  0.45873898163E+02  0.00000000000E+00 0. -1.
<scales pt_clust_5="13000.00000" pt_clust_6="13000.00000" pt_clust_7="13000.00000" pt_clust_8="13000.00000" pt_clust_9="13000.00000"></scales>
<clustering>
<clus scale="   80.062">  5  6 -1 -1</clus>
<clus scale="   38.071">  5  9 -1 -1</clus>
<clus scale="   91.608">  7  8 -1 -1</clus>
<clus scale="  105.281">  1  7  2 -1</clus>
<clus scale="  198.145">  2  5  1 -1</clus>
</clustering>
</event>
<event>
 9    1  0.4516508E-005  0.1219060E+03  0.7546771E-02  0.1251586E+00
         21   -1    0    0  501  502  0.00000000000E+00  0.00000000000E+00  0.24110981143E+03  0.24110981143E+03  0.00000000000E+00 0. -1.
          1   -1    0    0  502    0 -0.00000000000E+00 -0.00000000000E+00 -0.74585691939E+02  0.74585691939E+02  0.00000000000E+00 0. -1.
         23    2    1    2    0    0 -0.12796451027E+02  0.16806722222E+02 -0.14330785312E+02  0.97591005007E+02  0.94193512409E+02 0.  0.
        -24    2    1    2    0    0 -0.18195421663E+02  0.47252353880E+01  0.14027136083E+03  0.16268658237E+03  0.80233834477E+02 0.  0.
         13    1    4    4    0    0 -0.11817520607E+02  0.42430145175E+02  0.70671267941E+02  0.83273039607E+02  0.00000000000E+00 0. -1.
        -14    1    4    4    0    0 -0.63779010552E+01 -0.37704909787E+02  0.69600092893E+02  0.79413542766E+02  0.00000000000E+00 0.  1.
        -11    1    3    3    0    0  0.39674562456E+02  0.16499408992E+02 -0.13752961412E+02  0.45115910173E+02  0.00000000000E+00 0.  1.
         11    1    3    3    0    0 -0.52471013483E+02  0.30731323014E+00 -0.57782389988E+00  0.52475094834E+02  0.00000000000E+00 0. -1.
          2    1    1    2  501    0  0.30991872690E+02 -0.21531957610E+02  0.40583543967E+02  0.55417915986E+02  0.00000000000E+00 0. -1.
<scales pt_clust_5="13000.00000" pt_clust_6="13000.00000" pt_clust_7="13000.00000" pt_clust_8="13000.00000" pt_clust_9="13000.00000"></scales>
<clustering>
<clus scale="   80.234">  5  6 -1 -1</clus>
<clus scale="   37.738">  5  9 -1 -1</clus>
<clus scale="   94.194">  7  8 -1 -1</clus>
<clus scale="   96.533">  2  7  1 -1</clus>
<clus scale="  121.906">  1  5  2 -1</clus>
</clustering>
</event>
<event>
 9    1  0.4516508E-005  0.1547144E+03  0.7546771E-02  0.1198809E+00
         21   -1    0    0  501  502  0.00000000000E+00  0.00000000000E+00  0.16167438574E+03  0.16167438574E+03  0.00000000000E+00 0. -1.
          3   -1    0    0  502    0 -0.00000000000E+00 -0.00000000000E+00 -0.14025681015E+03  0.14025681015E+03  0.00000000000E+00 0. -1.
         23    2    1    2    0    0  0.10485240477E+03  0.84057324794E+01  0.36856776153E+02  0.14644836958E+03  0.94994841332E+02 0.  0.
        -24    2    1    2    0    0 -0.63264507351E+02 -0.18176738084E+02 -0.31057577724E+02  0.10999701019E+03  0.82474101508E+02 0.  0.
         13    1    4    4    0    0 -0.68623378813E+02 -0.48435055364E+01 -0.50843488343E+02  0.85543485856E+02  0.00000000000E+00 0. -1.
        -14    1    4    4    0    0  0.53588714613E+01 -0.13333232547E+02  0.19785910619E+02  0.24453524337E+02  0.00000000000E+00 0.  1.
        -13    1    3    3    0    0  0.82723543633E+02 -0.99600738950E+01 -0.17329377709E+02  0.85104025022E+02  0.00000000000E+00 0.  1.
         13    1    3    3    0    0  0.22128861142E+02  0.18365806374E+02  0.54186153863E+02  0.61344344561E+02  0.00000000000E+00 0. -1.
          4    1    1    2  501    0 -0.41587897423E+02  0.97710056043E+01  0.15618377163E+02  0.45485816117E+02  0.00000000000E+00 0. -1.
<scales pt_clust_5="13000.00000" pt_clust_6="13000.00000" pt_clust_7="13000.00000" pt_clust_8="13000.00000" pt_clust_9="13000.00000"></scales>
<clustering>
<clus scale="   82.474">  5  6 -1 -1</clus>
<clus scale="   42.720">  5  9 -1 -1</clus>
<clus scale="   94.995">  7  8 -1 -1</clus>
<clus scale="  141.735">  2  7  1 -1</clus>
<clus scale="  154.714">  1  5  2 -1</clus>
</clustering>
</event>
<event>
 9    1  0.4516508E-005  0.3491196E+03  0.7546771E-02  0.1082209E+00
          1   -1    0    0  502    0 -0.00000000000E+00  0.00000000000E+00  0.97160671853E+03  0.97160671853E+03  0.00000000000E+00 0. -1.
         21   -1    0    0  501  502  0.00000000000E+00 -0.00000000000E+00 -0.82495172609E+02  0.82495172609E+02  0.00000000000E+00 0. -1.
         23    2    1    2    0    0  0.16323650758E+03 -0.88111644689E+02  0.23606754689E+03  0.31359467899E+03  0.90575474933E+02 0.  0.
        -24    2    1    2    0    0 -0.13039381705E+03 -0.56869326074E+02  0.16424902374E+03  0.22960736671E+03  0.74196585323E+02 0.  0.
         11    1    4    4    0    0 -0.13721204477E+03 -0.53623545187E+02  0.16590992515E+03  0.22187549007E+03  0.00000000000E+00 0. -1.
        -12    1    4    4    0    0  0.68182277208E+01 -0.32457808870E+01 -0.16609014156E+01  0.77318766371E+01  0.00000000000E+00 0.  1.
        -13    1    3    3    0    0  0.22591082083E+02 -0.99630352835E+01  0.99605960434E+02  0.10262049705E+03  0.00000000000E+00 0.  1.
         13    1    3    3    0    0  0.14064542550E+03 -0.78148609406E+02  0.13646158646E+03  0.21097418194E+03  0.00000000000E+00 0. -1.
          2    1    1    2  501    0 -0.32842690530E+02  0.14498097076E+03  0.48879497529E+03  0.51089984544E+03  0.00000000000E+00 0. -1.
<scales pt_clust_5="13000.00000" pt_clust_6="13000.00000" pt_clust_7="13000.00000" pt_clust_8="13000.00000" pt_clust_9="13000.00000"></scales>
<clustering>
<clus scale="   74.197">  5  6 -1 -1</clus>
<clus scale="   90.575">  7  8 -1 -1</clus>
<clus scale="  148.654">  5  9 -1 -1</clus>
<clus scale="  206.431">  1  7  2 -1</clus>
<clus scale="  349.120">  2  5  1 -1</clus>
</clustering>
</event>
<event>
 9    1  0.4516508E-005  0.4478660E+03  0.7546771E-02  0.1061961E+00
         21   -1    0    0  501  502  0.00000000000E+00  0.00000000000E+00  0.76391824313E+03  0.76391824313E+03  0.00000000000E+00 0.  1.
          1   -1    0    0  502    0 -0.00000000000E+00 -0.00000000000E+00 -0.12498747224E+03  0.12498747224E+03  0.00000000000E+00 0. -1.
         23    2    1    2    0    0 -0.14324145453E+03 -0.14766277308E+02  0.17884903400E+03  0.24683160859E+03  0.90568806974E+02 0.  0.
        -24    2    1    2    0    0  0.12940820107E+03 -0.12934208905E+03  0.45575961170E+02  0.20301418120E+03  0.75244475053E+02 0.  0.
         13    1    4    4    0    0  0.12761806377E+03 -0.92264008382E+02  0.21918033309E+02  0.15899502391E+03  0.00000000000E+00 0. -1.
        -14    1    4    4    0    0  0.17901372982E+01 -0.37078080671E+02  0.23657927861E+02  0.44019157289E+02  0.00000000000E+00 0.  1.
        -13    1    3    3    0    0 -0.10724667865E+03  0.25489983932E+02  0.14831789632E+03  0.18479661180E+03  0.00000000000E+00 0. -1.
         13    1    3    3    0    0 -0.35994775878E+02 -0.40256261241E+02  0.30531137683E+02  0.62034996799E+02  0.00000000000E+00 0.  1.
          2    1    1    2  501    0  0.13833253458E+02  0.14410836636E+03  0.41450577572E+03  0.43905992559E+03  0.00000000000E+00 0. -1.
<scales pt_clust_5="13000.00000" pt_clust_6="13000.00000" pt_clust_7="13000.00000" pt_clust_8="13000.00000" pt_clust_9="13000.00000"></scales>
<clustering>
<clus scale="   75.244">  5  6 -1 -1</clus>
<clus scale="   90.569">  7  8 -1 -1</clus>
<clus scale="  144.771">  5  9 -1 -1</clus>
<clus scale="  170.114">  2  7  1 -1</clus>
<clus scale="  447.866">  1  5  2 -1</clus>
</clustering>
</event>
<event>
 9    1  0.4516508E-005  0.2404592E+03  0.7546771E-02  0.1144774E+00
         21   -1    0    0  501  502  0.00000000000E+00  0.00000000000E+00  0.15127997328E+03  0.15127997328E+03  0.00000000000E+00 0. -1.
          1   -1    0    0  502    0 -0.00000000000E+00 -0.00000000000E+00 -0.24290875476E+03  0.24290875476E+03  0.00000000000E+00 0. -1.
         23    2    1    2    0    0 -0.56512456746E+02 -0.67845802506E+02 -0.82483425772E+02  0.15355572546E+03  0.94758295731E+02 0.  0.
        -24    2    1    2    0    0  0.11044789237E+02  0.10997428915E+03  0.57709618747E+02  0.14946444558E+03  0.82418982963E+02 0.  0.
         11    1    4    4    0    0 -0.59013050873E+01  0.10720852596E+03  0.70154776391E+02  0.12825827884E+03  0.00000000000E+00 0. -1.
        -12    1    4    4    0    0  0.16946094325E+02  0.27657631873E+01 -0.12445157644E+02  0.21206166737E+02  0.00000000000E+00 0.  1.
        -11    1    3    3    0    0 -0.68153697782E+02 -0.80789107251E+01 -0.43459003816E+02  0.81233492677E+02  0.00000000000E+00 0. -1.
         11    1    3    3    0    0  0.11641241035E+02 -0.59766891781E+02 -0.39024421956E+02  0.72322232785E+02  0.00000000000E+00 0.  1.
          2    1    1    2  501    0  0.45467667509E+02 -0.42128486642E+02 -0.66854974456E+02  0.91168556997E+02  0.00000000000E+00 0. -1.
<scales pt_clust_5="13000.00000" pt_clust_6="13000.00000" pt_clust_7="13000.00000" pt_clust_8="13000.00000" pt_clust_9="13000.00000"></scales>
<clustering>
<clus scale="   82.419">  5  6 -1 -1</clus>
<clus scale="   61.985">  5  9 -1 -1</clus>
<clus scale="   94.758">  7  8 -1 -1</clus>
<clus scale="  129.522">  2  7  1 -1</clus>
<clus scale="  240.459">  1  5  2 -1</clus>
</clustering>
</event>
<event>
 9    1  0.4516508E-005  0.1859104E+03  0.7546771E-02  0.1190920E+00
          1   -1    0    0  502    0 -0.00000000000E+00  0.00000000000E+00  0.19619005635E+03  0.19619005635E+03  0.00000000000E+00 0. -1.
         21   -1    0    0  501  502  0.00000000000E+00 -0.00000000000E+00 -0.14459404890E+03  0.14459404890E+03  0.00000000000E+00 0. -1.
         23    2    1    2    0    0 -0.61616196389E+01  0.24031751854E+02  0.10922424217E+03  0.14614678289E+03  0.93880010753E+02 0.  0.
        -24    2    1    2    0    0 -0.25664456365E+02  0.41846768714E+02  0.13239950918E+02  0.92778703074E+02  0.77606540133E+02 0.  0.
         11    1    4    4    0    0 -0.29835824469E+02  0.55116260203E+02 -0.12138573303E+02  0.63838260646E+02  0.00000000000E+00 0. -1.
        -12    1    4    4    0    0  0.41713681042E+01 -0.13269491489E+02  0.25378524221E+02  0.28940442427E+02  0.00000000000E+00 0.  1.
        -13    1    3    3    0    0 -0.15500033178E+02 -0.14150612136E+02  0.10446442753E+03  0.10655190036E+03  0.00000000000E+00 0.  1.
         13    1    3    3    0    0  0.93384135387E+01  0.38182363989E+02  0.47598146423E+01  0.39594882531E+02  0.00000000000E+00 0. -1.
          2    1    1    2  501    0  0.31826076004E+02 -0.65878520568E+02 -0.70868185636E+02  0.10185861928E+03  0.00000000000E+00 0. -1.
<scales pt_clust_5="13000.00000" pt_clust_6="13000.00000" pt_clust_7="13000.00000" pt_clust_8="13000.00000" pt_clust_9="13000.00000"></scales>
<clustering>
<clus scale="   77.607">  5  6 -1 -1</clus>
<clus scale="   73.163">  5  9 -1 -1</clus>
<clus scale="   93.880">  7  8 -1 -1</clus>
<clus scale="   97.103">  1  7  2 -1</clus>
<clus scale="  185.910">  2  5  1 -1</clus>
</clustering>
</event>
<event>
 9    1  0.4516508E-005  0.3596743E+03  0.7546771E-02  0.1097833E+00
         21   -1    0    0  501  502  0.00000000000E+00  0.00000000000E+00  0.56600884493E+02  0.56600884493E+02  0.00000000000E+00 0.  1.
          1   -1    0    0  502    0 -0.00000000000E+00 -0.00000000000E+00 -0.10449986875E+04  0.10449986875E+04  0.00000000000E+00 0. -1.
         23    2    1    2    0    0 -0.82362701022E+02  0.20484405049E+02 -0.21486545604E+03  0.24853575054E+03  0.91649493878E+02 0.  0.
        -24    2    1    2    0    0 -0.11913036082E+03 -0.58185885855E+02 -0.31969216523E+03  0.35507610455E+03  0.79361951391E+02 0.  0.
         13    1    4    4    0    0 -0.10933353477E+03 -0.54528155790E+02 -0.32197164261E+03  0.34437317004E+03  0.00000000000E+00 0. -1.
        -14    1    4    4    0    0 -0.97968260510E+01 -0.36577300651E+01  0.22794773803E+01  0.10702934505E+02  0.00000000000E+00 0.  1.
        -11    1    3    3    0    0  0.64859659408E+01  0.31745051384E+02 -0.83310003716E+02  0.89388884995E+02  0.00000000000E+00 0. -1.
         11    1    3    3    0    0 -0.88848666963E+02 -0.11260646336E+02 -0.13155545233E+03  0.15914686555E+03  0.00000000000E+00 0.  1.
          2    1    1    2  501    0  0.20149306185E+03  0.37701480807E+02 -0.45384018173E+03  0.49798771690E+03  0.00000000000E+00 0. -1.
<scales pt_clust_5="13000.00000" pt_clust_6="13000.00000" pt_clust_7="13000.00000" pt_clust_8="13000.00000" pt_clust_9="13000.00000"></scales>
<clustering>
<clus scale="   79.362">  5  6 -1 -1</clus>
<clus scale="   91.649">  7  8 -1 -1</clus>
<clus scale="  124.911">  2  7  1 -1</clus>
<clus scale="  161.149">  5  9 -1 -1</clus>
<clus scale="  359.674">  1  5  2 -1</clus>
</clustering>
</event>
<event>
 9    1  0.4516508E-005  0.3378728E+03  0.7546771E-02  0.1114499E+00
         21   -1    0    0  501  502  0.00000000000E+00  0.00000000000E+00  0.33769175307E+02  0.33769175307E+02  0.00000000000E+00 0.  1.
          1   -1    0    0  502    0 -0.00000000000E+00 -0.00000000000E+00 -0.14084522896E+04  0.14084522896E+04  0.00000000000E+00 0. -1.
         23    2    1    2    0    0 -0.34638538423E+02  0.19751262740E+02 -0.30152582317E+03  0.31713275354E+03  0.89807686787E+02 0.  0.
        -24    2    1    2    0    0 -0.14063930852E+03 -0.29563777237E+01 -0.53252469371E+03  0.55650450725E+03  0.79539687592E+02 0.  0.
         11    1    4    4    0    0 -0.30256103479E+02 -0.74550922477E+01 -0.34998397310E+02  0.46860409861E+02  0.00000000000E+00 0. -1.
        -12    1    4    4    0    0 -0.11038320504E+03  0.44987145240E+01 -0.49752629640E+03  0.50964409739E+03  0.00000000000E+00 0.  1.
        -13    1    3    3    0    0  0.19902776900E+02  0.36184987603E+02 -0.12742331815E+03  0.13394840747E+03  0.00000000000E+00 0.  1.
         13    1    3    3    0    0 -0.54541315323E+02 -0.16433724863E+02 -0.17410250502E+03  0.18318434607E+03  0.00000000000E+00 0. -1.
          2    1    1    2  501    0  0.17527784694E+03 -0.16794885016E+02 -0.54063259741E+03  0.56858420411E+03  0.00000000000E+00 0. -1.
<scales pt_clust_5="13000.00000" pt_clust_6="13000.00000" pt_clust_7="13000.00000" pt_clust_8="13000.00000" pt_clust_9="13000.00000"></scales>
<clustering>
<clus scale="   79.540">  5  6 -1 -1</clus>
<clus scale="   89.808">  7  8 -1 -1</clus>
<clus scale="   98.262">  2  7  1 -1</clus>
<clus scale="  157.947">  5  9 -1 -1</clus>
<clus scale="  337.873">  1  5  2 -1</clus>
</clustering>
</event>
<event>
 9    1  0.4516508E-005  0.3059125E+03  0.7546771E-02  0.1126001E+00
         21   -1    0    0  501  502  0.00000000000E+00  0.00000000000E+00  0.20568689338E+03  0.20568689338E+03  0.00000000000E+00 0.  1.
         -2   -1    0    0    0  501 -0.00000000000E+00 -0.00000000000E+00 -0.20585111734E+03  0.20585111734E+03  0.00000000000E+00 0.  1.
         23    2    1    2    0    0 -0.20619820539E+02  0.24276132060E+02  0.31021118964E+02  0.10404003161E+03  0.94061207567E+02 0.  0.
        -24    2    1    2    0    0  0.80628371831E+02  0.18155959514E+02  0.10208070740E+03  0.15530944869E+03  0.82885347443E+02 0.  0.
         11    1    4    4    0    0  0.82070150590E+01  0.40410013862E+02  0.38179679079E+02  0.56196193920E+02  0.00000000000E+00 0. -1.
        -12    1    4    4    0    0  0.72421356772E+02 -0.22254054348E+02  0.63901028318E+02  0.99113254773E+02  0.00000000000E+00 0.  1.
        -13    1    3    3    0    0  0.15617641471E+02  0.12705088000E+02 -0.27597233702E+02  0.34160463905E+02  0.00000000000E+00 0. -1.
         13    1    3    3    0    0 -0.36237462010E+02  0.11571044060E+02  0.58618352665E+02  0.69879567706E+02  0.00000000000E+00 0.  1.
         -1    1    1    2    0  502 -0.60008551292E+02 -0.42432091574E+02 -0.13326605031E+03  0.15218853042E+03  0.00000000000E+00 0.  1.
<scales pt_clust_5="13000.00000" pt_clust_6="13000.00000" pt_clust_7="13000.00000" pt_clust_8="13000.00000" pt_clust_9="13000.00000"></scales>
<clustering>
<clus scale="   82.885">  5  6 -1 -1</clus>
<clus scale="   73.495">  5  9 -1 -1</clus>
<clus scale="   94.061">  7  8 -1 -1</clus>
<clus scale="   99.308">  2  7  1 -1</clus>
<clus scale="  305.913">  1  5  2 -1</clus>
</clustering>
</event>
<event>
 9    1  0.4516508E-005  0.2962722E+03  0.7546771E-02  0.1119872E+00
          1   -1    0    0  502    0 -0.00000000000E+00  0.00000000000E+00  0.13710203470E+04  0.13710203470E+04  0.00000000000E+00 0. -1.
         21   -1    0    0  501  502  0.00000000000E+00 -0.00000000000E+00 -0.32736917425E+02  0.32736917425E+02  0.00000000000E+00 0. -1.
         23    2    1    2    0    0 -0.80230164803E+02 -0.38660820909E+02  0.38748043769E+03  0.40786392072E+03  0.90996427471E+02 0.  0.
        -24    2    1    2    0    0 -0.47683638043E+02  0.48917020840E+02  0.14191949838E+03  0.17689417603E+03  0.80522054290E+02 0.  0.
         13    1    4    4    0    0 -0.16078317692E+02  0.66618368972E+02  0.10309419055E+03  0.12379390740E+03  0.00000000000E+00 0. -1.
        -14    1    4    4    0    0 -0.31605320351E+02 -0.17701348132E+02  0.38825307830E+02  0.53100268627E+02  0.00000000000E+00 0.  1.
        -13    1    3    3    0    0 -0.54889364543E+02  0.23870282993E+02  0.18242858570E+03  0.19199693130E+03  0.00000000000E+00 0.  1.
         13    1    3    3    0    0 -0.25340800259E+02 -0.62531103903E+02  0.20505185199E+03  0.21586698941E+03  0.00000000000E+00 0. -1.
          2    1    1    2  501    0  0.12791380285E+03 -0.10256199931E+02  0.80888349355E+03  0.81899916772E+03  0.00000000000E+00 0. -1.
<scales pt_clust_5="13000.00000" pt_clust_6="13000.00000" pt_clust_7="13000.00000" pt_clust_8="13000.00000" pt_clust_9="13000.00000"></scales>
<clustering>
<clus scale="   80.522">  5  6 -1 -1</clus>
<clus scale="   90.996">  7  8 -1 -1</clus>
<clus scale="  127.326">  1  7  2 -1</clus>
<clus scale="   74.249">  5  9 -1 -1</clus>
<clus scale="  296.272">  2  5  1 -1</clus>
</clustering>
</event>
<event>
 9    1  0.4516508E-005  0.4566400E+03  0.7546771E-02  0.1029763E+00
         21   -1    0    0  501  502  0.00000000000E+00  0.00000000000E+00  0.32470460462E+03  0.32470460462E+03  0.00000000000E+00 0. -1.
          3   -1    0    0  502    0 -0.00000000000E+00 -0.00000000000E+00 -0.59453361796E+03  0.59453361796E+03  0.00000000000E+00 0. -1.
         23    2    1    2    0    0  0.29992465284E+03 -0.25750462109E+03 -0.21651821262E+03  0.45949688126E+03  0.89408166455E+02 0.  0.
        -24    2    1    2    0    0 -0.83267692552E+02  0.19244487403E+03 -0.62972835135E+02  0.23332057363E+03  0.80649699030E+02 0.  0.
         11    1    4    4    0    0 -0.77019400013E+02  0.19537841919E+03 -0.45989096989E+02  0.21498770129E+03  0.00000000000E+00 0. -1.
        -12    1    4    4    0    0 -0.62482925391E+01 -0.29335451661E+01 -0.16983738146E+02  0.18332872342E+02  0.00000000000E+00 0.  1.
        -13    1    3    3    0    0  0.23838813958E+03 -0.24588514608E+03 -0.17790576951E+03  0.38592599417E+03  0.00000000000E+00 0. -1.
         13    1    3    3    0    0  0.61536513263E+02 -0.11619475012E+02 -0.38612443118E+02  0.73570887093E+02  0.00000000000E+00 0.  1.
          4    1    1    2  501    0 -0.21665696029E+03  0.65059747063E+02  0.96620344180E+01  0.22642076768E+03  0.00000000000E+00 0. -1.
<scales pt_clust_5="13000.00000" pt_clust_6="13000.00000" pt_clust_7="13000.00000" pt_clust_8="13000.00000" pt_clust_9="13000.00000"></scales>
<clustering>
<clus scale="   80.650">  5  6 -1 -1</clus>
<clus scale="   89.408">  7  8 -1 -1</clus>
<clus scale="  226.215">  5  9 -1 -1</clus>
<clus scale="  405.287">  2  7  1 -1</clus>
<clus scale="  456.640">  1  5  2 -1</clus>
</clustering>
</event>
<event>
 9    1  0.4516508E-005  0.5632310E+03  0.7546771E-02  0.1053407E+00
         21   -1    0    0  501  502  0.00000000000E+00  0.00000000000E+00  0.44121124793E+03  0.44121124793E+03  0.00000000000E+00 0. -1.
          1   -1    0    0  502    0 -0.00000000000E+00 -0.00000000000E+00 -0.30064289206E+03  0.30064289206E+03  0.00000000000E+00 0. -1.
         23    2    1    2    0    0 -0.46642363836E+02  0.36093489566E+02 -0.82017518885E+02  0.13623571358E+03  0.91405941594E+02 0.  0.
        -24    2    1    2    0    0  0.25827592098E+03 -0.12043690255E+03  0.23398537542E+03  0.37751204237E+03  0.80961023766E+02 0.  0.
         13    1    4    4    0    0  0.21281888389E+03 -0.11950663509E+03  0.22328813766E+03  0.33080402898E+03  0.00000000000E+00 0. -1.
        -14    1    4    4    0    0  0.45457037090E+02 -0.93026746099E+00  0.10697237750E+02  0.46708013381E+02  0.00000000000E+00 0.  1.
        -11    1    3    3    0    0  0.12945792967E+02  0.38392650691E+02 -0.81952926625E+01  0.41337053650E+02  0.00000000000E+00 0.  1.
         11    1    3    3    0    0 -0.59588156803E+02 -0.22991611248E+01 -0.73822226222E+02  0.94898659935E+02  0.00000000000E+00 0. -1.
          2    1    1    2  501    0 -0.21163355714E+03  0.84343412988E+02 -0.11399500660E+02  0.22810638404E+03  0.00000000000E+00 0. -1.
<scales pt_clust_5="13000.00000" pt_clust_6="13000.00000" pt_clust_7="13000.00000" pt_clust_8="13000.00000" pt_clust_9="13000.00000"></scales>
<clustering>
<clus scale="   80.961">  5  6 -1 -1</clus>
<clus scale="   91.406">  7  8 -1 -1</clus>
<clus scale="  108.781">  2  7  1 -1</clus>
<clus scale="  263.466">  5  9 -1 -1</clus>
<clus scale="  563.231">  1  5  2 -1</clus>
</clustering>
</event>
<event>
 9    1  0.4516508E-005  0.2881561E+03  0.7546771E-02  0.1121539E+00
         21   -1    0    0  501  502  0.00000000000E+00  0.00000000000E+00  0.63810613061E+02  0.63810613061E+02  0.00000000000E+00 0. -1.
          1   -1    0    0  502    0 -0.00000000000E+00 -0.00000000000E+00 -0.76220834610E+03  0.76220834610E+03  0.00000000000E+00 0. -1.
         23    2    1    2    0    0 -0.84735318938E-01  0.95126471906E+02 -0.34734989471E+03  0.37185101488E+03  0.92586041472E+02 0.  0.
        -24    2    1    2    0    0  0.10638959797E+03 -0.79668365016E+01 -0.25054844531E+03  0.28388096925E+03  0.80197657186E+02 0.  0.
         11    1    4    4    0    0  0.61275680320E+02 -0.26514820524E+02 -0.69489750584E+02  0.96366851885E+02  0.00000000000E+00 0. -1.
        -12    1    4    4    0    0  0.45113917646E+02  0.18547984023E+02 -0.18105869472E+03  0.18751411737E+03  0.00000000000E+00 0.  1.
        -11    1    3    3    0    0  0.58445504890E+01  0.43013865081E+02 -0.36815941391E+02  0.56918932704E+02  0.00000000000E+00 0.  1.
         11    1    3    3    0    0 -0.59292858080E+01  0.52112606825E+02 -0.31053395332E+03  0.31493208218E+03  0.00000000000E+00 0. -1.
          2    1    1    2  501    0 -0.10630486265E+03 -0.87159635405E+02 -0.10049939302E+03  0.17028697502E+03  0.00000000000E+00 0. -1.
<scales pt_clust_5="13000.00000" pt_clust_6="13000.00000" pt_clust_7="13000.00000" pt_clust_8="13000.00000" pt_clust_9="13000.00000"></scales>
<clustering>
<clus scale="   80.198">  5  6 -1 -1</clus>
<clus scale="   92.586">  7  8 -1 -1</clus>
<clus scale="  132.745">  2  7  1 -1</clus>
<clus scale="  119.793">  5  9 -1 -1</clus>
<clus scale="  288.156">  1  5  2 -1</clus>
</clustering>
</event>
<event>
 9    1  0.4516508E-005  0.1716370E+03  0.7546771E-02  0.1202109E+00
         21   -1    0    0  501  502  0.00000000000E+00  0.00000000000E+00  0.45306631999E+03  0.45306631999E+03  0.00000000000E+00 0. -1.
          1   -1    0    0  502    0 -0.00000000000E+00 -0.00000000000E+00 -0.74556283689E+02  0.74556283689E+02  0.00000000000E+00 0. -1.
         23    2    1    2    0    0 -0.25419791819E+02 -0.29397234908E+02 -0.15482976415E+02  0.97867126953E+02  0.88475356699E+02 0.  0.
        -24    2    1    2    0    0  0.35809308307E+02 -0.16235791676E+02  0.36232820832E+03  0.37324906111E+03  0.80543302548E+02 0.  0.
         11    1    4    4    0    0  0.51145404371E+02 -0.25129477261E+02  0.33998147659E+03  0.34472416138E+03  0.00000000000E+00 0. -1.
        -12    1    4    4    0    0 -0.15336096064E+02  0.88936855850E+01  0.22346731731E+02  0.28524899733E+02  0.00000000000E+00 0.  1.
        -11    1    3    3    0    0  0.31768620681E+02 -0.87108484896E+01 -0.16925785681E+02  0.37035204364E+02  0.00000000000E+00 0.  1.
         11    1    3    3    0    0 -0.57188412500E+02 -0.20686386419E+02  0.14428092664E+01  0.60831922589E+02  0.00000000000E+00 0. -1.
          2    1    1    2  501    0 -0.10389516488E+02  0.45633026584E+02  0.31664804401E+02  0.56506415616E+02  0.00000000000E+00 0. -1.
<scales pt_clust_5="13000.00000" pt_clust_6="13000.00000" pt_clust_7="13000.00000" pt_clust_8="13000.00000" pt_clust_9="13000.00000"></scales>
<clustering>
<clus scale="   80.543">  5  6 -1 -1</clus>
<clus scale="   46.801">  5  9 -1 -1</clus>
<clus scale="   88.475">  7  8 -1 -1</clus>
<clus scale="   96.635">  2  7  1 -1</clus>
<clus scale="  171.637">  1  5  2 -1</clus>
</clustering>
</event>
<event>
 9    1  0.4516508E-005  0.1275923E+04  0.7546771E-02  0.9787855E-01
          1   -1    0    0  502    0 -0.00000000000E+00  0.00000000000E+00  0.44409149098E+03  0.44409149098E+03  0.00000000000E+00 0. -1.
         21   -1    0    0  501  502  0.00000000000E+00 -0.00000000000E+00 -0.10532778131E+04  0.10532778131E+04  0.00000000000E+00 0.  1.
         23    2    1    2    0    0 -0.21538975125E+01  0.20732387433E+02 -0.31068137244E+02  0.96584067468E+02  0.89043707098E+02 0.  0.
        -24    2    1    2    0    0  0.40447159246E+03 -0.16571575365E+01 -0.82924448149E+03  0.92614030728E+03  0.80557081683E+02 0.  0.
         11    1    4    4    0    0  0.16954244793E+03  0.19403229594E+02 -0.42704627435E+03  0.45988003588E+03  0.00000000000E+00 0. -1.
        -12    1    4    4    0    0  0.23492914453E+03 -0.21060387131E+02 -0.40219820715E+03  0.46626027140E+03  0.00000000000E+00 0.  1.
        -13    1    3    3    0    0 -0.38958942703E+02  0.33237627299E+02 -0.93513146045E+01  0.52057527504E+02  0.00000000000E+00 0. -1.
         13    1    3    3    0    0  0.36805045191E+02 -0.12505239867E+02 -0.21716822639E+02  0.44526539964E+02  0.00000000000E+00 0.  1.
          2    1    1    2  501    0 -0.40231769494E+03 -0.19075229896E+02  0.25112629664E+03  0.47464492931E+03  0.00000000000E+00 0. -1.
<scales pt_clust_5="13000.00000" pt_clust_6="13000.00000" pt_clust_7="13000.00000" pt_clust_8="13000.00000" pt_clust_9="13000.00000"></scales>
<clustering>
<clus scale="   80.557">  5  6 -1 -1</clus>
<clus scale="   89.044">  7  8 -1 -1</clus>
<clus scale="   91.451">  1  7  2 -1</clus>
<clus scale="  404.219">  5  9 -1 -1</clus>
<clus scale=" 1275.923">  2  5  1 -1</clus>
</clustering>
</event>
<event>
 9    1  0.4516508E-005  0.2260111E+03  0.7546771E-02  0.1160538E+00
         21   -1    0    0  501  502  0.00000000000E+00  0.00000000000E+00  0.26741305622E+03  0.26741305622E+03  0.00000000000E+00 0. -1.
         -2   -1    0    0    0  501 -0.00000000000E+00 -0.00000000000E+00 -0.11995477819E+03  0.11995477819E+03  0.00000000000E+00 0.  1.
         23    2    1    2    0    0 -0.46707374345E+02 -0.28372777360E+02  0.11764712620E+03  0.15939911795E+03  0.92631739625E+02 0.  0.
        -24    2    1    2    0    0  0.46041486534E+02  0.10958573873E+03  0.71382755940E+01  0.14364761698E+03  0.80341958342E+02 0.  0.
         11    1    4    4    0    0  0.37886300198E+02  0.11194778678E+02 -0.15362802077E+02  0.42387622013E+02  0.00000000000E+00 0. -1.
        -12    1    4    4    0    0  0.81551863362E+01  0.98390960054E+02  0.22501077671E+02  0.10125999497E+03  0.00000000000E+00 0.  1.
        -11    1    3    3    0    0 -0.13634030113E+02  0.29886247625E+02  0.13389485382E+02  0.35473270120E+02  0.00000000000E+00 0.  1.
         11    1    3    3    0    0 -0.33073344232E+02 -0.58259024985E+02  0.10425764082E+03  0.12392584783E+03  0.00000000000E+00 0. -1.
         -1    1    1    2    0  502  0.66588781068E+00 -0.81212961371E+02  0.22672876245E+02  0.84321099486E+02  0.00000000000E+00 0.  1.
<scales pt_clust_5="13000.00000" pt_clust_6="13000.00000" pt_clust_7="13000.00000" pt_clust_8="13000.00000" pt_clust_9="13000.00000"></scales>
<clustering>
<clus scale="   80.342">  5  6 -1 -1</clus>
<clus scale="   81.216">  5  9 -1 -1</clus>
<clus scale="   92.632">  7  8 -1 -1</clus>
<clus scale="  107.551">  2  7  1 -1</clus>
<clus scale="  226.011">  1  5  2 -1</clus>
</clustering>
</event>
<event>
 9    1  0.4516508E-005  0.1410937E+03  0.7546771E-02  0.1213917E+00
         21   -1    0    0  501  502  0.00000000000E+00  0.00000000000E+00  0.45268720926E+02  0.45268720926E+02  0.00000000000E+00 0. -1.
          1   -1    0    0  502    0 -0.00000000000E+00 -0.00000000000E+00 -0.47144530785E+03  0.47144530785E+03  0.00000000000E+00 0. -1.
         23    2    1    2    0    0 -0.39019985633E+02  0.92543168679E+02 -0.29326847568E+03  0.32287903896E+03  0.90319862834E+02 0.  0.
        -24    2    1    2    0    0  0.33316652248E+02 -0.68144663333E+02 -0.83110944587E+02  0.13808938118E+03  0.80047196254E+02 0.  0.
         13    1    4    4    0    0  0.30660694056E+02 -0.23373401631E+02  0.53356469392E+01  0.38921243454E+02  0.00000000000E+00 0. -1.
        -14    1    4    4    0    0  0.26559581918E+01 -0.44771261702E+02 -0.88446591526E+02  0.99168137731E+02  0.00000000000E+00 0.  1.
        -13    1    3    3    0    0 -0.17216912958E+02  0.10364638049E+03 -0.19383016421E+03  0.22047477597E+03  0.00000000000E+00 0. -1.
         13    1    3    3    0    0 -0.21803072675E+02 -0.11103211808E+02 -0.99438311474E+02  0.10240426299E+03  0.00000000000E+00 0.  1.
          2    1    1    2  501    0  0.57033333849E+01 -0.24398505347E+02 -0.49797166652E+02  0.55745608629E+02  0.00000000000E+00 0. -1.
<scales pt_clust_5="13000.00000" pt_clust_6="13000.00000" pt_clust_7="13000.00000" pt_clust_8="13000.00000" pt_clust_9="13000.00000"></scales>
<clustering>
<clus scale="   80.047">  5  6 -1 -1</clus>
<clus scale="   25.056">  5  9 -1 -1</clus>
<clus scale="   90.320">  7  8 -1 -1</clus>
<clus scale="  135.072">  2  7  1 -1</clus>
<clus scale="  141.094">  1  5  2 -1</clus>
</clustering>
</event>
<event>
 9    1  0.4516508E-005  0.1801954E+03  0.7546771E-02  0.1195329E+00
         21   -1    0    0  501  502  0.00000000000E+00  0.00000000000E+00  0.37107045247E+02  0.37107045247E+02  0.00000000000E+00 0. -1.
          1   -1    0    0  502    0 -0.00000000000E+00 -0.00000000000E+00 -0.62391506878E+03  0.62391506878E+03  0.00000000000E+00 0. -1.
         23    2    1    2    0    0  0.18317759443E+02  0.25009443653E+02 -0.35185809864E+03  0.36492777949E+03  0.91690512481E+02 0.  0.
        -24    2    1    2    0    0 -0.23997497747E+02 -0.69387102842E+02 -0.22565838928E+03  0.25040003843E+03  0.79925094042E+02 0.  0.
         11    1    4    4    0    0 -0.26418178282E+02 -0.62011619828E+02 -0.80324062862E+02  0.10485855336E+03  0.00000000000E+00 0. -1.
        -12    1    4    4    0    0  0.24206805343E+01 -0.73754830143E+01 -0.14533432641E+03  0.14554148508E+03  0.00000000000E+00 0.  1.
        -11    1    3    3    0    0 -0.26445515635E+02  0.37100980048E+02 -0.23162834929E+03  0.23606681302E+03  0.00000000000E+00 0.  1.
         11    1    3    3    0    0  0.44763275078E+02 -0.12091536395E+02 -0.12022974935E+03  0.12886096646E+03  0.00000000000E+00 0. -1.
          2    1    1    2  501    0  0.56797383041E+01  0.44377659189E+02 -0.92915356114E+01  0.45694296103E+02  0.00000000000E+00 0. -1.
<scales pt_clust_5="13000.00000" pt_clust_6="13000.00000" pt_clust_7="13000.00000" pt_clust_8="13000.00000" pt_clust_9="13000.00000"></scales>
<clustering>
<clus scale="   79.925">  5  6 -1 -1</clus>
<clus scale="   44.740">  5  9 -1 -1</clus>
<clus scale="   91.691">  7  8 -1 -1</clus>
<clus scale="   96.789">  2  7  1 -1</clus>
<clus scale="  180.195">  1  5  2 -1</clus>
</clustering>
</event>
<event>
 9    1  0.4516508E-005  0.2164124E+03  0.7546771E-02  0.1172876E+00
         21   -1    0    0  501  502  0.00000000000E+00  0.00000000000E+00  0.29604613238E+02  0.29604613238E+02  0.00000000000E+00 0.  1.
          1   -1    0    0  502    0 -0.00000000000E+00 -0.00000000000E+00 -0.80979673841E+03  0.80979673841E+03  0.00000000000E+00 0. -1.
         23    2    1    2    0    0  0.99979780954E+01  0.99022453227E+01 -0.20293661711E+03  0.22291270877E+03  0.91152570670E+02 0.  0.
        -24    2    1    2    0    0 -0.66952561175E+02 -0.30622348033E+02 -0.15700934104E+03  0.19189473326E+03  0.82166184228E+02 0.  0.
         11    1    4    4    0    0 -0.77004560912E+02 -0.41872224395E+00 -0.12453969616E+03  0.14642408835E+03  0.00000000000E+00 0. -1.
        -12    1    4    4    0    0  0.10051999737E+02 -0.30203625789E+02 -0.32469644878E+02  0.45470644904E+02  0.00000000000E+00 0.  1.
        -11    1    3    3    0    0  0.25106206467E+02  0.28796771133E+02 -0.19302394665E+03  0.19676844160E+03  0.00000000000E+00 0. -1.
         11    1    3    3    0    0 -0.15108228371E+02 -0.18894525811E+02 -0.99126704600E+01  0.26144267168E+02  0.00000000000E+00 0.  1.
          2    1    1    2  501    0  0.56954583080E+02  0.20720102710E+02 -0.42024616702E+03  0.42459390962E+03  0.00000000000E+00 0. -1.
<scales pt_clust_5="13000.00000" pt_clust_6="13000.00000" pt_clust_7="13000.00000" pt_clust_8="13000.00000" pt_clust_9="13000.00000"></scales>
<clustering>
<clus scale="   82.166">  5  6 -1 -1</clus>
<clus scale="   60.607">  5  9 -1 -1</clus>
<clus scale="   91.153">  7  8 -1 -1</clus>
<clus scale="   92.232">  2  7  1 -1</clus>
<clus scale="  216.412">  1  5  2 -1</clus>
</clustering>
</event>
<event>
 9    1  0.4516508E-005  0.2012245E+03  0.7546771E-02  0.1182965E+00
         21   -1    0    0  501  502  0.00000000000E+00  0.00000000000E+00  0.72567277876E+02  0.72567277876E+02  0.00000000000E+00 0.  1.
          1   -1    0    0  502    0 -0.00000000000E+00 -0.00000000000E+00 -0.30611742216E+03  0.30611742216E+03  0.00000000000E+00 0. -1.
         23    2    1    2    0    0 -0.47402675108E+01 -0.18070646377E+02 -0.10815046555E+03  0.14158480118E+03  0.89446712240E+02 0.  0.
        -24    2    1    2    0    0 -0.11100878236E+02 -0.10721677641E+02  0.24139744337E+02  0.83992162689E+02  0.78954241606E+02 0.  0.
         11    1    4    4    0    0  0.18785895118E+02  0.17641873923E+02 -0.12691723331E+02  0.28726736884E+02  0.00000000000E+00 0. -1.
        -12    1    4    4    0    0 -0.29886773354E+02 -0.28363551564E+02  0.36831467667E+02  0.55265425805E+02  0.00000000000E+00 0.  1.
        -13    1    3    3    0    0  0.59850156671E+01  0.25241685649E+02 -0.15098343897E+01  0.25985432589E+02  0.00000000000E+00 0.  1.
         13    1    3    3    0    0 -0.10725283178E+02 -0.43312332027E+02 -0.10664063116E+03  0.11559936860E+03  0.00000000000E+00 0. -1.
          2    1    1    2  501    0  0.15841145747E+02  0.28792324018E+02 -0.14953942307E+03  0.15310773616E+03  0.00000000000E+00 0. -1.
<scales pt_clust_5="13000.00000" pt_clust_6="13000.00000" pt_clust_7="13000.00000" pt_clust_8="13000.00000" pt_clust_9="13000.00000"></scales>
<clustering>
<clus scale="   78.954">  5  6 -1 -1</clus>
<clus scale="   32.862">  5  9 -1 -1</clus>
<clus scale="   89.447">  7  8 -1 -1</clus>
<clus scale="   91.377">  2  7  1 -1</clus>
<clus scale="  201.224">  1  5  2 -1</clus>
</clustering>
</event>
<event>
 9    1  0.4516508E-005  0.2032738E+03  0.7546771E-02  0.1179553E+00
         21   -1    0    0  501  502  0.00000000000E+00  0.00000000000E+00  0.76593233440E+02  0.76593233440E+02  0.00000000000E+00 0. -1.
          1   -1    0    0  502    0 -0.00000000000E+00 -0.00000000000E+00 -0.29182184406E+03  0.29182184406E+03  0.00000000000E+00 0. -1.
         23    2    1    2    0    0  0.29950668777E+02  0.57460029106E+01 -0.65915376815E+02  0.11619556422E+03  0.90700127531E+02 0.  0.
        -24    2    1    2    0    0  0.64253189560E+02 -0.23175251021E+02 -0.59238740024E+02  0.12072213671E+03  0.79994008170E+02 0.  0.
         11    1    4    4    0    0  0.36166818068E+02 -0.51517540229E+02 -0.23605649700E+02  0.67225905558E+02  0.00000000000E+00 0. -1.
        -12    1    4    4    0    0  0.28086371492E+02  0.28342289208E+02 -0.35633090324E+02  0.53496231149E+02  0.00000000000E+00 0.  1.
        -11    1    3    3    0    0  0.59251537618E+02  0.20310842133E+02 -0.38626961766E+02  0.73588838784E+02  0.00000000000E+00 0. -1.
         11    1    3    3    0    0 -0.29300868842E+02 -0.14564839223E+02 -0.27288415049E+02  0.42606725436E+02  0.00000000000E+00 0.  1.
          2    1    1    2  501    0 -0.94203858336E+02  0.17429248110E+02 -0.90074493777E+02  0.13149737657E+03  0.00000000000E+00 0. -1.
<scales pt_clust_5="13000.00000" pt_clust_6="13000.00000" pt_clust_7="13000.00000" pt_clust_8="13000.00000" pt_clust_9="13000.00000"></scales>
<clustering>
<clus scale="   79.994">  5  6 -1 -1</clus>
<clus scale="   90.700">  7  8 -1 -1</clus>
<clus scale="   95.690">  2  7  1 -1</clus>
<clus scale="   80.362">  5  9 -1 -1</clus>
<clus scale="  203.274">  1  5  2 -1</clus>
</clustering>
</event>
<event>
 9    1  0.4516508E-005  0.2192086E+03  0.7546771E-02  0.1167400E+00
          1   -1    0    0  502    0 -0.00000000000E+00  0.00000000000E+00  0.13744527774E+03  0.13744527774E+03  0.00000000000E+00 0. -1.
         21   -1    0    0  501  502  0.00000000000E+00 -0.00000000000E+00 -0.22617518237E+03  0.22617518237E+03  0.00000000000E+00 0.  1.
         23    2    1    2    0    0 -0.89778873645E+01  0.37947774373E+02 -0.10297427554E+03  0.14394955614E+03  0.92720748739E+02 0.  0.
        -24    2    1    2    0    0 -0.53208801761E+02 -0.25121874453E+02  0.81587562895E+02  0.12711392953E+03  0.77711874892E+02 0.  0.
         13    1    4    4    0    0 -0.32488168341E+02 -0.43121697855E+02  0.83681761477E+02  0.99587143306E+02  0.00000000000E+00 0. -1.
        -14    1    4    4    0    0 -0.20720633420E+02  0.17999823403E+02 -0.20941985812E+01  0.27526786219E+02  0.00000000000E+00 0.  1.
        -13    1    3    3    0    0 -0.97568809103E+01  0.68502236270E+02 -0.62581862772E+02  0.93296530735E+02  0.00000000000E+00 0.  1.
         13    1    3    3    0    0  0.77899354581E+00 -0.30554461898E+02 -0.40392412771E+02  0.50653025400E+02  0.00000000000E+00 0. -1.
          2    1    1    2  501    0  0.62186689125E+02 -0.12825899920E+02 -0.67343191979E+02  0.92556974448E+02  0.00000000000E+00 0. -1.
<scales pt_clust_5="13000.00000" pt_clust_6="13000.00000" pt_clust_7="13000.00000" pt_clust_8="13000.00000" pt_clust_9="13000.00000"></scales>
<clustering>
<clus scale="   77.712">  5  6 -1 -1</clus>
<clus scale="   63.496">  5  9 -1 -1</clus>
<clus scale="   92.721">  7  8 -1 -1</clus>
<clus scale="  100.587">  1  7  2 -1</clus>
<clus scale="  219.209">  2  5  1 -1</clus>
</clustering>
</event>
<event>
 9    1  0.4516508E-005  0.3200162E+03  0.7546771E-02  0.1122237E+00
          1   -1    0    0  502    0 -0.00000000000E+00  0.00000000000E+00  0.21195891378E+03  0.21195891378E+03  0.00000000000E+00 0. -1.
         21   -1    0    0  501  502  0.00000000000E+00 -0.00000000000E+00 -0.20632750497E+03  0.20632750497E+03  0.00000000000E+00 0. -1.
         23    2    1    2    0    0 -0.27000000692E+02  0.56934099377E+01  0.22363688215E+02  0.97833082283E+02  0.91157898640E+02 0.  0.
        -24    2    1    2    0    0 -0.90279422139E+02 -0.80170960214E+02 -0.82674794834E+02  0.16666847421E+03  0.79784094109E+02 0.  0.
         13    1    4    4    0    0 -0.51907748684E+02 -0.21211226078E+02 -0.78137344406E+02  0.96175750977E+02  0.00000000000E+00 0. -1.
        -14    1    4    4    0    0 -0.38371673456E+02 -0.58959734135E+02 -0.45374504282E+01  0.70492723238E+02  0.00000000000E+00 0.  1.
        -13    1    3    3    0    0  0.31541803563E+02  0.14938910896E+02  0.15437202361E+02  0.38162332836E+02  0.00000000000E+00 0. -1.
         13    1    3    3    0    0 -0.58541804255E+02 -0.92455009580E+01  0.69264858537E+01  0.59670749447E+02  0.00000000000E+00 0.  1.
          2    1    1    2  501    0  0.11727942283E+03  0.74477550276E+02  0.65942515433E+02  0.15378486225E+03  0.00000000000E+00 0. -1.
<scales pt_clust_5="13000.00000" pt_clust_6="13000.00000" pt_clust_7="13000.00000" pt_clust_8="13000.00000" pt_clust_9="13000.00000"></scales>
<clustering>
<clus scale="   79.784">  5  6 -1 -1</clus>
<clus scale="   91.158">  7  8 -1 -1</clus>
<clus scale="   95.243">  1  7  2 -1</clus>
<clus scale="  125.426">  5  9 -1 -1</clus>
<clus scale="  320.016">  2  5  1 -1</clus>
</clustering>
</event>
<event>
 9    1  0.4516508E-005  0.2352153E+03  0.7546771E-02  0.1157516E+00
          1   -1    0    0  502    0 -0.00000000000E+00  0.00000000000E+00  0.59273157341E+02  0.59273157341E+02  0.00000000000E+00 0. -1.
         21   -1    0    0  501  502  0.00000000000E+00 -0.00000000000E+00 -0.56603202833E+03  0.56603202833E+03  0.00000000000E+00 0. -1.
         23    2    1    2    0    0 -0.46534376347E+02 -0.23457063791E+02 -0.55573102749E+02  0.11648807430E+03  0.88121618699E+02 0.  0.
        -24    2    1    2    0    0  0.30124141245E+02  0.11429413859E+03 -0.26229870861E+03  0.29858154999E+03  0.79873120952E+02 0.  0.
         11    1    4    4    0    0  0.22280482012E+02  0.84365922063E+02 -0.25084839564E+03  0.26559169091E+03  0.00000000000E+00 0. -1.
        -12    1    4    4    0    0  0.78436592329E+01  0.29928216529E+02 -0.11450312970E+02  0.32989859076E+02  0.00000000000E+00 0.  1.
        -13    1    3    3    0    0  0.13563029002E+02 -0.17249714228E+02 -0.51445813941E+02  0.55930136498E+02  0.00000000000E+00 0.  1.
         13    1    3    3    0    0 -0.60097405349E+02 -0.62073495631E+01 -0.41272888072E+01  0.60557937805E+02  0.00000000000E+00 0. -1.
          2    1    1    2  501    0  0.16410235102E+02 -0.90837074801E+02 -0.18888705963E+03  0.21023556138E+03  0.00000000000E+00 0. -1.
<scales pt_clust_5="13000.00000" pt_clust_6="13000.00000" pt_clust_7="13000.00000" pt_clust_8="13000.00000" pt_clust_9="13000.00000"></scales>
<clustering>
<clus scale="   79.873">  5  6 -1 -1</clus>
<clus scale="   88.122">  7  8 -1 -1</clus>
<clus scale="   92.308">  5  9 -1 -1</clus>
<clus scale="  102.377">  1  7  2 -1</clus>
<clus scale="  235.215">  2  5  1 -1</clus>
</clustering>
</event>
<event>
 9    1  0.4516508E-005  0.2543357E+03  0.7546771E-02  0.1149688E+00
         21   -1    0    0  501  502  0.00000000000E+00  0.00000000000E+00  0.20355005261E+03  0.20355005261E+03  0.00000000000E+00 0. -1.
         -4   -1    0    0    0  501 -0.00000000000E+00 -0.00000000000E+00 -0.16925278907E+03  0.16925278907E+03  0.00000000000E+00 0.  1.
         23    2    1    2    0    0  0.78848817278E+01  0.30266175065E+02 -0.43770633314E+02  0.10675536925E+03  0.92209694774E+02 0.  0.
        -24    2    1    2    0    0 -0.17271767638E+02  0.75612426392E+02  0.10842978736E+03  0.15550229493E+03  0.80052432551E+02 0.  0.
         11    1    4    4    0    0 -0.21462436887E+02  0.37406427185E+02  0.10883174798E+03  0.11706505183E+03  0.00000000000E+00 0. -1.
        -12    1    4    4    0    0  0.41906692481E+01  0.38205999208E+02 -0.40196061951E+00  0.38437243093E+02  0.00000000000E+00 0.  1.
        -11    1    3    3    0    0 -0.17081167697E+02 -0.25823411995E+02 -0.31456558734E+02  0.44137625495E+02  0.00000000000E+00 0.  1.
         11    1    3    3    0    0  0.24966049424E+02  0.56089587060E+02 -0.12314074581E+02  0.62617743757E+02  0.00000000000E+00 0. -1.
         -3    1    1    2    0  502  0.93868859106E+01 -0.10587860146E+03 -0.30361890513E+02  0.11054517750E+03  0.00000000000E+00 0.  1.
<scales pt_clust_5="13000.00000" pt_clust_6="13000.00000" pt_clust_7="13000.00000" pt_clust_8="13000.00000" pt_clust_9="13000.00000"></scales>
<clustering>
<clus scale="   80.052">  5  6 -1 -1</clus>
<clus scale="   92.210">  7  8 -1 -1</clus>
<clus scale="   97.370">  2  7  1 -1</clus>
<clus scale="   84.586">  5  9 -1 -1</clus>
<clus scale="  254.336">  1  5  2 -1</clus>
</clustering>
</event>
<event>
 9    1  0.4516508E-005  0.5449583E+03  0.7546771E-02  0.1051476E+00
         21   -1    0    0  501  502  0.00000000000E+00  0.00000000000E+00  0.39896301405E+03  0.39896301405E+03  0.00000000000E+00 0. -1.
          1   -1    0    0  502    0 -0.00000000000E+00 -0.00000000000E+00 -0.33308387676E+03  0.33308387676E+03  0.00000000000E+00 0. -1.
         23    2    1    2    0    0  0.22063327532E+02 -0.60843051843E+02  0.13201427177E+03  0.18309028172E+03  0.10911285868E+03 0.  0.
        -24    2    1    2    0    0  0.15953975413E+03  0.16406671892E+03 -0.18813187525E+03  0.30705164950E+03  0.80723550292E+02 0.  0.
         13    1    4    4    0    0  0.65864709312E+02  0.10330915031E+03 -0.57906974589E+02  0.13551442055E+03  0.00000000000E+00 0. -1.
        -14    1    4    4    0    0  0.93675044821E+02  0.60757568612E+02 -0.13022490066E+03  0.17153722895E+03  0.00000000000E+00 0.  1.
        -13    1    3    3    0    0  0.62264851701E+02 -0.27837938114E+02  0.44991054607E+02  0.81707145039E+02  0.00000000000E+00 0.  1.
         13    1    3    3    0    0 -0.40201524168E+02 -0.33005113729E+02  0.87023217165E+02  0.10138313668E+03  0.00000000000E+00 0. -1.
          2    1    1    2  501    0 -0.18160308167E+03 -0.10322366708E+03  0.12199674076E+03  0.24190495959E+03  0.00000000000E+00 0. -1.
<scales pt_clust_5="13000.00000" pt_clust_6="13000.00000" pt_clust_7="13000.00000" pt_clust_8="13000.00000" pt_clust_9="13000.00000"></scales>
<clustering>
<clus scale="   80.724">  5  6 -1 -1</clus>
<clus scale="  109.113">  7  8 -1 -1</clus>
<clus scale="  126.863">  2  7  1 -1</clus>
<clus scale="  211.378">  5  9 -1 -1</clus>
<clus scale="  544.958">  1  5  2 -1</clus>
</clustering>
</event>
<event>
 9    1  0.4516508E-005  0.2694972E+03  0.7546771E-02  0.1142741E+00
          1   -1    0    0  502    0 -0.00000000000E+00  0.00000000000E+00  0.70544935192E+03  0.70544935192E+03  0.00000000000E+00 0. -1.
         21   -1    0    0  501  502  0.00000000000E+00 -0.00000000000E+00 -0.47531190810E+02  0.47531190810E+02  0.00000000000E+00 0.  1.
         23    2    1    2    0    0 -0.19002665274E+02 -0.20610299406E+02  0.18280526173E+03  0.20675620530E+03  0.92436350993E+02 0.  0.
        -24    2    1    2    0    0 -0.25429069839E+02 -0.32655581379E+02  0.29992705868E+02  0.95731918168E+02  0.80944506686E+02 0.  0.
         11    1    4    4    0    0  0.13892837137E+02 -0.46982547807E+02  0.14327714295E+02  0.51045608226E+02  0.00000000000E+00 0. -1.
        -12    1    4    4    0    0 -0.39321906976E+02  0.14326966429E+02  0.15664991573E+02  0.44686309942E+02  0.00000000000E+00 0.  1.
        -13    1    3    3    0    0 -0.54062177365E+02 -0.19237587893E+02  0.14067894146E+03  0.15193211767E+03  0.00000000000E+00 0. -1.
         13    1    3    3    0    0  0.35059512091E+02 -0.13727115125E+01  0.42126320270E+02  0.54824087630E+02  0.00000000000E+00 0.  1.
          2    1    1    2  501    0  0.44431735113E+02  0.53265880784E+02  0.44512019351E+03  0.45049241926E+03  0.00000000000E+00 0. -1.
<scales pt_clust_5="13000.00000" pt_clust_6="13000.00000" pt_clust_7="13000.00000" pt_clust_8="13000.00000" pt_clust_9="13000.00000"></scales>
<clustering>
<clus scale="   80.945">  5  6 -1 -1</clus>
<clus scale="   69.365">  5  9 -1 -1</clus>
<clus scale="   92.436">  7  8 -1 -1</clus>
<clus scale="   96.594">  1  7  2 -1</clus>
<clus scale="  269.497">  2  5  1 -1</clus>
</clustering>
</event>
<event>
 9    1  0.4516508E-005  0.2013802E+03  0.7546771E-02  0.1168544E+00
         21   -1    0    0  501  502  0.00000000000E+00  0.00000000000E+00  0.37324606547E+02  0.37324606547E+02  0.00000000000E+00 0. -1.
          1   -1    0    0  502    0 -0.00000000000E+00 -0.00000000000E+00 -0.93297678700E+03  0.93297678700E+03  0.00000000000E+00 0. -1.
         23    2    1    2    0    0  0.76328665300E+02  0.37040092681E+02 -0.59611645401E+03  0.60936425083E+03  0.93658581220E+02 0.  0.
        -24    2    1    2    0    0  0.11982054105E+02  0.29460488627E+02 -0.12596448686E+03  0.15515063761E+03  0.84812607483E+02 0.  0.
         11    1    4    4    0    0  0.20406312011E+02  0.49644708214E+02 -0.41351758441E+02  0.67756789695E+02  0.00000000000E+00 0. -1.
        -12    1    4    4    0    0 -0.84242579056E+01 -0.20184219588E+02 -0.84612728424E+02  0.87393847913E+02  0.00000000000E+00 0.  1.
        -11    1    3    3    0    0 -0.19469050226E+02  0.20309696670E+02 -0.10445172963E+03  0.10817435703E+03  0.00000000000E+00 0.  1.
         11    1    3    3    0    0  0.95797715526E+02  0.16730396012E+02 -0.49166472438E+03  0.50118989380E+03  0.00000000000E+00 0. -1.
          2    1    1    2  501    0 -0.88310719405E+02 -0.66500581308E+02 -0.17357123957E+03  0.20578650510E+03  0.00000000000E+00 0. -1.
<scales pt_clust_5="13000.00000" pt_clust_6="13000.00000" pt_clust_7="13000.00000" pt_clust_8="13000.00000" pt_clust_9="13000.00000"></scales>
<clustering>
<clus scale="   84.813">  5  6 -1 -1</clus>
<clus scale="   93.659">  7  8 -1 -1</clus>
<clus scale="  110.549">  5  9 -1 -1</clus>
<clus scale="  126.372">  2  7  1 -1</clus>
<clus scale="  201.380">  1  5  2 -1</clus>
</clustering>
</event>
<event>
 9    1  0.4516508E-005  0.1585544E+03  0.7546771E-02  0.1199560E+00
         21   -1    0    0  501  502  0.00000000000E+00  0.00000000000E+00  0.80064684420E+02  0.80064684420E+02  0.00000000000E+00 0. -1.
          1   -1    0    0  502    0 -0.00000000000E+00 -0.00000000000E+00 -0.33429336238E+03  0.33429336238E+03  0.00000000000E+00 0. -1.
         23    2    1    2    0    0 -0.93430969563E+02 -0.24518789992E+01 -0.19372602662E+02  0.13099102868E+03  0.89710612949E+02 0.  0.
        -24    2    1    2    0    0  0.53510753113E+02  0.32901924021E+02 -0.18904411757E+03  0.21539964070E+03  0.81935276421E+02 0.  0.
         13    1    4    4    0    0  0.52053270028E+02  0.53455375424E+02 -0.10463939152E+03  0.12851623376E+03  0.00000000000E+00 0. -1.
        -14    1    4    4    0    0  0.14574830846E+01 -0.20553451402E+02 -0.84404726052E+02  0.86883406940E+02  0.00000000000E+00 0.  1.
        -13    1    3    3    0    0 -0.53910185088E+02  0.41091827362E+02  0.35469066087E+01  0.67878029426E+02  0.00000000000E+00 0.  1.
         13    1    3    3    0    0 -0.39520784474E+02 -0.43543706362E+02 -0.22919509271E+02  0.63112999250E+02  0.00000000000E+00 0. -1.
          2    1    1    2  501    0  0.39920216450E+02 -0.30450045022E+02 -0.45811957729E+02  0.67967377426E+02  0.00000000000E+00 0. -1.
<scales pt_clust_5="13000.00000" pt_clust_6="13000.00000" pt_clust_7="13000.00000" pt_clust_8="13000.00000" pt_clust_9="13000.00000"></scales>
<clustering>
<clus scale="   81.935">  5  6 -1 -1</clus>
<clus scale="   50.208">  5  9 -1 -1</clus>
<clus scale="   89.711">  7  8 -1 -1</clus>
<clus scale="  129.551">  2  7  1 -1</clus>
<clus scale="  158.554">  1  5  2 -1</clus>
</clustering>
</event>
<event>
 9    1  0.4516508E-005  0.1326847E+03  0.7546771E-02  0.1235473E+00
          1   -1    0    0  502    0 -0.00000000000E+00  0.00000000000E+00  0.44789626112E+03  0.44789626112E+03  0.00000000000E+00 0. -1.
         21   -1    0    0  501  502  0.00000000000E+00 -0.00000000000E+00 -0.37685813308E+02  0.37685813308E+02  0.00000000000E+00 0. -1.
         23    2    1    2    0    0 -0.38442157183E+02  0.30479280051E+02  0.28453156593E+03  0.30282429396E+03  0.91310213239E+02 0.  0.
        -24    2    1    2    0    0  0.14085636012E+02  0.39221398493E+00  0.84245331362E+02  0.12563485708E+03  0.92131875502E+02 0.  0.
         11    1    4    4    0    0 -0.10981225056E+02  0.33209485555E+02  0.37672851447E+01  0.35180245478E+02  0.00000000000E+00 0. -1.
        -12    1    4    4    0    0  0.25066861068E+02 -0.32817271570E+02  0.80478046218E+02  0.90454611602E+02  0.00000000000E+00 0.  1.
        -13    1    3    3    0    0 -0.22034404402E+02  0.61414516743E+02  0.21913677142E+03  0.22864422676E+03  0.00000000000E+00 0. -1.
         13    1    3    3    0    0 -0.16407752781E+02 -0.30935236692E+02  0.65394794509E+02  0.74180067198E+02  0.00000000000E+00 0.  1.
          2    1    1    2  501    0  0.24356521171E+02 -0.30871494036E+02  0.41433550523E+02  0.57122923389E+02  0.00000000000E+00 0. -1.
<scales pt_clust_5="13000.00000" pt_clust_6="13000.00000" pt_clust_7="13000.00000" pt_clust_8="13000.00000" pt_clust_9="13000.00000"></scales>
<clustering>
<clus scale="   91.310">  7  8 -1 -1</clus>
<clus scale="   92.132">  5  6 -1 -1</clus>
<clus scale="   39.323">  5  9 -1 -1</clus>
<clus scale="  103.655">  1  7  2 -1</clus>
<clus scale="  132.685">  2  5  1 -1</clus>
</clustering>
</event>
<event>
 9    1  0.4516508E-005  0.2245556E+03  0.7546771E-02  0.1170509E+00
         21   -1    0    0  501  502  0.00000000000E+00  0.00000000000E+00  0.34860734412E+02  0.34860734412E+02  0.00000000000E+00 0. -1.
          1   -1    0    0  502    0 -0.00000000000E+00 -0.00000000000E+00 -0.69932487961E+03  0.69932487961E+03  0.00000000000E+00 0. -1.
         23    2    1    2    0    0  0.18837085983E+02 -0.11800282703E+02 -0.16614357210E+03  0.18760661885E+03  0.84252444522E+02 0.  0.
        -24    2    1    2    0    0  0.30896983245E+02 -0.78317686502E+02 -0.20380917423E+03  0.23459872323E+03  0.80063086673E+02 0.  0.
         11    1    4    4    0    0 -0.96317286529E+01 -0.50148577465E+02 -0.44216437792E+02  0.67548082057E+02  0.00000000000E+00 0. -1.
        -12    1    4    4    0    0  0.40528711897E+02 -0.28169109037E+02 -0.15959273644E+03  0.16705064117E+03  0.00000000000E+00 0.  1.
        -13    1    3    3    0    0 -0.76517956477E+01 -0.43133652047E+02 -0.10704157682E+03  0.11565881325E+03  0.00000000000E+00 0.  1.
         13    1    3    3    0    0  0.26488881631E+02  0.31333369344E+02 -0.59101995279E+02  0.71947805599E+02  0.00000000000E+00 0. -1.
          2    1    1    2  501    0 -0.49734069228E+02  0.90117969205E+02 -0.29451139887E+03  0.31198027194E+03  0.00000000000E+00 0. -1.
<scales pt_clust_5="13000.00000" pt_clust_6="13000.00000" pt_clust_7="13000.00000" pt_clust_8="13000.00000" pt_clust_9="13000.00000"></scales>
<clustering>
<clus scale="   80.063">  5  6 -1 -1</clus>
<clus scale="   84.252">  7  8 -1 -1</clus>
<clus scale="   87.135">  2  7  1 -1</clus>
<clus scale="   91.865">  5  9 -1 -1</clus>
<clus scale="  224.556">  1  5  2 -1</clus>
</clustering>
</event>
<event>
 9    1  0.4516508E-005  0.8111426E+03  0.7546771E-02  0.1010690E+00
          1   -1    0    0  502    0 -0.00000000000E+00  0.00000000000E+00  0.11804032113E+04  0.11804032113E+04  0.00000000000E+00 0. -1.
         21   -1    0    0  501  502  0.00000000000E+00 -0.00000000000E+00 -0.18741779295E+03  0.18741779295E+03  0.00000000000E+00 0. -1.
         23    2    1    2    0    0 -0.28321122894E+02  0.77875309348E+02  0.11748222083E+03  0.17431431919E+03  0.98573626566E+02 0.  0.
        -24    2    1    2    0    0 -0.36993264123E+03 -0.13971861446E+03  0.47319987730E+03  0.62405201921E+03  0.95662680980E+02 0.  0.
         13    1    4    4    0    0 -0.16056321117E+03 -0.75001379080E+02  0.28285186259E+03  0.33378275542E+03  0.00000000000E+00 0. -1.
        -14    1    4    4    0    0 -0.20936943005E+03 -0.64717235385E+02  0.19034801471E+03  0.29026926379E+03  0.00000000000E+00 0.  1.
        -11    1    3    3    0    0  0.25878873085E+02  0.36559506865E+01  0.12870188823E+01  0.26167507814E+02  0.00000000000E+00 0.  1.
         11    1    3    3    0    0 -0.54199995979E+02  0.74219358662E+02  0.11619520195E+03  0.14814681137E+03  0.00000000000E+00 0. -1.
          2    1    1    2  501    0  0.39825376412E+03  0.61843305116E+02  0.40230332026E+03  0.56945466590E+03  0.00000000000E+00 0. -1.
<scales pt_clust_5="13000.00000" pt_clust_6="13000.00000" pt_clust_7="13000.00000" pt_clust_8="13000.00000" pt_clust_9="13000.00000"></scales>
<clustering>
<clus scale="   95.663">  5  6 -1 -1</clus>
<clus scale="   98.574">  7  8 -1 -1</clus>
<clus scale="  128.777">  1  7  2 -1</clus>
<clus scale="  397.334">  5  9 -1 -1</clus>
<clus scale="  811.143">  2  5  1 -1</clus>
</clustering>
</event>
<event>
 9    1  0.4516508E-005  0.2267709E+03  0.7546771E-02  0.1156885E+00
         21   -1    0    0  501  502  0.00000000000E+00  0.00000000000E+00  0.20414981414E+03  0.20414981414E+03  0.00000000000E+00 0.  1.
         -4   -1    0    0    0  501 -0.00000000000E+00 -0.00000000000E+00 -0.27010756553E+03  0.27010756553E+03  0.00000000000E+00 0.  1.
         23    2    1    2    0    0 -0.41543525391E+02  0.56854723814E+02 -0.18485417125E+03  0.21820778270E+03  0.92115404123E+02 0.  0.
        -24    2    1    2    0    0 -0.15406862152E+02 -0.57580396327E+02 -0.27125944260E+02  0.99312862084E+02  0.74661598434E+02 0.  0.
         11    1    4    4    0    0  0.27651019005E+02 -0.39119232821E+02 -0.73683045375E+01  0.48468393209E+02  0.00000000000E+00 0. -1.
        -12    1    4    4    0    0 -0.43057881157E+02 -0.18461163506E+02 -0.19757639722E+02  0.50844468874E+02  0.00000000000E+00 0.  1.
        -13    1    3    3    0    0 -0.70976822520E+02  0.45566094273E+02 -0.13093869777E+03  0.15575275553E+03  0.00000000000E+00 0.  1.
         13    1    3    3    0    0  0.29433297129E+02  0.11288629542E+02 -0.53915473486E+02  0.62455027164E+02  0.00000000000E+00 0. -1.
         -3    1    1    2    0  502  0.56950387543E+02  0.72567251264E+00  0.14602236412E+03  0.15673673490E+03  0.00000000000E+00 0.  1.
<scales pt_clust_5="13000.00000" pt_clust_6="13000.00000" pt_clust_7="13000.00000" pt_clust_8="13000.00000" pt_clust_9="13000.00000"></scales>
<clustering>
<clus scale="   74.662">  5  6 -1 -1</clus>
<clus scale="   56.955">  5  9 -1 -1</clus>
<clus scale="   92.115">  7  8 -1 -1</clus>
<clus scale="  115.946">  2  7  1 -1</clus>
<clus scale="  226.771">  1  5  2 -1</clus>
</clustering>
</event>
<event>
 9    1  0.4516508E-005  0.9973941E+03  0.7546771E-02  0.9820501E-01
          1   -1    0    0  502    0 -0.00000000000E+00  0.00000000000E+00  0.91044145645E+03  0.91044145645E+03  0.00000000000E+00 0. -1.
         21   -1    0    0  501  502  0.00000000000E+00 -0.00000000000E+00 -0.58307747391E+03  0.58307747391E+03  0.00000000000E+00 0. -1.
         23    2    1    2    0    0  0.14606402456E+03  0.18664343836E+01  0.45647225453E+03  0.48780333821E+03  0.90812965886E+02 0.  0.
        -24    2    1    2    0    0  0.13737728587E+03 -0.17436141623E+03  0.35038248040E+03  0.42261622081E+03  0.81007193357E+02 0.  0.
         11    1    4    4    0    0  0.68544360522E+02 -0.54805059253E+02  0.78544206941E+02  0.11777570345E+03  0.00000000000E+00 0. -1.
        -12    1    4    4    0    0  0.68832925351E+02 -0.11955635697E+03  0.27183827346E+03  0.30484051736E+03  0.00000000000E+00 0.  1.
        -13    1    3    3    0    0  0.84632453359E+02  0.33235173620E+02  0.16617424635E+03  0.18942309542E+03  0.00000000000E+00 0.  1.
         13    1    3    3    0    0  0.61431571205E+02 -0.31368739236E+02  0.29029800817E+03  0.29838024280E+03  0.00000000000E+00 0. -1.
          2    1    1    2  501    0 -0.28344131044E+03  0.17249498184E+03 -0.47949075239E+03  0.58309937133E+03  0.00000000000E+00 0. -1.
<scales pt_clust_5="13000.00000" pt_clust_6="13000.00000" pt_clust_7="13000.00000" pt_clust_8="13000.00000" pt_clust_9="13000.00000"></scales>
<clustering>
<clus scale="   81.007">  5  6 -1 -1</clus>
<clus scale="   90.813">  7  8 -1 -1</clus>
<clus scale="  172.003">  1  7  2 -1</clus>
<clus scale="  317.303">  5  9 -1 -1</clus>
<clus scale="  997.394">  2  5  1 -1</clus>
</clustering>
</event>
<event>
 9    1  0.4516508E-005  0.3790655E+03  0.7546771E-02  0.1099394E+00
          1   -1    0    0  502    0 -0.00000000000E+00  0.00000000000E+00  0.52914363959E+02  0.52914363959E+02  0.00000000000E+00 0. -1.
         21   -1    0    0  501  502  0.00000000000E+00 -0.00000000000E+00 -0.13915824666E+04  0.13915824666E+04  0.00000000000E+00 0. -1.
         23    2    1    2    0    0 -0.29247956376E+02  0.37059033384E+02 -0.80014915937E+02  0.13000130534E+03  0.90934799224E+02 0.  0.
        -24    2    1    2    0    0 -0.97367771521E+02  0.11505131401E+03 -0.73762335832E+03  0.75714358757E+03  0.80379759097E+02 0.  0.
         13    1    4    4    0    0 -0.66608070170E+02  0.11681706069E+03 -0.66134404887E+03  0.67487688630E+03  0.00000000000E+00 0. -1.
        -14    1    4    4    0    0 -0.30759701351E+02 -0.17657466745E+01 -0.76279309445E+02  0.82266701270E+02  0.00000000000E+00 0.  1.
        -13    1    3    3    0    0 -0.18695150977E+02 -0.12749449153E+02 -0.75579518760E+02  0.78894364690E+02  0.00000000000E+00 0.  1.
         13    1    3    3    0    0 -0.10552805399E+02  0.49808482537E+02 -0.44353971770E+01  0.51106940649E+02  0.00000000000E+00 0. -1.
          2    1    1    2  501    0  0.12661572790E+03 -0.15211034740E+03 -0.52102982840E+03  0.55735193766E+03  0.00000000000E+00 0. -1.
<scales pt_clust_5="13000.00000" pt_clust_6="13000.00000" pt_clust_7="13000.00000" pt_clust_8="13000.00000" pt_clust_9="13000.00000"></scales>
<clustering>
<clus scale="   80.380">  5  6 -1 -1</clus>
<clus scale="   90.935">  7  8 -1 -1</clus>
<clus scale="  102.460">  1  7  2 -1</clus>
<clus scale="  167.217">  5  9 -1 -1</clus>
<clus scale="  379.065">  2  5  1 -1</clus>
</clustering>
</event>
<event>
 9    1  0.6628493E-005  0.4749943E+03  0.7546771E-02  0.1056409E+00
          1   -1    0    0  502    0 -0.00000000000E+00  0.00000000000E+00  0.12345023109E+04  0.12345023109E+04  0.00000000000E+00 0. -1.
         21   -1    0    0  501  502  0.00000000000E+00 -0.00000000000E+00 -0.87933844403E+02  0.87933844403E+02  0.00000000000E+00 0. -1.
         23    2    1    2    0    0 -0.13676298958E+03  0.18126253314E+02  0.44525388199E+03  0.47540505461E+03  0.93414507167E+02 0.  0.
        -24    2    1    2    0    0 -0.15381386991E+03 -0.30534983089E+01  0.35226063564E+03  0.39260755549E+03  0.79906863113E+02 0.  0.
         13    1    4    4    0    0 -0.12044425368E+03 -0.31670946145E+02  0.21483691104E+03  0.24832391230E+03  0.00000000000E+00 0. -1.
        -14    1    4    4    0    0 -0.33369616233E+02  0.28617447836E+02  0.13742372460E+03  0.14428364319E+03  0.00000000000E+00 0.  1.
        -13    1    3    3    0    0 -0.17290250489E+02  0.20096098914E+02  0.18728447755E+02  0.32458599921E+02  0.00000000000E+00 0.  1.
         13    1    3    3    0    0 -0.11947273909E+03 -0.19698456000E+01  0.42652543423E+03  0.44294645469E+03  0.00000000000E+00 0. -1.
          2    1    1    2  501    0  0.29057685949E+03 -0.15072755005E+02  0.34905394885E+03  0.45442354518E+03  0.00000000000E+00 0. -1.
<scales pt_clust_5="13000.00000" pt_clust_6="13000.00000" pt_clust_7="13000.00000" pt_clust_8="13000.00000" pt_clust_9="13000.00000"></scales>
<clustering>
<clus scale="   79.907">  5  6 -1 -1</clus>
<clus scale="   93.415">  7  8 -1 -1</clus>
<clus scale="  166.610">  1  7  2 -1</clus>
<clus scale="  219.680">  5  9 -1 -1</clus>
<clus scale="  474.994">  2  5  1 -1</clus>
</clustering>
</event>
<event>
 9    1  0.4516508E-005  0.2102126E+03  0.7546771E-02  0.1168968E+00
         21   -1    0    0  501  502  0.00000000000E+00  0.00000000000E+00  0.64204667073E+02  0.64204667073E+02  0.00000000000E+00 0. -1.
          1   -1    0    0  502    0 -0.00000000000E+00 -0.00000000000E+00 -0.40337828346E+03  0.40337828346E+03  0.00000000000E+00 0. -1.
         23    2    1    2    0    0  0.19646993002E+02  0.57651718232E+02 -0.13932504551E+03  0.17753332527E+03  0.91634536753E+02 0.  0.
        -24    2    1    2    0    0 -0.72520757010E+02  0.21047810224E+02 -0.13846091824E+03  0.17709966025E+03  0.80564218291E+02 0.  0.
         13    1    4    4    0    0 -0.79061116799E+02 -0.83878159404E+01 -0.90662189163E+02  0.12058461009E+03  0.00000000000E+00 0. -1.
        -14    1    4    4    0    0  0.65403597889E+01  0.29435626165E+02 -0.47798729073E+02  0.56515050162E+02  0.00000000000E+00 0.  1.
        -13    1    3    3    0    0 -0.19748246183E+02 -0.14259159583E+02 -0.15006478653E+02  0.28609635804E+02  0.00000000000E+00 0.  1.
         13    1    3    3    0    0  0.39395239184E+02  0.71910877815E+02 -0.12431856686E+03  0.14892368947E+03  0.00000000000E+00 0. -1.
          2    1    1    2  501    0  0.52873764009E+02 -0.78699528457E+02 -0.61387652636E+02  0.11294996501E+03  0.00000000000E+00 0. -1.
<scales pt_clust_5="13000.00000" pt_clust_6="13000.00000" pt_clust_7="13000.00000" pt_clust_8="13000.00000" pt_clust_9="13000.00000"></scales>
<clustering>
<clus scale="   80.564">  5  6 -1 -1</clus>
<clus scale="   91.635">  7  8 -1 -1</clus>
<clus scale="   94.812">  5  9 -1 -1</clus>
<clus scale="  110.030">  2  7  1 -1</clus>
<clus scale="  210.213">  1  5  2 -1</clus>
</clustering>
</event>
<event>
 9    1  0.4516508E-005  0.2116859E+03  0.7546771E-02  0.1173813E+00
          1   -1    0    0  502    0 -0.00000000000E+00  0.00000000000E+00  0.15837801371E+03  0.15837801371E+03  0.00000000000E+00 0. -1.
         21   -1    0    0  501  502  0.00000000000E+00 -0.00000000000E+00 -0.15955459199E+03  0.15955459199E+03  0.00000000000E+00 0. -1.
         23    2    1    2    0    0 -0.64923499780E+01 -0.22519165560E+02  0.36073099812E+02  0.10299438034E+03  0.93580502382E+02 0.  0.
        -24    2    1    2    0    0 -0.32319994488E+02  0.35711142182E+02  0.61093940546E+02  0.10839295959E+03  0.75476462538E+02 0.  0.
         13    1    4    4    0    0 -0.85706284288E+00  0.53342959536E+02  0.39174866418E+02  0.66188186617E+02  0.00000000000E+00 0. -1.
        -14    1    4    4    0    0 -0.31462931645E+02 -0.17631817354E+02  0.21919074127E+02  0.42204772971E+02  0.00000000000E+00 0.  1.
        -13    1    3    3    0    0 -0.18265089163E+02  0.24470909291E+02 -0.13762863773E+02  0.33494108480E+02  0.00000000000E+00 0. -1.
         13    1    3    3    0    0  0.11772739185E+02 -0.46990074851E+02  0.49835963585E+02  0.69500271861E+02  0.00000000000E+00 0.  1.
          2    1    1    2  501    0  0.38812344466E+02 -0.13191976622E+02 -0.98343618639E+02  0.10654526577E+03  0.00000000000E+00 0. -1.
<scales pt_clust_5="13000.00000" pt_clust_6="13000.00000" pt_clust_7="13000.00000" pt_clust_8="13000.00000" pt_clust_9="13000.00000"></scales>
<clustering>
<clus scale="   75.476">  5  6 -1 -1</clus>
<clus scale="   40.993">  5  9 -1 -1</clus>
<clus scale="   93.581">  7  8 -1 -1</clus>
<clus scale="   96.471">  1  7  2 -1</clus>
<clus scale="  211.686">  2  5  1 -1</clus>
</clustering>
</event>
<event>
 9    1  0.4516508E-005  0.6043438E+03  0.7546771E-02  0.1049136E+00
         -4   -1    0    0    0  501 -0.00000000000E+00  0.00000000000E+00  0.34840505314E+03  0.34840505314E+03  0.00000000000E+00 0.  1.
         21   -1    0    0  501  502  0.00000000000E+00 -0.00000000000E+00 -0.36460112925E+03  0.36460112925E+03  0.00000000000E+00 0. -1.
         23    2    1    2    0    0 -0.35046881207E+02  0.21288426086E+02  0.37517844686E+02  0.10628008811E+03  0.90589113532E+02 0.  0.
        -24    2    1    2    0    0  0.93679302354E+02 -0.13925362222E+03 -0.28521604776E+03  0.34036772085E+03  0.79590253854E+02 0.  0.
         13    1    4    4    0    0  0.10649028689E+03 -0.11287922075E+03 -0.25304518439E+03  0.29683962846E+03  0.00000000000E+00 0. -1.
        -14    1    4    4    0    0 -0.12810984538E+02 -0.26374401468E+02 -0.32170863365E+02  0.43528092392E+02  0.00000000000E+00 0.  1.
        -13    1    3    3    0    0  0.51236732007E+01 -0.30142617911E+02 -0.83216636804E+00  0.30586303184E+02  0.00000000000E+00 0. -1.
         13    1    3    3    0    0 -0.40170554407E+02  0.51431043997E+02  0.38350011054E+02  0.75693784922E+02  0.00000000000E+00 0.  1.
         -3    1    1    2    0  502 -0.58632421148E+02  0.11796519613E+03  0.23150212697E+03  0.26635837343E+03  0.00000000000E+00 0.  1.
<scales pt_clust_5="13000.00000" pt_clust_6="13000.00000" pt_clust_7="13000.00000" pt_clust_8="13000.00000" pt_clust_9="13000.00000"></scales>
<clustering>
<clus scale="   79.590">  5  6 -1 -1</clus>
<clus scale="   90.589">  7  8 -1 -1</clus>
<clus scale="   99.438">  1  7  2 -1</clus>
<clus scale="  164.128">  5  9 -1 -1</clus>
<clus scale="  604.344">  2  5  1 -1</clus>
</clustering>
</event>
<event>
 9    1  0.4516508E-005  0.3163368E+03  0.7546771E-02  0.1103383E+00
          3   -1    0    0  502    0 -0.00000000000E+00  0.00000000000E+00  0.13288951816E+03  0.13288951816E+03  0.00000000000E+00 0. -1.
         21   -1    0    0  501  502  0.00000000000E+00 -0.00000000000E+00 -0.51212639376E+03  0.51212639376E+03  0.00000000000E+00 0. -1.
         23    2    1    2    0    0 -0.10825536702E+03  0.51784706930E+02 -0.10745751788E+02  0.15936720743E+03  0.10431469341E+03 0.  0.
        -24    2    1    2    0    0 -0.51993064846E+02  0.56450855891E+01 -0.23058014367E+02  0.10054901079E+03  0.82724154640E+02 0.  0.
         11    1    4    4    0    0 -0.67017883361E+02 -0.14407727943E+02 -0.32813517981E+01  0.68627593461E+02  0.00000000000E+00 0. -1.
        -12    1    4    4    0    0  0.15024818514E+02  0.20052813532E+02 -0.19776662569E+02  0.31921417329E+02  0.00000000000E+00 0.  1.
        -11    1    3    3    0    0 -0.38401784321E+02 -0.27922416767E+02 -0.22852309291E+02  0.52693324407E+02  0.00000000000E+00 0.  1.
         11    1    3    3    0    0 -0.69853582701E+02  0.79707123698E+02  0.12106557503E+02  0.10667388302E+03  0.00000000000E+00 0. -1.
          4    1    1    2  501    0  0.16024843187E+03 -0.57429792520E+02 -0.34543310945E+03  0.38509969370E+03  0.00000000000E+00 0. -1.
<scales pt_clust_5="13000.00000" pt_clust_6="13000.00000" pt_clust_7="13000.00000" pt_clust_8="13000.00000" pt_clust_9="13000.00000"></scales>
<clustering>
<clus scale="   82.724">  5  6 -1 -1</clus>
<clus scale="  104.315">  7  8 -1 -1</clus>
<clus scale="  159.005">  1  7  2 -1</clus>
<clus scale="  129.876">  5  9 -1 -1</clus>
<clus scale="  316.337">  2  5  1 -1</clus>
</clustering>
</event>
<event>
 9    1  0.4516508E-005  0.3373339E+03  0.7546771E-02  0.1099369E+00
         21   -1    0    0  501  502  0.00000000000E+00  0.00000000000E+00  0.61642827433E+03  0.61642827433E+03  0.00000000000E+00 0. -1.
          3   -1    0    0  502    0 -0.00000000000E+00 -0.00000000000E+00 -0.96899142930E+02  0.96899142930E+02  0.00000000000E+00 0. -1.
         23    2    1    2    0    0  0.93313439411E+02 -0.76037304262E+02  0.10786253407E+03  0.18110232524E+03  0.81698569975E+02 0.  0.
        -24    2    1    2    0    0  0.94147251822E+02 -0.20776756117E+02  0.10042518775E+03  0.15621220915E+03  0.70863653126E+02 0.  0.
         11    1    4    4    0    0  0.63821134845E+02 -0.38768218250E+02  0.94522762861E+02  0.12046022040E+03  0.00000000000E+00 0. -1.
        -12    1    4    4    0    0  0.30326116976E+02  0.17991462133E+02  0.59024248863E+01  0.35751988757E+02  0.00000000000E+00 0.  1.
        -11    1    3    3    0    0  0.39145786290E+02 -0.81780195959E+02  0.61325805038E+02  0.10945888451E+03  0.00000000000E+00 0.  1.
         11    1    3    3    0    0  0.54167653121E+02  0.57428916966E+01  0.46536729033E+02  0.71643440724E+02  0.00000000000E+00 0. -1.
          4    1    1    2  501    0 -0.18746069123E+03  0.96814060379E+02  0.31124140958E+03  0.37601288287E+03  0.00000000000E+00 0. -1.
<scales pt_clust_5="13000.00000" pt_clust_6="13000.00000" pt_clust_7="13000.00000" pt_clust_8="13000.00000" pt_clust_9="13000.00000"></scales>
<clustering>
<clus scale="   70.864">  5  6 -1 -1</clus>
<clus scale="   81.699">  7  8 -1 -1</clus>
<clus scale="  145.478">  2  7  1 -1</clus>
<clus scale="  148.292">  5  9 -1 -1</clus>
<clus scale="  337.334">  1  5  2 -1</clus>
</clustering>
</event>
<event>
 9    1  0.7005453E-005  0.9051879E+03  0.7546771E-02  0.9636071E-01
         21   -1    0    0  501  502  0.00000000000E+00  0.00000000000E+00  0.42496643058E+03  0.42496643058E+03  0.00000000000E+00 0. -1.
          1   -1    0    0  502    0 -0.00000000000E+00 -0.00000000000E+00 -0.13162172857E+04  0.13162172857E+04  0.00000000000E+00 0. -1.
         23    2    1    2    0    0  0.36742632657E+03  0.19407200899E+03 -0.69503779677E+03  0.81497383519E+03  0.91862739868E+02 0.  0.
        -24    2    1    2    0    0  0.77351971010E+02  0.32449107721E+02 -0.37771250769E+03  0.39509633353E+03  0.79988138450E+02 0.  0.
         11    1    4    4    0    0  0.44086406697E+02 -0.23086369467E+02 -0.19516837644E+03  0.20141322418E+03  0.00000000000E+00 0. -1.
        -12    1    4    4    0    0  0.33265564312E+02  0.55535477188E+02 -0.18254413125E+03  0.19368310936E+03  0.00000000000E+00 0.  1.
        -13    1    3    3    0    0  0.54627444102E+02 -0.48895663275E+01 -0.88352863791E+02  0.10399179798E+03  0.00000000000E+00 0.  1.
         13    1    3    3    0    0  0.31279888247E+03  0.19896157531E+03 -0.60668493298E+03  0.71098203721E+03  0.00000000000E+00 0. -1.
          2    1    1    2  501    0 -0.44477829758E+03 -0.22652111671E+03  0.18149944932E+03  0.53111354757E+03  0.00000000000E+00 0. -1.
<scales pt_clust_5="13000.00000" pt_clust_6="13000.00000" pt_clust_7="13000.00000" pt_clust_8="13000.00000" pt_clust_9="13000.00000"></scales>
<clustering>
<clus scale="   79.988">  5  6 -1 -1</clus>
<clus scale="   91.863">  7  8 -1 -1</clus>
<clus scale="  425.564">  2  7  1 -1</clus>
<clus scale="  369.728">  5  9 -1 -1</clus>
<clus scale="  905.188">  1  5  2 -1</clus>
</clustering>
</event>
<event>
 9    1  0.4516508E-005  0.2846845E+03  0.7546771E-02  0.1097636E+00
         21   -1    0    0  501  502  0.00000000000E+00  0.00000000000E+00  0.11937367492E+03  0.11937367492E+03  0.00000000000E+00 0. -1.
          1   -1    0    0  502    0 -0.00000000000E+00 -0.00000000000E+00 -0.90142964050E+03  0.90142964050E+03  0.00000000000E+00 0. -1.
         23    2    1    2    0    0 -0.17700903768E+03 -0.15706889833E+03 -0.83744658536E+02  0.26669195019E+03  0.90047710810E+02 0.  0.
        -24    2    1    2    0    0  0.13464534916E+03  0.54122196346E+02 -0.33088042495E+03  0.37018668686E+03  0.80608593352E+02 0.  0.
         13    1    4    4    0    0  0.86073076678E+02  0.44748381767E+02 -0.12380970250E+03  0.15728901625E+03  0.00000000000E+00 0. -1.
        -14    1    4    4    0    0  0.48572272483E+02  0.93738145795E+01 -0.20707072245E+03  0.21289767061E+03  0.00000000000E+00 0.  1.
        -11    1    3    3    0    0 -0.68456854490E+01 -0.28459929144E+02 -0.38981108576E+02  0.48747900488E+02  0.00000000000E+00 0.  1.
         11    1    3    3    0    0 -0.17016335223E+03 -0.12860896919E+03 -0.44763549959E+02  0.21794404970E+03  0.00000000000E+00 0. -1.
          2    1    1    2  501    0  0.42363688515E+02  0.10294670198E+03 -0.36743088209E+03  0.38392467838E+03  0.00000000000E+00 0. -1.
<scales pt_clust_5="13000.00000" pt_clust_6="13000.00000" pt_clust_7="13000.00000" pt_clust_8="13000.00000" pt_clust_9="13000.00000"></scales>
<clustering>
<clus scale="   80.609">  5  6 -1 -1</clus>
<clus scale="   90.048">  7  8 -1 -1</clus>
<clus scale="  111.323">  5  9 -1 -1</clus>
<clus scale="  253.202">  2  7  1 -1</clus>
<clus scale="  284.685">  1  5  2 -1</clus>
</clustering>
</event>
<event>
 9    1  0.4516508E-005  0.1345870E+03  0.7546771E-02  0.1236038E+00
         21   -1    0    0  501  502  0.00000000000E+00  0.00000000000E+00  0.38495762789E+03  0.38495762789E+03  0.00000000000E+00 0.  1.
         -4   -1    0    0    0  501 -0.00000000000E+00 -0.00000000000E+00 -0.38969020494E+02  0.38969020494E+02  0.00000000000E+00 0.  1.
         23    2    1    2    0    0  0.36683227546E+02  0.22040714692E+01  0.83253580648E+02  0.12872609327E+03  0.91042469675E+02 0.  0.
        -24    2    1    2    0    0  0.16013040960E+02 -0.68018577761E+01  0.15037586784E+03  0.17101272582E+03  0.79559839200E+02 0.  0.
         13    1    4    4    0    0  0.14973289606E+02 -0.38137870454E+02  0.12210542899E+03  0.12879608826E+03  0.00000000000E+00 0. -1.
        -14    1    4    4    0    0  0.10397513539E+01  0.31336012678E+02  0.28270438852E+02  0.42216637553E+02  0.00000000000E+00 0.  1.
        -13    1    3    3    0    0 -0.16645107675E+02  0.12419601593E+02  0.69747265732E+02  0.72773533585E+02  0.00000000000E+00 0.  1.
         13    1    3    3    0    0  0.53328335221E+02 -0.10215530124E+02  0.13506314916E+02  0.55952559689E+02  0.00000000000E+00 0. -1.
         -3    1    1    2    0  502 -0.52696268507E+02  0.45977863069E+01  0.11235915891E+03  0.12418782929E+03  0.00000000000E+00 0.  1.
<scales pt_clust_5="13000.00000" pt_clust_6="13000.00000" pt_clust_7="13000.00000" pt_clust_8="13000.00000" pt_clust_9="13000.00000"></scales>
<clustering>
<clus scale="   79.560">  5  6 -1 -1</clus>
<clus scale="   52.896">  5  9 -1 -1</clus>
<clus scale="   91.042">  7  8 -1 -1</clus>
<clus scale="   98.180">  2  7  1 -1</clus>
<clus scale="  134.587">  1  5  2 -1</clus>
</clustering>
</event>
<event>
 9    1  0.4516508E-005  0.1685708E+03  0.7546771E-02  0.1205705E+00
         -2   -1    0    0    0  501 -0.00000000000E+00  0.00000000000E+00  0.31245807512E+03  0.31245807512E+03  0.00000000000E+00 0.  1.
         21   -1    0    0  501  502  0.00000000000E+00 -0.00000000000E+00 -0.55342626248E+02  0.55342626248E+02  0.00000000000E+00 0.  1.
         23    2    1    2    0    0  0.17307113358E+02  0.20362769502E+02  0.95351925720E+02  0.13416943676E+03  0.90527727621E+02 0.  0.
        -24    2    1    2    0    0 -0.16596154593E+02  0.21391669585E+02  0.17151183335E+03  0.19074807213E+03  0.78965069278E+02 0.  0.
         13    1    4    4    0    0  0.59263968188E+01 -0.23231701064E+02  0.20059784966E+02  0.31260663564E+02  0.00000000000E+00 0. -1.
        -14    1    4    4    0    0 -0.22522551412E+02  0.44623370650E+02  0.15145204839E+03  0.15948740856E+03  0.00000000000E+00 0.  1.
        -11    1    3    3    0    0  0.51180488505E+01  0.51793426944E+02  0.28595729981E+02  0.59384082646E+02  0.00000000000E+00 0.  1.
         11    1    3    3    0    0  0.12189064508E+02 -0.31430657442E+02  0.66756195739E+02  0.74785354117E+02  0.00000000000E+00 0. -1.
         -1    1    1    2    0  502 -0.71095876509E+00 -0.41754439087E+02 -0.97483101939E+01  0.42883192482E+02  0.00000000000E+00 0.  1.
<scales pt_clust_5="13000.00000" pt_clust_6="13000.00000" pt_clust_7="13000.00000" pt_clust_8="13000.00000" pt_clust_9="13000.00000"></scales>
<clustering>
<clus scale="   78.965">  5  6 -1 -1</clus>
<clus scale="   41.761">  5  9 -1 -1</clus>
<clus scale="   90.528">  7  8 -1 -1</clus>
<clus scale="   94.390">  1  7  2 -1</clus>
<clus scale="  168.571">  2  5  1 -1</clus>
</clustering>
</event>
<event>
 9    1  0.4516508E-005  0.1764382E+03  0.7546771E-02  0.1182112E+00
          1   -1    0    0  502    0 -0.00000000000E+00  0.00000000000E+00  0.33864140012E+03  0.33864140012E+03  0.00000000000E+00 0. -1.
         21   -1    0    0  501  502  0.00000000000E+00 -0.00000000000E+00 -0.84407920266E+02  0.84407920266E+02  0.00000000000E+00 0. -1.
         23    2    1    2    0    0 -0.95129029673E+02  0.43195094478E+02  0.19076677307E+03  0.23554338886E+03  0.90406735681E+02 0.  0.
        -24    2    1    2    0    0  0.28821055688E+02  0.51989412149E+01  0.20936109944E+01  0.85010141408E+02  0.79778811061E+02 0.  0.
         13    1    4    4    0    0  0.18953832142E+02  0.27321140908E+02 -0.30011107351E+02  0.44792399554E+02  0.00000000000E+00 0. -1.
        -14    1    4    4    0    0  0.98672235468E+01 -0.22122199693E+02  0.32104718345E+02  0.40217741854E+02  0.00000000000E+00 0.  1.
        -13    1    3    3    0    0 -0.42562161788E+02  0.47365315824E+02  0.38520043676E+02  0.74423145083E+02  0.00000000000E+00 0.  1.
         13    1    3    3    0    0 -0.52566867885E+02 -0.41702213456E+01  0.15224672939E+03  0.16112024378E+03  0.00000000000E+00 0. -1.
          2    1    1    2  501    0  0.66307973985E+02 -0.48394035693E+02  0.61373095796E+02  0.10249579012E+03  0.00000000000E+00 0. -1.
<scales pt_clust_5="13000.00000" pt_clust_6="13000.00000" pt_clust_7="13000.00000" pt_clust_8="13000.00000" pt_clust_9="13000.00000"></scales>
<clustering>
<clus scale="   79.779">  5  6 -1 -1</clus>
<clus scale="   82.090">  5  9 -1 -1</clus>
<clus scale="   90.407">  7  8 -1 -1</clus>
<clus scale="  138.162">  1  7  2 -1</clus>
<clus scale="  176.438">  2  5  1 -1</clus>
</clustering>
</event>
<event>
 9    1  0.4516508E-005  0.1728402E+03  0.7546771E-02  0.1185421E+00
         21   -1    0    0  501  502  0.00000000000E+00  0.00000000000E+00  0.99312562838E+02  0.99312562838E+02  0.00000000000E+00 0.  1.
          1   -1    0    0  502    0 -0.00000000000E+00 -0.00000000000E+00 -0.38632050427E+03  0.38632050427E+03  0.00000000000E+00 0. -1.
         23    2    1    2    0    0 -0.10219364272E+03 -0.48478837430E+01  0.15349158501E+02  0.13736081643E+03  0.90362351860E+02 0.  0.
        -24    2    1    2    0    0  0.43295293965E+02  0.33876753309E+02 -0.12597649284E+03  0.16006542478E+03  0.82028937386E+02 0.  0.
         13    1    4    4    0    0  0.46559649042E+02  0.58015400643E+02 -0.94898347114E+02  0.12057895304E+03  0.00000000000E+00 0. -1.
        -14    1    4    4    0    0 -0.32643550767E+01 -0.24138647334E+02 -0.31078145723E+02  0.39486471744E+02  0.00000000000E+00 0.  1.
        -11    1    3    3    0    0 -0.66761293547E+02 -0.15431159684E+02  0.51445802136E+02  0.85684663521E+02  0.00000000000E+00 0.  1.
         11    1    3    3    0    0 -0.35432349176E+02  0.10583275941E+02 -0.36096643635E+02  0.51676152909E+02  0.00000000000E+00 0. -1.
          2    1    1    2  501    0  0.58898348758E+02 -0.29028869566E+02 -0.17638060709E+03  0.18820682590E+03  0.00000000000E+00 0. -1.
<scales pt_clust_5="13000.00000" pt_clust_6="13000.00000" pt_clust_7="13000.00000" pt_clust_8="13000.00000" pt_clust_9="13000.00000"></scales>
<clustering>
<clus scale="   82.029">  5  6 -1 -1</clus>
<clus scale="   65.663">  5  9 -1 -1</clus>
<clus scale="   90.362">  7  8 -1 -1</clus>
<clus scale="  136.501">  2  7  1 -1</clus>
<clus scale="  172.840">  1  5  2 -1</clus>
</clustering>
</event>
<event>
 9    1  0.4516508E-005  0.5588580E+03  0.7546771E-02  0.1010848E+00
          1   -1    0    0  502    0 -0.00000000000E+00  0.00000000000E+00  0.20891985098E+03  0.20891985098E+03  0.00000000000E+00 0. -1.
         21   -1    0    0  501  502  0.00000000000E+00 -0.00000000000E+00 -0.12712449097E+04  0.12712449097E+04  0.00000000000E+00 0. -1.
         23    2    1    2    0    0  0.37897259581E+03  0.22450722074E+02 -0.16964855699E+03  0.42698215035E+03  0.96999281116E+02 0.  0.
        -24    2    1    2    0    0  0.36591798240E+02 -0.96944904050E+02 -0.16046489453E+03  0.20797435998E+03  0.82262250834E+02 0.  0.
         13    1    4    4    0    0 -0.62690347218E+01 -0.73185235415E+02 -0.55270247320E+02  0.91924859085E+02  0.00000000000E+00 0. -1.
        -14    1    4    4    0    0  0.42860832962E+02 -0.23759668636E+02 -0.10519464721E+03  0.11604950090E+03  0.00000000000E+00 0.  1.
        -11    1    3    3    0    0  0.54134228156E+02 -0.30485908492E+02 -0.18601465143E+02  0.64853062997E+02  0.00000000000E+00 0.  1.
         11    1    3    3    0    0  0.32483836765E+03  0.52936630567E+02 -0.15104709185E+03  0.36212908736E+03  0.00000000000E+00 0. -1.
          2    1    1    2  501    0 -0.41556439405E+03  0.74494181976E+02 -0.73221160722E+03  0.84520825037E+03  0.00000000000E+00 0. -1.
<scales pt_clust_5="13000.00000" pt_clust_6="13000.00000" pt_clust_7="13000.00000" pt_clust_8="13000.00000" pt_clust_9="13000.00000"></scales>
<clustering>
<clus scale="   82.262">  5  6 -1 -1</clus>
<clus scale="   96.999">  7  8 -1 -1</clus>
<clus scale="  391.833">  1  7  2 -1</clus>
<clus scale="  174.028">  5  9 -1 -1</clus>
<clus scale="  558.858">  2  5  1 -1</clus>
</clustering>
</event>
<event>
 9    1  0.4834864E-005  0.4176758E+03  0.7546771E-02  0.1067746E+00
          1   -1    0    0  502    0 -0.00000000000E+00  0.00000000000E+00  0.10884312912E+04  0.10884312912E+04  0.00000000000E+00 0. -1.
         21   -1    0    0  501  502  0.00000000000E+00 -0.00000000000E+00 -0.92938880699E+02  0.92938880699E+02  0.00000000000E+00 0. -1.
         23    2    1    2    0    0  0.15394821608E+03 -0.19497596578E+01  0.13187530634E+03  0.22205396627E+03  0.90625673610E+02 0.  0.
        -24    2    1    2    0    0 -0.31398998016E+02  0.27713459990E+02  0.48097283050E+01  0.91426703484E+02  0.81128143591E+02 0.  0.
         13    1    4    4    0    0 -0.51288052668E+02  0.28188349070E+02 -0.17933465742E+02  0.61209938435E+02  0.00000000000E+00 0. -1.
        -14    1    4    4    0    0  0.19889054651E+02 -0.47488907995E+00  0.22743194047E+02  0.30216765049E+02  0.00000000000E+00 0.  1.
        -11    1    3    3    0    0  0.26954234803E+01  0.22923050102E+02  0.63702174765E+01  0.23943917900E+02  0.00000000000E+00 0.  1.
         11    1    3    3    0    0  0.15125279260E+03 -0.24872809760E+02  0.12550508886E+03  0.19811004837E+03  0.00000000000E+00 0. -1.
          2    1    1    2  501    0 -0.12254921807E+03 -0.25763700332E+02  0.85880737581E+03  0.86788950210E+03  0.00000000000E+00 0. -1.
<scales pt_clust_5="13000.00000" pt_clust_6="13000.00000" pt_clust_7="13000.00000" pt_clust_8="13000.00000" pt_clust_9="13000.00000"></scales>
<clustering>
<clus scale="   81.128">  5  6 -1 -1</clus>
<clus scale="   90.626">  7  8 -1 -1</clus>
<clus scale="  125.228">  5  9 -1 -1</clus>
<clus scale="  178.653">  1  7  2 -1</clus>
<clus scale="  417.676">  2  5  1 -1</clus>
</clustering>
</event>
<event>
 9    1  0.4516508E-005  0.2462002E+03  0.7546771E-02  0.1147482E+00
         21   -1    0    0  501  502  0.00000000000E+00  0.00000000000E+00  0.76870583962E+02  0.76870583962E+02  0.00000000000E+00 0. -1.
          1   -1    0    0  502    0 -0.00000000000E+00 -0.00000000000E+00 -0.62379149674E+03  0.62379149674E+03  0.00000000000E+00 0. -1.
         23    2    1    2    0    0  0.65768040453E+02  0.13209861880E+02 -0.39610501485E+03  0.41194082955E+03  0.91083086587E+02 0.  0.
        -24    2    1    2    0    0  0.45391859596E+02  0.29594351406E+02 -0.13779991343E+03  0.16889579515E+03  0.81244857841E+02 0.  0.
         13    1    4    4    0    0  0.65034104904E+02  0.38347534632E+02 -0.11487454085E+03  0.13746318907E+03  0.00000000000E+00 0. -1.
        -14    1    4    4    0    0 -0.19642245307E+02 -0.87531832268E+01 -0.22925372583E+02  0.31432606086E+02  0.00000000000E+00 0.  1.
        -11    1    3    3    0    0  0.10202358745E+02 -0.27604533839E+02 -0.42610286642E+02  0.51785470357E+02  0.00000000000E+00 0. -1.
         11    1    3    3    0    0  0.55565681708E+02  0.40814395719E+02 -0.35349472821E+03  0.36015535919E+03  0.00000000000E+00 0.  1.
          2    1    1    2  501    0 -0.11115990005E+03 -0.42804213286E+02 -0.13015984497E+02  0.11982545600E+03  0.00000000000E+00 0. -1.
<scales pt_clust_5="13000.00000" pt_clust_6="13000.00000" pt_clust_7="13000.00000" pt_clust_8="13000.00000" pt_clust_9="13000.00000"></scales>
<clustering>
<clus scale="   81.245">  5  6 -1 -1</clus>
<clus scale="   91.083">  7  8 -1 -1</clus>
<clus scale="  113.120">  2  7  1 -1</clus>
<clus scale="   99.191">  5  9 -1 -1</clus>
<clus scale="  246.200">  1  5  2 -1</clus>
</clustering>
</event>
<event>
 9    1  0.4516508E-005  0.1536821E+03  0.7546771E-02  0.1202931E+00
         21   -1    0    0  501  502  0.00000000000E+00  0.00000000000E+00  0.11205063131E+03  0.11205063131E+03  0.00000000000E+00 0. -1.
          1   -1    0    0  502    0 -0.00000000000E+00 -0.00000000000E+00 -0.50524093538E+03  0.50524093538E+03  0.00000000000E+00 0. -1.
         23    2    1    2    0    0  0.65122427615E+02  0.70598111521E+02 -0.43774219637E+03  0.45728204411E+03  0.90904419335E+02 0.  0.
        -24    2    1    2    0    0 -0.39227391307E+02 -0.61240709807E+02  0.65989230490E+02  0.12511434611E+03  0.77522953351E+02 0.  0.
         13    1    4    4    0    0 -0.15524829110E+02 -0.68766528159E+02  0.70657306335E+02  0.99811375366E+02  0.00000000000E+00 0. -1.
        -14    1    4    4    0    0 -0.23702562196E+02  0.75258183523E+01 -0.46680758450E+01  0.25302970747E+02  0.00000000000E+00 0.  1.
        -13    1    3    3    0    0  0.86307113631E+02  0.40577944001E+02 -0.30665219959E+03  0.32114024805E+03  0.00000000000E+00 0.  1.
         13    1    3    3    0    0 -0.21184686016E+02  0.30020167520E+02 -0.13108999678E+03  0.13614179606E+03  0.00000000000E+00 0. -1.
          2    1    1    2  501    0 -0.25895036308E+02 -0.93574017144E+01 -0.21437338191E+02  0.34895176471E+02  0.00000000000E+00 0. -1.
<scales pt_clust_5="13000.00000" pt_clust_6="13000.00000" pt_clust_7="13000.00000" pt_clust_8="13000.00000" pt_clust_9="13000.00000"></scales>
<clustering>
<clus scale="   77.523">  5  6 -1 -1</clus>
<clus scale="   27.534">  5  9 -1 -1</clus>
<clus scale="   90.904">  7  8 -1 -1</clus>
<clus scale="  132.245">  2  7  1 -1</clus>
<clus scale="  153.682">  1  5  2 -1</clus>
</clustering>
</event>
<event>
 9    1  0.4516508E-005  0.4687078E+03  0.7546771E-02  0.1075448E+00
         21   -1    0    0  501  502  0.00000000000E+00  0.00000000000E+00  0.38828673301E+03  0.38828673301E+03  0.00000000000E+00 0. -1.
          1   -1    0    0  502    0 -0.00000000000E+00 -0.00000000000E+00 -0.23353302274E+03  0.23353302274E+03  0.00000000000E+00 0. -1.
         23    2    1    2    0    0  0.29963587056E+02 -0.35635767261E+02 -0.45596505027E+02  0.11208726342E+03  0.91196430262E+02 0.  0.
        -24    2    1    2    0    0 -0.16882376074E+03 -0.95468428839E+02  0.23631900900E+03  0.31540232948E+03  0.77564633270E+02 0.  0.
         11    1    4    4    0    0 -0.97687501145E+02 -0.40879248040E+02  0.18199717259E+03  0.21056336726E+03  0.00000000000E+00 0. -1.
        -12    1    4    4    0    0 -0.71136259596E+02 -0.54589180799E+02  0.54321836405E+02  0.10483896222E+03  0.00000000000E+00 0.  1.
        -11    1    3    3    0    0 -0.26908559259E+01 -0.60747677105E+02 -0.22334006806E+02  0.64779077172E+02  0.00000000000E+00 0. -1.
         11    1    3    3    0    0  0.32654442982E+02  0.25111909844E+02 -0.23262498221E+02  0.47308186247E+02  0.00000000000E+00 0.  1.
          2    1    1    2  501    0  0.13886017368E+03  0.13110419610E+03 -0.35968793704E+02  0.19433016284E+03  0.00000000000E+00 0. -1.
<scales pt_clust_5="13000.00000" pt_clust_6="13000.00000" pt_clust_7="13000.00000" pt_clust_8="13000.00000" pt_clust_9="13000.00000"></scales>
<clustering>
<clus scale="   77.565">  5  6 -1 -1</clus>
<clus scale="   91.196">  7  8 -1 -1</clus>
<clus scale="  102.394">  2  7  1 -1</clus>
<clus scale="  192.121">  5  9 -1 -1</clus>
<clus scale="  468.708">  1  5  2 -1</clus>
</clustering>
</event>
<event>
 9    1  0.4516508E-005  0.2328189E+03  0.7546771E-02  0.1163599E+00
         21   -1    0    0  501  502  0.00000000000E+00  0.00000000000E+00  0.47997273225E+02  0.47997273225E+02  0.00000000000E+00 0. -1.
          1   -1    0    0  502    0 -0.00000000000E+00 -0.00000000000E+00 -0.57255964970E+03  0.57255964970E+03  0.00000000000E+00 0. -1.
         23    2    1    2    0    0 -0.10250043470E+02 -0.27426783963E+01 -0.21071662068E+03  0.22978358033E+03  0.91029741738E+02 0.  0.
        -24    2    1    2    0    0  0.65511532123E+02  0.72694428316E+02 -0.10785739919E+03  0.16632227331E+03  0.80334546068E+02 0.  0.
         13    1    4    4    0    0  0.65107472901E+02  0.88974741924E+02 -0.95808852031E+02  0.14606445103E+03  0.00000000000E+00 0. -1.
        -14    1    4    4    0    0  0.40405922210E+00 -0.16280313608E+02 -0.12048547155E+02  0.20257822281E+02  0.00000000000E+00 0.  1.
        -11    1    3    3    0    0 -0.22623852724E+02 -0.42057671231E+02 -0.85180845416E+02  0.97654814767E+02  0.00000000000E+00 0.  1.
         11    1    3    3    0    0  0.12373809254E+02  0.39314992835E+02 -0.12553577526E+03  0.13212876556E+03  0.00000000000E+00 0. -1.
          2    1    1    2  501    0 -0.55261488653E+02 -0.69951749919E+02 -0.20598835661E+03  0.22445106929E+03  0.00000000000E+00 0. -1.
<scales pt_clust_5="13000.00000" pt_clust_6="13000.00000" pt_clust_7="13000.00000" pt_clust_8="13000.00000" pt_clust_9="13000.00000"></scales>
<clustering>
<clus scale="   80.335">  5  6 -1 -1</clus>
<clus scale="   89.146">  5  9 -1 -1</clus>
<clus scale="   91.030">  7  8 -1 -1</clus>
<clus scale="   91.646">  2  7  1 -1</clus>
<clus scale="  232.819">  1  5  2 -1</clus>
</clustering>
</event>
<event>
 9    1  0.4516508E-005  0.2639030E+03  0.7546771E-02  0.1144071E+00
         -4   -1    0    0    0  501 -0.00000000000E+00  0.00000000000E+00  0.71744511864E+03  0.71744511864E+03  0.00000000000E+00 0.  1.
         21   -1    0    0  501  502  0.00000000000E+00 -0.00000000000E+00 -0.46078727470E+02  0.46078727470E+02  0.00000000000E+00 0.  1.
         23    2    1    2    0    0 -0.39740934285E+02 -0.67645794969E+01  0.19203535939E+03  0.21634653488E+03  0.91121580876E+02 0.  0.
        -24    2    1    2    0    0  0.77359594945E+02 -0.52152285956E+02  0.95946232717E+02  0.15747195483E+03  0.82990174861E+02 0.  0.
         11    1    4    4    0    0  0.36670360656E+02  0.19985241015E+02  0.37232579392E+02  0.55949889877E+02  0.00000000000E+00 0. -1.
        -12    1    4    4    0    0  0.40689234288E+02 -0.72137526971E+02  0.58713653325E+02  0.10152206495E+03  0.00000000000E+00 0.  1.
        -11    1    3    3    0    0 -0.11348251957E+02 -0.31992266229E+02  0.16800874897E+03  0.17140369789E+03  0.00000000000E+00 0. -1.
         11    1    3    3    0    0 -0.28392682328E+02  0.25227686732E+02  0.24026610426E+02  0.44942836984E+02  0.00000000000E+00 0.  1.
         -3    1    1    2    0  502 -0.37618660660E+02  0.58916865453E+02  0.38338479906E+03  0.38970535641E+03  0.00000000000E+00 0.  1.
<scales pt_clust_5="13000.00000" pt_clust_6="13000.00000" pt_clust_7="13000.00000" pt_clust_8="13000.00000" pt_clust_9="13000.00000"></scales>
<clustering>
<clus scale="   82.990">  5  6 -1 -1</clus>
<clus scale="   69.903">  5  9 -1 -1</clus>
<clus scale="   91.122">  7  8 -1 -1</clus>
<clus scale="   99.641">  1  7  2 -1</clus>
<clus scale="  263.903">  2  5  1 -1</clus>
</clustering>
</event>
<event>
 9    1  0.4516508E-005  0.2167864E+03  0.7546771E-02  0.1160716E+00
          1   -1    0    0  502    0 -0.00000000000E+00  0.00000000000E+00  0.29234710431E+03  0.29234710431E+03  0.00000000000E+00 0. -1.
         21   -1    0    0  501  502  0.00000000000E+00 -0.00000000000E+00 -0.98210845368E+02  0.98210845368E+02  0.00000000000E+00 0. -1.
         23    2    1    2    0    0 -0.37005307311E+02 -0.59321127529E+02  0.57467280300E+02  0.13428712805E+03  0.99207638385E+02 0.  0.
        -24    2    1    2    0    0  0.62331682797E+02 -0.34728395876E+02  0.29786680424E+02  0.11166596756E+03  0.80565140228E+02 0.  0.
         13    1    4    4    0    0  0.75298175422E+02 -0.80104736090E+01  0.10982802571E+02  0.76515389704E+02  0.00000000000E+00 0. -1.
        -14    1    4    4    0    0 -0.12966492625E+02 -0.26717922267E+02  0.18803877853E+02  0.35150577855E+02  0.00000000000E+00 0.  1.
        -13    1    3    3    0    0  0.23053005964E+02 -0.52994186829E+01  0.47280837924E+02  0.52867783736E+02  0.00000000000E+00 0.  1.
         13    1    3    3    0    0 -0.60058313274E+02 -0.54021708846E+02  0.10186442376E+02  0.81419344312E+02  0.00000000000E+00 0. -1.
          2    1    1    2  501    0 -0.25326375486E+02  0.94049523404E+02  0.10688229821E+03  0.14460485407E+03  0.00000000000E+00 0. -1.
<scales pt_clust_5="13000.00000" pt_clust_6="13000.00000" pt_clust_7="13000.00000" pt_clust_8="13000.00000" pt_clust_9="13000.00000"></scales>
<clustering>
<clus scale="   80.565">  5  6 -1 -1</clus>
<clus scale="   97.400">  5  9 -1 -1</clus>
<clus scale="   99.208">  7  8 -1 -1</clus>
<clus scale="  121.370">  1  7  2 -1</clus>
<clus scale="  216.786">  2  5  1 -1</clus>
</clustering>
</event>
<event>
 9    1  0.4516508E-005  0.4969222E+03  0.7546771E-02  0.1070924E+00
          1   -1    0    0  502    0 -0.00000000000E+00  0.00000000000E+00  0.73394577229E+02  0.73394577229E+02  0.00000000000E+00 0. -1.
         21   -1    0    0  501  502  0.00000000000E+00 -0.00000000000E+00 -0.12383629749E+04  0.12383629749E+04  0.00000000000E+00 0. -1.
         23    2    1    2    0    0  0.27453063343E+02  0.16164146654E+02 -0.11830133333E+03  0.15311884723E+03  0.91843484180E+02 0.  0.
        -24    2    1    2    0    0  0.20504937014E+03  0.68281872058E+02 -0.66475434448E+03  0.70361580739E+03  0.80431384849E+02 0.  0.
         11    1    4    4    0    0  0.11125820707E+03 -0.42933151364E+01 -0.34871435734E+03  0.36605808857E+03  0.00000000000E+00 0. -1.
        -12    1    4    4    0    0  0.93791163071E+02  0.72575187195E+02 -0.31603998714E+03  0.33755771882E+03  0.00000000000E+00 0.  1.
        -13    1    3    3    0    0 -0.26406323012E+02  0.26619796055E+02 -0.72609360408E+02  0.81719193926E+02  0.00000000000E+00 0. -1.
         13    1    3    3    0    0  0.53859386355E+02 -0.10455649401E+02 -0.45691972923E+02  0.71399653308E+02  0.00000000000E+00 0.  1.
          2    1    1    2  501    0 -0.23250243348E+03 -0.84446018712E+02 -0.38191271982E+03  0.45502289746E+03  0.00000000000E+00 0. -1.
<scales pt_clust_5="13000.00000" pt_clust_6="13000.00000" pt_clust_7="13000.00000" pt_clust_8="13000.00000" pt_clust_9="13000.00000"></scales>
<clustering>
<clus scale="   80.431">  5  6 -1 -1</clus>
<clus scale="   91.843">  7  8 -1 -1</clus>
<clus scale="   97.212">  1  7  2 -1</clus>
<clus scale="  226.944">  5  9 -1 -1</clus>
<clus scale="  496.922">  2  5  1 -1</clus>
</clustering>
</event>
<event>
 9    1  0.4516508E-005  0.3997749E+03  0.7546771E-02  0.1067978E+00
         21   -1    0    0  501  502  0.00000000000E+00  0.00000000000E+00  0.18337640753E+03  0.18337640753E+03  0.00000000000E+00 0. -1.
          1   -1    0    0  502    0 -0.00000000000E+00 -0.00000000000E+00 -0.52510582621E+03  0.52510582621E+03  0.00000000000E+00 0. -1.
         23    2    1    2    0    0 -0.14082140419E+03  0.11207814714E+03 -0.19932712811E+03  0.28410228232E+03  0.92685618507E+02 0.  0.
        -24    2    1    2    0    0  0.11000319154E+03  0.79184213630E+02 -0.16648275668E+03  0.22915976361E+03  0.80167619082E+02 0.  0.
         13    1    4    4    0    0  0.10457312874E+03  0.61599077853E+02 -0.91616100173E+02  0.15206411627E+03  0.00000000000E+00 0. -1.
        -14    1    4    4    0    0  0.54300628044E+01  0.17585135777E+02 -0.74866656510E+02  0.77095647344E+02  0.00000000000E+00 0.  1.
        -13    1    3    3    0    0 -0.13169917951E+03  0.55369402659E+02 -0.15994810560E+03  0.21446174746E+03  0.00000000000E+00 0. -1.
         13    1    3    3    0    0 -0.91222246757E+01  0.56708744477E+02 -0.39379022501E+02  0.69640534866E+02  0.00000000000E+00 0.  1.
          2    1    1    2  501    0  0.30818212650E+02 -0.19126236077E+03  0.24080466104E+02  0.19522018780E+03  0.00000000000E+00 0. -1.
<scales pt_clust_5="13000.00000" pt_clust_6="13000.00000" pt_clust_7="13000.00000" pt_clust_8="13000.00000" pt_clust_9="13000.00000"></scales>
<clustering>
<clus scale="   80.168">  5  6 -1 -1</clus>
<clus scale="   92.686">  7  8 -1 -1</clus>
<clus scale="  193.729">  5  9 -1 -1</clus>
<clus scale="  202.442">  2  7  1 -1</clus>
<clus scale="  399.775">  1  5  2 -1</clus>
</clustering>
</event>
<event>
 9    1  0.4516508E-005  0.1716762E+03  0.7546771E-02  0.1192496E+00
          1   -1    0    0  502    0 -0.00000000000E+00  0.00000000000E+00  0.32326785555E+03  0.32326785555E+03  0.00000000000E+00 0. -1.
         21   -1    0    0  501  502  0.00000000000E+00 -0.00000000000E+00 -0.34240010881E+03  0.34240010881E+03  0.00000000000E+00 0. -1.
         23    2    1    2    0    0  0.26707918538E+02 -0.71662653111E+02  0.28919850827E+03  0.31276489991E+03  0.91308579381E+02 0.  0.
        -24    2    1    2    0    0  0.36446979882E+02  0.23105595360E+02 -0.14482667836E+03  0.17102421942E+03  0.80076625707E+02 0.  0.
         13    1    4    4    0    0  0.17524543759E+02 -0.28106361133E+02 -0.33928257847E+02  0.47415228046E+02  0.00000000000E+00 0. -1.
        -14    1    4    4    0    0  0.18922436123E+02  0.51211956493E+02 -0.11089842051E+03  0.12360899137E+03  0.00000000000E+00 0.  1.
        -13    1    3    3    0    0 -0.21713059591E+02 -0.17500899274E+01  0.17122141340E+02  0.27707174083E+02  0.00000000000E+00 0.  1.
         13    1    3    3    0    0  0.48420978129E+02 -0.69912563184E+02  0.27207636693E+03  0.28505772583E+03  0.00000000000E+00 0. -1.
          2    1    1    2  501    0 -0.63154898420E+02  0.48557057752E+02 -0.16350408318E+03  0.18187884503E+03  0.00000000000E+00 0. -1.
<scales pt_clust_5="13000.00000" pt_clust_6="13000.00000" pt_clust_7="13000.00000" pt_clust_8="13000.00000" pt_clust_9="13000.00000"></scales>
<clustering>
<clus scale="   80.077">  5  6 -1 -1</clus>
<clus scale="   79.664">  5  9 -1 -1</clus>
<clus scale="   91.309">  7  8 -1 -1</clus>
<clus scale="  119.105">  1  7  2 -1</clus>
<clus scale="  171.676">  2  5  1 -1</clus>
</clustering>
</event>
<event>
 9    1  0.4516508E-005  0.3748487E+03  0.7546771E-02  0.1075635E+00
         21   -1    0    0  501  502  0.00000000000E+00  0.00000000000E+00  0.22645653195E+04  0.22645653195E+04  0.00000000000E+00 0.  1.
         -4   -1    0    0    0  501 -0.00000000000E+00 -0.00000000000E+00 -0.39469568979E+02  0.39469568979E+02  0.00000000000E+00 0.  1.
         23    2    1    2    0    0  0.11292135866E+02  0.17505354197E+03  0.49035406126E+03  0.52925595031E+03  0.94305358568E+02 0.  0.
        -24    2    1    2    0    0 -0.25497791338E+02  0.71104224762E+02  0.36878862344E+03  0.38675039927E+03  0.88684127189E+02 0.  0.
         11    1    4    4    0    0 -0.56943858512E+02  0.35239368052E+02  0.18074541097E+03  0.19275196412E+03  0.00000000000E+00 0. -1.
        -12    1    4    4    0    0  0.31446067174E+02  0.35864856710E+02  0.18804321247E+03  0.19399843515E+03  0.00000000000E+00 0.  1.
        -13    1    3    3    0    0 -0.94459419568E+01  0.17669955079E+03  0.41657191959E+03  0.45259708490E+03  0.00000000000E+00 0.  1.
         13    1    3    3    0    0  0.20738077823E+02 -0.16460088137E+01  0.73782141669E+02  0.76658865410E+02  0.00000000000E+00 0. -1.
         -3    1    1    2    0  502  0.14205655472E+02 -0.24615776673E+03  0.13659530658E+04  0.13880285389E+04  0.00000000000E+00 0.  1.
<scales pt_clust_5="13000.00000" pt_clust_6="13000.00000" pt_clust_7="13000.00000" pt_clust_8="13000.00000" pt_clust_9="13000.00000"></scales>
<clustering>
<clus scale="   88.684">  5  6 -1 -1</clus>
<clus scale="   94.305">  7  8 -1 -1</clus>
<clus scale="  199.160">  2  7  1 -1</clus>
<clus scale="  151.026">  5  9 -1 -1</clus>
<clus scale="  374.849">  1  5  2 -1</clus>
</clustering>
</event>
<event>
 9    1  0.4516508E-005  0.7051369E+03  0.7546771E-02  0.1028507E+00
         21   -1    0    0  501  502  0.00000000000E+00  0.00000000000E+00  0.22695534113E+03  0.22695534113E+03  0.00000000000E+00 0. -1.
          1   -1    0    0  502    0 -0.00000000000E+00 -0.00000000000E+00 -0.80238023891E+03  0.80238023891E+03  0.00000000000E+00 0. -1.
         23    2    1    2    0    0  0.39077780368E+02 -0.57206492674E+02  0.74234119727E+01  0.11449670029E+03  0.90855553545E+02 0.  0.
        -24    2    1    2    0    0  0.14141754471E+03  0.19927893460E+03  0.30985752495E+02  0.25943412153E+03  0.81455084728E+02 0.  0.
         11    1    4    4    0    0  0.14988771135E+03  0.17536669739E+03  0.19288564650E+02  0.23149914318E+03  0.00000000000E+00 0. -1.
        -12    1    4    4    0    0 -0.84701666490E+01  0.23912237214E+02  0.11697187845E+02  0.27934978344E+02  0.00000000000E+00 0.  1.
        -13    1    3    3    0    0 -0.21711555508E+02 -0.13574963097E+02  0.26938873233E+02  0.37166842167E+02  0.00000000000E+00 0. -1.
         13    1    3    3    0    0  0.60789335876E+02 -0.43631529577E+02 -0.19515461260E+02  0.77329858125E+02  0.00000000000E+00 0.  1.
          2    1    1    2  501    0 -0.18049532507E+03 -0.14207244193E+03 -0.61383406225E+03  0.65540475822E+03  0.00000000000E+00 0. -1.
<scales pt_clust_5="13000.00000" pt_clust_6="13000.00000" pt_clust_7="13000.00000" pt_clust_8="13000.00000" pt_clust_9="13000.00000"></scales>
<clustering>
<clus scale="   81.455">  5  6 -1 -1</clus>
<clus scale="   90.856">  7  8 -1 -1</clus>
<clus scale="  114.256">  2  7  1 -1</clus>
<clus scale="  240.896">  5  9 -1 -1</clus>
<clus scale="  705.137">  1  5  2 -1</clus>
</clustering>
</event>
<event>
 9    1  0.4516508E-005  0.4860745E+03  0.7546771E-02  0.1038728E+00
          1   -1    0    0  502    0 -0.00000000000E+00  0.00000000000E+00  0.53950493580E+03  0.53950493580E+03  0.00000000000E+00 0. -1.
         21   -1    0    0  501  502  0.00000000000E+00 -0.00000000000E+00 -0.26599036130E+03  0.26599036130E+03  0.00000000000E+00 0. -1.
         23    2    1    2    0    0 -0.18689551532E+03  0.15309185284E+03  0.16839089433E+03  0.30818309147E+03  0.90853043553E+02 0.  0.
        -24    2    1    2    0    0  0.93222903388E+02  0.10380535926E+03 -0.63495178236E+02  0.17605988234E+03  0.86598973327E+02 0.  0.
         13    1    4    4    0    0  0.86087119067E+01  0.37863585068E+02 -0.56500849109E+02  0.68557325976E+02  0.00000000000E+00 0. -1.
        -14    1    4    4    0    0  0.84614191481E+02  0.65941774197E+02 -0.69943291264E+01  0.10750255636E+03  0.00000000000E+00 0.  1.
        -13    1    3    3    0    0 -0.15599521050E+03  0.11635777474E+03  0.85865381219E+02  0.21271224961E+03  0.00000000000E+00 0.  1.
         13    1    3    3    0    0 -0.30900304817E+02  0.36734078098E+02  0.82525513106E+02  0.95470841857E+02  0.00000000000E+00 0. -1.
          2    1    1    2  501    0  0.93672611934E+02 -0.25689721211E+03  0.16861885841E+03  0.32125232330E+03  0.00000000000E+00 0. -1.
<scales pt_clust_5="13000.00000" pt_clust_6="13000.00000" pt_clust_7="13000.00000" pt_clust_8="13000.00000" pt_clust_9="13000.00000"></scales>
<clustering>
<clus scale="   86.599">  5  6 -1 -1</clus>
<clus scale="   90.853">  7  8 -1 -1</clus>
<clus scale="  258.111">  1  7  2 -1</clus>
<clus scale="  144.678">  5  9 -1 -1</clus>
<clus scale="  486.075">  2  5  1 -1</clus>
</clustering>
</event>
<event>
 9    1  0.4516508E-005  0.3038819E+03  0.7546771E-02  0.1110611E+00
          1   -1    0    0  502    0 -0.00000000000E+00  0.00000000000E+00  0.23503131970E+03  0.23503131970E+03  0.00000000000E+00 0. -1.
         21   -1    0    0  501  502  0.00000000000E+00 -0.00000000000E+00 -0.32568195686E+03  0.32568195686E+03  0.00000000000E+00 0.  1.
         23    2    1    2    0    0 -0.89431738187E+02 -0.75443585963E+02 -0.18955770382E+03  0.24114037472E+03  0.92340602034E+02 0.  0.
        -24    2    1    2    0    0  0.29495643383E+02  0.10745542465E+02  0.17999201026E+03  0.19976914408E+03  0.80778261346E+02 0.  0.
         11    1    4    4    0    0  0.46082849927E+02  0.50027301691E+01  0.17568231153E+03  0.18169460903E+03  0.00000000000E+00 0. -1.
        -12    1    4    4    0    0 -0.16587206543E+02  0.57428122956E+01  0.43096987313E+01  0.18074535046E+02  0.00000000000E+00 0.  1.
        -11    1    3    3    0    0 -0.19466610518E+02  0.12960248764E+02 -0.82196652439E+02  0.85458800865E+02  0.00000000000E+00 0. -1.
         11    1    3    3    0    0 -0.69965127669E+02 -0.88403834727E+02 -0.10736105138E+03  0.15568157385E+03  0.00000000000E+00 0.  1.
          2    1    1    2  501    0  0.59936094803E+02  0.64698043498E+02 -0.81084943609E+02  0.11980375776E+03  0.00000000000E+00 0. -1.
<scales pt_clust_5="13000.00000" pt_clust_6="13000.00000" pt_clust_7="13000.00000" pt_clust_8="13000.00000" pt_clust_9="13000.00000"></scales>
<clustering>
<clus scale="   80.778">  5  6 -1 -1</clus>
<clus scale="   88.194">  5  9 -1 -1</clus>
<clus scale="   92.341">  7  8 -1 -1</clus>
<clus scale="  149.052">  1  7  2 -1</clus>
<clus scale="  303.882">  2  5  1 -1</clus>
</clustering>
</event>
<event>
 9    1  0.4516508E-005  0.1732515E+03  0.7546771E-02  0.1187793E+00
         21   -1    0    0  501  502  0.00000000000E+00  0.00000000000E+00  0.10468530824E+03  0.10468530824E+03  0.00000000000E+00 0. -1.
          1   -1    0    0  502    0 -0.00000000000E+00 -0.00000000000E+00 -0.38880545519E+03  0.38880545519E+03  0.00000000000E+00 0. -1.
         23    2    1    2    0    0  0.26734167508E+02  0.81767256189E+02  0.32457408805E+02  0.13260652182E+03  0.95553159791E+02 0.  0.
        -24    2    1    2    0    0  0.36145789790E+02 -0.45596283561E+02 -0.93486250942E+02  0.12629532760E+03  0.61848940682E+02 0.  0.
         11    1    4    4    0    0  0.45327780851E+02 -0.34549646077E+02 -0.96066723625E+02  0.11170094516E+03  0.00000000000E+00 0. -1.
        -12    1    4    4    0    0 -0.91819910605E+01 -0.11046637483E+02  0.25804726832E+01  0.14594382440E+02  0.00000000000E+00 0.  1.
        -13    1    3    3    0    0  0.20771266383E+02 -0.18052017501E+02  0.14161054168E+02  0.30949253596E+02  0.00000000000E+00 0. -1.
         13    1    3    3    0    0  0.59629011244E+01  0.99819273690E+02  0.18296354637E+02  0.10165726822E+03  0.00000000000E+00 0.  1.
          2    1    1    2  501    0 -0.62879957298E+02 -0.36170972628E+02 -0.22309130482E+03  0.23458891401E+03  0.00000000000E+00 0. -1.
<scales pt_clust_5="13000.00000" pt_clust_6="13000.00000" pt_clust_7="13000.00000" pt_clust_8="13000.00000" pt_clust_9="13000.00000"></scales>
<clustering>
<clus scale="   61.849">  5  6 -1 -1</clus>
<clus scale="   72.541">  5  9 -1 -1</clus>
<clus scale="   95.553">  7  8 -1 -1</clus>
<clus scale="  128.573">  2  7  1 -1</clus>
<clus scale="  173.252">  1  5  2 -1</clus>
</clustering>
</event>
<event>
 9    1  0.4516508E-005  0.2116027E+03  0.7546771E-02  0.1163122E+00
          1   -1    0    0  502    0 -0.00000000000E+00  0.00000000000E+00  0.36272375786E+03  0.36272375786E+03  0.00000000000E+00 0. -1.
         21   -1    0    0  501  502  0.00000000000E+00 -0.00000000000E+00 -0.82825424848E+02  0.82825424848E+02  0.00000000000E+00 0. -1.
         23    2    1    2    0    0 -0.46566869575E+02  0.61652146889E+02  0.16088311925E+03  0.20277288087E+03  0.96249688825E+02 0.  0.
        -24    2    1    2    0    0 -0.71492644876E+01  0.35794437836E+02  0.93307222507E+02  0.12857402188E+03  0.80577214938E+02 0.  0.
         13    1    4    4    0    0  0.29270333930E+01  0.20846731970E+02 -0.10281945872E+02  0.23428021027E+02  0.00000000000E+00 0. -1.
        -14    1    4    4    0    0 -0.10076297881E+02  0.14947705866E+02  0.10358916838E+03  0.10514600085E+03  0.00000000000E+00 0.  1.
        -11    1    3    3    0    0 -0.60870300575E+02  0.12782329697E+02  0.12756676771E+03  0.14192202672E+03  0.00000000000E+00 0. -1.
         11    1    3    3    0    0  0.14303431000E+02  0.48869817193E+02  0.33316351540E+02  0.60850854150E+02  0.00000000000E+00 0.  1.
          2    1    1    2  501    0  0.53716134063E+02 -0.97446584726E+02  0.25707991255E+02  0.11420227996E+03  0.00000000000E+00 0. -1.
<scales pt_clust_5="13000.00000" pt_clust_6="13000.00000" pt_clust_7="13000.00000" pt_clust_8="13000.00000" pt_clust_9="13000.00000"></scales>
<clustering>
<clus scale="   80.577">  5  6 -1 -1</clus>
<clus scale="   96.250">  7  8 -1 -1</clus>
<clus scale="  111.271">  5  9 -1 -1</clus>
<clus scale="  123.424">  1  7  2 -1</clus>
<clus scale="  211.603">  2  5  1 -1</clus>
</clustering>
</event>
<event>
 9    1  0.4516508E-005  0.2557656E+03  0.7546771E-02  0.1137227E+00
          3   -1    0    0  502    0 -0.00000000000E+00  0.00000000000E+00  0.21878601260E+03  0.21878601260E+03  0.00000000000E+00 0. -1.
         21   -1    0    0  501  502  0.00000000000E+00 -0.00000000000E+00 -0.24084638547E+03  0.24084638547E+03  0.00000000000E+00 0. -1.
         23    2    1    2    0    0 -0.73566530621E+02 -0.54517189531E+02  0.11196951432E+03  0.17087636878E+03  0.90980233510E+02 0.  0.
        -24    2    1    2    0    0 -0.24691826697E+02  0.62160953511E+01  0.31991620335E+02  0.89882095748E+02  0.80043745648E+02 0.  0.
         11    1    4    4    0    0 -0.40636012778E+02 -0.73218697496E+01 -0.10427295863E+02  0.42586662350E+02  0.00000000000E+00 0. -1.
        -12    1    4    4    0    0  0.15944186081E+02  0.13537965101E+02  0.42418916199E+02  0.47295433398E+02  0.00000000000E+00 0.  1.
        -13    1    3    3    0    0 -0.49629580531E+02 -0.76128744966E+02  0.10308894216E+03  0.13742638418E+03  0.00000000000E+00 0. -1.
         13    1    3    3    0    0 -0.23936950090E+02  0.21611555435E+02  0.88805721610E+01  0.33449984602E+02  0.00000000000E+00 0.  1.
          4    1    1    2  501    0  0.98258357318E+02  0.48301094180E+02 -0.16602150753E+03  0.19887393354E+03  0.00000000000E+00 0. -1.
<scales pt_clust_5="13000.00000" pt_clust_6="13000.00000" pt_clust_7="13000.00000" pt_clust_8="13000.00000" pt_clust_9="13000.00000"></scales>
<clustering>
<clus scale="   80.044">  5  6 -1 -1</clus>
<clus scale="   90.980">  7  8 -1 -1</clus>
<clus scale="  109.488">  5  9 -1 -1</clus>
<clus scale="  129.080">  1  7  2 -1</clus>
<clus scale="  255.766">  2  5  1 -1</clus>
</clustering>
</event>
<event>
 9    1  0.4516508E-005  0.1945432E+03  0.7546771E-02  0.1183978E+00
          1   -1    0    0  502    0 -0.00000000000E+00  0.00000000000E+00  0.63214008052E+03  0.63214008052E+03  0.00000000000E+00 0. -1.
         21   -1    0    0  501  502  0.00000000000E+00 -0.00000000000E+00 -0.34635995581E+02  0.34635995581E+02  0.00000000000E+00 0. -1.
         23    2    1    2    0    0  0.22010869079E+02 -0.30104911500E+02  0.16173003334E+03  0.18954858577E+03  0.91549323487E+02 0.  0.
        -24    2    1    2    0    0  0.20724033647E+02 -0.56473151834E+02  0.20775009700E+03  0.22960488063E+03  0.77068774200E+02 0.  0.
         13    1    4    4    0    0 -0.22837099969E+02 -0.27367848319E+02  0.38659111530E+02  0.52583829842E+02  0.00000000000E+00 0. -1.
        -14    1    4    4    0    0  0.43561133615E+02 -0.29105303515E+02  0.16909098547E+03  0.17702105079E+03  0.00000000000E+00 0.  1.
        -13    1    3    3    0    0 -0.30506158294E+02  0.92805071821E+01  0.39098422410E+02  0.50452355172E+02  0.00000000000E+00 0.  1.
         13    1    3    3    0    0  0.52517027373E+02 -0.39385418682E+02  0.12263161093E+03  0.13909623060E+03  0.00000000000E+00 0. -1.
          2    1    1    2  501    0 -0.42734902726E+02  0.86578063334E+02  0.22802395460E+03  0.24762260970E+03  0.00000000000E+00 0. -1.
<scales pt_clust_5="13000.00000" pt_clust_6="13000.00000" pt_clust_7="13000.00000" pt_clust_8="13000.00000" pt_clust_9="13000.00000"></scales>
<clustering>
<clus scale="   77.069">  5  6 -1 -1</clus>
<clus scale="   91.549">  7  8 -1 -1</clus>
<clus scale="   96.551">  5  9 -1 -1</clus>
<clus scale="   98.854">  1  7  2 -1</clus>
<clus scale="  194.543">  2  5  1 -1</clus>
</clustering>
</event>
<event>
 9    1  0.4516508E-005  0.1268650E+03  0.7546771E-02  0.1246741E+00
          1   -1    0    0  502    0 -0.00000000000E+00  0.00000000000E+00  0.30443793448E+03  0.30443793448E+03  0.00000000000E+00 0. -1.
         21   -1    0    0  501  502  0.00000000000E+00 -0.00000000000E+00 -0.56505735184E+02  0.56505735184E+02  0.00000000000E+00 0.  1.
         23    2    1    2    0    0  0.11998466137E+02 -0.32294019595E+02  0.20723840683E+03  0.22771185194E+03  0.87852509120E+02 0.  0.
        -24    2    1    2    0    0  0.24203611783E+02  0.30373447942E+02  0.33212531161E+02  0.96214952488E+02  0.81522289547E+02 0.  0.
         11    1    4    4    0    0  0.48384195112E+02  0.57345238598E+01  0.37424228741E+02  0.61436861877E+02  0.00000000000E+00 0. -1.
        -12    1    4    4    0    0 -0.24180583328E+02  0.24638924082E+02 -0.42116975804E+01  0.34778090611E+02  0.00000000000E+00 0.  1.
        -13    1    3    3    0    0  0.26914372498E+02  0.23530834456E+02  0.94311818829E+02  0.10086031325E+03  0.00000000000E+00 0. -1.
         13    1    3    3    0    0 -0.14915906360E+02 -0.55824854051E+02  0.11292658800E+03  0.12685153869E+03  0.00000000000E+00 0.  1.
          2    1    1    2  501    0 -0.36202077921E+02  0.19205716530E+01  0.74812613105E+01  0.37016865238E+02  0.00000000000E+00 0. -1.
<scales pt_clust_5="13000.00000" pt_clust_6="13000.00000" pt_clust_7="13000.00000" pt_clust_8="13000.00000" pt_clust_9="13000.00000"></scales>
<clustering>
<clus scale="   81.522">  5  6 -1 -1</clus>
<clus scale="   36.253">  5  9 -1 -1</clus>
<clus scale="   87.853">  7  8 -1 -1</clus>
<clus scale="   94.366">  1  7  2 -1</clus>
<clus scale="  126.865">  2  5  1 -1</clus>
</clustering>
</event>
<event>
 9    1  0.4516508E-005  0.2748864E+03  0.7546771E-02  0.1111386E+00
          1   -1    0    0  502    0 -0.00000000000E+00  0.00000000000E+00  0.28197284801E+03  0.28197284801E+03  0.00000000000E+00 0. -1.
         21   -1    0    0  501  502  0.00000000000E+00 -0.00000000000E+00 -0.19784335064E+03  0.19784335064E+03  0.00000000000E+00 0. -1.
         23    2    1    2    0    0 -0.48968864522E+02 -0.16779705496E+03  0.31505595246E+02  0.19993798111E+03  0.91808455021E+02 0.  0.
        -24    2    1    2    0    0 -0.18616547447E+02 -0.10001106803E+02  0.90682778019E+01  0.84744758980E+02  0.81564958997E+02 0.  0.
         11    1    4    4    0    0  0.22419143233E+02 -0.18416256879E+02 -0.18672204265E+02  0.34502575452E+02  0.00000000000E+00 0. -1.
        -12    1    4    4    0    0 -0.41035690679E+02  0.84151500763E+01  0.27740482067E+02  0.50242183528E+02  0.00000000000E+00 0.  1.
        -11    1    3    3    0    0  0.71381527608E+01 -0.74073686462E+02 -0.22960018737E+02  0.77878281384E+02  0.00000000000E+00 0.  1.
         11    1    3    3    0    0 -0.56107017282E+02 -0.93723368497E+02  0.54465613983E+02  0.12205969973E+03  0.00000000000E+00 0. -1.
          2    1    1    2  501    0  0.67585411968E+02  0.17779816176E+03  0.43555624320E+02  0.19513345855E+03  0.00000000000E+00 0. -1.
<scales pt_clust_5="13000.00000" pt_clust_6="13000.00000" pt_clust_7="13000.00000" pt_clust_8="13000.00000" pt_clust_9="13000.00000"></scales>
<clustering>
<clus scale="   81.565">  5  6 -1 -1</clus>
<clus scale="   91.808">  7  8 -1 -1</clus>
<clus scale="  190.210">  5  9 -1 -1</clus>
<clus scale="  197.440">  1  7  2 -1</clus>
<clus scale="  274.886">  2  5  1 -1</clus>
</clustering>
</event>
<event>
 9    1  0.4516508E-005  0.1476682E+03  0.7546771E-02  0.1218241E+00
         21   -1    0    0  501  502  0.00000000000E+00  0.00000000000E+00  0.20386052902E+03  0.20386052902E+03  0.00000000000E+00 0.  1.
         -4   -1    0    0    0  501 -0.00000000000E+00 -0.00000000000E+00 -0.81732958732E+02  0.81732958732E+02  0.00000000000E+00 0.  1.
         23    2    1    2    0    0  0.43231901687E+02  0.25216471770E+02  0.30371587001E+02  0.11173992254E+03  0.95176200918E+02 0.  0.
        -24    2    1    2    0    0  0.34165609395E+01 -0.10673277537E+02  0.94635700057E+02  0.12490587545E+03  0.80746332757E+02 0.  0.
         11    1    4    4    0    0  0.39309657894E+02 -0.11334780512E+02  0.29177817443E+02  0.50250089390E+02  0.00000000000E+00 0. -1.
        -12    1    4    4    0    0 -0.35893096955E+02  0.66150297516E+00  0.65457882615E+02  0.74655786056E+02  0.00000000000E+00 0.  1.
        -13    1    3    3    0    0  0.68213039006E+02 -0.47224253650E+01  0.16356638915E+02  0.70305473673E+02  0.00000000000E+00 0.  1.
         13    1    3    3    0    0 -0.24981137319E+02  0.29938897135E+02  0.14014948086E+02  0.41434448871E+02  0.00000000000E+00 0. -1.
         -3    1    1    2    0  502 -0.46648462627E+02 -0.14543194233E+02 -0.28797167740E+01  0.48947689758E+02  0.00000000000E+00 0.  1.
<scales pt_clust_5="13000.00000" pt_clust_6="13000.00000" pt_clust_7="13000.00000" pt_clust_8="13000.00000" pt_clust_9="13000.00000"></scales>
<clustering>
<clus scale="   80.746">  5  6 -1 -1</clus>
<clus scale="   48.863">  5  9 -1 -1</clus>
<clus scale="   95.176">  7  8 -1 -1</clus>
<clus scale="  107.533">  2  7  1 -1</clus>
<clus scale="  147.668">  1  5  2 -1</clus>
</clustering>
</event>
<event>
 9    1  0.4516508E-005  0.4655616E+03  0.7546771E-02  0.1040234E+00
         21   -1    0    0  501  502  0.00000000000E+00  0.00000000000E+00  0.68712919859E+03  0.68712919859E+03  0.00000000000E+00 0. -1.
          3   -1    0    0  502    0 -0.00000000000E+00 -0.00000000000E+00 -0.20561649745E+03  0.20561649745E+03  0.00000000000E+00 0. -1.
         23    2    1    2    0    0 -0.53611469541E+02 -0.26211033228E+03  0.13200565712E+03  0.31059211771E+03  0.86405752806E+02 0.  0.
        -24    2    1    2    0    0  0.53368940022E+02  0.34188276868E+03  0.35472450248E+03  0.50221033407E+03  0.81570066212E+02 0.  0.
         11    1    4    4    0    0  0.54539968265E+02  0.31472183098E+03  0.35131330147E+03  0.47481098852E+03  0.00000000000E+00 0. -1.
        -12    1    4    4    0    0 -0.11710282425E+01  0.27160937701E+02  0.34112010169E+01  0.27399345546E+02  0.00000000000E+00 0.  1.
        -13    1    3    3    0    0 -0.14022135575E+02 -0.12746138051E+03  0.10915067218E+03  0.16839505054E+03  0.00000000000E+00 0.  1.
         13    1    3    3    0    0 -0.39589333966E+02 -0.13464895176E+03  0.22854984939E+02  0.14219706717E+03  0.00000000000E+00 0. -1.
          4    1    1    2  501    0  0.24252951901E+00 -0.79772436405E+02 -0.52174584669E+01  0.79943244264E+02  0.00000000000E+00 0. -1.
<scales pt_clust_5="13000.00000" pt_clust_6="13000.00000" pt_clust_7="13000.00000" pt_clust_8="13000.00000" pt_clust_9="13000.00000"></scales>
<clustering>
<clus scale="   81.570">  5  6 -1 -1</clus>
<clus scale="   79.773">  5  9 -1 -1</clus>
<clus scale="   86.406">  7  8 -1 -1</clus>
<clus scale="  281.144">  2  7  1 -1</clus>
<clus scale="  465.562">  1  5  2 -1</clus>
</clustering>
</event>
<event>
 9    1  0.4516508E-005  0.2751165E+03  0.7546771E-02  0.1129309E+00
         21   -1    0    0  501  502  0.00000000000E+00  0.00000000000E+00  0.17976776727E+04  0.17976776727E+04  0.00000000000E+00 0.  1.
         -4   -1    0    0    0  501 -0.00000000000E+00 -0.00000000000E+00 -0.26945720652E+02  0.26945720652E+02  0.00000000000E+00 0.  1.
         23    2    1    2    0    0  0.61433012266E+02 -0.62567816421E+02  0.25766270456E+03  0.28674574492E+03  0.90245810208E+02 0.  0.
        -24    2    1    2    0    0  0.63259081321E+02 -0.42745771596E+02  0.65527071615E+03  0.66468958714E+03  0.81262681766E+02 0.  0.
         13    1    4    4    0    0 -0.30449646729E+01 -0.26418844336E+02  0.61476460553E+02  0.66981955391E+02  0.00000000000E+00 0. -1.
        -14    1    4    4    0    0  0.66304045993E+02 -0.16326927259E+02  0.59379425560E+03  0.59770763175E+03  0.00000000000E+00 0.  1.
        -13    1    3    3    0    0  0.11007420090E+02  0.20633300188E+02  0.89136787398E+02  0.92153476556E+02  0.00000000000E+00 0. -1.
         13    1    3    3    0    0  0.50425592175E+02 -0.83201116609E+02  0.16852591716E+03  0.19459226836E+03  0.00000000000E+00 0.  1.
         -3    1    1    2    0  502 -0.12469209359E+03  0.10531358802E+03  0.85779853134E+03  0.87318806130E+03  0.00000000000E+00 0.  1.
<scales pt_clust_5="13000.00000" pt_clust_6="13000.00000" pt_clust_7="13000.00000" pt_clust_8="13000.00000" pt_clust_9="13000.00000"></scales>
<clustering>
<clus scale="   81.263">  5  6 -1 -1</clus>
<clus scale="   90.246">  7  8 -1 -1</clus>
<clus scale="  125.829">  2  7  1 -1</clus>
<clus scale="  109.174">  5  9 -1 -1</clus>
<clus scale="  275.117">  1  5  2 -1</clus>
</clustering>
</event>
<event>
 9    1  0.4516508E-005  0.8823274E+03  0.7546771E-02  0.9958154E-01
         21   -1    0    0  501  502  0.00000000000E+00  0.00000000000E+00  0.14016686847E+04  0.14016686847E+04  0.00000000000E+00 0. -1.
          1   -1    0    0  502    0 -0.00000000000E+00 -0.00000000000E+00 -0.23293651885E+03  0.23293651885E+03  0.00000000000E+00 0. -1.
         23    2    1    2    0    0  0.97390325282E+02  0.80332704818E+02 -0.12870615493E+02  0.15992330767E+03  0.97322107829E+02 0.  0.
        -24    2    1    2    0    0  0.44129441448E+02  0.35347928162E+02 -0.12301067185E+03  0.15732616735E+03  0.80143707903E+02 0.  0.
         11    1    4    4    0    0  0.48029713029E+02  0.41528538421E+02 -0.42319571744E+02  0.76304776978E+02  0.00000000000E+00 0. -1.
        -12    1    4    4    0    0 -0.39002715802E+01 -0.61806102585E+01 -0.80691100111E+02  0.81021390377E+02  0.00000000000E+00 0.  1.
        -13    1    3    3    0    0  0.75666081706E+02  0.10230005245E+03 -0.18309630339E+02  0.12855309882E+03  0.00000000000E+00 0. -1.
         13    1    3    3    0    0  0.21724243576E+02 -0.21967347636E+02  0.54390148452E+01  0.31370208855E+02  0.00000000000E+00 0.  1.
          2    1    1    2  501    0 -0.14151976673E+03 -0.11568063298E+03  0.13046134532E+04  0.13173557286E+04  0.00000000000E+00 0. -1.
<scales pt_clust_5="13000.00000" pt_clust_6="13000.00000" pt_clust_7="13000.00000" pt_clust_8="13000.00000" pt_clust_9="13000.00000"></scales>
<clustering>
<clus scale="   80.144">  5  6 -1 -1</clus>
<clus scale="   97.322">  7  8 -1 -1</clus>
<clus scale="  159.405">  2  7  1 -1</clus>
<clus scale="  177.295">  5  9 -1 -1</clus>
<clus scale="  882.327">  1  5  2 -1</clus>
</clustering>
</event>
<event>
 9    1  0.4516508E-005  0.1542027E+03  0.7546771E-02  0.1207555E+00
          1   -1    0    0  502    0 -0.00000000000E+00  0.00000000000E+00  0.10720456289E+03  0.10720456289E+03  0.00000000000E+00 0. -1.
         21   -1    0    0  501  502  0.00000000000E+00 -0.00000000000E+00 -0.20561683190E+03  0.20561683190E+03  0.00000000000E+00 0. -1.
         23    2    1    2    0    0  0.75210300972E+02  0.89601706659E+01 -0.10520657564E+03  0.15846909794E+03  0.91143608736E+02 0.  0.
        -24    2    1    2    0    0 -0.88120721003E+01  0.16253139148E+01 -0.65495065620E+01  0.85804250696E+02  0.85083365832E+02 0.  0.
         11    1    4    4    0    0 -0.30528278632E+02 -0.29469081228E+02  0.11266155087E+02  0.43901352999E+02  0.00000000000E+00 0. -1.
        -12    1    4    4    0    0  0.21716206532E+02  0.31094395143E+02 -0.17815661649E+02  0.41902897698E+02  0.00000000000E+00 0.  1.
        -13    1    3    3    0    0  0.81433014085E+02 -0.23931025562E+02 -0.71724037428E+02  0.11112320780E+03  0.00000000000E+00 0. -1.
         13    1    3    3    0    0 -0.62227131130E+01  0.32891196228E+02 -0.33482538215E+02  0.47345890139E+02  0.00000000000E+00 0.  1.
          2    1    1    2  501    0 -0.66398228872E+02 -0.10585484581E+02  0.13343813197E+02  0.68548046156E+02  0.00000000000E+00 0. -1.
<scales pt_clust_5="13000.00000" pt_clust_6="13000.00000" pt_clust_7="13000.00000" pt_clust_8="13000.00000" pt_clust_9="13000.00000"></scales>
<clustering>
<clus scale="   85.083">  5  6 -1 -1</clus>
<clus scale="   67.237">  5  9 -1 -1</clus>
<clus scale="   91.144">  7  8 -1 -1</clus>
<clus scale="  118.508">  1  7  2 -1</clus>
<clus scale="  154.203">  2  5  1 -1</clus>
</clustering>
</event>
<event>
 9    1  0.4516508E-005  0.1641403E+03  0.7546771E-02  0.1208904E+00
         -2   -1    0    0    0  501 -0.00000000000E+00  0.00000000000E+00  0.44152373992E+03  0.44152373992E+03  0.00000000000E+00 0.  1.
         21   -1    0    0  501  502  0.00000000000E+00 -0.00000000000E+00 -0.41711970876E+02  0.41711970876E+02  0.00000000000E+00 0.  1.
         23    2    1    2    0    0 -0.35382207700E+01 -0.23575104748E+02  0.21974474779E+03  0.23958400158E+03  0.92436113417E+02 0.  0.
        -24    2    1    2    0    0  0.31815482542E+02 -0.30341661963E+02  0.14166930161E+03  0.17167250291E+03  0.86419996863E+02 0.  0.
         11    1    4    4    0    0  0.13846473624E+02  0.28224444319E+02  0.73952606439E+02  0.80357526642E+02  0.00000000000E+00 0. -1.
        -12    1    4    4    0    0  0.17969008918E+02 -0.58566106281E+02  0.67716695168E+02  0.91314976268E+02  0.00000000000E+00 0.  1.
        -11    1    3    3    0    0 -0.42286113403E+02  0.10402514203E+02  0.90093274941E+02  0.10006560787E+03  0.00000000000E+00 0. -1.
         11    1    3    3    0    0  0.38747892633E+02 -0.33977618950E+02  0.12965147285E+03  0.13951839371E+03  0.00000000000E+00 0.  1.
         -1    1    1    2    0  502 -0.28277261772E+02  0.53916766711E+02  0.38397719650E+02  0.71979206304E+02  0.00000000000E+00 0.  1.
<scales pt_clust_5="13000.00000" pt_clust_6="13000.00000" pt_clust_7="13000.00000" pt_clust_8="13000.00000" pt_clust_9="13000.00000"></scales>
<clustering>
<clus scale="   86.420">  5  6 -1 -1</clus>
<clus scale="   60.882">  5  9 -1 -1</clus>
<clus scale="   92.436">  7  8 -1 -1</clus>
<clus scale="   95.461">  1  7  2 -1</clus>
<clus scale="  164.140">  2  5  1 -1</clus>
</clustering>
</event>
<event>
 9    1  0.4516508E-005  0.2707073E+03  0.7546771E-02  0.1131348E+00
          1   -1    0    0  502    0 -0.00000000000E+00  0.00000000000E+00  0.97149146713E+03  0.97149146713E+03  0.00000000000E+00 0. -1.
         21   -1    0    0  501  502  0.00000000000E+00 -0.00000000000E+00 -0.46876139670E+02  0.46876139670E+02  0.00000000000E+00 0.  1.
         23    2    1    2    0    0  0.82927629278E+02  0.53241801869E+01  0.13871679138E+03  0.18715226347E+03  0.94224640723E+02 0.  0.
        -24    2    1    2    0    0 -0.16779281211E+02 -0.10871364004E+03  0.53098209080E+03  0.54828888921E+03  0.81108109816E+02 0.  0.
         11    1    4    4    0    0 -0.33829703642E+02 -0.99212122471E+02  0.50515375159E+03  0.51591453443E+03  0.00000000000E+00 0. -1.
        -12    1    4    4    0    0  0.17050422431E+02 -0.95015175733E+01  0.25828339210E+02  0.32374354783E+02  0.00000000000E+00 0.  1.
        -13    1    3    3    0    0  0.38843039467E+02 -0.15318799332E+02  0.17487229723E+01  0.41791211517E+02  0.00000000000E+00 0.  1.
         13    1    3    3    0    0  0.44084589811E+02  0.20642979519E+02  0.13696806840E+03  0.14536105195E+03  0.00000000000E+00 0. -1.
          2    1    1    2  501    0 -0.66148348067E+02  0.10338945986E+03  0.25491644529E+03  0.28292645412E+03  0.00000000000E+00 0. -1.
<scales pt_clust_5="13000.00000" pt_clust_6="13000.00000" pt_clust_7="13000.00000" pt_clust_8="13000.00000" pt_clust_9="13000.00000"></scales>
<clustering>
<clus scale="   81.108">  5  6 -1 -1</clus>
<clus scale="   94.225">  7  8 -1 -1</clus>
<clus scale="  122.740">  5  9 -1 -1</clus>
<clus scale="  125.633">  1  7  2 -1</clus>
<clus scale="  270.707">  2  5  1 -1</clus>
</clustering>
</event>
<event>
 9    1  0.4516508E-005  0.1332551E+03  0.7546771E-02  0.1244837E+00
         -2   -1    0    0    0  501 -0.00000000000E+00  0.00000000000E+00  0.34574513557E+03  0.34574513557E+03  0.00000000000E+00 0.  1.
         21   -1    0    0  501  502  0.00000000000E+00 -0.00000000000E+00 -0.56234791784E+02  0.56234791784E+02  0.00000000000E+00 0.  1.
         23    2    1    2    0    0  0.82455981085E+00 -0.35168667908E+02  0.24857294507E+03  0.26257833008E+03  0.76950343145E+02 0.  0.
        -24    2    1    2    0    0 -0.32082628711E+02  0.24219599595E+02  0.40423022446E+01  0.89821388394E+02  0.80222550047E+02 0.  0.
         11    1    4    4    0    0  0.26308167728E+02 -0.47207718721E+00  0.29914177605E+00  0.26314103289E+02  0.00000000000E+00 0. -1.
        -12    1    4    4    0    0 -0.58390796439E+02  0.24691676782E+02  0.37431604686E+01  0.63507285105E+02  0.00000000000E+00 0.  1.
        -11    1    3    3    0    0 -0.21950006986E+01  0.23817566042E+02  0.50338346642E+02  0.55731890537E+02  0.00000000000E+00 0.  1.
         11    1    3    3    0    0  0.30195605094E+01 -0.58986233949E+02  0.19823459842E+03  0.20684643955E+03  0.00000000000E+00 0. -1.
         -1    1    1    2    0  502  0.31258068900E+02  0.10949068312E+02  0.36895096480E+02  0.49580208879E+02  0.00000000000E+00 0.  1.
<scales pt_clust_5="13000.00000" pt_clust_6="13000.00000" pt_clust_7="13000.00000" pt_clust_8="13000.00000" pt_clust_9="13000.00000"></scales>
<clustering>
<clus scale="   76.950">  7  8 -1 -1</clus>
<clus scale="   80.223">  5  6 -1 -1</clus>
<clus scale="   33.120">  5  9 -1 -1</clus>
<clus scale="   84.610">  1  7  2 -1</clus>
<clus scale="  133.255">  2  5  1 -1</clus>
</clustering>
</event>
<event>
 9    1  0.4516508E-005  0.1882776E+03  0.7546771E-02  0.1187024E+00
         -2   -1    0    0    0  501 -0.00000000000E+00  0.00000000000E+00  0.16551942943E+03  0.16551942943E+03  0.00000000000E+00 0.  1.
         21   -1    0    0  501  502  0.00000000000E+00 -0.00000000000E+00 -0.13770068601E+03  0.13770068601E+03  0.00000000000E+00 0. -1.
         23    2    1    2    0    0  0.54683920163E+02 -0.92942561248E+01  0.50232294550E+02  0.11361314445E+03  0.85486541948E+02 0.  0.
        -24    2    1    2    0    0  0.30971981003E+02 -0.10642960100E+02 -0.46754889533E+02  0.98354975120E+02  0.80094601745E+02 0.  0.
         11    1    4    4    0    0  0.22170124338E+02 -0.40291917838E+02 -0.49179958175E+02  0.67332171674E+02  0.00000000000E+00 0. -1.
        -12    1    4    4    0    0  0.88018566647E+01  0.29648957738E+02  0.24250686418E+01  0.31022803446E+02  0.00000000000E+00 0.  1.
        -13    1    3    3    0    0 -0.16136450573E+02 -0.23090937983E+02  0.54477108979E+01  0.28692403316E+02  0.00000000000E+00 0.  1.
         13    1    3    3    0    0  0.70820370736E+02  0.13796681858E+02  0.44784583652E+02  0.84920741132E+02  0.00000000000E+00 0. -1.
         -1    1    1    2    0  502 -0.85655901166E+02  0.19937216225E+02  0.24341338407E+02  0.91251995873E+02  0.00000000000E+00 0.  1.
<scales pt_clust_5="13000.00000" pt_clust_6="13000.00000" pt_clust_7="13000.00000" pt_clust_8="13000.00000" pt_clust_9="13000.00000"></scales>
<clustering>
<clus scale="   80.095">  5  6 -1 -1</clus>
<clus scale="   85.487">  7  8 -1 -1</clus>
<clus scale="   87.946">  5  9 -1 -1</clus>
<clus scale="  101.905">  1  7  2 -1</clus>
<clus scale="  188.278">  2  5  1 -1</clus>
</clustering>
</event>
<event>
 9    1  0.4516508E-005  0.3925234E+03  0.7546771E-02  0.1093439E+00
          1   -1    0    0  502    0 -0.00000000000E+00  0.00000000000E+00  0.14727239655E+03  0.14727239655E+03  0.00000000000E+00 0. -1.
         21   -1    0    0  501  502  0.00000000000E+00 -0.00000000000E+00 -0.57823926576E+03  0.57823926576E+03  0.00000000000E+00 0. -1.
         23    2    1    2    0    0  0.54797619134E+02 -0.11055657624E+02  0.37675816895E+02  0.11420113580E+03  0.92181481931E+02 0.  0.
        -24    2    1    2    0    0  0.15124720814E+03  0.31816766356E+02 -0.28698766089E+03  0.33583994247E+03  0.80861145561E+02 0.  0.
         11    1    4    4    0    0  0.11716903699E+03  0.56280258984E+02 -0.23932065524E+03  0.27234248072E+03  0.00000000000E+00 0. -1.
        -12    1    4    4    0    0  0.34078171151E+02 -0.24463492628E+02 -0.47667005646E+02  0.63497461743E+02  0.00000000000E+00 0.  1.
        -13    1    3    3    0    0  0.58640098326E+02  0.18957563393E+02  0.52082290001E+02  0.80688383757E+02  0.00000000000E+00 0. -1.
         13    1    3    3    0    0 -0.38424791919E+01 -0.30013221017E+02 -0.14406473106E+02  0.33512752043E+02  0.00000000000E+00 0.  1.
          2    1    1    2  501    0 -0.20604482727E+03 -0.20761108732E+02 -0.18165502522E+03  0.27547058403E+03  0.00000000000E+00 0. -1.
<scales pt_clust_5="13000.00000" pt_clust_6="13000.00000" pt_clust_7="13000.00000" pt_clust_8="13000.00000" pt_clust_9="13000.00000"></scales>
<clustering>
<clus scale="   80.861">  5  6 -1 -1</clus>
<clus scale="   92.181">  7  8 -1 -1</clus>
<clus scale="  107.807">  1  7  2 -1</clus>
<clus scale="  172.306">  5  9 -1 -1</clus>
<clus scale="  392.523">  2  5  1 -1</clus>
</clustering>
</event>
<event>
 9    1  0.4516508E-005  0.2336128E+03  0.7546771E-02  0.1135537E+00
         -4   -1    0    0    0  501 -0.00000000000E+00  0.00000000000E+00  0.97526508481E+03  0.97526508481E+03  0.00000000000E+00 0.  1.
         21   -1    0    0  501  502  0.00000000000E+00 -0.00000000000E+00 -0.44869847497E+02  0.44869847497E+02  0.00000000000E+00 0.  1.
         23    2    1    2    0    0 -0.13705032766E+03 -0.64308108427E+02  0.50295945645E+03  0.53302479588E+03  0.90713246391E+02 0.  0.
        -24    2    1    2    0    0  0.54225607483E+02  0.95119002321E+02  0.19074980106E+03  0.23446513155E+03  0.81242662428E+02 0.  0.
         11    1    4    4    0    0  0.83861024680E+01  0.48461252328E+02  0.14890602291E+03  0.15681780304E+03  0.00000000000E+00 0. -1.
        -12    1    4    4    0    0  0.45839505015E+02  0.46657749993E+02  0.41843778149E+02  0.77647328507E+02  0.00000000000E+00 0.  1.
        -13    1    3    3    0    0 -0.56349361180E+02  0.30587326202E+01  0.29108490505E+03  0.29650468512E+03  0.00000000000E+00 0.  1.
         13    1    3    3    0    0 -0.80700966476E+02 -0.67366841047E+02  0.21187455140E+03  0.23652011076E+03  0.00000000000E+00 0. -1.
         -3    1    1    2    0  502  0.82824720173E+02 -0.30810893895E+02  0.23668597980E+03  0.25264500488E+03  0.00000000000E+00 0.  1.
<scales pt_clust_5="13000.00000" pt_clust_6="13000.00000" pt_clust_7="13000.00000" pt_clust_8="13000.00000" pt_clust_9="13000.00000"></scales>
<clustering>
<clus scale="   81.243">  5  6 -1 -1</clus>
<clus scale="   88.370">  5  9 -1 -1</clus>
<clus scale="   90.713">  7  8 -1 -1</clus>
<clus scale="  176.486">  1  7  2 -1</clus>
<clus scale="  233.613">  2  5  1 -1</clus>
</clustering>
</event>
<event>
 9    1  0.4516508E-005  0.1656030E+03  0.7546771E-02  0.1197350E+00
          1   -1    0    0  502    0 -0.00000000000E+00  0.00000000000E+00  0.15603765912E+03  0.15603765912E+03  0.00000000000E+00 0. -1.
         21   -1    0    0  501  502  0.00000000000E+00 -0.00000000000E+00 -0.23307202863E+03  0.23307202863E+03  0.00000000000E+00 0. -1.
         23    2    1    2    0    0  0.93258134071E+01  0.59003794550E+02  0.93363770066E+02  0.15149679084E+03  0.10327664551E+03 0.  0.
        -24    2    1    2    0    0  0.45087190717E+02 -0.72404556799E+01 -0.86016740009E+02  0.12465078440E+03  0.77805266681E+02 0.  0.
         11    1    4    4    0    0  0.33038558547E+02  0.95046216201E+01 -0.95827363431E+02  0.10180750348E+03  0.00000000000E+00 0. -1.
        -12    1    4    4    0    0  0.12048632171E+02 -0.16745077300E+02  0.98106234223E+01  0.22843280914E+02  0.00000000000E+00 0.  1.
        -11    1    3    3    0    0 -0.29257227191E+02  0.36841444919E+02 -0.11214840003E+01  0.47058847553E+02  0.00000000000E+00 0. -1.
         11    1    3    3    0    0  0.38583040599E+02  0.22162349631E+02  0.94485254066E+02  0.10443794329E+03  0.00000000000E+00 0.  1.
          2    1    1    2  501    0 -0.54413004125E+02 -0.51763338870E+02 -0.84381399574E+02  0.11296211251E+03  0.00000000000E+00 0. -1.
<scales pt_clust_5="13000.00000" pt_clust_6="13000.00000" pt_clust_7="13000.00000" pt_clust_8="13000.00000" pt_clust_9="13000.00000"></scales>
<clustering>
<clus scale="   77.805">  5  6 -1 -1</clus>
<clus scale="   75.101">  5  9 -1 -1</clus>
<clus scale="  103.277">  7  8 -1 -1</clus>
<clus scale="  119.308">  1  7  2 -1</clus>
<clus scale="  165.603">  2  5  1 -1</clus>
</clustering>
</event>
<event>
 9    1  0.4516508E-005  0.3856464E+03  0.7546771E-02  0.1095538E+00
         21   -1    0    0  501  502  0.00000000000E+00  0.00000000000E+00  0.83848416070E+02  0.83848416070E+02  0.00000000000E+00 0.  1.
          1   -1    0    0  502    0 -0.00000000000E+00 -0.00000000000E+00 -0.74517107819E+03  0.74517107819E+03  0.00000000000E+00 0. -1.
         23    2    1    2    0    0  0.46114107458E+02 -0.29239933453E+02 -0.93048540365E+02  0.14224544513E+03  0.92705184222E+02 0.  0.
        -24    2    1    2    0    0  0.14285963516E+03  0.50115412174E+02 -0.15185984037E+03  0.22901022929E+03  0.80398035474E+02 0.  0.
         13    1    4    4    0    0 -0.19528548990E+01  0.22002787354E+02 -0.96377857593E+01  0.24100274022E+02  0.00000000000E+00 0. -1.
        -14    1    4    4    0    0  0.14481249006E+03  0.28112624821E+02 -0.14222205461E+03  0.20490995527E+03  0.00000000000E+00 0.  1.
        -11    1    3    3    0    0  0.36542505748E+02  0.26772991196E+02 -0.19543409460E+02  0.49336524374E+02  0.00000000000E+00 0.  1.
         11    1    3    3    0    0  0.95716017101E+01 -0.56012924649E+02 -0.73505130905E+02  0.92908920758E+02  0.00000000000E+00 0. -1.
          2    1    1    2  501    0 -0.18897374262E+03 -0.20875478721E+02 -0.41641428138E+03  0.45776381983E+03  0.00000000000E+00 0. -1.
<scales pt_clust_5="13000.00000" pt_clust_6="13000.00000" pt_clust_7="13000.00000" pt_clust_8="13000.00000" pt_clust_9="13000.00000"></scales>
<clustering>
<clus scale="   80.398">  5  6 -1 -1</clus>
<clus scale="   92.705">  7  8 -1 -1</clus>
<clus scale="  107.591">  2  7  1 -1</clus>
<clus scale="  162.185">  5  9 -1 -1</clus>
<clus scale="  385.646">  1  5  2 -1</clus>
</clustering>
</event>
<event>
 9    1  0.4516508E-005  0.2648001E+03  0.7546771E-02  0.1116229E+00
         21   -1    0    0  501  502  0.00000000000E+00  0.00000000000E+00  0.27497462120E+03  0.27497462120E+03  0.00000000000E+00 0. -1.
          1   -1    0    0  502    0 -0.00000000000E+00 -0.00000000000E+00 -0.20424366412E+03  0.20424366412E+03  0.00000000000E+00 0. -1.
         23    2    1    2    0    0  0.26397965407E+02 -0.16576425256E+03 -0.26361707244E+02  0.19717913471E+03  0.10005014518E+03 0.  0.
        -24    2    1    2    0    0  0.38897676784E+02  0.73005613828E+01  0.12707310720E+02  0.91002111761E+02  0.80954191637E+02 0.  0.
         13    1    4    4    0    0 -0.21926794303E+02 -0.13582109312E+02  0.30726560903E+01  0.25974972902E+02  0.00000000000E+00 0. -1.
        -14    1    4    4    0    0  0.60824471087E+02  0.20882670695E+02  0.96346546295E+01  0.65027138860E+02  0.00000000000E+00 0.  1.
        -13    1    3    3    0    0 -0.10726747452E+01 -0.88757914024E+02  0.34521510507E+02  0.95241023833E+02  0.00000000000E+00 0.  1.
         13    1    3    3    0    0  0.27470640153E+02 -0.77006338533E+02 -0.60883217751E+02  0.10193811087E+03  0.00000000000E+00 0. -1.
          2    1    1    2  501    0 -0.65295642192E+02  0.15846369117E+03  0.84385353600E+02  0.19103703885E+03  0.00000000000E+00 0. -1.
<scales pt_clust_5="13000.00000" pt_clust_6="13000.00000" pt_clust_7="13000.00000" pt_clust_8="13000.00000" pt_clust_9="13000.00000"></scales>
<clustering>
<clus scale="   80.954">  5  6 -1 -1</clus>
<clus scale="  100.050">  7  8 -1 -1</clus>
<clus scale="  171.389">  5  9 -1 -1</clus>
<clus scale="  195.409">  2  7  1 -1</clus>
<clus scale="  264.800">  1  5  2 -1</clus>
</clustering>
</event>
<event>
 9    1  0.4516508E-005  0.2942388E+03  0.7546771E-02  0.1127276E+00
         -2   -1    0    0    0  501 -0.00000000000E+00  0.00000000000E+00  0.91576319660E+02  0.91576319660E+02  0.00000000000E+00 0.  1.
         21   -1    0    0  501  502  0.00000000000E+00 -0.00000000000E+00 -0.54610260342E+03  0.54610260342E+03  0.00000000000E+00 0.  1.
         23    2    1    2    0    0  0.44683060023E+01 -0.55821647068E+02 -0.15607319588E+02  0.10926021139E+03  0.92510449831E+02 0.  0.
        -24    2    1    2    0    0  0.60596129755E+02 -0.90264777627E+01 -0.42288446814E+03  0.43516762507E+03  0.82378518250E+02 0.  0.
         13    1    4    4    0    0  0.23586277108E+02  0.92471506896E+01 -0.26579745352E+02  0.36719274593E+02  0.00000000000E+00 0. -1.
        -14    1    4    4    0    0  0.37009852646E+02 -0.18273628452E+02 -0.39630472279E+03  0.39844835047E+03  0.00000000000E+00 0.  1.
        -13    1    3    3    0    0 -0.20941389052E+02  0.59169069227E+01 -0.33676136822E+02  0.40095308382E+02  0.00000000000E+00 0. -1.
         13    1    3    3    0    0  0.25409695054E+02 -0.61738553990E+02  0.18068817234E+02  0.69164903006E+02  0.00000000000E+00 0.  1.
         -1    1    1    2    0  502 -0.65064435757E+02  0.64848124830E+02 -0.16034496034E+02  0.93251086629E+02  0.00000000000E+00 0.  1.
<scales pt_clust_5="13000.00000" pt_clust_6="13000.00000" pt_clust_7="13000.00000" pt_clust_8="13000.00000" pt_clust_9="13000.00000"></scales>
<clustering>
<clus scale="   82.379">  5  6 -1 -1</clus>
<clus scale="   91.862">  5  9 -1 -1</clus>
<clus scale="   92.510">  7  8 -1 -1</clus>
<clus scale="  108.140">  1  7  2 -1</clus>
<clus scale="  294.239">  2  5  1 -1</clus>
</clustering>
</event>
<event>
 9    1  0.4516508E-005  0.2215630E+03  0.7546771E-02  0.1140269E+00
         21   -1    0    0  501  502  0.00000000000E+00  0.00000000000E+00  0.32225056172E+03  0.32225056172E+03  0.00000000000E+00 0. -1.
          3   -1    0    0  502    0 -0.00000000000E+00 -0.00000000000E+00 -0.14395933496E+03  0.14395933496E+03  0.00000000000E+00 0. -1.
         23    2    1    2    0    0  0.13499388550E+03  0.86577035526E+02  0.43585564674E+01  0.18453143326E+03  0.91180703250E+02 0.  0.
        -24    2    1    2    0    0 -0.11220607500E+03 -0.58114990626E+01  0.10535607771E+03  0.17330362669E+03  0.79437189804E+02 0.  0.
         11    1    4    4    0    0 -0.12405184788E+03 -0.57009478055E+01  0.10273644603E+03  0.16117114851E+03  0.00000000000E+00 0. -1.
        -12    1    4    4    0    0  0.11845772876E+02 -0.11055125705E+00  0.26196316735E+01  0.12132478177E+02  0.00000000000E+00 0.  1.
        -13    1    3    3    0    0  0.11772024579E+03  0.10421275721E+03 -0.69592434909E+01  0.15737466792E+03  0.00000000000E+00 0. -1.
         13    1    3    3    0    0  0.17273639704E+02 -0.17635721679E+02  0.11317799958E+02  0.27156765339E+02  0.00000000000E+00 0.  1.
          4    1    1    2  501    0 -0.22787810495E+02 -0.80765536463E+02  0.68576592578E+02  0.10837483673E+03  0.00000000000E+00 0. -1.
<scales pt_clust_5="13000.00000" pt_clust_6="13000.00000" pt_clust_7="13000.00000" pt_clust_8="13000.00000" pt_clust_9="13000.00000"></scales>
<clustering>
<clus scale="   79.437">  5  6 -1 -1</clus>
<clus scale="   83.919">  5  9 -1 -1</clus>
<clus scale="   91.181">  7  8 -1 -1</clus>
<clus scale="  184.480">  2  7  1 -1</clus>
<clus scale="  221.563">  1  5  2 -1</clus>
</clustering>
</event>
<event>
 9    1  0.4516508E-005  0.2475283E+03  0.7546771E-02  0.1119176E+00
          1   -1    0    0  502    0 -0.00000000000E+00  0.00000000000E+00  0.13075806530E+04  0.13075806530E+04  0.00000000000E+00 0. -1.
         21   -1    0    0  501  502  0.00000000000E+00 -0.00000000000E+00 -0.42599556433E+02  0.42599556433E+02  0.00000000000E+00 0.  1.
         23    2    1    2    0    0 -0.92206487073E+02 -0.18198818844E+03  0.66561275364E+03  0.70171074148E+03  0.87953907880E+02 0.  0.
        -24    2    1    2    0    0  0.20951514382E+02  0.50712929005E+02  0.22370281238E+03  0.24419845030E+03  0.81112068997E+02 0.  0.
         11    1    4    4    0    0 -0.17265417421E+02  0.56602860575E+02  0.13035567954E+03  0.14315928769E+03  0.00000000000E+00 0. -1.
        -12    1    4    4    0    0  0.38216931802E+02 -0.58899315706E+01  0.93347132845E+02  0.10103916261E+03  0.00000000000E+00 0.  1.
        -13    1    3    3    0    0 -0.78981972962E+02 -0.59302418503E+02  0.29433795376E+03  0.31046700294E+03  0.00000000000E+00 0.  1.
         13    1    3    3    0    0 -0.13224514111E+02 -0.12268576994E+03  0.37127479988E+03  0.39124373854E+03  0.00000000000E+00 0. -1.
          2    1    1    2  501    0  0.71254972691E+02  0.13127525944E+03  0.37566553052E+03  0.40427101762E+03  0.00000000000E+00 0. -1.
<scales pt_clust_5="13000.00000" pt_clust_6="13000.00000" pt_clust_7="13000.00000" pt_clust_8="13000.00000" pt_clust_9="13000.00000"></scales>
<clustering>
<clus scale="   81.112">  5  6 -1 -1</clus>
<clus scale="   87.954">  7  8 -1 -1</clus>
<clus scale="  149.367">  5  9 -1 -1</clus>
<clus scale="  222.166">  1  7  2 -1</clus>
<clus scale="  247.528">  2  5  1 -1</clus>
</clustering>
</event>
<event>
 9    1  0.4516508E-005  0.3353945E+03  0.7546771E-02  0.1089799E+00
         21   -1    0    0  501  502  0.00000000000E+00  0.00000000000E+00  0.11179684120E+04  0.11179684120E+04  0.00000000000E+00 0. -1.
          1   -1    0    0  502    0 -0.00000000000E+00 -0.00000000000E+00 -0.88743910126E+02  0.88743910126E+02  0.00000000000E+00 0. -1.
         23    2    1    2    0    0  0.16469891515E+03  0.23346052297E+02  0.92021362303E+02  0.21130326863E+03  0.92251663423E+02 0.  0.
        -24    2    1    2    0    0  0.79532655862E+01  0.84552363616E+02  0.39155736490E+03  0.41301729954E+03  0.10026845507E+03 0.  0.
         13    1    4    4    0    0  0.13448188311E+02  0.10241276459E+03  0.37155030556E+03  0.38564084027E+03  0.00000000000E+00 0. -1.
        -14    1    4    4    0    0 -0.54949227251E+01 -0.17860400973E+02  0.20007059335E+02  0.27376459265E+02  0.00000000000E+00 0.  1.
        -11    1    3    3    0    0  0.11639726964E+03 -0.26351003043E+02  0.44953988848E+02  0.12752866680E+03  0.00000000000E+00 0. -1.
         11    1    3    3    0    0  0.48301645503E+02  0.49697055341E+02  0.47067373455E+02  0.83774601830E+02  0.00000000000E+00 0.  1.
          2    1    1    2  501    0 -0.17265218073E+03 -0.10789841591E+03  0.54564577468E+03  0.58239175397E+03  0.00000000000E+00 0. -1.
<scales pt_clust_5="13000.00000" pt_clust_6="13000.00000" pt_clust_7="13000.00000" pt_clust_8="13000.00000" pt_clust_9="13000.00000"></scales>
<clustering>
<clus scale="   92.252">  7  8 -1 -1</clus>
<clus scale="  100.268">  5  6 -1 -1</clus>
<clus scale="  190.213">  2  7  1 -1</clus>
<clus scale="  115.738">  5  9 -1 -1</clus>
<clus scale="  335.394">  1  5  2 -1</clus>
</clustering>
</event>
<event>
 9    1  0.4516508E-005  0.3134403E+03  0.7546771E-02  0.1119818E+00
          3   -1    0    0  502    0 -0.00000000000E+00  0.00000000000E+00  0.63883945636E+03  0.63883945636E+03  0.00000000000E+00 0. -1.
         21   -1    0    0  501  502  0.00000000000E+00 -0.00000000000E+00 -0.63018755105E+03  0.63018755105E+03  0.00000000000E+00 0. -1.
         23    2    1    2    0    0  0.32587327161E+02  0.44008153167E+02  0.59472948468E+03  0.60439798144E+03  0.92709808487E+02 0.  0.
        -24    2    1    2    0    0 -0.65628719688E+02  0.33902186282E+02 -0.48786261629E+02  0.12071385360E+03  0.82068556976E+02 0.  0.
         13    1    4    4    0    0 -0.83560825111E+02  0.37843172951E+02 -0.37093853449E+02  0.98946809933E+02  0.00000000000E+00 0. -1.
        -14    1    4    4    0    0  0.17932105424E+02 -0.39409866685E+01 -0.11692408180E+02  0.21767043665E+02  0.00000000000E+00 0.  1.
        -13    1    3    3    0    0 -0.26934099261E+02 -0.85606991042E+01  0.15680227071E+03  0.15932885292E+03  0.00000000000E+00 0.  1.
         13    1    3    3    0    0  0.59521426422E+02  0.52568852271E+02  0.43792721396E+03  0.44506912852E+03  0.00000000000E+00 0. -1.
          4    1    1    2  501    0  0.33041392527E+02 -0.77910339449E+02 -0.53729131774E+03  0.54391517237E+03  0.00000000000E+00 0. -1.
<scales pt_clust_5="13000.00000" pt_clust_6="13000.00000" pt_clust_7="13000.00000" pt_clust_8="13000.00000" pt_clust_9="13000.00000"></scales>
<clustering>
<clus scale="   82.069">  5  6 -1 -1</clus>
<clus scale="   84.627">  5  9 -1 -1</clus>
<clus scale="   92.710">  7  8 -1 -1</clus>
<clus scale="  107.674">  1  7  2 -1</clus>
<clus scale="  313.440">  2  5  1 -1</clus>
</clustering>
</event>
<event>
 9    1  0.4516508E-005  0.1316454E+03  0.7546771E-02  0.1238547E+00
          1   -1    0    0  502    0 -0.00000000000E+00  0.00000000000E+00  0.35764979603E+02  0.35764979603E+02  0.00000000000E+00 0. -1.
         21   -1    0    0  501  502  0.00000000000E+00 -0.00000000000E+00 -0.52491881974E+03  0.52491881974E+03  0.00000000000E+00 0. -1.
         23    2    1    2    0    0 -0.20984516688E+02  0.34655872530E+02 -0.36976770459E+03  0.38296618821E+03  0.91069020592E+02 0.  0.
        -24    2    1    2    0    0  0.34810284279E+02 -0.17032632555E+01 -0.52729714910E+02  0.10208623722E+03  0.80165578641E+02 0.  0.
         11    1    4    4    0    0  0.57106343052E+02 -0.94066904643E+01 -0.53026866768E+02  0.78495024310E+02  0.00000000000E+00 0. -1.
        -12    1    4    4    0    0 -0.22296058772E+02  0.77034272088E+01  0.29715185812E+00  0.23591212914E+02  0.00000000000E+00 0.  1.
        -13    1    3    3    0    0 -0.38161223993E+02 -0.18547610024E+02 -0.19118846471E+03  0.19584004160E+03  0.00000000000E+00 0.  1.
         13    1    3    3    0    0  0.17176707305E+02  0.53203482554E+02 -0.17857923988E+03  0.18712614661E+03  0.00000000000E+00 0. -1.
          2    1    1    2  501    0 -0.13825767591E+02 -0.32952609274E+02 -0.66656420637E+02  0.75631373911E+02  0.00000000000E+00 0. -1.
<scales pt_clust_5="13000.00000" pt_clust_6="13000.00000" pt_clust_7="13000.00000" pt_clust_8="13000.00000" pt_clust_9="13000.00000"></scales>
<clustering>
<clus scale="   80.166">  5  6 -1 -1</clus>
<clus scale="   35.736">  5  9 -1 -1</clus>
<clus scale="   91.069">  7  8 -1 -1</clus>
<clus scale="   99.674">  1  7  2 -1</clus>
<clus scale="  131.645">  2  5  1 -1</clus>
</clustering>
</event>
<event>
 9    1  0.4516508E-005  0.1662034E+03  0.7546771E-02  0.1200712E+00
         21   -1    0    0  501  502  0.00000000000E+00  0.00000000000E+00  0.14596764103E+03  0.14596764103E+03  0.00000000000E+00 0. -1.
          1   -1    0    0  502    0 -0.00000000000E+00 -0.00000000000E+00 -0.47508074463E+03  0.47508074463E+03  0.00000000000E+00 0. -1.
         23    2    1    2    0    0 -0.11410940269E+02 -0.58581230643E+02 -0.41828822623E+03  0.43243298596E+03  0.92039540422E+02 0.  0.
        -24    2    1    2    0    0 -0.16514960398E+02 -0.16953919576E+02  0.60065414802E+02  0.10298368865E+03  0.80234698024E+02 0.  0.
         13    1    4    4    0    0 -0.42460810961E+02 -0.47812054018E+01  0.60802216585E+02  0.74314802928E+02  0.00000000000E+00 0. -1.
        -14    1    4    4    0    0  0.25945850562E+02 -0.12172714174E+02 -0.73680178318E+00  0.28668885724E+02  0.00000000000E+00 0.  1.
        -13    1    3    3    0    0  0.14328405130E+02  0.20862368444E+02 -0.75927393803E+02  0.80034434716E+02  0.00000000000E+00 0.  1.
         13    1    3    3    0    0 -0.25739345399E+02 -0.79443599087E+02 -0.34236083243E+03  0.35239855124E+03  0.00000000000E+00 0. -1.
          2    1    1    2  501    0  0.27925900667E+02  0.75535150219E+02  0.29109707826E+02  0.85631711044E+02  0.00000000000E+00 0. -1.
<scales pt_clust_5="13000.00000" pt_clust_6="13000.00000" pt_clust_7="13000.00000" pt_clust_8="13000.00000" pt_clust_9="13000.00000"></scales>
<clustering>
<clus scale="   80.235">  5  6 -1 -1</clus>
<clus scale="   80.532">  5  9 -1 -1</clus>
<clus scale="   92.040">  7  8 -1 -1</clus>
<clus scale="  109.696">  2  7  1 -1</clus>
<clus scale="  166.203">  1  5  2 -1</clus>
</clustering>
</event>
<event>
 9    1  0.4516508E-005  0.3320187E+03  0.7546771E-02  0.1095355E+00
          1   -1    0    0  502    0 -0.00000000000E+00  0.00000000000E+00  0.49355826224E+03  0.49355826224E+03  0.00000000000E+00 0. -1.
         21   -1    0    0  501  502  0.00000000000E+00 -0.00000000000E+00 -0.30957569548E+03  0.30957569548E+03  0.00000000000E+00 0. -1.
         23    2    1    2    0    0  0.13679143602E+03 -0.36901231101E+02  0.38106680445E+03  0.41702695401E+03  0.92876116919E+02 0.  0.
        -24    2    1    2    0    0 -0.24700412522E+02 -0.80065199552E+02  0.16605821974E+02  0.11794849638E+03  0.81336018574E+02 0.  0.
         11    1    4    4    0    0 -0.40302316418E+02 -0.11136458033E+02  0.21670803783E+02  0.47094810147E+02  0.00000000000E+00 0. -1.
        -12    1    4    4    0    0  0.15601903896E+02 -0.68928741518E+02 -0.50649818094E+01  0.70853686236E+02  0.00000000000E+00 0.  1.
        -11    1    3    3    0    0  0.44672227079E+02 -0.39851171943E+02  0.24823591878E+03  0.25535229615E+03  0.00000000000E+00 0.  1.
         11    1    3    3    0    0  0.92119208936E+02  0.29499408416E+01  0.13283088567E+03  0.16167465786E+03  0.00000000000E+00 0. -1.
          2    1    1    2  501    0 -0.11209102349E+03  0.11696643065E+03 -0.21369005967E+03  0.26815850732E+03  0.00000000000E+00 0. -1.
<scales pt_clust_5="13000.00000" pt_clust_6="13000.00000" pt_clust_7="13000.00000" pt_clust_8="13000.00000" pt_clust_9="13000.00000"></scales>
<clustering>
<clus scale="   81.336">  5  6 -1 -1</clus>
<clus scale="   92.876">  7  8 -1 -1</clus>
<clus scale="  162.005">  5  9 -1 -1</clus>
<clus scale="  169.409">  1  7  2 -1</clus>
<clus scale="  332.019">  2  5  1 -1</clus>
</clustering>
</event>
<event>
 9    1  0.4516508E-005  0.1723755E+03  0.7546771E-02  0.1189083E+00
         21   -1    0    0  501  502  0.00000000000E+00  0.00000000000E+00  0.50824677088E+02  0.50824677088E+02  0.00000000000E+00 0. -1.
          3   -1    0    0  502    0 -0.00000000000E+00 -0.00000000000E+00 -0.44230092719E+03  0.44230092719E+03  0.00000000000E+00 0. -1.
         23    2    1    2    0    0  0.80792518722E+02  0.35520143847E+02 -0.15037784894E+03  0.19674448414E+03  0.91136067969E+02 0.  0.
        -24    2    1    2    0    0 -0.45113657508E+02 -0.70794638785E+02 -0.12736692639E+03  0.17207456567E+03  0.79625368064E+02 0.  0.
         13    1    4    4    0    0 -0.42703564465E+02 -0.70514789365E+02 -0.53738291304E+02  0.98405964705E+02  0.00000000000E+00 0. -1.
        -14    1    4    4    0    0 -0.24100930429E+01 -0.27984942029E+00 -0.73628635084E+02  0.73668600968E+02  0.00000000000E+00 0.  1.
        -11    1    3    3    0    0  0.16254753732E+02  0.55777550605E+02 -0.82619982232E+02  0.10100204767E+03  0.00000000000E+00 0. -1.
         11    1    3    3    0    0  0.64537764990E+02 -0.20257406758E+02 -0.67757866713E+02  0.95742436463E+02  0.00000000000E+00 0.  1.
          4    1    1    2  501    0 -0.35678861214E+02  0.35274494938E+02 -0.11373147477E+03  0.12430655447E+03  0.00000000000E+00 0. -1.
<scales pt_clust_5="13000.00000" pt_clust_6="13000.00000" pt_clust_7="13000.00000" pt_clust_8="13000.00000" pt_clust_9="13000.00000"></scales>
<clustering>
<clus scale="   79.625">  5  6 -1 -1</clus>
<clus scale="   50.172">  5  9 -1 -1</clus>
<clus scale="   91.136">  7  8 -1 -1</clus>
<clus scale="  126.866">  2  7  1 -1</clus>
<clus scale="  172.376">  1  5  2 -1</clus>
</clustering>
</event>
<event>
 9    1  0.4516508E-005  0.1195956E+03  0.7546771E-02  0.1265692E+00
         21   -1    0    0  501  502  0.00000000000E+00  0.00000000000E+00  0.76143585138E+02  0.76143585138E+02  0.00000000000E+00 0. -1.
          1   -1    0    0  502    0 -0.00000000000E+00 -0.00000000000E+00 -0.14472273456E+03  0.14472273456E+03  0.00000000000E+00 0. -1.
         23    2    1    2    0    0 -0.96999766821E+01  0.10206404155E+02 -0.65193214014E+02  0.10122283652E+03  0.76142282905E+02 0.  0.
        -24    2    1    2    0    0 -0.23071192426E+02 -0.82684403126E-02 -0.11355760584E+02  0.84408988573E+02  0.80396791386E+02 0.  0.
         11    1    4    4    0    0 -0.46369360906E+02  0.12792516098E+02 -0.25344216858E+02  0.54369986455E+02  0.00000000000E+00 0. -1.
        -12    1    4    4    0    0  0.23298168480E+02 -0.12800784539E+02  0.13988456274E+02  0.30039002118E+02  0.00000000000E+00 0.  1.
        -11    1    3    3    0    0 -0.28411406741E+02 -0.13380637214E+02 -0.63767825586E+02  0.71081538146E+02  0.00000000000E+00 0.  1.
         11    1    3    3    0    0  0.18711430059E+02  0.23587041369E+02 -0.14253884276E+01  0.30141298372E+02  0.00000000000E+00 0. -1.
          2    1    1    2  501    0  0.32771169108E+02 -0.10198135715E+02  0.79698251773E+01  0.35234494606E+02  0.00000000000E+00 0. -1.
<scales pt_clust_5="13000.00000" pt_clust_6="13000.00000" pt_clust_7="13000.00000" pt_clust_8="13000.00000" pt_clust_9="13000.00000"></scales>
<clustering>
<clus scale="   76.142">  7  8 -1 -1</clus>
<clus scale="   77.433">  2  7  1 -1</clus>
<clus scale="   80.397">  5  6 -1 -1</clus>
<clus scale="   31.633">  5  9 -1 -1</clus>
<clus scale="  119.596">  1  5  2 -1</clus>
</clustering>
</event>
<event>
 9    1  0.4516508E-005  0.3229662E+03  0.7546771E-02  0.1123015E+00
          1   -1    0    0  502    0 -0.00000000000E+00  0.00000000000E+00  0.71084476276E+03  0.71084476276E+03  0.00000000000E+00 0. -1.
         21   -1    0    0  501  502  0.00000000000E+00 -0.00000000000E+00 -0.60562264336E+02  0.60562264336E+02  0.00000000000E+00 0.  1.
         23    2    1    2    0    0 -0.14434172193E+01  0.40288394578E+01  0.16733727817E+03  0.19042230211E+03  0.90777604476E+02 0.  0.
        -24    2    1    2    0    0  0.61356789849E+02 -0.20325813829E+02  0.11451917120E+02  0.10542070354E+03  0.82489902177E+02 0.  0.
         11    1    4    4    0    0  0.25680340312E+02 -0.51056790517E+02  0.11681590391E+02  0.58332969155E+02  0.00000000000E+00 0. -1.
        -12    1    4    4    0    0  0.35676449538E+02  0.30730976688E+02 -0.22967327077E+00  0.47087734386E+02  0.00000000000E+00 0.  1.
        -13    1    3    3    0    0  0.46051913213E+01 -0.35817454454E+02  0.13190468653E+03  0.13675870780E+03  0.00000000000E+00 0.  1.
         13    1    3    3    0    0 -0.60486085406E+01  0.39846293912E+02  0.35432591640E+02  0.53663594308E+02  0.00000000000E+00 0. -1.
          2    1    1    2  501    0 -0.59913372630E+02  0.16296974371E+02  0.47149330313E+03  0.47556402145E+03  0.00000000000E+00 0. -1.
<scales pt_clust_5="13000.00000" pt_clust_6="13000.00000" pt_clust_7="13000.00000" pt_clust_8="13000.00000" pt_clust_9="13000.00000"></scales>
<clustering>
<clus scale="   82.490">  5  6 -1 -1</clus>
<clus scale="   62.090">  5  9 -1 -1</clus>
<clus scale="   90.778">  7  8 -1 -1</clus>
<clus scale="   90.878">  1  7  2 -1</clus>
<clus scale="  322.966">  2  5  1 -1</clus>
</clustering>
</event>
<event>
 9    1  0.4516508E-005  0.2509169E+03  0.7546771E-02  0.1136662E+00
         21   -1    0    0  501  502  0.00000000000E+00  0.00000000000E+00  0.83139601978E+02  0.83139601978E+02  0.00000000000E+00 0. -1.
          1   -1    0    0  502    0 -0.00000000000E+00 -0.00000000000E+00 -0.48656605105E+03  0.48656605105E+03  0.00000000000E+00 0. -1.
         23    2    1    2    0    0 -0.95899647457E+02 -0.45055557400E+02 -0.21549035146E+03  0.25621038952E+03  0.89336031303E+02 0.  0.
        -24    2    1    2    0    0 -0.38506764998E+02 -0.20536619188E+01 -0.13539177832E+03  0.16168858466E+03  0.79531605629E+02 0.  0.
         13    1    4    4    0    0 -0.46928059680E+02  0.29519190814E+02 -0.78975191499E+02  0.96492001140E+02  0.00000000000E+00 0. -1.
        -14    1    4    4    0    0  0.84212946820E+01 -0.31572852733E+02 -0.56416586820E+02  0.65196583517E+02  0.00000000000E+00 0.  1.
        -11    1    3    3    0    0  0.73895276330E+01 -0.29349482505E+02 -0.26330430307E+02  0.40115941994E+02  0.00000000000E+00 0.  1.
         11    1    3    3    0    0 -0.10328917509E+03 -0.15706074895E+02 -0.18915992116E+03  0.21609444752E+03  0.00000000000E+00 0. -1.
          2    1    1    2  501    0  0.13440641246E+03  0.47109219319E+02 -0.52544319286E+02  0.15180667885E+03  0.00000000000E+00 0. -1.
<scales pt_clust_5="13000.00000" pt_clust_6="13000.00000" pt_clust_7="13000.00000" pt_clust_8="13000.00000" pt_clust_9="13000.00000"></scales>
<clustering>
<clus scale="   79.532">  5  6 -1 -1</clus>
<clus scale="   89.336">  7  8 -1 -1</clus>
<clus scale="  138.592">  2  7  1 -1</clus>
<clus scale="   99.564">  5  9 -1 -1</clus>
<clus scale="  250.917">  1  5  2 -1</clus>
</clustering>
</event>
<event>
 9    1  0.4516508E-005  0.2981219E+03  0.7546771E-02  0.1093182E+00
         21   -1    0    0  501  502  0.00000000000E+00  0.00000000000E+00  0.25383348912E+03  0.25383348912E+03  0.00000000000E+00 0. -1.
          1   -1    0    0  502    0 -0.00000000000E+00 -0.00000000000E+00 -0.43448472961E+03  0.43448472961E+03  0.00000000000E+00 0. -1.
         23    2    1    2    0    0 -0.85849084071E+02 -0.21380012007E+03  0.11081345244E+03  0.27139095504E+03  0.91065211001E+02 0.  0.
        -24    2    1    2    0    0 -0.51509023322E+01  0.13966927796E+03 -0.93872457606E+02  0.18710326421E+03  0.81618344636E+02 0.  0.
         11    1    4    4    0    0 -0.73569729854E+01  0.15055881101E+03 -0.87619378423E+02  0.17435376709E+03  0.00000000000E+00 0. -1.
        -12    1    4    4    0    0  0.22060706532E+01 -0.10889533044E+02 -0.62530791824E+01  0.12749497124E+02  0.00000000000E+00 0.  1.
        -13    1    3    3    0    0 -0.79905896026E+02 -0.83624370657E+02  0.68281041646E+02  0.13431414012E+03  0.00000000000E+00 0. -1.
         13    1    3    3    0    0 -0.59431880453E+01 -0.13017574942E+03  0.42532410796E+02  0.13707681492E+03  0.00000000000E+00 0.  1.
          2    1    1    2  501    0  0.90999986403E+02  0.74130842112E+02 -0.19759223533E+03  0.22982399949E+03  0.00000000000E+00 0. -1.
<scales pt_clust_5="13000.00000" pt_clust_6="13000.00000" pt_clust_7="13000.00000" pt_clust_8="13000.00000" pt_clust_9="13000.00000"></scales>
<clustering>
<clus scale="   81.618">  5  6 -1 -1</clus>
<clus scale="   91.065">  7  8 -1 -1</clus>
<clus scale="  117.373">  5  9 -1 -1</clus>
<clus scale="  247.737">  2  7  1 -1</clus>
<clus scale="  298.122">  1  5  2 -1</clus>
</clustering>
</event>
<event>
 9    1  0.4516508E-005  0.2658171E+03  0.7546771E-02  0.1140258E+00
         21   -1    0    0  501  502  0.00000000000E+00  0.00000000000E+00  0.28810881179E+03  0.28810881179E+03  0.00000000000E+00 0. -1.
          3   -1    0    0  502    0 -0.00000000000E+00 -0.00000000000E+00 -0.12559266223E+03  0.12559266223E+03  0.00000000000E+00 0. -1.
         23    2    1    2    0    0  0.30000470213E+02 -0.45604017897E+02  0.10216708066E+02  0.10734571763E+03  0.91863852024E+02 0.  0.
        -24    2    1    2    0    0  0.29876387610E+02 -0.25823094485E+02 -0.36476516046E+02  0.95824446056E+02  0.79324381457E+02 0.  0.
         11    1    4    4    0    0  0.14215281465E+02 -0.25056637650E+02  0.21383767179E+02  0.35877218624E+02  0.00000000000E+00 0. -1.
        -12    1    4    4    0    0  0.15661106146E+02 -0.76645683536E+00 -0.57860283225E+02  0.59947227431E+02  0.00000000000E+00 0.  1.
        -11    1    3    3    0    0  0.47992436663E+02  0.93704739518E+01  0.21903166679E+01  0.48947699089E+02  0.00000000000E+00 0.  1.
         11    1    3    3    0    0 -0.17991966450E+02 -0.54974491849E+02  0.80263913983E+01  0.58398018543E+02  0.00000000000E+00 0. -1.
          4    1    1    2  501    0 -0.59876857823E+02  0.71427112383E+02  0.18877595754E+03  0.21053131033E+03  0.00000000000E+00 0. -1.
<scales pt_clust_5="13000.00000" pt_clust_6="13000.00000" pt_clust_7="13000.00000" pt_clust_8="13000.00000" pt_clust_9="13000.00000"></scales>
<clustering>
<clus scale="   79.324">  5  6 -1 -1</clus>
<clus scale="   91.864">  7  8 -1 -1</clus>
<clus scale="   93.205">  5  9 -1 -1</clus>
<clus scale="  106.858">  2  7  1 -1</clus>
<clus scale="  265.817">  1  5  2 -1</clus>
</clustering>
</event>
<event>
 9    1  0.4516508E-005  0.1973081E+03  0.7546771E-02  0.1170470E+00
         -2   -1    0    0    0  501 -0.00000000000E+00  0.00000000000E+00  0.24101317701E+03  0.24101317701E+03  0.00000000000E+00 0.  1.
         21   -1    0    0  501  502  0.00000000000E+00 -0.00000000000E+00 -0.11120738073E+03  0.11120738073E+03  0.00000000000E+00 0.  1.
         23    2    1    2    0    0  0.82180456593E+01 -0.88259470887E+02  0.68101572707E+02  0.14548911809E+03  0.93123513689E+02 0.  0.
        -24    2    1    2    0    0 -0.36695602075E+02  0.47723988675E+02 -0.28286368267E+02  0.10400654901E+03  0.79956846489E+02 0.  0.
         13    1    4    4    0    0  0.22744322296E+02 -0.16644328737E+01 -0.63484568980E+01  0.23672292633E+02  0.00000000000E+00 0. -1.
        -14    1    4    4    0    0 -0.59439924372E+02  0.49388421548E+02 -0.21937911369E+02  0.80334256377E+02  0.00000000000E+00 0.  1.
        -11    1    3    3    0    0 -0.42585675645E+02 -0.41829105859E+02  0.33638622802E+02  0.68518397610E+02  0.00000000000E+00 0. -1.
         11    1    3    3    0    0  0.50803721304E+02 -0.46430365028E+02  0.34462949905E+02  0.76970720480E+02  0.00000000000E+00 0.  1.
         -1    1    1    2    0  502  0.28477556416E+02  0.40535482213E+02  0.89990591840E+02  0.10272489064E+03  0.00000000000E+00 0.  1.
<scales pt_clust_5="13000.00000" pt_clust_6="13000.00000" pt_clust_7="13000.00000" pt_clust_8="13000.00000" pt_clust_9="13000.00000"></scales>
<clustering>
<clus scale="   79.957">  5  6 -1 -1</clus>
<clus scale="   49.539">  5  9 -1 -1</clus>
<clus scale="   93.124">  7  8 -1 -1</clus>
<clus scale="  128.566">  1  7  2 -1</clus>
<clus scale="  197.308">  2  5  1 -1</clus>
</clustering>
</event>
<event>
 9    1  0.4516508E-005  0.6685828E+03  0.7546771E-02  0.1027996E+00
          1   -1    0    0  502    0 -0.00000000000E+00  0.00000000000E+00  0.39960437119E+03  0.39960437119E+03  0.00000000000E+00 0. -1.
         21   -1    0    0  501  502  0.00000000000E+00 -0.00000000000E+00 -0.41546990696E+03  0.41546990696E+03  0.00000000000E+00 0. -1.
         23    2    1    2    0    0  0.49107104966E+02  0.88289227162E+02  0.45947977105E+02  0.14364004361E+03  0.91185251753E+02 0.  0.
        -24    2    1    2    0    0 -0.58680335018E+01  0.13259087388E+03  0.24532603647E+03  0.29065563862E+03  0.81737766274E+02 0.  0.
         11    1    4    4    0    0  0.28246445075E+02  0.10894362030E+03  0.19760505511E+03  0.22740785358E+03  0.00000000000E+00 0. -1.
        -12    1    4    4    0    0 -0.34114478576E+02  0.23647253586E+02  0.47720981359E+02  0.63247785041E+02  0.00000000000E+00 0.  1.
        -11    1    3    3    0    0  0.63426115342E+02  0.56193557765E+02  0.62004773196E+02  0.10500085686E+03  0.00000000000E+00 0. -1.
         11    1    3    3    0    0 -0.14319010376E+02  0.32095669397E+02 -0.16056796091E+02  0.38639186753E+02  0.00000000000E+00 0.  1.
          2    1    1    2  501    0 -0.43239071465E+02 -0.22088010104E+03 -0.30713954934E+03  0.38077859592E+03  0.00000000000E+00 0. -1.
<scales pt_clust_5="13000.00000" pt_clust_6="13000.00000" pt_clust_7="13000.00000" pt_clust_8="13000.00000" pt_clust_9="13000.00000"></scales>
<clustering>
<clus scale="   81.738">  5  6 -1 -1</clus>
<clus scale="   91.185">  7  8 -1 -1</clus>
<clus scale="  136.093">  1  7  2 -1</clus>
<clus scale="  213.500">  5  9 -1 -1</clus>
<clus scale="  668.583">  2  5  1 -1</clus>
</clustering>
</event>
<event>
 9    1  0.4516508E-005  0.2560165E+03  0.7546771E-02  0.1124220E+00
         21   -1    0    0  501  502  0.00000000000E+00  0.00000000000E+00  0.87065870092E+02  0.87065870092E+02  0.00000000000E+00 0. -1.
          1   -1    0    0  502    0 -0.00000000000E+00 -0.00000000000E+00 -0.54362780287E+03  0.54362780287E+03  0.00000000000E+00 0. -1.
         23    2    1    2    0    0  0.14491180788E+03 -0.40049001141E+02 -0.21699742969E+03  0.28007196389E+03  0.93536441607E+02 0.  0.
        -24    2    1    2    0    0 -0.25361637233E+02  0.82020642991E+02 -0.63150371650E+02  0.13342178321E+03  0.80267080901E+02 0.  0.
         13    1    4    4    0    0 -0.45714463248E+02  0.83947789063E+02 -0.43340186365E+02  0.10495434814E+03  0.00000000000E+00 0. -1.
        -14    1    4    4    0    0  0.20352826015E+02 -0.19271460721E+01 -0.19810185285E+02  0.28467435076E+02  0.00000000000E+00 0.  1.
        -13    1    3    3    0    0  0.11302450334E+03 -0.55488725535E+02 -0.20861168251E+03  0.24366446416E+03  0.00000000000E+00 0. -1.
         13    1    3    3    0    0  0.31887304548E+02  0.15439724394E+02 -0.83857471814E+01  0.36407499729E+02  0.00000000000E+00 0.  1.
          2    1    1    2  501    0 -0.11955017065E+03 -0.41971641850E+02 -0.17641413144E+03  0.21719992586E+03  0.00000000000E+00 0. -1.
<scales pt_clust_5="13000.00000" pt_clust_6="13000.00000" pt_clust_7="13000.00000" pt_clust_8="13000.00000" pt_clust_9="13000.00000"></scales>
<clustering>
<clus scale="   80.267">  5  6 -1 -1</clus>
<clus scale="   93.536">  7  8 -1 -1</clus>
<clus scale="  126.704">  5  9 -1 -1</clus>
<clus scale="  177.066">  2  7  1 -1</clus>
<clus scale="  256.016">  1  5  2 -1</clus>
</clustering>
</event>
<event>
 9    1  0.4516508E-005  0.1616886E+03  0.7546771E-02  0.1199934E+00
          1   -1    0    0  502    0 -0.00000000000E+00  0.00000000000E+00  0.10251283897E+03  0.10251283897E+03  0.00000000000E+00 0. -1.
         21   -1    0    0  501  502  0.00000000000E+00 -0.00000000000E+00 -0.19826034287E+03  0.19826034287E+03  0.00000000000E+00 0.  1.
         23    2    1    2    0    0  0.17521889878E+02 -0.76576931564E+02 -0.59848411195E+02  0.13514721125E+03  0.92259922575E+02 0.  0.
        -24    2    1    2    0    0  0.10169448460E+02  0.82726546702E+01  0.91394728718E+01  0.79250297800E+02  0.77622324364E+02 0.  0.
         13    1    4    4    0    0  0.90973604473E+01  0.39561510831E+02 -0.10958548844E+02  0.42047174686E+02  0.00000000000E+00 0. -1.
        -14    1    4    4    0    0  0.10720880129E+01 -0.31288856160E+02  0.20098021715E+02  0.37203123114E+02  0.00000000000E+00 0.  1.
        -11    1    3    3    0    0 -0.70074360535E+01 -0.51222697103E+02  0.13779075874E+02  0.53504502526E+02  0.00000000000E+00 0. -1.
         11    1    3    3    0    0  0.24529325931E+02 -0.25354234461E+02 -0.73627487069E+02  0.81642708724E+02  0.00000000000E+00 0.  1.
          2    1    1    2  501    0 -0.27691338338E+02  0.68304276893E+02 -0.45038565577E+02  0.86375672791E+02  0.00000000000E+00 0. -1.
<scales pt_clust_5="13000.00000" pt_clust_6="13000.00000" pt_clust_7="13000.00000" pt_clust_8="13000.00000" pt_clust_9="13000.00000"></scales>
<clustering>
<clus scale="   77.622">  5  6 -1 -1</clus>
<clus scale="   73.704">  5  9 -1 -1</clus>
<clus scale="   92.260">  7  8 -1 -1</clus>
<clus scale="  121.173">  1  7  2 -1</clus>
<clus scale="  161.689">  2  5  1 -1</clus>
</clustering>
</event>
<event>
 9    1  0.4516508E-005  0.2681976E+03  0.7546771E-02  0.1127964E+00
         21   -1    0    0  501  502  0.00000000000E+00  0.00000000000E+00  0.24248435326E+03  0.24248435326E+03  0.00000000000E+00 0. -1.
          1   -1    0    0  502    0 -0.00000000000E+00 -0.00000000000E+00 -0.76014756952E+03  0.76014756952E+03  0.00000000000E+00 0. -1.
         23    2    1    2    0    0 -0.57003469384E+02  0.84294242778E+02 -0.67650900820E+03  0.69092383061E+03  0.96728416966E+02 0.  0.
        -24    2    1    2    0    0 -0.42049853203E+02  0.42756016939E+02  0.93687821054E+02  0.13792981280E+03  0.81553407699E+02 0.  0.
         13    1    4    4    0    0 -0.52414993780E+02  0.23555279671E+02  0.99895188890E+02  0.11524422561E+03  0.00000000000E+00 0. -1.
        -14    1    4    4    0    0  0.10365140577E+02  0.19200737268E+02 -0.62073678358E+01  0.22685587192E+02  0.00000000000E+00 0.  1.
        -11    1    3    3    0    0 -0.17922409814E+02  0.96721679515E+02 -0.43751594766E+03  0.44843784466E+03  0.00000000000E+00 0. -1.
         11    1    3    3    0    0 -0.39081059570E+02 -0.12427436737E+02 -0.23899306053E+03  0.24248598595E+03  0.00000000000E+00 0.  1.
          2    1    1    2  501    0  0.99053322586E+02 -0.12705025972E+03  0.65157970883E+02  0.17377827937E+03  0.00000000000E+00 0. -1.
<scales pt_clust_5="13000.00000" pt_clust_6="13000.00000" pt_clust_7="13000.00000" pt_clust_8="13000.00000" pt_clust_9="13000.00000"></scales>
<clustering>
<clus scale="   81.553">  5  6 -1 -1</clus>
<clus scale="   96.728">  7  8 -1 -1</clus>
<clus scale="  140.397">  2  7  1 -1</clus>
<clus scale="   89.092">  5  9 -1 -1</clus>
<clus scale="  268.198">  1  5  2 -1</clus>
</clustering>
</event>
<event>
 9    1  0.4516508E-005  0.1898545E+03  0.7546771E-02  0.1170415E+00
         21   -1    0    0  501  502  0.00000000000E+00  0.00000000000E+00  0.30254969546E+02  0.30254969546E+02  0.00000000000E+00 0. -1.
          1   -1    0    0  502    0 -0.00000000000E+00 -0.00000000000E+00 -0.11011571379E+04  0.11011571379E+04  0.00000000000E+00 0. -1.
         23    2    1    2    0    0  0.66653973821E+02  0.93550267681E+02 -0.24918130631E+03  0.28804391816E+03  0.87655978481E+02 0.  0.
        -24    2    1    2    0    0 -0.27241879341E+01 -0.28213060207E+02 -0.24075990896E+03  0.25525969827E+03  0.79929855693E+02 0.  0.
         11    1    4    4    0    0 -0.78929504168E+01  0.27459248312E+02 -0.71170734156E+02  0.76691475305E+02  0.00000000000E+00 0. -1.
        -12    1    4    4    0    0  0.51687624826E+01 -0.55672308519E+02 -0.16958917480E+03  0.17856822296E+03  0.00000000000E+00 0.  1.
        -11    1    3    3    0    0 -0.71023568765E+01  0.28422686610E+02 -0.13113263817E+03  0.13436540247E+03  0.00000000000E+00 0.  1.
         11    1    3    3    0    0  0.73756330697E+02  0.65127581071E+02 -0.11804866814E+03  0.15367851569E+03  0.00000000000E+00 0. -1.
          2    1    1    2  501    0 -0.63929785887E+02 -0.65337207474E+02 -0.58096095309E+03  0.58810849103E+03  0.00000000000E+00 0. -1.
<scales pt_clust_5="13000.00000" pt_clust_6="13000.00000" pt_clust_7="13000.00000" pt_clust_8="13000.00000" pt_clust_9="13000.00000"></scales>
<clustering>
<clus scale="   79.930">  5  6 -1 -1</clus>
<clus scale="   87.656">  7  8 -1 -1</clus>
<clus scale="   91.411">  5  9 -1 -1</clus>
<clus scale="  144.492">  2  7  1 -1</clus>
<clus scale="  189.854">  1  5  2 -1</clus>
</clustering>
</event>
<event>
 9    1  0.4516508E-005  0.2065857E+03  0.7546771E-02  0.1174941E+00
          1   -1    0    0  502    0 -0.00000000000E+00  0.00000000000E+00  0.30947807232E+03  0.30947807232E+03  0.00000000000E+00 0. -1.
         21   -1    0    0  501  502  0.00000000000E+00 -0.00000000000E+00 -0.76690726214E+02  0.76690726214E+02  0.00000000000E+00 0. -1.
         23    2    1    2    0    0  0.25399817005E+02 -0.39614213133E+02  0.85420923106E+02  0.13240804187E+03  0.89558466165E+02 0.  0.
        -24    2    1    2    0    0 -0.23310252485E+02 -0.30513653588E+02  0.15911647023E+03  0.18262463658E+03  0.80989232991E+02 0.  0.
         11    1    4    4    0    0 -0.41953061193E+02 -0.88137681428E+01  0.14404568994E+03  0.15028939631E+03  0.00000000000E+00 0. -1.
        -12    1    4    4    0    0  0.18642808708E+02 -0.21699885446E+02  0.15070780295E+02  0.32335240274E+02  0.00000000000E+00 0.  1.
        -13    1    3    3    0    0  0.20205981885E+02  0.21116924286E+02  0.22773989630E+01  0.29315401094E+02  0.00000000000E+00 0.  1.
         13    1    3    3    0    0  0.51938351195E+01 -0.60731137420E+02  0.83143524143E+02  0.10309264078E+03  0.00000000000E+00 0. -1.
          2    1    1    2  501    0 -0.20895645203E+01  0.70127866722E+02 -0.11750047231E+02  0.71136120085E+02  0.00000000000E+00 0. -1.
<scales pt_clust_5="13000.00000" pt_clust_6="13000.00000" pt_clust_7="13000.00000" pt_clust_8="13000.00000" pt_clust_9="13000.00000"></scales>
<clustering>
<clus scale="   80.989">  5  6 -1 -1</clus>
<clus scale="   70.159">  5  9 -1 -1</clus>
<clus scale="   89.558">  7  8 -1 -1</clus>
<clus scale="  101.169">  1  7  2 -1</clus>
<clus scale="  206.586">  2  5  1 -1</clus>
</clustering>
</event>
<event>
 9    1  0.4516508E-005  0.2093638E+03  0.7546771E-02  0.1176961E+00
          1   -1    0    0  502    0 -0.00000000000E+00  0.00000000000E+00  0.55231498355E+02  0.55231498355E+02  0.00000000000E+00 0. -1.
         21   -1    0    0  501  502  0.00000000000E+00 -0.00000000000E+00 -0.65342596207E+03  0.65342596207E+03  0.00000000000E+00 0. -1.
         23    2    1    2    0    0  0.58319676791E+01 -0.16339009743E+02 -0.21741633656E+02  0.95362206900E+02  0.91215551220E+02 0.  0.
        -24    2    1    2    0    0  0.56387880715E+02  0.47323042844E+02 -0.17782873177E+03  0.20865653617E+03  0.80594222933E+02 0.  0.
         11    1    4    4    0    0  0.58953730052E+02  0.42365245817E+02 -0.18548227706E+03  0.19918341157E+03  0.00000000000E+00 0. -1.
        -12    1    4    4    0    0 -0.25658493360E+01  0.49577970268E+01  0.76535452950E+01  0.94731246037E+01  0.00000000000E+00 0.  1.
        -11    1    3    3    0    0  0.41727947703E+02 -0.27633169918E+02  0.33065441362E+01  0.50157222145E+02  0.00000000000E+00 0. -1.
         11    1    3    3    0    0 -0.35895980024E+02  0.11294160175E+02 -0.25048177793E+02  0.45204984754E+02  0.00000000000E+00 0.  1.
          2    1    1    2  501    0 -0.62219848395E+02 -0.30984033101E+02 -0.39862409829E+03  0.40463871735E+03  0.00000000000E+00 0. -1.
<scales pt_clust_5="13000.00000" pt_clust_6="13000.00000" pt_clust_7="13000.00000" pt_clust_8="13000.00000" pt_clust_9="13000.00000"></scales>
<clustering>
<clus scale="   80.594">  5  6 -1 -1</clus>
<clus scale="   69.508">  5  9 -1 -1</clus>
<clus scale="   91.216">  7  8 -1 -1</clus>
<clus scale="   92.851">  1  7  2 -1</clus>
<clus scale="  209.364">  2  5  1 -1</clus>
</clustering>
</event>
<event>
 9    1  0.4516508E-005  0.1577775E+03  0.7546771E-02  0.1211934E+00
         21   -1    0    0  501  502  0.00000000000E+00  0.00000000000E+00  0.57610407163E+02  0.57610407163E+02  0.00000000000E+00 0. -1.
          3   -1    0    0  502    0 -0.00000000000E+00 -0.00000000000E+00 -0.29533984386E+03  0.29533984386E+03  0.00000000000E+00 0. -1.
         23    2    1    2    0    0  0.43186960596E+02  0.13183249512E+01 -0.11617623783E+03  0.15377970343E+03  0.91018829946E+02 0.  0.
        -24    2    1    2    0    0  0.23773848019E+02  0.19803205117E+02 -0.52262157617E+02  0.10052412181E+03  0.80102454166E+02 0.  0.
         11    1    4    4    0    0  0.21441512333E+02  0.49265202846E+02 -0.21515690650E+02  0.57876796791E+02  0.00000000000E+00 0. -1.
        -12    1    4    4    0    0  0.23323356864E+01 -0.29461997730E+02 -0.30746466967E+02  0.42647325015E+02  0.00000000000E+00 0.  1.
        -13    1    3    3    0    0  0.30955313222E+02 -0.40792571852E+02 -0.36675248659E+02  0.62986817662E+02  0.00000000000E+00 0. -1.
         13    1    3    3    0    0  0.12231647374E+02  0.42110896803E+02 -0.79500989175E+02  0.90792885772E+02  0.00000000000E+00 0.  1.
          4    1    1    2  501    0 -0.66960808615E+02 -0.21121530068E+02 -0.69291041242E+02  0.98646425780E+02  0.00000000000E+00 0. -1.
<scales pt_clust_5="13000.00000" pt_clust_6="13000.00000" pt_clust_7="13000.00000" pt_clust_8="13000.00000" pt_clust_9="13000.00000"></scales>
<clustering>
<clus scale="   80.102">  5  6 -1 -1</clus>
<clus scale="   70.213">  5  9 -1 -1</clus>
<clus scale="   91.019">  7  8 -1 -1</clus>
<clus scale="  100.754">  2  7  1 -1</clus>
<clus scale="  157.777">  1  5  2 -1</clus>
</clustering>
</event>
<event>
 9    1  0.4516508E-005  0.3127110E+03  0.7546771E-02  0.1117727E+00
         21   -1    0    0  501  502  0.00000000000E+00  0.00000000000E+00  0.55233608061E+02  0.55233608061E+02  0.00000000000E+00 0. -1.
          1   -1    0    0  502    0 -0.00000000000E+00 -0.00000000000E+00 -0.83503321312E+03  0.83503321312E+03  0.00000000000E+00 0. -1.
         23    2    1    2    0    0  0.50389702880E+01  0.66787397710E+02 -0.16789874122E+03  0.20309082943E+03  0.92574024337E+02 0.  0.
        -24    2    1    2    0    0 -0.10171615195E+03  0.57108363238E+02 -0.19057157940E+03  0.23749276662E+03  0.80484449453E+02 0.  0.
         11    1    4    4    0    0 -0.10714921518E+03  0.59758950711E+02 -0.19472949350E+03  0.23015573454E+03  0.00000000000E+00 0. -1.
        -12    1    4    4    0    0  0.54330632327E+01 -0.26505874726E+01  0.41579141017E+01  0.73370320782E+01  0.00000000000E+00 0.  1.
        -11    1    3    3    0    0 -0.34002836143E+02  0.19336652347E+02 -0.11678895655E+03  0.12316557701E+03  0.00000000000E+00 0.  1.
         11    1    3    3    0    0  0.39041806431E+02  0.47450745363E+02 -0.51109784671E+02  0.79925252418E+02  0.00000000000E+00 0. -1.
          2    1    1    2  501    0  0.96677181659E+02 -0.12389576095E+03 -0.42132928444E+03  0.44968322513E+03  0.00000000000E+00 0. -1.
<scales pt_clust_5="13000.00000" pt_clust_6="13000.00000" pt_clust_7="13000.00000" pt_clust_8="13000.00000" pt_clust_9="13000.00000"></scales>
<clustering>
<clus scale="   80.484">  5  6 -1 -1</clus>
<clus scale="   92.574">  7  8 -1 -1</clus>
<clus scale="  114.262">  2  7  1 -1</clus>
<clus scale="  127.556">  5  9 -1 -1</clus>
<clus scale="  312.711">  1  5  2 -1</clus>
</clustering>
</event>
<event>
 9    1  0.4516508E-005  0.1940743E+03  0.7546771E-02  0.1184000E+00
          1   -1    0    0  502    0 -0.00000000000E+00  0.00000000000E+00  0.70116110155E+03  0.70116110155E+03  0.00000000000E+00 0. -1.
         21   -1    0    0  501  502  0.00000000000E+00 -0.00000000000E+00 -0.37247446831E+02  0.37247446831E+02  0.00000000000E+00 0. -1.
         23    2    1    2    0    0 -0.19482371016E+02  0.41303770786E+02  0.39137468539E+03  0.40383070999E+03  0.88428127369E+02 0.  0.
        -24    2    1    2    0    0  0.56626259576E+01 -0.10306934409E+03  0.19239752952E+03  0.23245721474E+03  0.79775887935E+02 0.  0.
         11    1    4    4    0    0  0.32626843788E+02 -0.87130529328E+02  0.10864095128E+03  0.14303529765E+03  0.00000000000E+00 0. -1.
        -12    1    4    4    0    0 -0.26964217830E+02 -0.15938814761E+02  0.83756578238E+02  0.89421917097E+02  0.00000000000E+00 0.  1.
        -13    1    3    3    0    0 -0.22405626649E+02 -0.24642747523E+02  0.14381610873E+03  0.14762232298E+03  0.00000000000E+00 0.  1.
         13    1    3    3    0    0  0.29232556336E+01  0.65946518309E+02  0.24755857666E+03  0.25620838702E+03  0.00000000000E+00 0. -1.
          2    1    1    2  501    0  0.13819745058E+02  0.61765573303E+02  0.80141439805E+02  0.10212062364E+03  0.00000000000E+00 0. -1.
<scales pt_clust_5="13000.00000" pt_clust_6="13000.00000" pt_clust_7="13000.00000" pt_clust_8="13000.00000" pt_clust_9="13000.00000"></scales>
<clustering>
<clus scale="   79.776">  5  6 -1 -1</clus>
<clus scale="   63.293">  5  9 -1 -1</clus>
<clus scale="   88.428">  7  8 -1 -1</clus>
<clus scale="   99.524">  1  7  2 -1</clus>
<clus scale="  194.074">  2  5  1 -1</clus>
</clustering>
</event>
<event>
 9    1  0.4516508E-005  0.2545515E+03  0.7546771E-02  0.1150318E+00
         21   -1    0    0  501  502  0.00000000000E+00  0.00000000000E+00  0.39475967566E+03  0.39475967566E+03  0.00000000000E+00 0. -1.
          1   -1    0    0  502    0 -0.00000000000E+00 -0.00000000000E+00 -0.85912575803E+02  0.85912575803E+02  0.00000000000E+00 0. -1.
         23    2    1    2    0    0 -0.20963548630E+02 -0.17427959366E+02  0.23976057461E+02  0.98640883029E+02  0.91716783277E+02 0.  0.
        -24    2    1    2    0    0 -0.25290507559E+02 -0.84504906877E+02  0.63543722271E+02  0.13400812443E+03  0.78356133858E+02 0.  0.
         13    1    4    4    0    0 -0.51441664750E+02 -0.62029058216E+02  0.57510982879E+02  0.99001828706E+02  0.00000000000E+00 0. -1.
        -14    1    4    4    0    0  0.26151157191E+02 -0.22475848661E+02  0.60327393920E+01  0.35006295720E+02  0.00000000000E+00 0.  1.
        -11    1    3    3    0    0 -0.24380011846E+02  0.21186703504E+02 -0.21563445154E+02  0.38836111415E+02  0.00000000000E+00 0.  1.
         11    1    3    3    0    0  0.34164632160E+01 -0.38614662870E+02  0.45539502615E+02  0.59804771614E+02  0.00000000000E+00 0. -1.
          2    1    1    2  501    0  0.46254056189E+02  0.10193286624E+03  0.22132732013E+03  0.24802324401E+03  0.00000000000E+00 0. -1.
<scales pt_clust_5="13000.00000" pt_clust_6="13000.00000" pt_clust_7="13000.00000" pt_clust_8="13000.00000" pt_clust_9="13000.00000"></scales>
<clustering>
<clus scale="   78.356">  5  6 -1 -1</clus>
<clus scale="   91.717">  7  8 -1 -1</clus>
<clus scale="   95.683">  2  7  1 -1</clus>
<clus scale="  105.246">  5  9 -1 -1</clus>
<clus scale="  254.551">  1  5  2 -1</clus>
</clustering>
</event>
<event>
 9    1  0.4516508E-005  0.2487949E+03  0.7546771E-02  0.1153950E+00
          1   -1    0    0  502    0 -0.00000000000E+00  0.00000000000E+00  0.27895750970E+03  0.27895750970E+03  0.00000000000E+00 0. -1.
         21   -1    0    0  501  502  0.00000000000E+00 -0.00000000000E+00 -0.22038738015E+03  0.22038738015E+03  0.00000000000E+00 0. -1.
         23    2    1    2    0    0 -0.22222083136E+02 -0.90076230277E+01  0.19434703394E+03  0.21591186850E+03  0.90951674578E+02 0.  0.
        -24    2    1    2    0    0  0.29663579203E+02  0.45933361765E+02  0.40069011117E+02  0.10359789674E+03  0.78340263613E+02 0.  0.
         13    1    4    4    0    0 -0.94692001414E+01  0.44346570297E+02 -0.29239800997E+01  0.45440441327E+02  0.00000000000E+00 0. -1.
        -14    1    4    4    0    0  0.39132779344E+02  0.15867914680E+01  0.42992991216E+02  0.58157455413E+02  0.00000000000E+00 0.  1.
        -13    1    3    3    0    0  0.18753829753E+02  0.23237127771E+02  0.25730275827E+02  0.39417221256E+02  0.00000000000E+00 0.  1.
         13    1    3    3    0    0 -0.40975912889E+02 -0.32244750798E+02  0.16861675811E+03  0.17649464725E+03  0.00000000000E+00 0. -1.
          2    1    1    2  501    0 -0.74414960663E+01 -0.36925738737E+02 -0.17584591550E+03  0.17983512461E+03  0.00000000000E+00 0. -1.
<scales pt_clust_5="13000.00000" pt_clust_6="13000.00000" pt_clust_7="13000.00000" pt_clust_8="13000.00000" pt_clust_9="13000.00000"></scales>
<clustering>
<clus scale="   78.340">  5  6 -1 -1</clus>
<clus scale="   37.668">  5  9 -1 -1</clus>
<clus scale="   90.952">  7  8 -1 -1</clus>
<clus scale="   94.059">  1  7  2 -1</clus>
<clus scale="  248.795">  2  5  1 -1</clus>
</clustering>
</event>
<event>
 9    1  0.4516508E-005  0.8268294E+03  0.7546771E-02  0.1018025E+00
          3   -1    0    0  502    0 -0.00000000000E+00  0.00000000000E+00  0.27412461487E+03  0.27412461487E+03  0.00000000000E+00 0. -1.
         21   -1    0    0  501  502  0.00000000000E+00 -0.00000000000E+00 -0.78244544472E+03  0.78244544472E+03  0.00000000000E+00 0. -1.
         23    2    1    2    0    0 -0.35655793969E+01 -0.32481185096E+02 -0.77329918653E+02  0.12415381907E+03  0.91468648881E+02 0.  0.
        -24    2    1    2    0    0 -0.15216687173E+03 -0.15312464533E+02 -0.64282643942E+03  0.66518764869E+03  0.76547686601E+02 0.  0.
         11    1    4    4    0    0 -0.12950207070E+03 -0.34610243207E+02 -0.43340694277E+03  0.45366312754E+03  0.00000000000E+00 0. -1.
        -12    1    4    4    0    0 -0.22664801031E+02  0.19297778675E+02 -0.20941949665E+03  0.21152452115E+03  0.00000000000E+00 0.  1.
        -11    1    3    3    0    0 -0.34259772388E+02 -0.47044626909E+02 -0.28852710034E+02  0.64956968844E+02  0.00000000000E+00 0.  1.
         11    1    3    3    0    0  0.30694192991E+02  0.14563441813E+02 -0.48477208619E+02  0.59196850222E+02  0.00000000000E+00 0. -1.
          4    1    1    2  501    0  0.15573245113E+03  0.47793649629E+02  0.21183552823E+03  0.26722859184E+03  0.00000000000E+00 0. -1.
<scales pt_clust_5="13000.00000" pt_clust_6="13000.00000" pt_clust_7="13000.00000" pt_clust_8="13000.00000" pt_clust_9="13000.00000"></scales>
<clustering>
<clus scale="   76.548">  5  6 -1 -1</clus>
<clus scale="   91.469">  7  8 -1 -1</clus>
<clus scale="   97.130">  1  7  2 -1</clus>
<clus scale="  153.245">  5  9 -1 -1</clus>
<clus scale="  826.829">  2  5  1 -1</clus>
</clustering>
</event>
<event>
 9    1  0.4516508E-005  0.1363186E+03  0.7546771E-02  0.1226169E+00
         21   -1    0    0  501  502  0.00000000000E+00  0.00000000000E+00  0.16149123396E+03  0.16149123396E+03  0.00000000000E+00 0. -1.
          3   -1    0    0  502    0 -0.00000000000E+00 -0.00000000000E+00 -0.10600750282E+03  0.10600750282E+03  0.00000000000E+00 0. -1.
         23    2    1    2    0    0 -0.45754839548E+02  0.31134525824E+02 -0.10071820191E+02  0.11623637295E+03  0.10171818320E+03 0.  0.
        -24    2    1    2    0    0  0.16039518954E+02 -0.45670050742E+02  0.70672936623E+02  0.11778895057E+03  0.80848953013E+02 0.  0.
         11    1    4    4    0    0 -0.79875863111E+01 -0.55385893144E+02  0.72757505255E+02  0.91788088908E+02  0.00000000000E+00 0. -1.
        -12    1    4    4    0    0  0.24027105265E+02  0.97158424022E+01 -0.20845686313E+01  0.26000861666E+02  0.00000000000E+00 0.  1.
        -13    1    3    3    0    0  0.10508885305E+02 -0.30547096551E+02 -0.22334288376E+01  0.32381321505E+02  0.00000000000E+00 0.  1.
         13    1    3    3    0    0 -0.56263724853E+02  0.61681622375E+02 -0.78383913538E+01  0.83855051441E+02  0.00000000000E+00 0. -1.
          4    1    1    2  501    0  0.29715320594E+02  0.14535524918E+02 -0.51173852962E+01  0.33473413255E+02  0.00000000000E+00 0. -1.
<scales pt_clust_5="13000.00000" pt_clust_6="13000.00000" pt_clust_7="13000.00000" pt_clust_8="13000.00000" pt_clust_9="13000.00000"></scales>
<clustering>
<clus scale="   80.849">  5  6 -1 -1</clus>
<clus scale="   33.080">  5  9 -1 -1</clus>
<clus scale="  101.718">  7  8 -1 -1</clus>
<clus scale="  115.799">  2  7  1 -1</clus>
<clus scale="  136.319">  1  5  2 -1</clus>
</clustering>
</event>
<event>
 9    1  0.4516508E-005  0.1751102E+03  0.7546771E-02  0.1190356E+00
          3   -1    0    0  502    0 -0.00000000000E+00  0.00000000000E+00  0.20215169004E+03  0.20215169004E+03  0.00000000000E+00 0. -1.
         21   -1    0    0  501  502  0.00000000000E+00 -0.00000000000E+00 -0.11231256492E+03  0.11231256492E+03  0.00000000000E+00 0. -1.
         23    2    1    2    0    0  0.28245462084E+02 -0.50618450954E+02  0.73194234823E+02  0.13856473922E+03  0.10238533702E+03 0.  0.
        -24    2    1    2    0    0 -0.29868332405E+02 -0.29679621541E+02  0.27584121378E+02  0.94843480002E+02  0.80382863418E+02 0.  0.
         11    1    4    4    0    0 -0.31232285016E+02  0.16783461560E+02 -0.79470214858E+01  0.36335868777E+02  0.00000000000E+00 0. -1.
        -12    1    4    4    0    0  0.13639526115E+01 -0.46463083102E+02  0.35531142864E+02  0.58507611225E+02  0.00000000000E+00 0.  1.
        -11    1    3    3    0    0  0.11521308451E+02  0.26010021526E+02 -0.37479505311E+01  0.28693359883E+02  0.00000000000E+00 0.  1.
         11    1    3    3    0    0  0.16724153633E+02 -0.76628472479E+02  0.76942185354E+02  0.10987137933E+03  0.00000000000E+00 0. -1.
          4    1    1    2  501    0  0.16228703205E+01  0.80298072495E+02 -0.10939231081E+02  0.81056035747E+02  0.00000000000E+00 0. -1.
<scales pt_clust_5="13000.00000" pt_clust_6="13000.00000" pt_clust_7="13000.00000" pt_clust_8="13000.00000" pt_clust_9="13000.00000"></scales>
<clustering>
<clus scale="   80.383">  5  6 -1 -1</clus>
<clus scale="   80.315">  5  9 -1 -1</clus>
<clus scale="  102.385">  7  8 -1 -1</clus>
<clus scale="  117.655">  1  7  2 -1</clus>
<clus scale="  175.110">  2  5  1 -1</clus>
</clustering>
</event>
<event>
 9    1  0.4516508E-005  0.1632837E+03  0.7546771E-02  0.1203517E+00
         21   -1    0    0  501  502  0.00000000000E+00  0.00000000000E+00  0.73930867891E+02  0.73930867891E+02  0.00000000000E+00 0. -1.
          1   -1    0    0  502    0 -0.00000000000E+00 -0.00000000000E+00 -0.36059733920E+03  0.36059733920E+03  0.00000000000E+00 0. -1.
         23    2    1    2    0    0  0.16104147625E+02  0.58574055093E+02 -0.24181866679E+03  0.26519745787E+03  0.90350210575E+02 0.  0.
        -24    2    1    2    0    0  0.20311128152E+02  0.99712018603E+01 -0.19849985288E+02  0.87786800785E+02  0.82465348376E+02 0.  0.
         11    1    4    4    0    0 -0.31798524678E+02  0.14407639971E+01 -0.14311602456E+01  0.31863304791E+02  0.00000000000E+00 0. -1.
        -12    1    4    4    0    0  0.52109652830E+02  0.85304378632E+01 -0.18418825042E+02  0.55923495993E+02  0.00000000000E+00 0.  1.
        -11    1    3    3    0    0 -0.25873037864E+02  0.46088915309E+01 -0.19839699247E+02  0.32928249812E+02  0.00000000000E+00 0.  1.
         11    1    3    3    0    0  0.41977185489E+02  0.53965163562E+02 -0.22197896754E+03  0.23226920806E+03  0.00000000000E+00 0. -1.
          2    1    1    2  501    0 -0.36415275777E+02 -0.68545256953E+02 -0.24997819233E+02  0.81543948439E+02  0.00000000000E+00 0. -1.
<scales pt_clust_5="13000.00000" pt_clust_6="13000.00000" pt_clust_7="13000.00000" pt_clust_8="13000.00000" pt_clust_9="13000.00000"></scales>
<clustering>
<clus scale="   82.465">  5  6 -1 -1</clus>
<clus scale="   77.618">  5  9 -1 -1</clus>
<clus scale="   90.350">  7  8 -1 -1</clus>
<clus scale="  108.873">  2  7  1 -1</clus>
<clus scale="  163.284">  1  5  2 -1</clus>
</clustering>
</event>
<event>
 9    1  0.4516508E-005  0.2687309E+03  0.7546771E-02  0.1137446E+00
         21   -1    0    0  501  502  0.00000000000E+00  0.00000000000E+00  0.70684294199E+02  0.70684294199E+02  0.00000000000E+00 0.  1.
          1   -1    0    0  502    0 -0.00000000000E+00 -0.00000000000E+00 -0.51986311973E+03  0.51986311973E+03  0.00000000000E+00 0. -1.
         23    2    1    2    0    0 -0.42054483991E+02 -0.45853539114E+02 -0.17153588524E+03  0.20415136851E+03  0.91553780173E+02 0.  0.
        -24    2    1    2    0    0  0.13754216130E+02  0.67594213633E+02 -0.92175565444E+00  0.10738318530E+03  0.82293029312E+02 0.  0.
         13    1    4    4    0    0  0.38059439845E+01  0.67051387778E+02 -0.32255486293E+02  0.74503625473E+02  0.00000000000E+00 0. -1.
        -14    1    4    4    0    0  0.99482721456E+01  0.54282585456E+00  0.31333730638E+02  0.32879559825E+02  0.00000000000E+00 0.  1.
        -13    1    3    3    0    0 -0.13004911347E+02  0.28245047329E+02 -0.46985313797E+02  0.56342968775E+02  0.00000000000E+00 0.  1.
         13    1    3    3    0    0 -0.29049572644E+02 -0.74098586443E+02 -0.12455057145E+03  0.14780839973E+03  0.00000000000E+00 0. -1.
          2    1    1    2  501    0  0.28300267861E+02 -0.21740674519E+02 -0.27672118463E+03  0.27901286012E+03  0.00000000000E+00 0. -1.
<scales pt_clust_5="13000.00000" pt_clust_6="13000.00000" pt_clust_7="13000.00000" pt_clust_8="13000.00000" pt_clust_9="13000.00000"></scales>
<clustering>
<clus scale="   82.293">  5  6 -1 -1</clus>
<clus scale="   35.687">  5  9 -1 -1</clus>
<clus scale="   91.554">  7  8 -1 -1</clus>
<clus scale="  110.694">  2  7  1 -1</clus>
<clus scale="  268.731">  1  5  2 -1</clus>
</clustering>
</event>
<event>
 9    1  0.4516508E-005  0.3447158E+03  0.7546771E-02  0.1110404E+00
          1   -1    0    0  502    0 -0.00000000000E+00  0.00000000000E+00  0.59913584050E+03  0.59913584050E+03  0.00000000000E+00 0. -1.
         21   -1    0    0  501  502  0.00000000000E+00 -0.00000000000E+00 -0.88808126168E+02  0.88808126168E+02  0.00000000000E+00 0. -1.
         23    2    1    2    0    0 -0.53507808419E+02 -0.10824244294E+02  0.19685556417E+03  0.22201072251E+03  0.86927544169E+02 0.  0.
        -24    2    1    2    0    0  0.14705070680E+02 -0.43960074867E+00  0.37848676514E+03  0.38938635120E+03  0.90294334029E+02 0.  0.
         13    1    4    4    0    0  0.47881644338E+02  0.18165729087E+02  0.17349574671E+03  0.18089615724E+03  0.00000000000E+00 0. -1.
        -14    1    4    4    0    0 -0.33176573658E+02 -0.18605329836E+02  0.20499101844E+03  0.20849019396E+03  0.00000000000E+00 0.  1.
        -11    1    3    3    0    0 -0.20766281041E+02  0.11176326879E+02  0.25256832378E+01  0.23717668237E+02  0.00000000000E+00 0.  1.
         11    1    3    3    0    0 -0.32741527378E+02 -0.22000571172E+02  0.19432988094E+03  0.19829305427E+03  0.00000000000E+00 0. -1.
          2    1    1    2  501    0  0.38802737739E+02  0.11263845042E+02 -0.65014614984E+02  0.76546892965E+02  0.00000000000E+00 0. -1.
<scales pt_clust_5="13000.00000" pt_clust_6="13000.00000" pt_clust_7="13000.00000" pt_clust_8="13000.00000" pt_clust_9="13000.00000"></scales>
<clustering>
<clus scale="   86.928">  7  8 -1 -1</clus>
<clus scale="   90.294">  5  6 -1 -1</clus>
<clus scale="   40.405">  5  9 -1 -1</clus>
<clus scale="  102.648">  1  7  2 -1</clus>
<clus scale="  344.716">  2  5  1 -1</clus>
</clustering>
</event>
<event>
 9    1  0.4516508E-005  0.5462211E+03  0.7546771E-02  0.1014956E+00
         21   -1    0    0  501  502  0.00000000000E+00  0.00000000000E+00  0.76160355813E+03  0.76160355813E+03  0.00000000000E+00 0.  1.
         -2   -1    0    0    0  501 -0.00000000000E+00 -0.00000000000E+00 -0.28597336172E+03  0.28597336172E+03  0.00000000000E+00 0.  1.
         23    2    1    2    0    0 -0.26754530611E+02 -0.35748801766E+03  0.29207548918E+03  0.47133927278E+03  0.91318842599E+02 0.  0.
        -24    2    1    2    0    0  0.35462725834E+02 -0.19858516248E+02 -0.73995281891E+02  0.11929319069E+03  0.84282845297E+02 0.  0.
         13    1    4    4    0    0 -0.26092750497E+02 -0.17735435752E+02 -0.19767409462E+02  0.37230737122E+02  0.00000000000E+00 0. -1.
        -14    1    4    4    0    0  0.61555476332E+02 -0.21230804960E+01 -0.54227872428E+02  0.82062453566E+02  0.00000000000E+00 0.  1.
        -13    1    3    3    0    0 -0.29382912636E+02 -0.15576030405E+03  0.76214098671E+02  0.17587841457E+03  0.00000000000E+00 0. -1.
         13    1    3    3    0    0  0.26283820250E+01 -0.20172771360E+03  0.21586139051E+03  0.29546085822E+03  0.00000000000E+00 0.  1.
         -1    1    1    2    0  502 -0.87081952238E+01  0.37734653390E+03  0.25754998912E+03  0.45694445637E+03  0.00000000000E+00 0.  1.
<scales pt_clust_5="13000.00000" pt_clust_6="13000.00000" pt_clust_7="13000.00000" pt_clust_8="13000.00000" pt_clust_9="13000.00000"></scales>
<clustering>
<clus scale="   84.283">  5  6 -1 -1</clus>
<clus scale="   91.319">  7  8 -1 -1</clus>
<clus scale="  369.936">  2  7  1 -1</clus>
<clus scale="  197.088">  5  9 -1 -1</clus>
<clus scale="  546.221">  1  5  2 -1</clus>
</clustering>
</event>
<event>
 9    1  0.4516508E-005  0.1480392E+03  0.7546771E-02  0.1218610E+00
          1   -1    0    0  502    0 -0.00000000000E+00  0.00000000000E+00  0.85293460296E+02  0.85293460296E+02  0.00000000000E+00 0. -1.
         21   -1    0    0  501  502  0.00000000000E+00 -0.00000000000E+00 -0.24586898518E+03  0.24586898518E+03  0.00000000000E+00 0. -1.
         23    2    1    2    0    0  0.66659870143E+01 -0.50593837982E+02 -0.14882512403E+03  0.18265763697E+03  0.92793981359E+02 0.  0.
        -24    2    1    2    0    0 -0.33237658963E+02  0.54977876821E+02 -0.37734257146E+02  0.11108243106E+03  0.82390068661E+02 0.  0.
         11    1    4    4    0    0 -0.24267138454E+02  0.68620400529E+02 -0.51958563582E+02  0.89427879920E+02  0.00000000000E+00 0. -1.
        -12    1    4    4    0    0 -0.89705205090E+01 -0.13642523708E+02  0.14224306436E+02  0.21654551136E+02  0.00000000000E+00 0.  1.
        -11    1    3    3    0    0 -0.25936902709E+02 -0.20637169323E+02 -0.67266386860E+01  0.33821048887E+02  0.00000000000E+00 0.  1.
         11    1    3    3    0    0  0.32602889723E+02 -0.29956668658E+02 -0.14209848534E+03  0.14883658808E+03  0.00000000000E+00 0. -1.
          2    1    1    2  501    0  0.26571671949E+02 -0.43840388390E+01  0.25983856287E+02  0.37422377453E+02  0.00000000000E+00 0. -1.
<scales pt_clust_5="13000.00000" pt_clust_6="13000.00000" pt_clust_7="13000.00000" pt_clust_8="13000.00000" pt_clust_9="13000.00000"></scales>
<clustering>
<clus scale="   82.390">  5  6 -1 -1</clus>
<clus scale="   26.931">  5  9 -1 -1</clus>
<clus scale="   92.794">  7  8 -1 -1</clus>
<clus scale="  105.900">  1  7  2 -1</clus>
<clus scale="  148.039">  2  5  1 -1</clus>
</clustering>
</event>
<event>
 9    1  0.4516508E-005  0.3266568E+03  0.7546771E-02  0.1105113E+00
          1   -1    0    0  502    0 -0.00000000000E+00  0.00000000000E+00  0.47030609896E+03  0.47030609896E+03  0.00000000000E+00 0. -1.
         21   -1    0    0  501  502  0.00000000000E+00 -0.00000000000E+00 -0.11868741365E+03  0.11868741365E+03  0.00000000000E+00 0.  1.
         23    2    1    2    0    0 -0.92836277610E+02 -0.36276570787E+02  0.15552682199E+03  0.20799916771E+03  0.95605948446E+02 0.  0.
        -24    2    1    2    0    0 -0.56003055407E+02  0.10755284475E+03  0.15171296142E+03  0.21010566412E+03  0.80147431683E+02 0.  0.
         13    1    4    4    0    0 -0.86714206976E+01  0.73698035607E+02  0.12655693719E+03  0.14670805138E+03  0.00000000000E+00 0. -1.
        -14    1    4    4    0    0 -0.47331634710E+02  0.33854809144E+02  0.25156024231E+02  0.63397612744E+02  0.00000000000E+00 0.  1.
        -13    1    3    3    0    0 -0.85192061757E+02  0.11633368895E+02  0.12105562213E+03  0.14848395976E+03  0.00000000000E+00 0.  1.
         13    1    3    3    0    0 -0.76442158520E+01 -0.47909939681E+02  0.34471199869E+02  0.59515207944E+02  0.00000000000E+00 0. -1.
          2    1    1    2  501    0  0.14883933302E+03 -0.71276273964E+02  0.44378901896E+02  0.17088868077E+03  0.00000000000E+00 0. -1.
<scales pt_clust_5="13000.00000" pt_clust_6="13000.00000" pt_clust_7="13000.00000" pt_clust_8="13000.00000" pt_clust_9="13000.00000"></scales>
<clustering>
<clus scale="   80.147">  5  6 -1 -1</clus>
<clus scale="   95.606">  7  8 -1 -1</clus>
<clus scale="  138.112">  1  7  2 -1</clus>
<clus scale="  142.254">  5  9 -1 -1</clus>
<clus scale="  326.657">  2  5  1 -1</clus>
</clustering>
</event>
<event>
 9    1  0.4516508E-005  0.2182896E+03  0.7546771E-02  0.1170372E+00
          1   -1    0    0  502    0 -0.00000000000E+00  0.00000000000E+00  0.35869628828E+03  0.35869628828E+03  0.00000000000E+00 0. -1.
         21   -1    0    0  501  502  0.00000000000E+00 -0.00000000000E+00 -0.82895819948E+02  0.82895819948E+02  0.00000000000E+00 0. -1.
         23    2    1    2    0    0  0.60467126350E+00  0.14791952585E+02  0.17917141932E+03  0.20287152523E+03  0.93996227372E+02 0.  0.
        -24    2    1    2    0    0  0.51003155957E+02 -0.18596114496E+01  0.14045376261E+03  0.16979149770E+03  0.80604672248E+02 0.  0.
         11    1    4    4    0    0  0.36152942544E+02  0.15165732906E+02  0.14457460817E+02  0.41785797617E+02  0.00000000000E+00 0. -1.
        -12    1    4    4    0    0  0.14850213413E+02 -0.17025344355E+02  0.12599630179E+03  0.12800570009E+03  0.00000000000E+00 0.  1.
        -11    1    3    3    0    0  0.17304496974E+02 -0.15208986979E+02  0.28217983263E+01  0.23210373677E+02  0.00000000000E+00 0.  1.
         11    1    3    3    0    0 -0.16699825711E+02  0.30000939564E+02  0.17634962099E+03  0.17966115155E+03  0.00000000000E+00 0. -1.
          2    1    1    2  501    0 -0.51607827220E+02 -0.12932341135E+02 -0.43824713597E+02  0.68929085295E+02  0.00000000000E+00 0. -1.
<scales pt_clust_5="13000.00000" pt_clust_6="13000.00000" pt_clust_7="13000.00000" pt_clust_8="13000.00000" pt_clust_9="13000.00000"></scales>
<clustering>
<clus scale="   80.605">  5  6 -1 -1</clus>
<clus scale="   53.204">  5  9 -1 -1</clus>
<clus scale="   93.996">  7  8 -1 -1</clus>
<clus scale="   95.155">  1  7  2 -1</clus>
<clus scale="  218.290">  2  5  1 -1</clus>
</clustering>
</event>
<event>
 9    1  0.4516508E-005  0.3081137E+03  0.7546771E-02  0.1123973E+00
         21   -1    0    0  501  502  0.00000000000E+00  0.00000000000E+00  0.46821505667E+02  0.46821505667E+02  0.00000000000E+00 0. -1.
          1   -1    0    0  502    0 -0.00000000000E+00 -0.00000000000E+00 -0.92836271500E+03  0.92836271500E+03  0.00000000000E+00 0. -1.
         23    2    1    2    0    0 -0.27432319894E+01  0.42963921881E+02 -0.30206018675E+03  0.31888223476E+03  0.92693577556E+02 0.  0.
        -24    2    1    2    0    0  0.93283040616E+02  0.30258565774E+02 -0.94724378475E+02  0.15775610672E+03  0.79353480465E+02 0.  0.
         11    1    4    4    0    0  0.97646843891E+02  0.30388429322E+01 -0.65728152304E+02  0.11774689250E+03  0.00000000000E+00 0. -1.
        -12    1    4    4    0    0 -0.43638032750E+01  0.27219722842E+02 -0.28996226171E+02  0.40009214224E+02  0.00000000000E+00 0.  1.
        -11    1    3    3    0    0 -0.26842117220E+02  0.64250499361E+02 -0.19279548776E+03  0.20498469705E+03  0.00000000000E+00 0. -1.
         11    1    3    3    0    0  0.24098885231E+02 -0.21286577481E+02 -0.10926469899E+03  0.11389753771E+03  0.00000000000E+00 0.  1.
          2    1    1    2  501    0 -0.90539808627E+02 -0.73222487654E+02 -0.48475664410E+03  0.49854587918E+03  0.00000000000E+00 0. -1.
<scales pt_clust_5="13000.00000" pt_clust_6="13000.00000" pt_clust_7="13000.00000" pt_clust_8="13000.00000" pt_clust_9="13000.00000"></scales>
<clustering>
<clus scale="   79.353">  5  6 -1 -1</clus>
<clus scale="   92.694">  7  8 -1 -1</clus>
<clus scale="  102.203">  2  7  1 -1</clus>
<clus scale="  100.605">  5  9 -1 -1</clus>
<clus scale="  308.114">  1  5  2 -1</clus>
</clustering>
</event>
<event>
 9    1  0.4516508E-005  0.1962661E+03  0.7546771E-02  0.1170213E+00
         21   -1    0    0  501  502  0.00000000000E+00  0.00000000000E+00  0.37402200259E+03  0.37402200259E+03  0.00000000000E+00 0.  1.
          1   -1    0    0  502    0 -0.00000000000E+00 -0.00000000000E+00 -0.72799093144E+02  0.72799093144E+02  0.00000000000E+00 0. -1.
         23    2    1    2    0    0 -0.83041481911E+02  0.37987103858E+02  0.14738494628E+03  0.19744890594E+03  0.94471372852E+02 0.  0.
        -24    2    1    2    0    0  0.16042077109E+02 -0.70476789077E+02  0.13333284326E+03  0.17213903738E+03  0.81424044743E+02 0.  0.
         13    1    4    4    0    0 -0.20024222431E+02 -0.10264041777E+02  0.12146392294E+01  0.22534315744E+02  0.00000000000E+00 0. -1.
        -14    1    4    4    0    0  0.36066299541E+02 -0.60212747300E+02  0.13211820403E+03  0.14960472164E+03  0.00000000000E+00 0.  1.
        -11    1    3    3    0    0 -0.55910174643E+02  0.67981995084E+02  0.11909598577E+03  0.14809238033E+03  0.00000000000E+00 0.  1.
         11    1    3    3    0    0 -0.27131307268E+02 -0.29994891227E+02  0.28288960516E+02  0.49356525615E+02  0.00000000000E+00 0. -1.
          2    1    1    2  501    0  0.66999404801E+02  0.32489685220E+02  0.20505119904E+02  0.77233152413E+02  0.00000000000E+00 0. -1.
<scales pt_clust_5="13000.00000" pt_clust_6="13000.00000" pt_clust_7="13000.00000" pt_clust_8="13000.00000" pt_clust_9="13000.00000"></scales>
<clustering>
<clus scale="   81.424">  5  6 -1 -1</clus>
<clus scale="   74.461">  5  9 -1 -1</clus>
<clus scale="   94.471">  7  8 -1 -1</clus>
<clus scale="  131.392">  2  7  1 -1</clus>
<clus scale="  196.266">  1  5  2 -1</clus>
</clustering>
</event>
<event>
 9    1  0.4516508E-005  0.1964260E+03  0.7546771E-02  0.1168511E+00
          1   -1    0    0  502    0 -0.00000000000E+00  0.00000000000E+00  0.25181710874E+03  0.25181710874E+03  0.00000000000E+00 0. -1.
         21   -1    0    0  501  502  0.00000000000E+00 -0.00000000000E+00 -0.11558328116E+03  0.11558328116E+03  0.00000000000E+00 0. -1.
         23    2    1    2    0    0  0.41981563275E+02  0.91101229838E+02  0.96522970153E+02  0.16700044850E+03  0.92252806454E+02 0.  0.
        -24    2    1    2    0    0  0.30386834036E+02 -0.42885711652E+02  0.57285446013E+02  0.11168248378E+03  0.80179866000E+02 0.  0.
         13    1    4    4    0    0  0.44308978535E+02 -0.43971414083E+02  0.11063226297E+02  0.63396891180E+02  0.00000000000E+00 0. -1.
        -14    1    4    4    0    0 -0.13922144499E+02  0.10857024307E+01  0.46222219717E+02  0.48285592600E+02  0.00000000000E+00 0.  1.
        -13    1    3    3    0    0 -0.15778492990E+02  0.74413315530E+02  0.50880766510E+02  0.91515871682E+02  0.00000000000E+00 0. -1.
         13    1    3    3    0    0  0.57760056265E+02  0.16687914308E+02  0.45642203644E+02  0.75484576817E+02  0.00000000000E+00 0.  1.
          2    1    1    2  501    0 -0.72368397310E+02 -0.48215518186E+02 -0.17574588585E+02  0.88717457623E+02  0.00000000000E+00 0. -1.
<scales pt_clust_5="13000.00000" pt_clust_6="13000.00000" pt_clust_7="13000.00000" pt_clust_8="13000.00000" pt_clust_9="13000.00000"></scales>
<clustering>
<clus scale="   80.180">  5  6 -1 -1</clus>
<clus scale="   86.959">  5  9 -1 -1</clus>
<clus scale="   92.253">  7  8 -1 -1</clus>
<clus scale="  136.281">  1  7  2 -1</clus>
<clus scale="  196.426">  2  5  1 -1</clus>
</clustering>
</event>
<event>
 9    1  0.4516508E-005  0.2399586E+03  0.7546771E-02  0.1138356E+00
          1   -1    0    0  502    0 -0.00000000000E+00  0.00000000000E+00  0.36685300104E+03  0.36685300104E+03  0.00000000000E+00 0. -1.
         21   -1    0    0  501  502  0.00000000000E+00 -0.00000000000E+00 -0.22072576927E+03  0.22072576927E+03  0.00000000000E+00 0. -1.
         23    2    1    2    0    0 -0.10053269605E+03 -0.68169827006E+02  0.27570264221E+03  0.31487030626E+03  0.91528217272E+02 0.  0.
        -24    2    1    2    0    0  0.96587531854E+02  0.11462292983E+03 -0.44849311565E+02  0.17600289589E+03  0.80610118842E+02 0.  0.
         13    1    4    4    0    0  0.42870621886E+01  0.63042689241E+02 -0.64730962384E+01  0.63518977824E+02  0.00000000000E+00 0. -1.
        -14    1    4    4    0    0  0.92300469665E+02  0.51580240590E+02 -0.38376215327E+02  0.11248391806E+03  0.00000000000E+00 0.  1.
        -11    1    3    3    0    0 -0.38771544454E+02 -0.62016678800E+01  0.18393805939E+03  0.18808217097E+03  0.00000000000E+00 0. -1.
         11    1    3    3    0    0 -0.61761151595E+02 -0.61968159126E+02  0.91764582817E+02  0.12678813529E+03  0.00000000000E+00 0.  1.
          2    1    1    2  501    0  0.39451641958E+01 -0.46453102825E+02 -0.84726098874E+02  0.96705568159E+02  0.00000000000E+00 0. -1.
<scales pt_clust_5="13000.00000" pt_clust_6="13000.00000" pt_clust_7="13000.00000" pt_clust_8="13000.00000" pt_clust_9="13000.00000"></scales>
<clustering>
<clus scale="   80.610">  5  6 -1 -1</clus>
<clus scale="   46.620">  5  9 -1 -1</clus>
<clus scale="   91.528">  7  8 -1 -1</clus>
<clus scale="  152.090">  1  7  2 -1</clus>
<clus scale="  239.959">  2  5  1 -1</clus>
</clustering>
</event>
<event>
 9    1  0.4516508E-005  0.5378213E+03  0.7546771E-02  0.1064106E+00
         21   -1    0    0  501  502  0.00000000000E+00  0.00000000000E+00  0.12234689399E+03  0.12234689399E+03  0.00000000000E+00 0. -1.
          1   -1    0    0  502    0 -0.00000000000E+00 -0.00000000000E+00 -0.81207734610E+03  0.81207734610E+03  0.00000000000E+00 0. -1.
         23    2    1    2    0    0 -0.82175222832E+01 -0.47420069754E+00 -0.97276335949E+02  0.13426573161E+03  0.92178352173E+02 0.  0.
        -24    2    1    2    0    0 -0.11201486711E+03  0.10780953319E+03 -0.61318385340E+03  0.63765797598E+03  0.80268489184E+02 0.  0.
         11    1    4    4    0    0 -0.73446156295E+02  0.10297754384E+03 -0.54189153822E+03  0.55645768177E+03  0.00000000000E+00 0. -1.
        -12    1    4    4    0    0 -0.38568710816E+02  0.48319893508E+01 -0.71292315180E+02  0.81200294204E+02  0.00000000000E+00 0.  1.
        -13    1    3    3    0    0  0.11889226934E+02  0.33199681833E+02 -0.71588625363E+01  0.35983633831E+02  0.00000000000E+00 0.  1.
         13    1    3    3    0    0 -0.20106749217E+02 -0.33673882531E+02 -0.90117473412E+02  0.98282097775E+02  0.00000000000E+00 0. -1.
          2    1    1    2  501    0  0.12023238939E+03 -0.10733533249E+03  0.20729737235E+02  0.16250053251E+03  0.00000000000E+00 0. -1.
<scales pt_clust_5="13000.00000" pt_clust_6="13000.00000" pt_clust_7="13000.00000" pt_clust_8="13000.00000" pt_clust_9="13000.00000"></scales>
<clustering>
<clus scale="   80.268">  5  6 -1 -1</clus>
<clus scale="   92.178">  7  8 -1 -1</clus>
<clus scale="   92.545">  2  7  1 -1</clus>
<clus scale="  160.582">  5  9 -1 -1</clus>
<clus scale="  537.821">  1  5  2 -1</clus>
</clustering>
</event>
<event>
 9    1  0.4516508E-005  0.2616285E+03  0.7546771E-02  0.1117547E+00
         21   -1    0    0  501  502  0.00000000000E+00  0.00000000000E+00  0.18480121979E+03  0.18480121979E+03  0.00000000000E+00 0. -1.
          1   -1    0    0  502    0 -0.00000000000E+00 -0.00000000000E+00 -0.29481914187E+03  0.29481914187E+03  0.00000000000E+00 0. -1.
         23    2    1    2    0    0  0.86937826626E+02  0.14698014368E+03 -0.50259173956E+00  0.19599543574E+03  0.96190487553E+02 0.  0.
        -24    2    1    2    0    0 -0.16389287582E+01 -0.15584769276E+03 -0.68893502112E+02  0.18873199503E+03  0.81131140069E+02 0.  0.
         13    1    4    4    0    0 -0.63881216222E+01 -0.16324776970E+03 -0.55176445785E+02  0.17243863424E+03  0.00000000000E+00 0. -1.
        -14    1    4    4    0    0  0.47491928640E+01  0.74000769388E+01 -0.13717056326E+02  0.16293360789E+02  0.00000000000E+00 0.  1.
        -13    1    3    3    0    0  0.10263767486E+03  0.88765831085E+02  0.14296599615E+00  0.13569777268E+03  0.00000000000E+00 0. -1.
         13    1    3    3    0    0 -0.15699848238E+02  0.58214312597E+02 -0.64555773571E+00  0.60297663061E+02  0.00000000000E+00 0.  1.
          2    1    1    2  501    0 -0.85298897868E+02  0.88675490767E+01 -0.40621828234E+02  0.94892930892E+02  0.00000000000E+00 0. -1.
<scales pt_clust_5="13000.00000" pt_clust_6="13000.00000" pt_clust_7="13000.00000" pt_clust_8="13000.00000" pt_clust_9="13000.00000"></scales>
<clustering>
<clus scale="   81.131">  5  6 -1 -1</clus>
<clus scale="   85.759">  5  9 -1 -1</clus>
<clus scale="   96.190">  7  8 -1 -1</clus>
<clus scale="  195.995">  2  7  1 -1</clus>
<clus scale="  261.629">  1  5  2 -1</clus>
</clustering>
</event>
<event>
 9    1  0.4516508E-005  0.1271081E+03  0.7546771E-02  0.1245508E+00
         21   -1    0    0  501  502  0.00000000000E+00  0.00000000000E+00  0.29684191092E+03  0.29684191092E+03  0.00000000000E+00 0. -1.
          1   -1    0    0  502    0 -0.00000000000E+00 -0.00000000000E+00 -0.46513823658E+02  0.46513823658E+02  0.00000000000E+00 0. -1.
         23    2    1    2    0    0 -0.25826004327E+02 -0.20728060578E+02  0.56445138014E+02  0.11152161822E+03  0.90301620864E+02 0.  0.
        -24    2    1    2    0    0 -0.97016899584E+01  0.19449320496E+01  0.86534569572E+02  0.11720995835E+03  0.78434922438E+02 0.  0.
         13    1    4    4    0    0 -0.19128036689E+02 -0.31505779757E+02  0.19490939376E+02  0.41694036306E+02  0.00000000000E+00 0. -1.
        -14    1    4    4    0    0  0.94263467310E+01  0.33450711807E+02  0.67043630196E+02  0.75515922049E+02  0.00000000000E+00 0.  1.
        -13    1    3    3    0    0 -0.43311570856E+02  0.15577900388E+01  0.68238309807E+02  0.80838022026E+02  0.00000000000E+00 0. -1.
         13    1    3    3    0    0  0.17485566529E+02 -0.22285850617E+02 -0.11793171793E+02  0.30683596195E+02  0.00000000000E+00 0.  1.
          2    1    1    2  501    0  0.35527694285E+02  0.18783128528E+02  0.10734837968E+03  0.11462415800E+03  0.00000000000E+00 0. -1.
<scales pt_clust_5="13000.00000" pt_clust_6="13000.00000" pt_clust_7="13000.00000" pt_clust_8="13000.00000" pt_clust_9="13000.00000"></scales>
<clustering>
<clus scale="   78.435">  5  6 -1 -1</clus>
<clus scale="   40.187">  5  9 -1 -1</clus>
<clus scale="   90.302">  7  8 -1 -1</clus>
<clus scale="   96.182">  2  7  1 -1</clus>
<clus scale="  127.108">  1  5  2 -1</clus>
</clustering>
</event>
<event>
 9    1  0.4516508E-005  0.1334333E+03  0.7546771E-02  0.1237580E+00
         -2   -1    0    0    0  501 -0.00000000000E+00  0.00000000000E+00  0.59355066396E+02  0.59355066396E+02  0.00000000000E+00 0.  1.
         21   -1    0    0  501  502  0.00000000000E+00 -0.00000000000E+00 -0.24250453941E+03  0.24250453941E+03  0.00000000000E+00 0.  1.
         23    2    1    2    0    0  0.23916815384E+02  0.30863188100E+02 -0.38170877241E+02  0.10482345468E+03  0.89478435083E+02 0.  0.
        -24    2    1    2    0    0  0.23068444357E+02 -0.31001669443E+02 -0.10969311996E+03  0.13827648287E+03  0.74796714595E+02 0.  0.
         13    1    4    4    0    0  0.37102166598E+02 -0.22348719333E+02 -0.21131155884E+02  0.48192963917E+02  0.00000000000E+00 0. -1.
        -14    1    4    4    0    0 -0.14033722241E+02 -0.86529501101E+01 -0.88561964076E+02  0.90083518951E+02  0.00000000000E+00 0.  1.
        -13    1    3    3    0    0 -0.15578595565E+02  0.46709725155E+02 -0.38115078224E+02  0.62267569825E+02  0.00000000000E+00 0. -1.
         13    1    3    3    0    0  0.39495410949E+02 -0.15846537055E+02 -0.55799016675E-01  0.42555884860E+02  0.00000000000E+00 0.  1.
         -1    1    1    2    0  502 -0.46985259741E+02  0.13848134319E+00 -0.35285475812E+02  0.58759668254E+02  0.00000000000E+00 0.  1.
<scales pt_clust_5="13000.00000" pt_clust_6="13000.00000" pt_clust_7="13000.00000" pt_clust_8="13000.00000" pt_clust_9="13000.00000"></scales>
<clustering>
<clus scale="   74.797">  5  6 -1 -1</clus>
<clus scale="   46.985">  5  9 -1 -1</clus>
<clus scale="   89.478">  7  8 -1 -1</clus>
<clus scale="   97.627">  1  7  2 -1</clus>
<clus scale="  133.433">  2  5  1 -1</clus>
</clustering>
</event>
<event>
 9    1  0.4516508E-005  0.3308941E+03  0.7546771E-02  0.1083128E+00
         21   -1    0    0  501  502  0.00000000000E+00  0.00000000000E+00  0.90917277352E+02  0.90917277352E+02  0.00000000000E+00 0.  1.
         -2   -1    0    0    0  501 -0.00000000000E+00 -0.00000000000E+00 -0.91713210266E+03  0.91713210266E+03  0.00000000000E+00 0.  1.
         23    2    1    2    0    0  0.15261477617E+03 -0.15480659361E+03 -0.43925017099E+03  0.49890052743E+03  0.93298832912E+02 0.  0.
        -24    2    1    2    0    0 -0.70034906729E+02 -0.33061110824E+02 -0.20251221438E+03  0.23322057965E+03  0.85922736162E+02 0.  0.
         11    1    4    4    0    0  0.84321008252E+01 -0.36052850270E+02 -0.70027110876E+02  0.79213032984E+02  0.00000000000E+00 0. -1.
        -12    1    4    4    0    0 -0.78467007555E+02  0.29917394461E+01 -0.13248510351E+03  0.15400754667E+03  0.00000000000E+00 0.  1.
        -13    1    3    3    0    0  0.13396710893E+03 -0.95717806254E+02 -0.37544264753E+03  0.40995885927E+03  0.00000000000E+00 0.  1.
         13    1    3    3    0    0  0.18647667236E+02 -0.59088787357E+02 -0.63807523462E+02  0.88941668160E+02  0.00000000000E+00 0. -1.
         -1    1    1    2    0  502 -0.82579869436E+02  0.18786770443E+03 -0.18445243994E+03  0.27592827293E+03  0.00000000000E+00 0.  1.
<scales pt_clust_5="13000.00000" pt_clust_6="13000.00000" pt_clust_7="13000.00000" pt_clust_8="13000.00000" pt_clust_9="13000.00000"></scales>
<clustering>
<clus scale="   85.923">  5  6 -1 -1</clus>
<clus scale="   93.299">  7  8 -1 -1</clus>
<clus scale="  205.216">  5  9 -1 -1</clus>
<clus scale="  236.561">  2  7  1 -1</clus>
<clus scale="  330.894">  1  5  2 -1</clus>
</clustering>
</event>
<event>
 9    1  0.4516508E-005  0.3677477E+03  0.7546771E-02  0.1066891E+00
         21   -1    0    0  501  502  0.00000000000E+00  0.00000000000E+00  0.85736626219E+02  0.85736626219E+02  0.00000000000E+00 0. -1.
         -4   -1    0    0    0  501 -0.00000000000E+00 -0.00000000000E+00 -0.13190581068E+04  0.13190581068E+04  0.00000000000E+00 0.  1.
         23    2    1    2    0    0 -0.12359441631E+03 -0.21939900525E+03 -0.30346341368E+03  0.40485752088E+03  0.91695504337E+02 0.  0.
        -24    2    1    2    0    0  0.35590395849E+02  0.35006508043E+01 -0.52012260505E+03  0.52851388246E+03  0.86720636746E+02 0.  0.
         11    1    4    4    0    0  0.64444817741E+02 -0.17137340632E+01 -0.36196754792E+03  0.36766367398E+03  0.00000000000E+00 0. -1.
        -12    1    4    4    0    0 -0.28854421893E+02  0.52143848675E+01 -0.15815505713E+03  0.16085020848E+03  0.00000000000E+00 0.  1.
        -11    1    3    3    0    0 -0.69757852289E+02 -0.44927548903E+02 -0.70597394830E+02  0.10894326396E+03  0.00000000000E+00 0. -1.
         11    1    3    3    0    0 -0.53836564024E+02 -0.17447145635E+03 -0.23286601885E+03  0.29591425691E+03  0.00000000000E+00 0.  1.
         -3    1    1    2    0  502  0.88004020464E+02  0.21589835445E+03 -0.40973546185E+03  0.47142332968E+03  0.00000000000E+00 0.  1.
<scales pt_clust_5="13000.00000" pt_clust_6="13000.00000" pt_clust_7="13000.00000" pt_clust_8="13000.00000" pt_clust_9="13000.00000"></scales>
<clustering>
<clus scale="   86.721">  5  6 -1 -1</clus>
<clus scale="   91.696">  7  8 -1 -1</clus>
<clus scale="  233.146">  5  9 -1 -1</clus>
<clus scale="  267.992">  2  7  1 -1</clus>
<clus scale="  367.748">  1  5  2 -1</clus>
</clustering>
</event>
<event>
 9    1  0.4516508E-005  0.1983981E+03  0.7546771E-02  0.1181099E+00
         21   -1    0    0  501  502  0.00000000000E+00  0.00000000000E+00  0.54693477078E+02  0.54693477078E+02  0.00000000000E+00 0. -1.
          1   -1    0    0  502    0 -0.00000000000E+00 -0.00000000000E+00 -0.44070788917E+03  0.44070788917E+03  0.00000000000E+00 0. -1.
         23    2    1    2    0    0 -0.12819512893E+02 -0.45634327692E+02 -0.20045967950E+03  0.22375389456E+03  0.87377860186E+02 0.  0.
        -24    2    1    2    0    0 -0.34870534323E+02  0.24669772353E+02 -0.13296247610E+02  0.91684034201E+02  0.80028870384E+02 0.  0.
         11    1    4    4    0    0 -0.32232575891E+02  0.21968374967E+02  0.29384604090E+02  0.48836496648E+02  0.00000000000E+00 0. -1.
        -12    1    4    4    0    0 -0.26379584320E+01  0.27013973857E+01 -0.42680851700E+02  0.42847537553E+02  0.00000000000E+00 0.  1.
        -11    1    3    3    0    0 -0.28346728245E+02 -0.66347588602E+02 -0.16261849191E+03  0.17790534963E+03  0.00000000000E+00 0. -1.
         11    1    3    3    0    0  0.15527215352E+02  0.20713260909E+02 -0.37841187592E+02  0.45848544932E+02  0.00000000000E+00 0.  1.
          2    1    1    2  501    0  0.47690047216E+02  0.20964555339E+02 -0.17225848498E+03  0.17996343748E+03  0.00000000000E+00 0. -1.
<scales pt_clust_5="13000.00000" pt_clust_6="13000.00000" pt_clust_7="13000.00000" pt_clust_8="13000.00000" pt_clust_9="13000.00000"></scales>
<clustering>
<clus scale="   80.029">  5  6 -1 -1</clus>
<clus scale="   52.095">  5  9 -1 -1</clus>
<clus scale="   87.378">  7  8 -1 -1</clus>
<clus scale="   99.407">  2  7  1 -1</clus>
<clus scale="  198.398">  1  5  2 -1</clus>
</clustering>
</event>
<event>
 9    1  0.4516508E-005  0.1992222E+03  0.7546771E-02  0.1179110E+00
         21   -1    0    0  501  502  0.00000000000E+00  0.00000000000E+00  0.19503806616E+03  0.19503806616E+03  0.00000000000E+00 0.  1.
         -4   -1    0    0    0  501 -0.00000000000E+00 -0.00000000000E+00 -0.17653244126E+03  0.17653244126E+03  0.00000000000E+00 0.  1.
         23    2    1    2    0    0  0.25334826665E+02 -0.38541077331E+02  0.11162536493E+03  0.15165966075E+03  0.91723293227E+02 0.  0.
        -24    2    1    2    0    0 -0.79762845043E+02 -0.25009949191E+02 -0.46828715313E+02  0.12428657607E+03  0.79161956811E+02 0.  0.
         13    1    4    4    0    0 -0.21805551705E+02  0.23741986104E+02 -0.35086077797E+02  0.47646582716E+02  0.00000000000E+00 0. -1.
        -14    1    4    4    0    0 -0.57957293337E+02 -0.48751935294E+02 -0.11742637516E+02  0.76639993357E+02  0.00000000000E+00 0.  1.
        -11    1    3    3    0    0 -0.22592491020E+02 -0.17814355049E+02  0.38527343149E+00  0.28773604778E+02  0.00000000000E+00 0. -1.
         11    1    3    3    0    0  0.47927317685E+02 -0.20726722282E+02  0.11124009150E+03  0.12288605598E+03  0.00000000000E+00 0.  1.
         -3    1    1    2    0  502  0.54428018378E+02  0.63551026522E+02 -0.46291024723E+02  0.95624270593E+02  0.00000000000E+00 0.  1.
<scales pt_clust_5="13000.00000" pt_clust_6="13000.00000" pt_clust_7="13000.00000" pt_clust_8="13000.00000" pt_clust_9="13000.00000"></scales>
<clustering>
<clus scale="   79.162">  5  6 -1 -1</clus>
<clus scale="   83.673">  5  9 -1 -1</clus>
<clus scale="   91.723">  7  8 -1 -1</clus>
<clus scale="  102.667">  2  7  1 -1</clus>
<clus scale="  199.222">  1  5  2 -1</clus>
</clustering>
</event>
<event>
 9    1  0.4516508E-005  0.5200639E+03  0.7546771E-02  0.1061834E+00
          1   -1    0    0  502    0 -0.00000000000E+00  0.00000000000E+00  0.10637977816E+04  0.10637977816E+04  0.00000000000E+00 0. -1.
         21   -1    0    0  501  502  0.00000000000E+00 -0.00000000000E+00 -0.97425945441E+02  0.97425945441E+02  0.00000000000E+00 0. -1.
         23    2    1    2    0    0 -0.18928065754E+02 -0.53252756879E+02  0.86623400616E+02  0.13925318877E+03  0.93240062534E+02 0.  0.
        -24    2    1    2    0    0 -0.17439616312E+03  0.80217497550E+02  0.12807829466E+03  0.24536938233E+03  0.83385943640E+02 0.  0.
         11    1    4    4    0    0 -0.10874268079E+03  0.60589875844E+02  0.12554443552E+03  0.17679793259E+03  0.00000000000E+00 0. -1.
        -12    1    4    4    0    0 -0.65653482334E+02  0.19627621706E+02  0.25338591390E+01  0.68571449734E+02  0.00000000000E+00 0.  1.
        -11    1    3    3    0    0 -0.27414069244E+02  0.10466461717E+02  0.65193886276E+02  0.71493501950E+02  0.00000000000E+00 0.  1.
         11    1    3    3    0    0  0.84860034896E+01 -0.63719218596E+02  0.21429514340E+02  0.67759686824E+02  0.00000000000E+00 0. -1.
          2    1    1    2  501    0  0.19332422887E+03 -0.26964740672E+02  0.75167014084E+03  0.77660115590E+03  0.00000000000E+00 0. -1.
<scales pt_clust_5="13000.00000" pt_clust_6="13000.00000" pt_clust_7="13000.00000" pt_clust_8="13000.00000" pt_clust_9="13000.00000"></scales>
<clustering>
<clus scale="   83.386">  5  6 -1 -1</clus>
<clus scale="   93.240">  7  8 -1 -1</clus>
<clus scale="  109.031">  1  7  2 -1</clus>
<clus scale="  191.287">  5  9 -1 -1</clus>
<clus scale="  520.064">  2  5  1 -1</clus>
</clustering>
</event>
<event>
 9    1  0.4516508E-005  0.2424582E+03  0.7546771E-02  0.1155324E+00
         -2   -1    0    0    0  501 -0.00000000000E+00  0.00000000000E+00  0.17087476641E+03  0.17087476641E+03  0.00000000000E+00 0.  1.
         21   -1    0    0  501  502  0.00000000000E+00 -0.00000000000E+00 -0.20281339154E+03  0.20281339154E+03  0.00000000000E+00 0.  1.
         23    2    1    2    0    0  0.21159236782E+02  0.30495981769E+02 -0.79630347502E+02  0.12658395258E+03  0.91130601904E+02 0.  0.
        -24    2    1    2    0    0 -0.32992496812E+02 -0.11062462651E+03 -0.19785568347E+02  0.14168214642E+03  0.79724833409E+02 0.  0.
         13    1    4    4    0    0  0.67872994440E+01 -0.38998817069E+02  0.26447044659E+02  0.47606946318E+02  0.00000000000E+00 0. -1.
        -14    1    4    4    0    0 -0.39779796257E+02 -0.71625809444E+02 -0.46232613006E+02  0.94075200101E+02  0.00000000000E+00 0.  1.
        -13    1    3    3    0    0 -0.45797894076E+01 -0.25773612303E+02 -0.56390717258E+00  0.26183421348E+02  0.00000000000E+00 0.  1.
         13    1    3    3    0    0  0.25739026189E+02  0.56269594073E+02 -0.79066440330E+02  0.10040053124E+03  0.00000000000E+00 0. -1.
         -1    1    1    2    0  502  0.11833260031E+02  0.80128644743E+02  0.67477290715E+02  0.10542205895E+03  0.00000000000E+00 0.  1.
<scales pt_clust_5="13000.00000" pt_clust_6="13000.00000" pt_clust_7="13000.00000" pt_clust_8="13000.00000" pt_clust_9="13000.00000"></scales>
<clustering>
<clus scale="   79.725">  5  6 -1 -1</clus>
<clus scale="   80.998">  5  9 -1 -1</clus>
<clus scale="   91.131">  7  8 -1 -1</clus>
<clus scale="   98.400">  1  7  2 -1</clus>
<clus scale="  242.458">  2  5  1 -1</clus>
</clustering>
</event>
<event>
 9    1  0.4516508E-005  0.1720599E+03  0.7546771E-02  0.1192565E+00
         21   -1    0    0  501  502  0.00000000000E+00  0.00000000000E+00  0.48946271797E+02  0.48946271797E+02  0.00000000000E+00 0. -1.
          1   -1    0    0  502    0 -0.00000000000E+00 -0.00000000000E+00 -0.56567896458E+03  0.56567896458E+03  0.00000000000E+00 0. -1.
         23    2    1    2    0    0 -0.29502678790E+02  0.63569366593E+02 -0.37030907343E+03  0.38869499225E+03  0.95097395926E+02 0.  0.
        -24    2    1    2    0    0 -0.39246851084E+02 -0.31432293777E+02 -0.91583442454E+02  0.13229940354E+03  0.81162188441E+02 0.  0.
         13    1    4    4    0    0 -0.24457486842E+02 -0.43631503233E+02 -0.13375944732E+02  0.51776371392E+02  0.00000000000E+00 0. -1.
        -14    1    4    4    0    0 -0.14789364242E+02  0.12199209456E+02 -0.78207497722E+02  0.80523032146E+02  0.00000000000E+00 0.  1.
        -13    1    3    3    0    0 -0.34683931506E+02  0.83889154392E+02 -0.33949991591E+03  0.35142646206E+03  0.00000000000E+00 0. -1.
         13    1    3    3    0    0  0.51812527157E+01 -0.20319787799E+02 -0.30809157515E+02  0.37268530192E+02  0.00000000000E+00 0.  1.
          2    1    1    2  501    0  0.68749529874E+02 -0.32137072816E+02 -0.54840176900E+02  0.93630840589E+02  0.00000000000E+00 0. -1.
<scales pt_clust_5="13000.00000" pt_clust_6="13000.00000" pt_clust_7="13000.00000" pt_clust_8="13000.00000" pt_clust_9="13000.00000"></scales>
<clustering>
<clus scale="   81.162">  5  6 -1 -1</clus>
<clus scale="   75.890">  5  9 -1 -1</clus>
<clus scale="   95.097">  7  8 -1 -1</clus>
<clus scale="  118.131">  2  7  1 -1</clus>
<clus scale="  172.060">  1  5  2 -1</clus>
</clustering>
</event>
<event>
 9    1  0.4516508E-005  0.2486160E+03  0.7546771E-02  0.1148688E+00
          1   -1    0    0  502    0 -0.00000000000E+00  0.00000000000E+00  0.42826054501E+03  0.42826054501E+03  0.00000000000E+00 0. -1.
         21   -1    0    0  501  502  0.00000000000E+00 -0.00000000000E+00 -0.10523791843E+03  0.10523791843E+03  0.00000000000E+00 0. -1.
         23    2    1    2    0    0 -0.17830312547E+02  0.52384387369E+02  0.25393775334E+03  0.27546234423E+03  0.91285685773E+02 0.  0.
        -24    2    1    2    0    0 -0.10509466638E+02  0.55307434061E+02  0.10176614342E+03  0.14198123174E+03  0.81442992759E+02 0.  0.
         11    1    4    4    0    0 -0.28434886370E+01  0.49397663271E+02  0.10983271653E+02  0.50683792483E+02  0.00000000000E+00 0. -1.
        -12    1    4    4    0    0 -0.76659780010E+01  0.59097707901E+01  0.90782871762E+02  0.91297439257E+02  0.00000000000E+00 0.  1.
        -11    1    3    3    0    0 -0.53220381519E+02  0.46549051197E+02  0.17578522342E+03  0.18947207696E+03  0.00000000000E+00 0. -1.
         11    1    3    3    0    0  0.35390068972E+02  0.58353361713E+01  0.78152529927E+02  0.85990267263E+02  0.00000000000E+00 0.  1.
          2    1    1    2  501    0  0.28339779185E+02 -0.10769182143E+03 -0.32681270176E+02  0.11605488748E+03  0.00000000000E+00 0. -1.
<scales pt_clust_5="13000.00000" pt_clust_6="13000.00000" pt_clust_7="13000.00000" pt_clust_8="13000.00000" pt_clust_9="13000.00000"></scales>
<clustering>
<clus scale="   81.443">  5  6 -1 -1</clus>
<clus scale="   91.286">  7  8 -1 -1</clus>
<clus scale="  106.748">  1  7  2 -1</clus>
<clus scale="   97.295">  5  9 -1 -1</clus>
<clus scale="  248.616">  2  5  1 -1</clus>
</clustering>
</event>
<event>
 9    1  0.4516508E-005  0.4065698E+03  0.7546771E-02  0.1050228E+00
         21   -1    0    0  501  502  0.00000000000E+00  0.00000000000E+00  0.86956044806E+02  0.86956044806E+02  0.00000000000E+00 0. -1.
          1   -1    0    0  502    0 -0.00000000000E+00 -0.00000000000E+00 -0.18108723847E+04  0.18108723847E+04  0.00000000000E+00 0. -1.
         23    2    1    2    0    0 -0.30253911751E+03  0.15247722097E+02 -0.11613646080E+04  0.12037366227E+04  0.91933092757E+02 0.  0.
        -24    2    1    2    0    0 -0.20297324948E+02 -0.84282686849E+01 -0.12926002612E+03  0.15371085243E+03  0.80223778832E+02 0.  0.
         13    1    4    4    0    0  0.21021918990E+02 -0.93543419877E+01 -0.10113478502E+03  0.10371918594E+03  0.00000000000E+00 0. -1.
        -14    1    4    4    0    0 -0.41319243938E+02  0.92607330278E+00 -0.28125241100E+02  0.49991666488E+02  0.00000000000E+00 0.  1.
        -11    1    3    3    0    0 -0.11137507632E+03  0.21674266826E+02 -0.28529704121E+03  0.30703189279E+03  0.00000000000E+00 0.  1.
         11    1    3    3    0    0 -0.19116404119E+03 -0.64265447294E+01 -0.87606756680E+03  0.89670472996E+03  0.00000000000E+00 0. -1.
          2    1    1    2  501    0  0.32283644246E+03 -0.68194534119E+01 -0.43329170581E+03  0.54038095437E+03  0.00000000000E+00 0. -1.
<scales pt_clust_5="13000.00000" pt_clust_6="13000.00000" pt_clust_7="13000.00000" pt_clust_8="13000.00000" pt_clust_9="13000.00000"></scales>
<clustering>
<clus scale="   80.224">  5  6 -1 -1</clus>
<clus scale="   91.933">  7  8 -1 -1</clus>
<clus scale="  316.566">  2  7  1 -1</clus>
<clus scale="   88.564">  5  9 -1 -1</clus>
<clus scale="  406.570">  1  5  2 -1</clus>
</clustering>
</event>
<event>
 9    1  0.4516508E-005  0.3392797E+03  0.7546771E-02  0.1108704E+00
          1   -1    0    0  502    0 -0.00000000000E+00  0.00000000000E+00  0.68600863367E+03  0.68600863367E+03  0.00000000000E+00 0. -1.
         21   -1    0    0  501  502  0.00000000000E+00 -0.00000000000E+00 -0.95042363304E+02  0.95042363304E+02  0.00000000000E+00 0. -1.
         23    2    1    2    0    0 -0.21423458885E+02  0.60610179469E+02  0.34260582759E+03  0.36058263525E+03  0.92241667907E+02 0.  0.
        -24    2    1    2    0    0  0.88214722468E+02  0.10463270702E+03  0.13906303698E+03  0.21139371635E+03  0.81356833890E+02 0.  0.
         13    1    4    4    0    0  0.63993928536E+02  0.11049431140E+03  0.89539045135E+02  0.15595337875E+03  0.00000000000E+00 0. -1.
        -14    1    4    4    0    0  0.24220793932E+02 -0.58616043822E+01  0.49523991843E+02  0.55440337595E+02  0.00000000000E+00 0.  1.
        -11    1    3    3    0    0  0.31096176568E+02  0.49712095095E+02  0.18843591353E+03  0.19734831670E+03  0.00000000000E+00 0.  1.
         11    1    3    3    0    0 -0.52519635453E+02  0.10898084374E+02  0.15416991406E+03  0.16323431855E+03  0.00000000000E+00 0. -1.
          2    1    1    2  501    0 -0.66791263583E+02 -0.16524288649E+03  0.10929740580E+03  0.20907464538E+03  0.00000000000E+00 0. -1.
<scales pt_clust_5="13000.00000" pt_clust_6="13000.00000" pt_clust_7="13000.00000" pt_clust_8="13000.00000" pt_clust_9="13000.00000"></scales>
<clustering>
<clus scale="   81.357">  5  6 -1 -1</clus>
<clus scale="   92.242">  7  8 -1 -1</clus>
<clus scale="  112.433">  1  7  2 -1</clus>
<clus scale="  156.621">  5  9 -1 -1</clus>
<clus scale="  339.280">  2  5  1 -1</clus>
</clustering>
</event>
<event>
 9    1  0.4516508E-005  0.1284843E+03  0.7546771E-02  0.1232037E+00
          3   -1    0    0  502    0 -0.00000000000E+00  0.00000000000E+00  0.26660255489E+03  0.26660255489E+03  0.00000000000E+00 0. -1.
         21   -1    0    0  501  502  0.00000000000E+00 -0.00000000000E+00 -0.64101745164E+02  0.64101745164E+02  0.00000000000E+00 0. -1.
         23    2    1    2    0    0 -0.36527531086E+02  0.18954525249E+02  0.14979736906E+03  0.19735114710E+03  0.12171560676E+03 0.  0.
        -24    2    1    2    0    0  0.21003888227E+02 -0.42422470452E+02  0.38930750586E+02  0.10202561025E+03  0.81564652186E+02 0.  0.
         13    1    4    4    0    0 -0.15006899193E+02 -0.44997582543E+02 -0.19641577511E+01  0.47474702462E+02  0.00000000000E+00 0. -1.
        -14    1    4    4    0    0  0.36010787420E+02  0.25751120917E+01  0.40894908337E+02  0.54550907791E+02  0.00000000000E+00 0.  1.
        -13    1    3    3    0    0 -0.63413679791E+02  0.54481538605E+02  0.90899706797E+02  0.12350016004E+03  0.00000000000E+00 0. -1.
         13    1    3    3    0    0  0.26886148706E+02 -0.35527013355E+02  0.58897662261E+02  0.73850987062E+02  0.00000000000E+00 0.  1.
          4    1    1    2  501    0  0.15523642859E+02  0.23467945202E+02  0.13772690081E+02  0.31327542701E+02  0.00000000000E+00 0. -1.
<scales pt_clust_5="13000.00000" pt_clust_6="13000.00000" pt_clust_7="13000.00000" pt_clust_8="13000.00000" pt_clust_9="13000.00000"></scales>
<clustering>
<clus scale="   81.565">  5  6 -1 -1</clus>
<clus scale="   28.138">  5  9 -1 -1</clus>
<clus scale="  121.716">  7  8 -1 -1</clus>
<clus scale="  122.497">  2  5  1 -1</clus>
<clus scale="  122.497">  2  5  1 -1</clus>
</clustering>
</event>
<event>
 9    1  0.4516508E-005  0.2381655E+03  0.7546771E-02  0.1150735E+00
         -2   -1    0    0    0  501 -0.00000000000E+00  0.00000000000E+00  0.26024732578E+03  0.26024732578E+03  0.00000000000E+00 0.  1.
         21   -1    0    0  501  502  0.00000000000E+00 -0.00000000000E+00 -0.29947875474E+03  0.29947875474E+03  0.00000000000E+00 0. -1.
         23    2    1    2    0    0  0.15015927572E+02  0.71448177587E+02 -0.22810518484E+03  0.25575884052E+03  0.89723402709E+02 0.  0.
        -24    2    1    2    0    0  0.24971614269E+02  0.57587190424E+02  0.72487828065E+02  0.12565623671E+03  0.81210458601E+02 0.  0.
         11    1    4    4    0    0  0.38576277753E+01  0.65779058700E+02  0.78239618682E+02  0.10228980295E+03  0.00000000000E+00 0. -1.
        -12    1    4    4    0    0  0.21113986494E+02 -0.81918682757E+01 -0.57517906161E+01  0.23366433763E+02  0.00000000000E+00 0.  1.
        -13    1    3    3    0    0  0.39452978722E+02  0.77583934548E+02 -0.19937440050E+03  0.21754529644E+03  0.00000000000E+00 0. -1.
         13    1    3    3    0    0 -0.24437051150E+02 -0.61357569611E+01 -0.28730784341E+02  0.38213544081E+02  0.00000000000E+00 0.  1.
         -1    1    1    2    0  502 -0.39987541841E+02 -0.12903536801E+03  0.11638592781E+03  0.17831100329E+03  0.00000000000E+00 0.  1.
<scales pt_clust_5="13000.00000" pt_clust_6="13000.00000" pt_clust_7="13000.00000" pt_clust_8="13000.00000" pt_clust_9="13000.00000"></scales>
<clustering>
<clus scale="   81.210">  5  6 -1 -1</clus>
<clus scale="   89.723">  7  8 -1 -1</clus>
<clus scale="  115.675">  1  7  2 -1</clus>
<clus scale="   91.714">  5  9 -1 -1</clus>
<clus scale="  238.165">  2  5  1 -1</clus>
</clustering>
</event>
<event>
 9    1  0.4516508E-005  0.2405575E+03  0.7546771E-02  0.1145502E+00
          1   -1    0    0  502    0 -0.00000000000E+00  0.00000000000E+00  0.43282275569E+03  0.43282275569E+03  0.00000000000E+00 0. -1.
         21   -1    0    0  501  502  0.00000000000E+00 -0.00000000000E+00 -0.11694511540E+03  0.11694511540E+03  0.00000000000E+00 0.  1.
         23    2    1    2    0    0 -0.91275210853E+02 -0.46037486347E+02 -0.27926819776E+02  0.13016161423E+03  0.75574627290E+02 0.  0.
        -24    2    1    2    0    0 -0.36744407390E+01  0.68899635603E+02  0.28917742876E+03  0.30770350107E+03  0.79354886204E+02 0.  0.
         11    1    4    4    0    0  0.55599977441E+01  0.85606318690E+02  0.24473779799E+03  0.25933751202E+03  0.00000000000E+00 0. -1.
        -12    1    4    4    0    0 -0.92344384831E+01 -0.16706683087E+02  0.44439630773E+02  0.48365989053E+02  0.00000000000E+00 0.  1.
        -11    1    3    3    0    0 -0.16053152821E+02 -0.18330931307E+02 -0.42208550003E+02  0.48736931084E+02  0.00000000000E+00 0.  1.
         11    1    3    3    0    0 -0.75222058031E+02 -0.27706555040E+02  0.14281730228E+02  0.81424683143E+02  0.00000000000E+00 0. -1.
          2    1    1    2  501    0  0.94949651592E+02 -0.22862149256E+02  0.54627031295E+02  0.11190275579E+03  0.00000000000E+00 0. -1.
<scales pt_clust_5="13000.00000" pt_clust_6="13000.00000" pt_clust_7="13000.00000" pt_clust_8="13000.00000" pt_clust_9="13000.00000"></scales>
<clustering>
<clus scale="   75.575">  7  8 -1 -1</clus>
<clus scale="   79.355">  5  6 -1 -1</clus>
<clus scale="   97.663">  5  9 -1 -1</clus>
<clus scale="  127.130">  1  7  2 -1</clus>
<clus scale="  240.557">  2  5  1 -1</clus>
</clustering>
</event>
<event>
 9    1  0.4516508E-005  0.2543958E+03  0.7546771E-02  0.1119843E+00
         21   -1    0    0  501  502  0.00000000000E+00  0.00000000000E+00  0.89813868546E+02  0.89813868546E+02  0.00000000000E+00 0. -1.
          1   -1    0    0  502    0 -0.00000000000E+00 -0.00000000000E+00 -0.64276654880E+03  0.64276654880E+03  0.00000000000E+00 0. -1.
         23    2    1    2    0    0  0.55612985831E+02  0.17382120570E+03 -0.13187402665E+03  0.24062061445E+03  0.84858149014E+02 0.  0.
        -24    2    1    2    0    0  0.35077097364E+02 -0.92165026685E+02 -0.25311097177E+03  0.28434100581E+03  0.84022905508E+02 0.  0.
         13    1    4    4    0    0  0.36836966802E+02 -0.10753989141E+03 -0.22951783343E+03  0.25612541114E+03  0.00000000000E+00 0. -1.
        -14    1    4    4    0    0 -0.17598694375E+01  0.15374864728E+02 -0.23593138347E+02  0.28215594676E+02  0.00000000000E+00 0.  1.
        -11    1    3    3    0    0  0.49404445657E+02  0.43127787090E+02 -0.20253690672E+02  0.68636850568E+02  0.00000000000E+00 0.  1.
         11    1    3    3    0    0  0.62085401742E+01  0.13069341860E+03 -0.11162033597E+03  0.17198376389E+03  0.00000000000E+00 0. -1.
          2    1    1    2  501    0 -0.90690083195E+02 -0.81656179010E+02 -0.16796768184E+03  0.20761879708E+03  0.00000000000E+00 0. -1.
<scales pt_clust_5="13000.00000" pt_clust_6="13000.00000" pt_clust_7="13000.00000" pt_clust_8="13000.00000" pt_clust_9="13000.00000"></scales>
<clustering>
<clus scale="   84.023">  5  6 -1 -1</clus>
<clus scale="   84.858">  7  8 -1 -1</clus>
<clus scale="  122.035">  5  9 -1 -1</clus>
<clus scale="  201.265">  2  7  1 -1</clus>
<clus scale="  254.396">  1  5  2 -1</clus>
</clustering>
</event>
<event>
 9    1  0.4516508E-005  0.5827574E+03  0.7546771E-02  0.1021109E+00
         21   -1    0    0  501  502  0.00000000000E+00  0.00000000000E+00  0.28295592760E+03  0.28295592760E+03  0.00000000000E+00 0. -1.
          1   -1    0    0  502    0 -0.00000000000E+00 -0.00000000000E+00 -0.12023171344E+04  0.12023171344E+04  0.00000000000E+00 0. -1.
         23    2    1    2    0    0  0.96761483054E+02 -0.21710990639E+03 -0.86365569116E+03  0.89985923863E+03  0.85708811786E+02 0.  0.
        -24    2    1    2    0    0 -0.63890867771E+01 -0.13045224401E+03 -0.15036862322E+03  0.21402760616E+03  0.78348484042E+02 0.  0.
         13    1    4    4    0    0  0.19193807589E+02 -0.35468579265E+02 -0.89972828203E+02  0.98597830502E+02  0.00000000000E+00 0. -1.
        -14    1    4    4    0    0 -0.25582894366E+02 -0.94983664740E+02 -0.60395795018E+02  0.11542977565E+03  0.00000000000E+00 0.  1.
        -11    1    3    3    0    0  0.20263457739E+02  0.21761949076E+01 -0.64921490686E+02  0.68045157775E+02  0.00000000000E+00 0.  1.
         11    1    3    3    0    0  0.76498025315E+02 -0.21928610130E+03 -0.79873420048E+03  0.83181408086E+03  0.00000000000E+00 0. -1.
          2    1    1    2  501    0 -0.90372396277E+02  0.34756215040E+03  0.94663107582E+02  0.37138621721E+03  0.00000000000E+00 0. -1.
<scales pt_clust_5="13000.00000" pt_clust_6="13000.00000" pt_clust_7="13000.00000" pt_clust_8="13000.00000" pt_clust_9="13000.00000"></scales>
<clustering>
<clus scale="   78.348">  5  6 -1 -1</clus>
<clus scale="   85.709">  7  8 -1 -1</clus>
<clus scale="  252.677">  2  7  1 -1</clus>
<clus scale="  258.464">  5  9 -1 -1</clus>
<clus scale="  582.757">  1  5  2 -1</clus>
</clustering>
</event>
<event>
 9    1  0.4516508E-005  0.2167912E+03  0.7546771E-02  0.1162486E+00
         21   -1    0    0  501  502  0.00000000000E+00  0.00000000000E+00  0.77778008171E+03  0.77778008171E+03  0.00000000000E+00 0. -1.
         -4   -1    0    0    0  501 -0.00000000000E+00 -0.00000000000E+00 -0.36539240552E+02  0.36539240552E+02  0.00000000000E+00 0.  1.
         23    2    1    2    0    0  0.74294283075E+02 -0.39909716315E+00  0.32053078085E+03  0.34103783807E+03  0.89705215836E+02 0.  0.
        -24    2    1    2    0    0  0.13478213872E+02 -0.66784976593E+02  0.20570469461E+03  0.23152743921E+03  0.81539183060E+02 0.  0.
         11    1    4    4    0    0  0.19202165970E+02 -0.22404632225E+02  0.10594783909E+02  0.31351876645E+02  0.00000000000E+00 0. -1.
        -12    1    4    4    0    0 -0.57239520981E+01 -0.44380344368E+02  0.19510991070E+03  0.20017556256E+03  0.00000000000E+00 0.  1.
        -13    1    3    3    0    0  0.32507590287E+02 -0.22828776174E+02  0.39449286683E+02  0.55983414220E+02  0.00000000000E+00 0.  1.
         13    1    3    3    0    0  0.41786692788E+02  0.22429679011E+02  0.28108149417E+03  0.28505442385E+03  0.00000000000E+00 0. -1.
         -3    1    1    2    0  502 -0.87772496947E+02  0.67184073756E+02  0.21500536570E+03  0.24175404498E+03  0.00000000000E+00 0.  1.
<scales pt_clust_5="13000.00000" pt_clust_6="13000.00000" pt_clust_7="13000.00000" pt_clust_8="13000.00000" pt_clust_9="13000.00000"></scales>
<clustering>
<clus scale="   81.539">  5  6 -1 -1</clus>
<clus scale="   89.705">  7  8 -1 -1</clus>
<clus scale="  110.534">  5  9 -1 -1</clus>
<clus scale="  116.477">  2  7  1 -1</clus>
<clus scale="  216.791">  1  5  2 -1</clus>
</clustering>
</event>
<event>
 9    1  0.4516508E-005  0.2148404E+03  0.7546771E-02  0.1153767E+00
          1   -1    0    0  502    0 -0.00000000000E+00  0.00000000000E+00  0.46712924679E+03  0.46712924679E+03  0.00000000000E+00 0. -1.
         21   -1    0    0  501  502  0.00000000000E+00 -0.00000000000E+00 -0.70302623606E+02  0.70302623606E+02  0.00000000000E+00 0. -1.
         23    2    1    2    0    0 -0.38070035666E+02  0.10865334712E+03  0.14271204553E+03  0.20466976506E+03  0.90929133596E+02 0.  0.
        -24    2    1    2    0    0 -0.17714253086E+02 -0.16003700463E+02  0.18821797621E+03  0.20612006659E+03  0.80557818313E+02 0.  0.
         11    1    4    4    0    0 -0.14693688880E+02  0.26613553907E+02  0.13230300780E+03  0.13575077023E+03  0.00000000000E+00 0. -1.
        -12    1    4    4    0    0 -0.30205642059E+01 -0.42617254370E+02  0.55914968408E+02  0.70369296360E+02  0.00000000000E+00 0.  1.
        -13    1    3    3    0    0 -0.57250676442E+02  0.31320591883E+02  0.80213694182E+02  0.10340626752E+03  0.00000000000E+00 0.  1.
         13    1    3    3    0    0  0.19180640776E+02  0.77332755233E+02  0.62498351345E+02  0.10126349754E+03  0.00000000000E+00 0. -1.
          2    1    1    2  501    0  0.55784288752E+02 -0.92649646652E+02  0.65896601453E+02  0.12664203875E+03  0.00000000000E+00 0. -1.
<scales pt_clust_5="13000.00000" pt_clust_6="13000.00000" pt_clust_7="13000.00000" pt_clust_8="13000.00000" pt_clust_9="13000.00000"></scales>
<clustering>
<clus scale="   80.558">  5  6 -1 -1</clus>
<clus scale="   90.929">  7  8 -1 -1</clus>
<clus scale="  108.147">  5  9 -1 -1</clus>
<clus scale="  146.707">  1  7  2 -1</clus>
<clus scale="  214.840">  2  5  1 -1</clus>
</clustering>
</event>
<event>
 9    1  0.4516508E-005  0.2022832E+03  0.7546771E-02  0.1181604E+00
         -2   -1    0    0    0  501 -0.00000000000E+00  0.00000000000E+00  0.24474076593E+03  0.24474076593E+03  0.00000000000E+00 0.  1.
         21   -1    0    0  501  502  0.00000000000E+00 -0.00000000000E+00 -0.91550271088E+02  0.91550271088E+02  0.00000000000E+00 0.  1.
         23    2    1    2    0    0  0.11197859544E+01  0.62067004773E+01  0.22369750855E+02  0.95391581753E+02  0.92516869082E+02 0.  0.
        -24    2    1    2    0    0 -0.36139850122E+02  0.66391363332E+02  0.11376103606E+03  0.15851063687E+03  0.80437222613E+02 0.  0.
         13    1    4    4    0    0  0.24351827396E+00  0.32555866321E+02  0.10252637714E+03  0.10757137976E+03  0.00000000000E+00 0. -1.
        -14    1    4    4    0    0 -0.36383368396E+02  0.33835497011E+02  0.11234658922E+02  0.50939257110E+02  0.00000000000E+00 0.  1.
        -11    1    3    3    0    0 -0.29946639317E+02  0.75423087184E+01  0.46646050207E+02  0.55942306237E+02  0.00000000000E+00 0. -1.
         11    1    3    3    0    0  0.31066425272E+02 -0.13356082411E+01 -0.24276299352E+02  0.39449275516E+02  0.00000000000E+00 0.  1.
         -1    1    1    2    0  502  0.35020064168E+02 -0.72598063809E+02  0.17059707928E+02  0.82388818402E+02  0.00000000000E+00 0.  1.
<scales pt_clust_5="13000.00000" pt_clust_6="13000.00000" pt_clust_7="13000.00000" pt_clust_8="13000.00000" pt_clust_9="13000.00000"></scales>
<clustering>
<clus scale="   80.437">  5  6 -1 -1</clus>
<clus scale="   80.603">  5  9 -1 -1</clus>
<clus scale="   92.517">  7  8 -1 -1</clus>
<clus scale="   92.732">  1  7  2 -1</clus>
<clus scale="  202.283">  2  5  1 -1</clus>
</clustering>
</event>
<event>
 9    1  0.4516508E-005  0.3229715E+03  0.7546771E-02  0.1123027E+00
          3   -1    0    0  502    0 -0.00000000000E+00  0.00000000000E+00  0.50218233134E+03  0.50218233134E+03  0.00000000000E+00 0. -1.
         21   -1    0    0  501  502  0.00000000000E+00 -0.00000000000E+00 -0.92298808443E+02  0.92298808443E+02  0.00000000000E+00 0. -1.
         23    2    1    2    0    0  0.57414917776E+01 -0.34542603870E+01  0.16793914371E+03  0.19093724566E+03  0.90601209413E+02 0.  0.
        -24    2    1    2    0    0  0.36892818631E+01 -0.75979409982E+02 -0.26675030201E+02  0.12326718339E+03  0.93256419207E+02 0.  0.
         13    1    4    4    0    0  0.21355790975E+02 -0.24823463535E+02 -0.53606035307E+02  0.62816249262E+02  0.00000000000E+00 0. -1.
        -14    1    4    4    0    0 -0.17666509112E+02 -0.51155946447E+02  0.26931005106E+02  0.60450934129E+02  0.00000000000E+00 0.  1.
        -11    1    3    3    0    0  0.60663364686E+01  0.40441112600E+02  0.47118253122E+02  0.62389212238E+02  0.00000000000E+00 0. -1.
         11    1    3    3    0    0 -0.32484469102E+00 -0.43895372987E+02  0.12082089059E+03  0.12854803342E+03  0.00000000000E+00 0.  1.
          4    1    1    2  501    0 -0.94307736407E+01  0.79433670369E+02  0.26861940938E+03  0.28027671073E+03  0.00000000000E+00 0. -1.
<scales pt_clust_5="13000.00000" pt_clust_6="13000.00000" pt_clust_7="13000.00000" pt_clust_8="13000.00000" pt_clust_9="13000.00000"></scales>
<clustering>
<clus scale="   90.601">  7  8 -1 -1</clus>
<clus scale="   90.849">  1  7  2 -1</clus>
<clus scale="   93.256">  5  6 -1 -1</clus>
<clus scale="   76.631">  5  9 -1 -1</clus>
<clus scale="  322.972">  2  5  1 -1</clus>
</clustering>
</event>
<event>
 9    1  0.4516508E-005  0.3305492E+03  0.7546771E-02  0.1098750E+00
         21   -1    0    0  501  502  0.00000000000E+00  0.00000000000E+00  0.46022739643E+02  0.46022739643E+02  0.00000000000E+00 0. -1.
          1   -1    0    0  502    0 -0.00000000000E+00 -0.00000000000E+00 -0.12961757722E+04  0.12961757722E+04  0.00000000000E+00 0. -1.
         23    2    1    2    0    0  0.43714378108E+02  0.12095376712E+03 -0.43953868126E+03  0.46677950777E+03  0.90266804077E+02 0.  0.
        -24    2    1    2    0    0 -0.73204044252E+02  0.48710058057E+02 -0.54955016021E+03  0.56267315541E+03  0.82850464016E+02 0.  0.
         11    1    4    4    0    0 -0.74853041914E+02  0.16564760717E+02 -0.25243632213E+03  0.26382089741E+03  0.00000000000E+00 0. -1.
        -12    1    4    4    0    0  0.16489976622E+01  0.32145297340E+02 -0.29711383808E+03  0.29885225800E+03  0.00000000000E+00 0.  1.
        -11    1    3    3    0    0  0.66227373440E+02  0.75002560627E+02 -0.22536961512E+03  0.24658246595E+03  0.00000000000E+00 0. -1.
         11    1    3    3    0    0 -0.22512995333E+02  0.45951206490E+02 -0.21416906614E+03  0.22019704182E+03  0.00000000000E+00 0.  1.
          2    1    1    2  501    0  0.29489666144E+02 -0.16966382517E+03 -0.26106419107E+03  0.31274584864E+03  0.00000000000E+00 0. -1.
<scales pt_clust_5="13000.00000" pt_clust_6="13000.00000" pt_clust_7="13000.00000" pt_clust_8="13000.00000" pt_clust_9="13000.00000"></scales>
<clustering>
<clus scale="   82.850">  5  6 -1 -1</clus>
<clus scale="   90.267">  7  8 -1 -1</clus>
<clus scale="  157.127">  2  7  1 -1</clus>
<clus scale="  135.943">  5  9 -1 -1</clus>
<clus scale="  330.549">  1  5  2 -1</clus>
</clustering>
</event>
<event>
 9    1  0.4516508E-005  0.1678662E+03  0.7546771E-02  0.1197992E+00
         21   -1    0    0  501  502  0.00000000000E+00  0.00000000000E+00  0.33550921255E+03  0.33550921255E+03  0.00000000000E+00 0. -1.
          3   -1    0    0  502    0 -0.00000000000E+00 -0.00000000000E+00 -0.69122571989E+02  0.69122571989E+02  0.00000000000E+00 0. -1.
         23    2    1    2    0    0  0.33034221090E+02 -0.60633017974E+02  0.34009550891E+02  0.11796444799E+03  0.89394288448E+02 0.  0.
        -24    2    1    2    0    0 -0.62246229311E+02  0.51142064835E+02  0.22831899596E+03  0.25568528141E+03  0.82190603800E+02 0.  0.
         13    1    4    4    0    0 -0.62532811479E+02  0.49466692409E+02  0.23533043514E+03  0.24847076261E+03  0.00000000000E+00 0. -1.
        -14    1    4    4    0    0  0.28658216828E+00  0.16753724259E+01 -0.70114391792E+01  0.72145187968E+01  0.00000000000E+00 0.  1.
        -11    1    3    3    0    0 -0.29277631796E+02 -0.56319432709E+01  0.10129933908E+02  0.31488316398E+02  0.00000000000E+00 0.  1.
         11    1    3    3    0    0  0.62311852887E+02 -0.55001074704E+02  0.23879616984E+02  0.86476131597E+02  0.00000000000E+00 0. -1.
          4    1    1    2  501    0  0.29212008220E+02  0.94909531390E+01  0.40580937071E+01  0.30982055133E+02  0.00000000000E+00 0. -1.
<scales pt_clust_5="13000.00000" pt_clust_6="13000.00000" pt_clust_7="13000.00000" pt_clust_8="13000.00000" pt_clust_9="13000.00000"></scales>
<clustering>
<clus scale="   82.191">  5  6 -1 -1</clus>
<clus scale="   30.715">  5  9 -1 -1</clus>
<clus scale="   89.394">  7  8 -1 -1</clus>
<clus scale="  112.956">  2  7  1 -1</clus>
<clus scale="  167.866">  1  5  2 -1</clus>
</clustering>
</event>
<event>
 9    1  0.4516508E-005  0.3733197E+03  0.7546771E-02  0.1092888E+00
          1   -1    0    0  502    0 -0.00000000000E+00  0.00000000000E+00  0.24208168654E+03  0.24208168654E+03  0.00000000000E+00 0. -1.
         21   -1    0    0  501  502  0.00000000000E+00 -0.00000000000E+00 -0.26017530190E+03  0.26017530190E+03  0.00000000000E+00 0. -1.
         23    2    1    2    0    0 -0.58757294118E+02  0.65259395624E+02 -0.21359100094E+02  0.12892301666E+03  0.91944139226E+02 0.  0.
        -24    2    1    2    0    0  0.10000755429E+03  0.70958123272E+02 -0.11668475414E+03  0.18720268418E+03  0.79955906240E+02 0.  0.
         13    1    4    4    0    0  0.10404753644E+03  0.35477080016E+02 -0.95918288417E+02  0.14589321814E+03  0.00000000000E+00 0. -1.
        -14    1    4    4    0    0 -0.40399821499E+01  0.35481043255E+02 -0.20766465724E+02  0.41309466045E+02  0.00000000000E+00 0.  1.
        -11    1    3    3    0    0 -0.25586923269E+02 -0.21532433168E+02 -0.12037871763E+02  0.35542181660E+02  0.00000000000E+00 0. -1.
         11    1    3    3    0    0 -0.33170370849E+02  0.86791828792E+02 -0.93212283305E+01  0.93380834998E+02  0.00000000000E+00 0.  1.
          2    1    1    2  501    0 -0.41250260168E+02 -0.13621751890E+03  0.11995023887E+03  0.18613128760E+03  0.00000000000E+00 0. -1.
<scales pt_clust_5="13000.00000" pt_clust_6="13000.00000" pt_clust_7="13000.00000" pt_clust_8="13000.00000" pt_clust_9="13000.00000"></scales>
<clustering>
<clus scale="   79.956">  5  6 -1 -1</clus>
<clus scale="   91.944">  7  8 -1 -1</clus>
<clus scale="  127.141">  1  7  2 -1</clus>
<clus scale="  121.822">  5  9 -1 -1</clus>
<clus scale="  373.320">  2  5  1 -1</clus>
</clustering>
</event>
<event>
 9    1  0.4516508E-005  0.3786718E+03  0.7546771E-02  0.1086602E+00
          1   -1    0    0  502    0 -0.00000000000E+00  0.00000000000E+00  0.21811292767E+03  0.21811292767E+03  0.00000000000E+00 0. -1.
         21   -1    0    0  501  502  0.00000000000E+00 -0.00000000000E+00 -0.31451246336E+03  0.31451246336E+03  0.00000000000E+00 0. -1.
         23    2    1    2    0    0  0.55042248793E+02 -0.97920116325E+02 -0.43373300260E+02  0.15025896216E+03  0.89880555180E+02 0.  0.
        -24    2    1    2    0    0  0.11575261737E+01 -0.12526186530E+03 -0.16346117378E+02  0.14931269540E+03  0.79594036779E+02 0.  0.
         11    1    4    4    0    0 -0.16439208629E+02 -0.11252819792E+03 -0.36748309411E+02  0.11951268198E+03  0.00000000000E+00 0. -1.
        -12    1    4    4    0    0  0.17596734803E+02 -0.12733667371E+02  0.20402192033E+02  0.29800013426E+02  0.00000000000E+00 0.  1.
        -11    1    3    3    0    0  0.73390430578E+02 -0.63579844794E+02 -0.76209594657E+01  0.97399337717E+02  0.00000000000E+00 0. -1.
         11    1    3    3    0    0 -0.18348181785E+02 -0.34340271531E+02 -0.35752340795E+02  0.52859624440E+02  0.00000000000E+00 0.  1.
          2    1    1    2  501    0 -0.56199774967E+02  0.22318198162E+03 -0.36680118057E+02  0.23305373348E+03  0.00000000000E+00 0. -1.
<scales pt_clust_5="13000.00000" pt_clust_6="13000.00000" pt_clust_7="13000.00000" pt_clust_8="13000.00000" pt_clust_9="13000.00000"></scales>
<clustering>
<clus scale="   79.594">  5  6 -1 -1</clus>
<clus scale="   89.881">  7  8 -1 -1</clus>
<clus scale="  143.863">  1  7  2 -1</clus>
<clus scale="  166.446">  5  9 -1 -1</clus>
<clus scale="  378.672">  2  5  1 -1</clus>
</clustering>
</event>
<event>
 9    1  0.4516508E-005  0.4763116E+03  0.7546771E-02  0.1053976E+00
          1   -1    0    0  502    0 -0.00000000000E+00  0.00000000000E+00  0.36561613285E+03  0.36561613285E+03  0.00000000000E+00 0. -1.
         21   -1    0    0  501  502  0.00000000000E+00 -0.00000000000E+00 -0.33072301099E+03  0.33072301099E+03  0.00000000000E+00 0. -1.
         23    2    1    2    0    0  0.14841762435E+03 -0.10145068930E+01  0.11815999100E+03  0.21280412312E+03  0.96410533134E+02 0.  0.
        -24    2    1    2    0    0  0.60181564524E+02  0.16188032664E+03 -0.10798998260E+03  0.21895485158E+03  0.80326395586E+02 0.  0.
         11    1    4    4    0    0  0.27435113573E+02  0.10885854670E+03 -0.24727572206E+02  0.11495356225E+03  0.00000000000E+00 0. -1.
        -12    1    4    4    0    0  0.32746450951E+02  0.53021779932E+02 -0.83262410396E+02  0.10400128933E+03  0.00000000000E+00 0.  1.
        -13    1    3    3    0    0  0.15416320852E+03  0.19704010961E+02  0.10184370609E+03  0.18581357157E+03  0.00000000000E+00 0. -1.
         13    1    3    3    0    0 -0.57455841677E+01 -0.20718517854E+02  0.16316284914E+02  0.26990551548E+02  0.00000000000E+00 0.  1.
          2    1    1    2  501    0 -0.20859918888E+03 -0.16086581974E+03  0.24723113462E+02  0.26458016914E+03  0.00000000000E+00 0. -1.
<scales pt_clust_5="13000.00000" pt_clust_6="13000.00000" pt_clust_7="13000.00000" pt_clust_8="13000.00000" pt_clust_9="13000.00000"></scales>
<clustering>
<clus scale="   80.326">  5  6 -1 -1</clus>
<clus scale="   96.411">  7  8 -1 -1</clus>
<clus scale="  176.985">  1  7  2 -1</clus>
<clus scale="  190.739">  5  9 -1 -1</clus>
<clus scale="  476.312">  2  5  1 -1</clus>
</clustering>
</event>
<event>
 9    1  0.4516508E-005  0.1703662E+03  0.7546771E-02  0.1197529E+00
          1   -1    0    0  502    0 -0.00000000000E+00  0.00000000000E+00  0.39488804487E+03  0.39488804487E+03  0.00000000000E+00 0. -1.
         21   -1    0    0  501  502  0.00000000000E+00 -0.00000000000E+00 -0.59563127824E+02  0.59563127824E+02  0.00000000000E+00 0. -1.
         23    2    1    2    0    0 -0.26208748806E+02  0.53884515133E+02  0.22885413660E+03  0.25355151870E+03  0.91234408581E+02 0.  0.
        -24    2    1    2    0    0 -0.10730639779E+02 -0.69541654760E+02  0.11712419908E+03  0.15938869425E+03  0.82070027819E+02 0.  0.
         11    1    4    4    0    0 -0.21816550725E+01 -0.87226479881E+02  0.85506756388E+02  0.12216637753E+03  0.00000000000E+00 0. -1.
        -12    1    4    4    0    0 -0.85489847068E+01  0.17684825121E+02  0.31617442697E+02  0.37222316717E+02  0.00000000000E+00 0.  1.
        -11    1    3    3    0    0  0.18264303607E+02 -0.16241456865E+02  0.35290523188E+02  0.42927738518E+02  0.00000000000E+00 0.  1.
         11    1    3    3    0    0 -0.44473052413E+02  0.70125971998E+02  0.19356361341E+03  0.21062378018E+03  0.00000000000E+00 0. -1.
          2    1    1    2  501    0  0.36939388585E+02  0.15657139627E+02 -0.10653418642E+02  0.41510959747E+02  0.00000000000E+00 0. -1.
<scales pt_clust_5="13000.00000" pt_clust_6="13000.00000" pt_clust_7="13000.00000" pt_clust_8="13000.00000" pt_clust_9="13000.00000"></scales>
<clustering>
<clus scale="   82.070">  5  6 -1 -1</clus>
<clus scale="   40.121">  5  9 -1 -1</clus>
<clus scale="   91.234">  7  8 -1 -1</clus>
<clus scale="  109.152">  1  7  2 -1</clus>
<clus scale="  170.366">  2  5  1 -1</clus>
</clustering>
</event>
<event>
 9    1  0.4516508E-005  0.7197832E+03  0.7546771E-02  0.1023416E+00
          1   -1    0    0  502    0 -0.00000000000E+00  0.00000000000E+00  0.27002562501E+03  0.27002562501E+03  0.00000000000E+00 0. -1.
         21   -1    0    0  501  502  0.00000000000E+00 -0.00000000000E+00 -0.12800717085E+04  0.12800717085E+04  0.00000000000E+00 0. -1.
         23    2    1    2    0    0 -0.45023854874E+02 -0.45320958025E+02  0.14352488775E+03  0.19038639815E+03  0.10754743350E+03 0.  0.
        -24    2    1    2    0    0 -0.18601157444E+03 -0.22932753902E+03 -0.27917463264E+03  0.41452411602E+03  0.81855612339E+02 0.  0.
         13    1    4    4    0    0 -0.16524971346E+03 -0.14637467454E+03 -0.19533875730E+03  0.29477151024E+03  0.00000000000E+00 0. -1.
        -14    1    4    4    0    0 -0.20761860982E+02 -0.82952864473E+02 -0.83835875340E+02  0.11975260577E+03  0.00000000000E+00 0.  1.
        -13    1    3    3    0    0 -0.16432897214E+02  0.34736051786E+02  0.31072572856E+02  0.49417994581E+02  0.00000000000E+00 0.  1.
         13    1    3    3    0    0 -0.28590957659E+02 -0.80057009811E+02  0.11245231489E+03  0.14096840357E+03  0.00000000000E+00 0. -1.
          2    1    1    2  501    0  0.23103542932E+03  0.27464849704E+03 -0.87439633854E+03  0.94518681930E+03  0.00000000000E+00 0. -1.
<scales pt_clust_5="13000.00000" pt_clust_6="13000.00000" pt_clust_7="13000.00000" pt_clust_8="13000.00000" pt_clust_9="13000.00000"></scales>
<clustering>
<clus scale="   81.856">  5  6 -1 -1</clus>
<clus scale="  107.547">  7  8 -1 -1</clus>
<clus scale="  125.090">  1  7  2 -1</clus>
<clus scale="  337.042">  5  9 -1 -1</clus>
<clus scale="  719.783">  2  5  1 -1</clus>
</clustering>
</event>
<event>
 9    1  0.4516508E-005  0.2926853E+03  0.7546771E-02  0.1132561E+00
         21   -1    0    0  501  502  0.00000000000E+00  0.00000000000E+00  0.37322070574E+02  0.37322070574E+02  0.00000000000E+00 0. -1.
         -4   -1    0    0    0  501 -0.00000000000E+00 -0.00000000000E+00 -0.10421308671E+04  0.10421308671E+04  0.00000000000E+00 0.  1.
         23    2    1    2    0    0 -0.11806866241E+02  0.19474276730E+02 -0.33199637071E+03  0.34573551466E+03  0.93769965281E+02 0.  0.
        -24    2    1    2    0    0 -0.85171073667E+02  0.79782655389E+02 -0.23828363336E+03  0.27756840035E+03  0.81521426980E+02 0.  0.
         11    1    4    4    0    0 -0.45940354860E+02  0.64427368482E+02 -0.75312175663E+02  0.10923976299E+03  0.00000000000E+00 0. -1.
        -12    1    4    4    0    0 -0.39230718806E+02  0.15355286907E+02 -0.16297145769E+03  0.16832863736E+03  0.00000000000E+00 0.  1.
        -11    1    3    3    0    0 -0.90445087059E+01  0.57574314459E+02 -0.19751136748E+03  0.20593043755E+03  0.00000000000E+00 0. -1.
         11    1    3    3    0    0 -0.27623575348E+01 -0.38100037729E+02 -0.13448500323E+03  0.13980507712E+03  0.00000000000E+00 0.  1.
         -3    1    1    2    0  502  0.96977939907E+02 -0.99256932118E+02 -0.43452879250E+03  0.45614902270E+03  0.00000000000E+00 0.  1.
<scales pt_clust_5="13000.00000" pt_clust_6="13000.00000" pt_clust_7="13000.00000" pt_clust_8="13000.00000" pt_clust_9="13000.00000"></scales>
<clustering>
<clus scale="   81.521">  5  6 -1 -1</clus>
<clus scale="   93.770">  7  8 -1 -1</clus>
<clus scale="   96.496">  2  7  1 -1</clus>
<clus scale="  124.766">  5  9 -1 -1</clus>
<clus scale="  292.685">  1  5  2 -1</clus>
</clustering>
</event>
<event>
 9    1  0.4516508E-005  0.1710646E+03  0.7546771E-02  0.1205052E+00
         21   -1    0    0  501  502  0.00000000000E+00  0.00000000000E+00  0.10191983970E+04  0.10191983970E+04  0.00000000000E+00 0.  1.
         -4   -1    0    0    0  501 -0.00000000000E+00 -0.00000000000E+00 -0.16931544106E+02  0.16931544106E+02  0.00000000000E+00 0.  1.
         23    2    1    2    0    0 -0.10119172034E+02 -0.84668071201E+01  0.33863137058E+03  0.35080144800E+03  0.90644174177E+02 0.  0.
        -24    2    1    2    0    0 -0.46493323786E+02  0.42782238984E+02  0.49015575633E+03  0.49964667150E+03  0.73499535698E+02 0.  0.
         13    1    4    4    0    0 -0.45151661682E+02 -0.81479023810E+01  0.24329675132E+03  0.24758507642E+03  0.00000000000E+00 0. -1.
        -14    1    4    4    0    0 -0.13416621045E+01  0.50930141365E+02  0.24685900502E+03  0.25206159508E+03  0.00000000000E+00 0.  1.
        -13    1    3    3    0    0  0.36297449387E+02  0.15328663011E+02  0.14077901578E+03  0.14618893264E+03  0.00000000000E+00 0. -1.
         13    1    3    3    0    0 -0.46416621421E+02 -0.23795470131E+02  0.19785235480E+03  0.20461251536E+03  0.00000000000E+00 0.  1.
         -3    1    1    2    0  502  0.56612495820E+02 -0.34315431863E+02  0.17347972595E+03  0.18568182157E+03  0.00000000000E+00 0.  1.
<scales pt_clust_5="13000.00000" pt_clust_6="13000.00000" pt_clust_7="13000.00000" pt_clust_8="13000.00000" pt_clust_9="13000.00000"></scales>
<clustering>
<clus scale="   73.500">  5  6 -1 -1</clus>
<clus scale="   66.201">  5  9 -1 -1</clus>
<clus scale="   90.644">  7  8 -1 -1</clus>
<clus scale="   91.599">  2  7  1 -1</clus>
<clus scale="  171.065">  1  5  2 -1</clus>
</clustering>
</event>
<event>
 9    1  0.4516508E-005  0.7293935E+03  0.7546771E-02  0.1030676E+00
         21   -1    0    0  501  502  0.00000000000E+00  0.00000000000E+00  0.15433443221E+03  0.15433443221E+03  0.00000000000E+00 0. -1.
          1   -1    0    0  502    0 -0.00000000000E+00 -0.00000000000E+00 -0.11092503443E+04  0.11092503443E+04  0.00000000000E+00 0. -1.
         23    2    1    2    0    0 -0.18961426215E+02 -0.26587125813E+02 -0.13614012226E+03  0.16704080028E+03  0.91115778689E+02 0.  0.
        -24    2    1    2    0    0 -0.20343325602E+03  0.29923453630E+03 -0.35035950890E+03  0.51070285665E+03  0.84493934398E+02 0.  0.
         13    1    4    4    0    0 -0.80283025679E+02  0.15868949791E+03 -0.12216358860E+03  0.21575834477E+03  0.00000000000E+00 0. -1.
        -14    1    4    4    0    0 -0.12315023034E+03  0.14054503839E+03 -0.22819592030E+03  0.29494451188E+03  0.00000000000E+00 0.  1.
        -11    1    3    3    0    0  0.31585004796E+02 -0.31142689205E+02 -0.79126128035E+02  0.90710659554E+02  0.00000000000E+00 0.  1.
         11    1    3    3    0    0 -0.50546431011E+02  0.45555633923E+01 -0.57013994226E+02  0.76330140727E+02  0.00000000000E+00 0. -1.
          2    1    1    2  501    0  0.22239468223E+03 -0.27264741048E+03 -0.46841628089E+03  0.58584111953E+03  0.00000000000E+00 0. -1.
<scales pt_clust_5="13000.00000" pt_clust_6="13000.00000" pt_clust_7="13000.00000" pt_clust_8="13000.00000" pt_clust_9="13000.00000"></scales>
<clustering>
<clus scale="   84.494">  5  6 -1 -1</clus>
<clus scale="   91.116">  7  8 -1 -1</clus>
<clus scale="   96.791">  2  7  1 -1</clus>
<clus scale="  357.011">  5  9 -1 -1</clus>
<clus scale="  729.394">  1  5  2 -1</clus>
</clustering>
</event>
<event>
 9    1  0.4516508E-005  0.2251704E+03  0.7546771E-02  0.1166484E+00
         -4   -1    0    0    0  501 -0.00000000000E+00  0.00000000000E+00  0.18150852035E+03  0.18150852035E+03  0.00000000000E+00 0.  1.
         21   -1    0    0  501  502  0.00000000000E+00 -0.00000000000E+00 -0.14162932147E+03  0.14162932147E+03  0.00000000000E+00 0.  1.
         23    2    1    2    0    0  0.34177989697E+02 -0.17744189051E+01  0.19926279402E+01  0.94802331271E+02  0.88386808440E+02 0.  0.
        -24    2    1    2    0    0  0.73265093264E+02  0.30910693694E+02  0.28267219481E+01  0.11162162279E+03  0.78282510439E+02 0.  0.
         11    1    4    4    0    0  0.51713454632E+02 -0.16548719904E+02  0.18220503461E+02  0.57272404060E+02  0.00000000000E+00 0. -1.
        -12    1    4    4    0    0  0.21551638632E+02  0.47459413598E+02 -0.15393781513E+02  0.54349218726E+02  0.00000000000E+00 0.  1.
        -11    1    3    3    0    0  0.20552623789E+02 -0.31222526953E+02  0.33043611547E+02  0.49891249714E+02  0.00000000000E+00 0.  1.
         11    1    3    3    0    0  0.13625365908E+02  0.29448108048E+02 -0.31050983607E+02  0.44911081557E+02  0.00000000000E+00 0. -1.
         -3    1    1    2    0  502 -0.10744308296E+03 -0.29136274789E+02  0.35059848991E+02  0.11671388776E+03  0.00000000000E+00 0.  1.
<scales pt_clust_5="13000.00000" pt_clust_6="13000.00000" pt_clust_7="13000.00000" pt_clust_8="13000.00000" pt_clust_9="13000.00000"></scales>
<clustering>
<clus scale="   78.283">  5  6 -1 -1</clus>
<clus scale="   88.387">  7  8 -1 -1</clus>
<clus scale="   94.781">  1  7  2 -1</clus>
<clus scale="   92.981">  5  9 -1 -1</clus>
<clus scale="  225.170">  2  5  1 -1</clus>
</clustering>
</event>
<event>
 9    1  0.4516508E-005  0.1654929E+03  0.7546771E-02  0.1192612E+00
         21   -1    0    0  501  502  0.00000000000E+00  0.00000000000E+00  0.37718228394E+02  0.37718228394E+02  0.00000000000E+00 0.  1.
         -2   -1    0    0    0  501 -0.00000000000E+00 -0.00000000000E+00 -0.63737366831E+03  0.63737366831E+03  0.00000000000E+00 0.  1.
         23    2    1    2    0    0 -0.89959326756E+02 -0.20842551801E+02 -0.36169038358E+03  0.38523802947E+03  0.95190930975E+02 0.  0.
        -24    2    1    2    0    0  0.85448748971E+02 -0.23834086693E+02 -0.18108449243E+03  0.21738493673E+03  0.81210005089E+02 0.  0.
         13    1    4    4    0    0  0.48305576438E+02 -0.14091150692E+02 -0.17018528374E+03  0.17746836350E+03  0.00000000000E+00 0. -1.
        -14    1    4    4    0    0  0.37143172533E+02 -0.97429360002E+01 -0.10899208693E+02  0.39916573223E+02  0.00000000000E+00 0.  1.
        -13    1    3    3    0    0 -0.73885761832E+02 -0.56765341413E+02 -0.24761526572E+03  0.26456517081E+03  0.00000000000E+00 0.  1.
         13    1    3    3    0    0 -0.16073564924E+02  0.35922789612E+02 -0.11407511786E+03  0.12067285866E+03  0.00000000000E+00 0. -1.
         -1    1    1    2    0  502  0.45105777851E+01  0.44676638494E+02 -0.56880563905E+02  0.72468930509E+02  0.00000000000E+00 0.  1.
<scales pt_clust_5="13000.00000" pt_clust_6="13000.00000" pt_clust_7="13000.00000" pt_clust_8="13000.00000" pt_clust_9="13000.00000"></scales>
<clustering>
<clus scale="   81.210">  5  6 -1 -1</clus>
<clus scale="   44.904">  5  9 -1 -1</clus>
<clus scale="   95.191">  7  8 -1 -1</clus>
<clus scale="  132.621">  2  7  1 -1</clus>
<clus scale="  165.493">  1  5  2 -1</clus>
</clustering>
</event>
<event>
 9    1  0.4516508E-005  0.2203612E+03  0.7546771E-02  0.1169569E+00
         21   -1    0    0  501  502  0.00000000000E+00  0.00000000000E+00  0.68442782674E+02  0.68442782674E+02  0.00000000000E+00 0.  1.
          1   -1    0    0  502    0 -0.00000000000E+00 -0.00000000000E+00 -0.44591197556E+03  0.44591197556E+03  0.00000000000E+00 0. -1.
         23    2    1    2    0    0 -0.23529503053E+02 -0.30326287144E+01 -0.23006046127E+02  0.96978189562E+02  0.91173772224E+02 0.  0.
        -24    2    1    2    0    0  0.18564329538E+02  0.50525616857E+02 -0.57823466434E+02  0.11691802442E+03  0.86190480182E+02 0.  0.
         11    1    4    4    0    0  0.24528528271E+02  0.52388886006E+02 -0.77251856692E+02  0.96509551022E+02  0.00000000000E+00 0. -1.
        -12    1    4    4    0    0 -0.59641987333E+01 -0.18632691486E+01  0.19428390258E+02  0.20408473399E+02  0.00000000000E+00 0.  1.
        -11    1    3    3    0    0  0.22037490318E+02  0.28060877862E+02 -0.21774887195E+02  0.41799635862E+02  0.00000000000E+00 0.  1.
         11    1    3    3    0    0 -0.45566993371E+02 -0.31093506577E+02 -0.12311589326E+01  0.55178553700E+02  0.00000000000E+00 0. -1.
          2    1    1    2  501    0  0.49651735154E+01 -0.47492988143E+02 -0.29663968032E+03  0.30045854425E+03  0.00000000000E+00 0. -1.
<scales pt_clust_5="13000.00000" pt_clust_6="13000.00000" pt_clust_7="13000.00000" pt_clust_8="13000.00000" pt_clust_9="13000.00000"></scales>
<clustering>
<clus scale="   86.190">  5  6 -1 -1</clus>
<clus scale="   47.752">  5  9 -1 -1</clus>
<clus scale="   91.174">  7  8 -1 -1</clus>
<clus scale="   94.210">  2  7  1 -1</clus>
<clus scale="  220.361">  1  5  2 -1</clus>
</clustering>
</event>
<event>
 9    1  0.4516508E-005  0.2405551E+03  0.7546771E-02  0.1140580E+00
         21   -1    0    0  501  502  0.00000000000E+00  0.00000000000E+00  0.11504334337E+03  0.11504334337E+03  0.00000000000E+00 0. -1.
          1   -1    0    0  502    0 -0.00000000000E+00 -0.00000000000E+00 -0.54968966228E+03  0.54968966228E+03  0.00000000000E+00 0. -1.
         23    2    1    2    0    0  0.10417191982E+03  0.36486490172E+02 -0.39605271863E+03  0.42110167256E+03  0.91026423931E+02 0.  0.
        -24    2    1    2    0    0 -0.49633794185E+02  0.18871365177E+02  0.59969537724E+02  0.11811802116E+03  0.86809443721E+02 0.  0.
         13    1    4    4    0    0 -0.57536588300E+02  0.11820599147E+02  0.77737175408E+02  0.97433331041E+02  0.00000000000E+00 0. -1.
        -14    1    4    4    0    0  0.79027941154E+01  0.70507660298E+01 -0.17767637684E+02  0.20684690119E+02  0.00000000000E+00 0.  1.
        -11    1    3    3    0    0  0.93552322305E+02  0.13801410019E+02 -0.37943811518E+03  0.39104449770E+03  0.00000000000E+00 0. -1.
         11    1    3    3    0    0  0.10619597518E+02  0.22685080153E+02 -0.16614603451E+02  0.30057174864E+02  0.00000000000E+00 0.  1.
          2    1    1    2  501    0 -0.54538125638E+02 -0.55357855349E+02 -0.98563138012E+02  0.12551331193E+03  0.00000000000E+00 0. -1.
<scales pt_clust_5="13000.00000" pt_clust_6="13000.00000" pt_clust_7="13000.00000" pt_clust_8="13000.00000" pt_clust_9="13000.00000"></scales>
<clustering>
<clus scale="   86.809">  5  6 -1 -1</clus>
<clus scale="   77.710">  5  9 -1 -1</clus>
<clus scale="   91.026">  7  8 -1 -1</clus>
<clus scale="  143.069">  2  7  1 -1</clus>
<clus scale="  240.555">  1  5  2 -1</clus>
</clustering>
</event>
<event>
 9    1  0.4516508E-005  0.3374006E+03  0.7546771E-02  0.1113218E+00
          1   -1    0    0  502    0 -0.00000000000E+00  0.00000000000E+00  0.67691336850E+03  0.67691336850E+03  0.00000000000E+00 0. -1.
         21   -1    0    0  501  502  0.00000000000E+00 -0.00000000000E+00 -0.72130312434E+02  0.72130312434E+02  0.00000000000E+00 0. -1.
         23    2    1    2    0    0  0.12627750010E+02  0.28354904258E+02  0.10784171800E+03  0.14838580317E+03  0.97082695549E+02 0.  0.
        -24    2    1    2    0    0  0.34913503471E+02 -0.11056417684E+03  0.58409001446E+02  0.15196071314E+03  0.78975040127E+02 0.  0.
         13    1    4    4    0    0  0.33577768004E+02 -0.12094123566E+03  0.41728827998E+02  0.13227072266E+03  0.00000000000E+00 0. -1.
        -14    1    4    4    0    0  0.13357354666E+01  0.10377058817E+02  0.16680173448E+02  0.19689990482E+02  0.00000000000E+00 0.  1.
        -11    1    3    3    0    0  0.76820072585E+01  0.55703985847E+02  0.25995099590E+02  0.61949111999E+02  0.00000000000E+00 0. -1.
         11    1    3    3    0    0  0.49457427511E+01 -0.27349081589E+02  0.81846618413E+02  0.86436691172E+02  0.00000000000E+00 0.  1.
          2    1    1    2  501    0 -0.47541253480E+02  0.82209272583E+02  0.43853233662E+03  0.44869716462E+03  0.00000000000E+00 0. -1.
<scales pt_clust_5="13000.00000" pt_clust_6="13000.00000" pt_clust_7="13000.00000" pt_clust_8="13000.00000" pt_clust_9="13000.00000"></scales>
<clustering>
<clus scale="   78.975">  5  6 -1 -1</clus>
<clus scale="   94.966">  5  9 -1 -1</clus>
<clus scale="   97.083">  7  8 -1 -1</clus>
<clus scale="  101.924">  1  7  2 -1</clus>
<clus scale="  337.401">  2  5  1 -1</clus>
</clustering>
</event>
<event>
 9    1  0.4516508E-005  0.1640678E+03  0.7546771E-02  0.1203769E+00
          1   -1    0    0  502    0 -0.00000000000E+00  0.00000000000E+00  0.29082204987E+03  0.29082204987E+03  0.00000000000E+00 0. -1.
         21   -1    0    0  501  502  0.00000000000E+00 -0.00000000000E+00 -0.68787904891E+02  0.68787904891E+02  0.00000000000E+00 0. -1.
         23    2    1    2    0    0  0.24791744693E+02 -0.52654280072E+02  0.14036748190E+03  0.17634049955E+03  0.89475348513E+02 0.  0.
        -24    2    1    2    0    0  0.17190355309E+02  0.70532207496E+02  0.36316224884E+02  0.11893611040E+03  0.86928876436E+02 0.  0.
         13    1    4    4    0    0  0.39150449555E+02  0.77282777138E+02  0.15652689928E+02  0.88036310943E+02  0.00000000000E+00 0. -1.
        -14    1    4    4    0    0 -0.21960094246E+02 -0.67505696427E+01  0.20663534957E+02  0.30899799461E+02  0.00000000000E+00 0.  1.
        -11    1    3    3    0    0 -0.17894953169E+02 -0.50058143001E+02  0.11480935255E+03  0.12651969990E+03  0.00000000000E+00 0.  1.
         11    1    3    3    0    0  0.42686697862E+02 -0.25961370710E+01  0.25558129355E+02  0.49820799654E+02  0.00000000000E+00 0. -1.
          2    1    1    2  501    0 -0.41982100002E+02 -0.17877927423E+02  0.45350438188E+02  0.64333344802E+02  0.00000000000E+00 0. -1.
<scales pt_clust_5="13000.00000" pt_clust_6="13000.00000" pt_clust_7="13000.00000" pt_clust_8="13000.00000" pt_clust_9="13000.00000"></scales>
<clustering>
<clus scale="   86.929">  5  6 -1 -1</clus>
<clus scale="   45.630">  5  9 -1 -1</clus>
<clus scale="   89.475">  7  8 -1 -1</clus>
<clus scale="  106.738">  1  7  2 -1</clus>
<clus scale="  164.068">  2  5  1 -1</clus>
</clustering>
</event>
<event>
 9    1  0.4516508E-005  0.1405398E+03  0.7546771E-02  0.1228298E+00
         21   -1    0    0  501  502  0.00000000000E+00  0.00000000000E+00  0.19759748854E+03  0.19759748854E+03  0.00000000000E+00 0.  1.
         -2   -1    0    0    0  501 -0.00000000000E+00 -0.00000000000E+00 -0.15525644120E+03  0.15525644120E+03  0.00000000000E+00 0.  1.
         23    2    1    2    0    0  0.28066100715E+02  0.14222472484E+02 -0.10738978408E+03  0.14749876019E+03  0.96090237803E+02 0.  0.
        -24    2    1    2    0    0 -0.24547064361E+02  0.21686290835E+02  0.51734535003E+02  0.10092769707E+03  0.80231442368E+02 0.  0.
         13    1    4    4    0    0 -0.41144232115E+02 -0.37227473531E+01  0.56721340273E+02  0.70171341205E+02  0.00000000000E+00 0. -1.
        -14    1    4    4    0    0  0.16597167754E+02  0.25409038188E+02 -0.49868052700E+01  0.30756355862E+02  0.00000000000E+00 0.  1.
        -11    1    3    3    0    0  0.51127053506E+02 -0.23135905268E+02 -0.70830137492E+02  0.90366775365E+02  0.00000000000E+00 0.  1.
         11    1    3    3    0    0 -0.23060952790E+02  0.37358377751E+02 -0.36559646583E+02  0.57131984825E+02  0.00000000000E+00 0. -1.
         -1    1    1    2    0  502 -0.35190363547E+01 -0.35908763319E+02  0.97996296413E+02  0.10442747249E+03  0.00000000000E+00 0.  1.
<scales pt_clust_5="13000.00000" pt_clust_6="13000.00000" pt_clust_7="13000.00000" pt_clust_8="13000.00000" pt_clust_9="13000.00000"></scales>
<clustering>
<clus scale="   80.231">  5  6 -1 -1</clus>
<clus scale="   36.081">  5  9 -1 -1</clus>
<clus scale="   96.090">  7  8 -1 -1</clus>
<clus scale="  101.110">  2  7  1 -1</clus>
<clus scale="  140.540">  1  5  2 -1</clus>
</clustering>
</event>
<event>
 9    1  0.4516508E-005  0.2341031E+03  0.7546771E-02  0.1157957E+00
         21   -1    0    0  501  502  0.00000000000E+00  0.00000000000E+00  0.90246330536E+02  0.90246330536E+02  0.00000000000E+00 0.  1.
          1   -1    0    0  502    0 -0.00000000000E+00 -0.00000000000E+00 -0.32992181106E+03  0.32992181106E+03  0.00000000000E+00 0. -1.
         23    2    1    2    0    0 -0.38501826375E+02 -0.30512704282E+02 -0.33167106094E+02  0.10799838260E+03  0.90278336059E+02 0.  0.
        -24    2    1    2    0    0 -0.44088737947E+02  0.78180895731E+02 -0.14872871006E+03  0.20067111592E+03  0.10046192462E+03 0.  0.
         13    1    4    4    0    0 -0.81977175279E+01 -0.24396515799E+02 -0.23369690646E+02  0.34763989943E+02  0.00000000000E+00 0. -1.
        -14    1    4    4    0    0 -0.35891020419E+02  0.10257741153E+03 -0.12535901942E+03  0.16590712598E+03  0.00000000000E+00 0.  1.
        -11    1    3    3    0    0  0.15886190448E+02 -0.39938719713E+02  0.11573465301E+01  0.42997811923E+02  0.00000000000E+00 0.  1.
         11    1    3    3    0    0 -0.54388016823E+02  0.94260154310E+01 -0.34324452624E+02  0.65000570680E+02  0.00000000000E+00 0. -1.
          2    1    1    2  501    0  0.82590564323E+02 -0.47668191449E+02 -0.57779664369E+02  0.11149864307E+03  0.00000000000E+00 0. -1.
<scales pt_clust_5="13000.00000" pt_clust_6="13000.00000" pt_clust_7="13000.00000" pt_clust_8="13000.00000" pt_clust_9="13000.00000"></scales>
<clustering>
<clus scale="   90.278">  7  8 -1 -1</clus>
<clus scale="  100.462">  5  6 -1 -1</clus>
<clus scale="   95.360">  5  9 -1 -1</clus>
<clus scale="  102.779">  2  7  1 -1</clus>
<clus scale="  234.103">  1  5  2 -1</clus>
</clustering>
</event>
<event>
 9    1  0.4516508E-005  0.5272676E+03  0.7546771E-02  0.1064104E+00
          1   -1    0    0  502    0 -0.00000000000E+00  0.00000000000E+00  0.94679730041E+03  0.94679730041E+03  0.00000000000E+00 0. -1.
         21   -1    0    0  501  502  0.00000000000E+00 -0.00000000000E+00 -0.10424183155E+03  0.10424183155E+03  0.00000000000E+00 0. -1.
         23    2    1    2    0    0  0.14823585293E+01 -0.38678993251E+02  0.98509086637E+02  0.13910921178E+03  0.90272203617E+02 0.  0.
        -24    2    1    2    0    0 -0.11677908583E+03 -0.98013691236E+02  0.28513943932E+02  0.17439016155E+03  0.79717280984E+02 0.  0.
         13    1    4    4    0    0 -0.69589530572E+02 -0.10324791363E+03  0.22590406564E+02  0.12654311875E+03  0.00000000000E+00 0. -1.
        -14    1    4    4    0    0 -0.47189555261E+02  0.52342223888E+01  0.59235373684E+01  0.47847042800E+02  0.00000000000E+00 0.  1.
        -11    1    3    3    0    0  0.36077478463E+02  0.81412544513E+01  0.22221474886E+02  0.43146939896E+02  0.00000000000E+00 0. -1.
         11    1    3    3    0    0 -0.34595119934E+02 -0.46820247702E+02  0.76287611752E+02  0.95962271883E+02  0.00000000000E+00 0.  1.
          2    1    1    2  501    0  0.11529672730E+03  0.13669268449E+03  0.71553243829E+03  0.73753975863E+03  0.00000000000E+00 0. -1.
<scales pt_clust_5="13000.00000" pt_clust_6="13000.00000" pt_clust_7="13000.00000" pt_clust_8="13000.00000" pt_clust_9="13000.00000"></scales>
<clustering>
<clus scale="   79.717">  5  6 -1 -1</clus>
<clus scale="   90.272">  7  8 -1 -1</clus>
<clus scale="   98.221">  1  7  2 -1</clus>
<clus scale="  155.413">  5  9 -1 -1</clus>
<clus scale="  527.268">  2  5  1 -1</clus>
</clustering>
</event>
<event>
 9    1  0.4516508E-005  0.2187204E+03  0.7546771E-02  0.1170765E+00
          1   -1    0    0  502    0 -0.00000000000E+00  0.00000000000E+00  0.29761312310E+03  0.29761312310E+03  0.00000000000E+00 0. -1.
         21   -1    0    0  501  502  0.00000000000E+00 -0.00000000000E+00 -0.94857935242E+02  0.94857935242E+02  0.00000000000E+00 0.  1.
         23    2    1    2    0    0  0.14771065496E+02 -0.99231485565E+01 -0.70310453065E+00  0.93750605245E+02  0.92043622129E+02 0.  0.
        -24    2    1    2    0    0 -0.57966715107E+01 -0.48986217011E+02  0.21789008141E+03  0.23740871170E+03  0.80334039849E+02 0.  0.
         11    1    4    4    0    0  0.13313046334E+02 -0.33586898165E+02  0.20772686984E+03  0.21084536842E+03  0.00000000000E+00 0. -1.
        -12    1    4    4    0    0 -0.19109717844E+02 -0.15399318846E+02  0.10163211571E+02  0.26563343285E+02  0.00000000000E+00 0.  1.
        -11    1    3    3    0    0  0.31208389229E+01 -0.41015200856E+02 -0.28833659310E+02  0.50233119016E+02  0.00000000000E+00 0.  1.
         11    1    3    3    0    0  0.11650226573E+02  0.31092052300E+02  0.28130554780E+02  0.43517486228E+02  0.00000000000E+00 0. -1.
          2    1    1    2  501    0 -0.89743939856E+01  0.58909365568E+02 -0.14431789017E+02  0.61311741398E+02  0.00000000000E+00 0. -1.
<scales pt_clust_5="13000.00000" pt_clust_6="13000.00000" pt_clust_7="13000.00000" pt_clust_8="13000.00000" pt_clust_9="13000.00000"></scales>
<clustering>
<clus scale="   80.334">  5  6 -1 -1</clus>
<clus scale="   59.589">  5  9 -1 -1</clus>
<clus scale="   92.044">  7  8 -1 -1</clus>
<clus scale="   93.748">  1  7  2 -1</clus>
<clus scale="  218.720">  2  5  1 -1</clus>
</clustering>
</event>
<event>
 9    1  0.4516508E-005  0.4944663E+03  0.7546771E-02  0.1040426E+00
          1   -1    0    0  502    0 -0.00000000000E+00  0.00000000000E+00  0.89784733601E+03  0.89784733601E+03  0.00000000000E+00 0. -1.
         21   -1    0    0  501  502  0.00000000000E+00 -0.00000000000E+00 -0.15947761882E+03  0.15947761882E+03  0.00000000000E+00 0. -1.
         23    2    1    2    0    0  0.21065830988E+03 -0.41044959095E+02  0.38266578019E+03  0.44820904216E+03  0.91633148769E+02 0.  0.
        -24    2    1    2    0    0  0.27791700791E+02 -0.49823050896E+02  0.33901672071E+03  0.35339366880E+03  0.81853730493E+02 0.  0.
         11    1    4    4    0    0  0.95413699822E+01  0.20935471729E+02  0.12878819929E+03  0.13082710726E+03  0.00000000000E+00 0. -1.
        -12    1    4    4    0    0  0.18250330809E+02 -0.70758522625E+02  0.21022852141E+03  0.22256656154E+03  0.00000000000E+00 0.  1.
        -11    1    3    3    0    0  0.31336030321E+02 -0.65252053505E+00  0.10380480927E+02  0.33017070791E+02  0.00000000000E+00 0.  1.
         11    1    3    3    0    0  0.17932227956E+03 -0.40392438560E+02  0.37228529926E+03  0.41519197137E+03  0.00000000000E+00 0. -1.
          2    1    1    2  501    0 -0.23845001067E+03  0.90868009991E+02  0.16687216294E+02  0.25572224388E+03  0.00000000000E+00 0. -1.
<scales pt_clust_5="13000.00000" pt_clust_6="13000.00000" pt_clust_7="13000.00000" pt_clust_8="13000.00000" pt_clust_9="13000.00000"></scales>
<clustering>
<clus scale="   81.854">  5  6 -1 -1</clus>
<clus scale="   91.633">  7  8 -1 -1</clus>
<clus scale="  233.363">  1  7  2 -1</clus>
<clus scale="  195.746">  5  9 -1 -1</clus>
<clus scale="  494.466">  2  5  1 -1</clus>
</clustering>
</event>
<event>
 9    1  0.4701506E-005  0.2317778E+03  0.7546771E-02  0.1162445E+00
         21   -1    0    0  501  502  0.00000000000E+00  0.00000000000E+00  0.79224130751E+02  0.79224130751E+02  0.00000000000E+00 0. -1.
         -2   -1    0    0    0  501 -0.00000000000E+00 -0.00000000000E+00 -0.43266765476E+03  0.43266765476E+03  0.00000000000E+00 0.  1.
         23    2    1    2    0    0 -0.21161595795E+02 -0.52172733777E+02 -0.77874777115E+01  0.95719877087E+02  0.77018457360E+02 0.  0.
        -24    2    1    2    0    0 -0.58060626863E+02  0.62718846560E+01 -0.53358318456E+02  0.10986975333E+03  0.76248800777E+02 0.  0.
         13    1    4    4    0    0 -0.22245788548E+02 -0.32750974594E+02 -0.37618648643E+02  0.54613772720E+02  0.00000000000E+00 0. -1.
        -14    1    4    4    0    0 -0.35814838315E+02  0.39022859250E+02 -0.15739669813E+02  0.55255980612E+02  0.00000000000E+00 0.  1.
        -13    1    3    3    0    0  0.24678572106E+02 -0.41114765305E+02 -0.16635250965E+00  0.47952930259E+02  0.00000000000E+00 0.  1.
         13    1    3    3    0    0 -0.45840167901E+02 -0.11057968471E+02 -0.76211252019E+01  0.47766946828E+02  0.00000000000E+00 0. -1.
         -1    1    1    2    0  502  0.79222222658E+02  0.45900849121E+02 -0.29229772785E+03  0.30630215510E+03  0.00000000000E+00 0.  1.
<scales pt_clust_5="13000.00000" pt_clust_6="13000.00000" pt_clust_7="13000.00000" pt_clust_8="13000.00000" pt_clust_9="13000.00000"></scales>
<clustering>
<clus scale="   76.249">  5  6 -1 -1</clus>
<clus scale="   77.018">  7  8 -1 -1</clus>
<clus scale="   91.559">  5  9 -1 -1</clus>
<clus scale="   95.403">  2  7  1 -1</clus>
<clus scale="  231.778">  1  5  2 -1</clus>
</clustering>
</event>
<event>
 9    1  0.4516508E-005  0.4389056E+03  0.7546771E-02  0.1070425E+00
         21   -1    0    0  501  502  0.00000000000E+00  0.00000000000E+00  0.24720468369E+03  0.24720468369E+03  0.00000000000E+00 0.  1.
          1   -1    0    0  502    0 -0.00000000000E+00 -0.00000000000E+00 -0.35339348818E+03  0.35339348818E+03  0.00000000000E+00 0. -1.
         23    2    1    2    0    0 -0.71703483830E+02  0.82882126925E+02 -0.72628494637E+02  0.16041139196E+03  0.91902556447E+02 0.  0.
        -24    2    1    2    0    0  0.15892611765E+03  0.77824843532E+02  0.95276775103E+02  0.21650505811E+03  0.80514341421E+02 0.  0.
         11    1    4    4    0    0  0.86938500239E+02 -0.94185861849E+00  0.33281677137E+02  0.93095971742E+02  0.00000000000E+00 0. -1.
        -12    1    4    4    0    0  0.71987617406E+02  0.78766702151E+02  0.61995097965E+02  0.12340908637E+03  0.00000000000E+00 0.  1.
        -11    1    3    3    0    0 -0.38899623746E+02  0.27107083881E+01  0.10469121955E+02  0.40374883060E+02  0.00000000000E+00 0.  1.
         11    1    3    3    0    0 -0.32803860083E+02  0.80171418536E+02 -0.83097616592E+02  0.12003650890E+03  0.00000000000E+00 0. -1.
          2    1    1    2  501    0 -0.87222633815E+02 -0.16070697046E+03 -0.12883708495E+03  0.22368172179E+03  0.00000000000E+00 0. -1.
<scales pt_clust_5="13000.00000" pt_clust_6="13000.00000" pt_clust_7="13000.00000" pt_clust_8="13000.00000" pt_clust_9="13000.00000"></scales>
<clustering>
<clus scale="   80.514">  5  6 -1 -1</clus>
<clus scale="   91.903">  7  8 -1 -1</clus>
<clus scale="  143.028">  2  7  1 -1</clus>
<clus scale="  171.959">  5  9 -1 -1</clus>
<clus scale="  438.906">  1  5  2 -1</clus>
</clustering>
</event>
<event>
 9    1  0.4516508E-005  0.2750285E+03  0.7546771E-02  0.1122096E+00
          1   -1    0    0  502    0 -0.00000000000E+00  0.00000000000E+00  0.29302678972E+03  0.29302678972E+03  0.00000000000E+00 0. -1.
         21   -1    0    0  501  502  0.00000000000E+00 -0.00000000000E+00 -0.16559899618E+03  0.16559899618E+03  0.00000000000E+00 0. -1.
         23    2    1    2    0    0 -0.12086228835E+03 -0.48540206537E+01  0.10317800436E+03  0.18253024118E+03  0.89667910082E+02 0.  0.
        -24    2    1    2    0    0 -0.31512398101E+02  0.52979832645E+02 -0.34527297938E+02  0.10583431947E+03  0.78796414728E+02 0.  0.
         11    1    4    4    0    0 -0.82854063766E+01  0.64974818218E+02 -0.42999988545E+02  0.78354157363E+02  0.00000000000E+00 0. -1.
        -12    1    4    4    0    0 -0.23226991724E+02 -0.11994985572E+02  0.84726906062E+01  0.27480162109E+02  0.00000000000E+00 0.  1.
        -11    1    3    3    0    0 -0.25369721104E+02 -0.39836241893E+02  0.20592578869E+02  0.51522841745E+02  0.00000000000E+00 0.  1.
         11    1    3    3    0    0 -0.95492567249E+02  0.34982221239E+02  0.82585425492E+02  0.13100739943E+03  0.00000000000E+00 0. -1.
          2    1    1    2  501    0  0.15237468645E+03 -0.48125811992E+02  0.58777087116E+02  0.17026122524E+03  0.00000000000E+00 0. -1.
<scales pt_clust_5="13000.00000" pt_clust_6="13000.00000" pt_clust_7="13000.00000" pt_clust_8="13000.00000" pt_clust_9="13000.00000"></scales>
<clustering>
<clus scale="   78.796">  5  6 -1 -1</clus>
<clus scale="   89.668">  7  8 -1 -1</clus>
<clus scale="  150.571">  1  7  2 -1</clus>
<clus scale="   79.442">  5  9 -1 -1</clus>
<clus scale="  275.029">  2  5  1 -1</clus>
</clustering>
</event>
<event>
 9    1  0.4516508E-005  0.1633910E+03  0.7546771E-02  0.1202469E+00
          1   -1    0    0  502    0 -0.00000000000E+00  0.00000000000E+00  0.74964657014E+02  0.74964657014E+02  0.00000000000E+00 0. -1.
         21   -1    0    0  501  502  0.00000000000E+00 -0.00000000000E+00 -0.32030231967E+03  0.32030231967E+03  0.00000000000E+00 0. -1.
         23    2    1    2    0    0  0.60836333043E+02  0.51921486571E+01 -0.13970553361E+02  0.11202260534E+03  0.92875561481E+02 0.  0.
        -24    2    1    2    0    0 -0.30675104735E+01  0.32955700824E+02 -0.10243289122E+03  0.13690050276E+03  0.84579918510E+02 0.  0.
         11    1    4    4    0    0  0.16240933865E+02  0.36995328557E+02 -0.10888997989E+03  0.11614409149E+03  0.00000000000E+00 0. -1.
        -12    1    4    4    0    0 -0.19308444339E+02 -0.40396277322E+01  0.64570886641E+01  0.20756411275E+02  0.00000000000E+00 0.  1.
        -11    1    3    3    0    0  0.21462915636E+02  0.31807558321E+02 -0.41966529468E+02  0.56864462624E+02  0.00000000000E+00 0.  1.
         11    1    3    3    0    0  0.39373417407E+02 -0.26615409664E+02  0.27995976107E+02  0.55158142717E+02  0.00000000000E+00 0. -1.
          2    1    1    2  501    0 -0.57768822569E+02 -0.38147849481E+02 -0.12893421808E+03  0.14634386859E+03  0.00000000000E+00 0. -1.
<scales pt_clust_5="13000.00000" pt_clust_6="13000.00000" pt_clust_7="13000.00000" pt_clust_8="13000.00000" pt_clust_9="13000.00000"></scales>
<clustering>
<clus scale="   84.580">  5  6 -1 -1</clus>
<clus scale="   69.228">  5  9 -1 -1</clus>
<clus scale="   92.876">  7  8 -1 -1</clus>
<clus scale="  111.148">  1  7  2 -1</clus>
<clus scale="  163.391">  2  5  1 -1</clus>
</clustering>
</event>
<event>
 9    1  0.4516508E-005  0.2954170E+03  0.7546771E-02  0.1126366E+00
          1   -1    0    0  502    0 -0.00000000000E+00  0.00000000000E+00  0.30856300350E+03  0.30856300350E+03  0.00000000000E+00 0. -1.
         21   -1    0    0  501  502  0.00000000000E+00 -0.00000000000E+00 -0.13560282414E+03  0.13560282414E+03  0.00000000000E+00 0. -1.
         23    2    1    2    0    0  0.60776645095E+02 -0.11159867815E+02  0.76509686119E+02  0.13340243619E+03  0.90133981792E+02 0.  0.
        -24    2    1    2    0    0  0.53792814833E+02  0.92492991820E+02  0.11130347157E+03  0.16947698313E+03  0.69895382986E+02 0.  0.
         13    1    4    4    0    0  0.60248747161E+02  0.38551274068E+02  0.77642102248E+02  0.10556707966E+03  0.00000000000E+00 0. -1.
        -14    1    4    4    0    0 -0.64559323284E+01  0.53941717753E+02  0.33661369321E+02  0.63909903465E+02  0.00000000000E+00 0.  1.
        -13    1    3    3    0    0  0.10254682071E+02  0.37566465808E+02  0.23982278833E+02  0.45733440235E+02  0.00000000000E+00 0. -1.
         13    1    3    3    0    0  0.50521963024E+02 -0.48726333623E+02  0.52527407286E+02  0.87668995959E+02  0.00000000000E+00 0.  1.
          2    1    1    2  501    0 -0.11456945993E+03 -0.81333124006E+02 -0.14852978328E+02  0.14128640831E+03  0.00000000000E+00 0. -1.
<scales pt_clust_5="13000.00000" pt_clust_6="13000.00000" pt_clust_7="13000.00000" pt_clust_8="13000.00000" pt_clust_9="13000.00000"></scales>
<clustering>
<clus scale="   69.895">  5  6 -1 -1</clus>
<clus scale="   90.134">  7  8 -1 -1</clus>
<clus scale="  109.282">  1  7  2 -1</clus>
<clus scale="  127.864">  5  9 -1 -1</clus>
<clus scale="  295.417">  2  5  1 -1</clus>
</clustering>
</event>
<event>
 9    1  0.4516508E-005  0.1995570E+03  0.7546771E-02  0.1174698E+00
         21   -1    0    0  501  502  0.00000000000E+00  0.00000000000E+00  0.11390565976E+03  0.11390565976E+03  0.00000000000E+00 0. -1.
          1   -1    0    0  502    0 -0.00000000000E+00 -0.00000000000E+00 -0.24272345667E+03  0.24272345667E+03  0.00000000000E+00 0. -1.
         23    2    1    2    0    0 -0.55171269069E+02  0.35808402609E+02 -0.10762299108E+03  0.15594976368E+03  0.91714284364E+02 0.  0.
        -24    2    1    2    0    0  0.29429086973E+02  0.48225556462E+02  0.11414395613E+02  0.10693647976E+03  0.90074118482E+02 0.  0.
         11    1    4    4    0    0  0.46674331696E+02  0.60449926242E+02  0.26640610720E+02  0.80885159092E+02  0.00000000000E+00 0. -1.
        -12    1    4    4    0    0 -0.17245244723E+02 -0.12224369780E+02 -0.15226215107E+02  0.26051320668E+02  0.00000000000E+00 0.  1.
        -11    1    3    3    0    0 -0.76469709781E+02  0.38161142819E+02 -0.10333485848E+03  0.13409691388E+03  0.00000000000E+00 0. -1.
         11    1    3    3    0    0  0.21298440712E+02 -0.23527402092E+01 -0.42881325946E+01  0.21852849801E+02  0.00000000000E+00 0.  1.
          2    1    1    2  501    0  0.25742182096E+02 -0.84033959071E+02 -0.32609201448E+02  0.93742872984E+02  0.00000000000E+00 0. -1.
<scales pt_clust_5="13000.00000" pt_clust_6="13000.00000" pt_clust_7="13000.00000" pt_clust_8="13000.00000" pt_clust_9="13000.00000"></scales>
<clustering>
<clus scale="   90.074">  5  6 -1 -1</clus>
<clus scale="   87.888">  5  9 -1 -1</clus>
<clus scale="   91.714">  7  8 -1 -1</clus>
<clus scale="  112.861">  2  7  1 -1</clus>
<clus scale="  199.557">  1  5  2 -1</clus>
</clustering>
</event>
<event>
 9    1  0.4516508E-005  0.1247250E+03  0.7546771E-02  0.1250072E+00
         21   -1    0    0  501  502  0.00000000000E+00  0.00000000000E+00  0.37733967821E+02  0.37733967821E+02  0.00000000000E+00 0.  1.
          1   -1    0    0  502    0 -0.00000000000E+00 -0.00000000000E+00 -0.39201832424E+03  0.39201832424E+03  0.00000000000E+00 0. -1.
         23    2    1    2    0    0 -0.78171013843E+01 -0.31177116121E+02 -0.25157942659E+03  0.26818302692E+03  0.87159671883E+02 0.  0.
        -24    2    1    2    0    0  0.33027853233E+02  0.33910485043E+02 -0.54162309691E+02  0.10680212824E+03  0.78945416078E+02 0.  0.
         11    1    4    4    0    0  0.46127581806E+02  0.22363920827E+02 -0.67549569139E+02  0.84798838723E+02  0.00000000000E+00 0. -1.
        -12    1    4    4    0    0 -0.13099728572E+02  0.11546564216E+02  0.13387259448E+02  0.22003289513E+02  0.00000000000E+00 0.  1.
        -13    1    3    3    0    0 -0.31277574839E+02  0.17587901614E+02 -0.13446469601E+03  0.13917031093E+03  0.00000000000E+00 0.  1.
         13    1    3    3    0    0  0.23460473455E+02 -0.48765017734E+02 -0.11711473057E+03  0.12901271599E+03  0.00000000000E+00 0. -1.
          2    1    1    2  501    0 -0.25210751849E+02 -0.27333689229E+01 -0.48542620139E+02  0.54767136901E+02  0.00000000000E+00 0. -1.
<scales pt_clust_5="13000.00000" pt_clust_6="13000.00000" pt_clust_7="13000.00000" pt_clust_8="13000.00000" pt_clust_9="13000.00000"></scales>
<clustering>
<clus scale="   78.945">  5  6 -1 -1</clus>
<clus scale="   25.359">  5  9 -1 -1</clus>
<clus scale="   87.160">  7  8 -1 -1</clus>
<clus scale="   92.897">  2  7  1 -1</clus>
<clus scale="  124.725">  1  5  2 -1</clus>
</clustering>
</event>
<event>
 9    1  0.4516508E-005  0.1703624E+03  0.7546771E-02  0.1198015E+00
          1   -1    0    0  502    0 -0.00000000000E+00  0.00000000000E+00  0.79418646997E+03  0.79418646997E+03  0.00000000000E+00 0. -1.
         21   -1    0    0  501  502  0.00000000000E+00 -0.00000000000E+00 -0.28966884334E+02  0.28966884334E+02  0.00000000000E+00 0. -1.
         23    2    1    2    0    0  0.46156611685E+02  0.38909583301E+02  0.47049357566E+03  0.48273188611E+03  0.89562719080E+02 0.  0.
        -24    2    1    2    0    0 -0.40065513243E+02  0.12473452089E+02  0.26881995172E+03  0.28255574725E+03  0.76241402843E+02 0.  0.
         13    1    4    4    0    0 -0.37445498549E+02  0.66412719938E+01  0.46178242039E+02  0.59822252491E+02  0.00000000000E+00 0. -1.
        -14    1    4    4    0    0 -0.26200146941E+01  0.58321800950E+01  0.22264170968E+03  0.22273349476E+03  0.00000000000E+00 0.  1.
        -13    1    3    3    0    0  0.18186599408E+02 -0.28568390858E+02  0.11879720264E+03  0.12353008018E+03  0.00000000000E+00 0.  1.
         13    1    3    3    0    0  0.27970012278E+02  0.67477974159E+02  0.35169637302E+03  0.35920180592E+03  0.00000000000E+00 0. -1.
          2    1    1    2  501    0 -0.60910984422E+01 -0.51383035390E+02  0.25906058261E+02  0.57865720947E+02  0.00000000000E+00 0. -1.
<scales pt_clust_5="13000.00000" pt_clust_6="13000.00000" pt_clust_7="13000.00000" pt_clust_8="13000.00000" pt_clust_9="13000.00000"></scales>
<clustering>
<clus scale="   76.241">  5  6 -1 -1</clus>
<clus scale="   51.743">  5  9 -1 -1</clus>
<clus scale="   89.563">  7  8 -1 -1</clus>
<clus scale="  108.009">  1  7  2 -1</clus>
<clus scale="  170.362">  2  5  1 -1</clus>
</clustering>
</event>
<event>
 9    1  0.4516508E-005  0.1437506E+03  0.7546771E-02  0.1229412E+00
         21   -1    0    0  501  502  0.00000000000E+00  0.00000000000E+00  0.22859818955E+03  0.22859818955E+03  0.00000000000E+00 0. -1.
          1   -1    0    0  502    0 -0.00000000000E+00 -0.00000000000E+00 -0.84771180269E+02  0.84771180269E+02  0.00000000000E+00 0. -1.
         23    2    1    2    0    0  0.15804608782E+02 -0.19442220414E+02 -0.20972084000E+02  0.94684740978E+02  0.88868364863E+02 0.  0.
        -24    2    1    2    0    0 -0.28353879789E+02  0.41248471802E+02  0.16743932404E+03  0.19338704752E+03  0.82808477764E+02 0.  0.
         11    1    4    4    0    0  0.63336121660E+00  0.33417411087E+02  0.15860431910E+03  0.16208779888E+03  0.00000000000E+00 0. -1.
        -12    1    4    4    0    0 -0.28987241006E+02  0.78310607145E+01  0.88350049404E+01  0.31299248639E+02  0.00000000000E+00 0.  1.
        -11    1    3    3    0    0 -0.30510310954E+02  0.83999077511E+01  0.89863496187E+01  0.32896686827E+02  0.00000000000E+00 0.  1.
         11    1    3    3    0    0  0.46314919736E+02 -0.27842128165E+02 -0.29958433619E+02  0.61788054151E+02  0.00000000000E+00 0. -1.
          2    1    1    2  501    0  0.12549271007E+02 -0.21806251388E+02 -0.26402307532E+01  0.25297581324E+02  0.00000000000E+00 0. -1.
<scales pt_clust_5="13000.00000" pt_clust_6="13000.00000" pt_clust_7="13000.00000" pt_clust_8="13000.00000" pt_clust_9="13000.00000"></scales>
<clustering>
<clus scale="   82.808">  5  6 -1 -1</clus>
<clus scale="   25.159">  5  9 -1 -1</clus>
<clus scale="   88.868">  7  8 -1 -1</clus>
<clus scale="   92.333">  2  7  1 -1</clus>
<clus scale="  143.751">  1  5  2 -1</clus>
</clustering>
</event>
<event>
 9    1  0.4516508E-005  0.1770431E+03  0.7546771E-02  0.1187383E+00
         21   -1    0    0  501  502  0.00000000000E+00  0.00000000000E+00  0.18614206519E+03  0.18614206519E+03  0.00000000000E+00 0.  1.
         -2   -1    0    0    0  501 -0.00000000000E+00 -0.00000000000E+00 -0.35217592157E+03  0.35217592157E+03  0.00000000000E+00 0.  1.
         23    2    1    2    0    0  0.31609870419E+02  0.59388545531E+02 -0.29513757638E+03  0.31920147913E+03  0.10127789510E+03 0.  0.
        -24    2    1    2    0    0  0.26458456654E+02 -0.37276560062E+02  0.12615672401E+03  0.15691075793E+03  0.81338029748E+02 0.  0.
         11    1    4    4    0    0  0.16649779239E+02  0.19802068400E+02  0.11205139251E+02  0.28193832788E+02  0.00000000000E+00 0. -1.
        -12    1    4    4    0    0  0.98086774151E+01 -0.57078628462E+02  0.11495158476E+03  0.12871692515E+03  0.00000000000E+00 0.  1.
        -13    1    3    3    0    0  0.31514575689E+02  0.83868452039E+02 -0.17506899218E+03  0.19666275130E+03  0.00000000000E+00 0.  1.
         13    1    3    3    0    0  0.95294730092E-01 -0.24479906508E+02 -0.12006858421E+03  0.12253872783E+03  0.00000000000E+00 0. -1.
         -1    1    1    2    0  502 -0.58068327073E+02 -0.22111985469E+02  0.29469959868E+01  0.62205749700E+02  0.00000000000E+00 0.  1.
<scales pt_clust_5="13000.00000" pt_clust_6="13000.00000" pt_clust_7="13000.00000" pt_clust_8="13000.00000" pt_clust_9="13000.00000"></scales>
<clustering>
<clus scale="   81.338">  5  6 -1 -1</clus>
<clus scale="   62.136">  5  9 -1 -1</clus>
<clus scale="  101.278">  7  8 -1 -1</clus>
<clus scale="  121.587">  2  7  1 -1</clus>
<clus scale="  177.043">  1  5  2 -1</clus>
</clustering>
</event>
<event>
 9    1  0.4516508E-005  0.5790896E+03  0.7546771E-02  0.1030284E+00
          1   -1    0    0  502    0 -0.00000000000E+00  0.00000000000E+00  0.70087520219E+03  0.70087520219E+03  0.00000000000E+00 0. -1.
         21   -1    0    0  501  502  0.00000000000E+00 -0.00000000000E+00 -0.25665235933E+03  0.25665235933E+03  0.00000000000E+00 0.  1.
         23    2    1    2    0    0  0.13994202426E+03  0.10128541113E+03  0.30428698758E+03  0.36177017559E+03  0.91894420219E+02 0.  0.
        -24    2    1    2    0    0 -0.44149214190E+02 -0.11764565522E+03 -0.19625418924E+03  0.24580358030E+03  0.78192326904E+02 0.  0.
         11    1    4    4    0    0 -0.23090714212E+02 -0.50326875271E+00 -0.63179740130E+02  0.67268967029E+02  0.00000000000E+00 0. -1.
        -12    1    4    4    0    0 -0.21058499978E+02 -0.11714238647E+03 -0.13307444911E+03  0.17853461327E+03  0.00000000000E+00 0.  1.
        -11    1    3    3    0    0  0.12856089922E+03  0.11834328708E+03  0.26444738469E+03  0.31696286482E+03  0.00000000000E+00 0. -1.
         11    1    3    3    0    0  0.11381125048E+02 -0.17057875953E+02  0.39839602894E+02  0.44807310767E+02  0.00000000000E+00 0.  1.
          2    1    1    2  501    0 -0.95792810075E+02  0.16360244092E+02  0.33619004451E+03  0.34995380563E+03  0.00000000000E+00 0. -1.
<scales pt_clust_5="13000.00000" pt_clust_6="13000.00000" pt_clust_7="13000.00000" pt_clust_8="13000.00000" pt_clust_9="13000.00000"></scales>
<clustering>
<clus scale="   78.192">  5  6 -1 -1</clus>
<clus scale="   91.894">  7  8 -1 -1</clus>
<clus scale="   97.180">  5  9 -1 -1</clus>
<clus scale="  195.671">  1  7  2 -1</clus>
<clus scale="  579.090">  2  5  1 -1</clus>
</clustering>
</event>
<event>
 9    1  0.4516508E-005  0.7354400E+03  0.7546771E-02  0.9801724E-01
          1   -1    0    0  502    0 -0.00000000000E+00  0.00000000000E+00  0.21883066524E+04  0.21883066524E+04  0.00000000000E+00 0. -1.
         21   -1    0    0  501  502  0.00000000000E+00 -0.00000000000E+00 -0.24318662631E+03  0.24318662631E+03  0.00000000000E+00 0. -1.
         23    2    1    2    0    0  0.42026705736E+03  0.15223744469E+03  0.13212196515E+03  0.47500816820E+03  0.91519982033E+02 0.  0.
        -24    2    1    2    0    0  0.11772046006E+03  0.67645360928E+02  0.39535119306E+03  0.42432922448E+03  0.72929577830E+02 0.  0.
         11    1    4    4    0    0  0.21734991817E+02  0.41193811820E+02  0.69956401749E+02  0.84043073166E+02  0.00000000000E+00 0. -1.
        -12    1    4    4    0    0  0.95985468248E+02  0.26451549108E+02  0.32539479131E+03  0.34028615131E+03  0.00000000000E+00 0.  1.
        -13    1    3    3    0    0  0.68705082196E+02 -0.93536112193E+01  0.20819296458E+02  0.72396971397E+02  0.00000000000E+00 0.  1.
         13    1    3    3    0    0  0.35156197516E+03  0.16159105591E+03  0.11130266869E+03  0.40261119680E+03  0.00000000000E+00 0. -1.
          2    1    1    2  501    0 -0.53798751742E+03 -0.21988280562E+03  0.14176468679E+04  0.15321558860E+04  0.00000000000E+00 0. -1.
<scales pt_clust_5="13000.00000" pt_clust_6="13000.00000" pt_clust_7="13000.00000" pt_clust_8="13000.00000" pt_clust_9="13000.00000"></scales>
<clustering>
<clus scale="   72.930">  5  6 -1 -1</clus>
<clus scale="   91.520">  7  8 -1 -1</clus>
<clus scale="  456.264">  1  7  2 -1</clus>
<clus scale="  232.114">  5  9 -1 -1</clus>
<clus scale="  735.440">  2  5  1 -1</clus>
</clustering>
</event>
<event>
 9    1  0.4516508E-005  0.1994151E+03  0.7546771E-02  0.1184480E+00
         21   -1    0    0  501  502  0.00000000000E+00  0.00000000000E+00  0.17649906290E+03  0.17649906290E+03  0.00000000000E+00 0. -1.
          1   -1    0    0  502    0 -0.00000000000E+00 -0.00000000000E+00 -0.19848047977E+03  0.19848047977E+03  0.00000000000E+00 0. -1.
         23    2    1    2    0    0  0.25461782550E+02  0.22046275188E+02 -0.12186343763E+03  0.15194856395E+03  0.84281243678E+02 0.  0.
        -24    2    1    2    0    0 -0.27937254924E+02  0.48515441515E+01  0.14626810742E+03  0.16935333267E+03  0.80511889452E+02 0.  0.
         13    1    4    4    0    0 -0.41934418352E+02 -0.13945032078E+02  0.13733956083E+03  0.14427444102E+03  0.00000000000E+00 0. -1.
        -14    1    4    4    0    0  0.13997163427E+02  0.18796576230E+02  0.89285465887E+01  0.25078891645E+02  0.00000000000E+00 0.  1.
        -11    1    3    3    0    0 -0.38503219261E+01 -0.29776244705E+02 -0.53021441114E+02  0.60932117520E+02  0.00000000000E+00 0.  1.
         11    1    3    3    0    0  0.29312104476E+02  0.51822519893E+02 -0.68841996517E+02  0.91016446433E+02  0.00000000000E+00 0. -1.
          2    1    1    2  501    0  0.24754723746E+01 -0.26897819340E+02 -0.46386086665E+02  0.53677646044E+02  0.00000000000E+00 0. -1.
<scales pt_clust_5="13000.00000" pt_clust_6="13000.00000" pt_clust_7="13000.00000" pt_clust_8="13000.00000" pt_clust_9="13000.00000"></scales>
<clustering>
<clus scale="   80.512">  5  6 -1 -1</clus>
<clus scale="   27.012">  5  9 -1 -1</clus>
<clus scale="   84.281">  7  8 -1 -1</clus>
<clus scale="   90.762">  2  7  1 -1</clus>
<clus scale="  199.415">  1  5  2 -1</clus>
</clustering>
</event>
<event>
 9    1  0.4516508E-005  0.3610567E+03  0.7546771E-02  0.1107164E+00
          1   -1    0    0  502    0 -0.00000000000E+00  0.00000000000E+00  0.30252694282E+03  0.30252694282E+03  0.00000000000E+00 0. -1.
         21   -1    0    0  501  502  0.00000000000E+00 -0.00000000000E+00 -0.53254561492E+03  0.53254561492E+03  0.00000000000E+00 0. -1.
         23    2    1    2    0    0  0.18691544185E+02 -0.25854329997E+02  0.23038094686E+03  0.24998302392E+03  0.91642301188E+02 0.  0.
        -24    2    1    2    0    0  0.88922788257E+02 -0.62126396839E+02 -0.38648577408E+02  0.14102265385E+03  0.81404698323E+02 0.  0.
         11    1    4    4    0    0  0.60769586372E+02 -0.37428622992E+01 -0.45267000675E+02  0.75868656217E+02  0.00000000000E+00 0. -1.
        -12    1    4    4    0    0  0.28153201885E+02 -0.58383534539E+02  0.66184232668E+01  0.65153997638E+02  0.00000000000E+00 0.  1.
        -13    1    3    3    0    0  0.14965862985E+01  0.33086060126E+02  0.55425111476E+02  0.64566788114E+02  0.00000000000E+00 0.  1.
         13    1    3    3    0    0  0.17194957887E+02 -0.58940390123E+02  0.17495583538E+03  0.18541623580E+03  0.00000000000E+00 0. -1.
          2    1    1    2  501    0 -0.10761433244E+03  0.87980726836E+02 -0.42175104155E+03  0.44406687998E+03  0.00000000000E+00 0. -1.
<scales pt_clust_5="13000.00000" pt_clust_6="13000.00000" pt_clust_7="13000.00000" pt_clust_8="13000.00000" pt_clust_9="13000.00000"></scales>
<clustering>
<clus scale="   81.405">  5  6 -1 -1</clus>
<clus scale="   91.642">  7  8 -1 -1</clus>
<clus scale="   97.037">  1  7  2 -1</clus>
<clus scale="  133.491">  5  9 -1 -1</clus>
<clus scale="  361.057">  2  5  1 -1</clus>
</clustering>
</event>
<event>
 9    1  0.4516508E-005  0.2956389E+03  0.7546771E-02  0.1111140E+00
          1   -1    0    0  502    0 -0.00000000000E+00  0.00000000000E+00  0.73148179063E+03  0.73148179063E+03  0.00000000000E+00 0. -1.
         21   -1    0    0  501  502  0.00000000000E+00 -0.00000000000E+00 -0.74473321141E+02  0.74473321141E+02  0.00000000000E+00 0. -1.
         23    2    1    2    0    0 -0.12337654510E+03  0.42456402832E+02  0.15030971761E+03  0.21931552663E+03  0.92097616659E+02 0.  0.
        -24    2    1    2    0    0  0.14019133634E+02 -0.61259881098E+02  0.34271552374E+02  0.10135608751E+03  0.71757982363E+02 0.  0.
         13    1    4    4    0    0  0.34927265207E+02 -0.23993339554E+02 -0.58073739575E+01  0.42770548162E+02  0.00000000000E+00 0. -1.
        -14    1    4    4    0    0 -0.20908131573E+02 -0.37266541544E+02  0.40078926332E+02  0.58585539346E+02  0.00000000000E+00 0.  1.
        -11    1    3    3    0    0 -0.86814440981E+02 -0.18366117151E+02  0.82652390632E+02  0.12126614985E+03  0.00000000000E+00 0.  1.
         11    1    3    3    0    0 -0.36562104116E+02  0.60822519983E+02  0.67657326976E+02  0.98049376785E+02  0.00000000000E+00 0. -1.
          2    1    1    2  501    0  0.10935741146E+03  0.18803478266E+02  0.47242719951E+03  0.48528349763E+03  0.00000000000E+00 0. -1.
<scales pt_clust_5="13000.00000" pt_clust_6="13000.00000" pt_clust_7="13000.00000" pt_clust_8="13000.00000" pt_clust_9="13000.00000"></scales>
<clustering>
<clus scale="   71.758">  5  6 -1 -1</clus>
<clus scale="   92.098">  7  8 -1 -1</clus>
<clus scale="  110.962">  5  9 -1 -1</clus>
<clus scale="  159.707">  1  7  2 -1</clus>
<clus scale="  295.639">  2  5  1 -1</clus>
</clustering>
</event>
<event>
 9    1  0.4516508E-005  0.2155855E+03  0.7546771E-02  0.1170803E+00
         21   -1    0    0  501  502  0.00000000000E+00  0.00000000000E+00  0.43886272010E+02  0.43886272010E+02  0.00000000000E+00 0.  1.
         -2   -1    0    0    0  501 -0.00000000000E+00 -0.00000000000E+00 -0.56912401208E+03  0.56912401208E+03  0.00000000000E+00 0.  1.
         23    2    1    2    0    0 -0.30622993866E+02  0.10738267689E+02 -0.12861616231E+03  0.16158388611E+03  0.92272189178E+02 0.  0.
        -24    2    1    2    0    0 -0.26189231081E+02  0.65804803353E+02 -0.28443399395E+03  0.30421048652E+03  0.81395179368E+02 0.  0.
         13    1    4    4    0    0 -0.12894497230E+02 -0.18480196810E+02 -0.62569977874E+02  0.66504043967E+02  0.00000000000E+00 0. -1.
        -14    1    4    4    0    0 -0.13294733851E+02  0.84285000163E+02 -0.22186401607E+03  0.23770644255E+03  0.00000000000E+00 0.  1.
        -13    1    3    3    0    0 -0.61457936611E+02 -0.18916975816E+01 -0.63230276575E+02  0.88197076867E+02  0.00000000000E+00 0.  1.
         13    1    3    3    0    0  0.30834942746E+02  0.12629965270E+02 -0.65385885736E+02  0.73386809239E+02  0.00000000000E+00 0. -1.
         -1    1    1    2    0  502  0.56812224946E+02 -0.76543071042E+02 -0.11218758382E+03  0.14721591147E+03  0.00000000000E+00 0.  1.
<scales pt_clust_5="13000.00000" pt_clust_6="13000.00000" pt_clust_7="13000.00000" pt_clust_8="13000.00000" pt_clust_9="13000.00000"></scales>
<clustering>
<clus scale="   81.395">  5  6 -1 -1</clus>
<clus scale="   92.272">  7  8 -1 -1</clus>
<clus scale="   95.323">  5  9 -1 -1</clus>
<clus scale="   97.812">  2  7  1 -1</clus>
<clus scale="  215.586">  1  5  2 -1</clus>
</clustering>
</event>
<event>
 9    1  0.4516508E-005  0.7053877E+03  0.7546771E-02  0.1021016E+00
          3   -1    0    0  502    0 -0.00000000000E+00  0.00000000000E+00  0.16165424195E+03  0.16165424195E+03  0.00000000000E+00 0. -1.
         21   -1    0    0  501  502  0.00000000000E+00 -0.00000000000E+00 -0.16812921981E+04  0.16812921981E+04  0.00000000000E+00 0. -1.
         23    2    1    2    0    0 -0.10510888869E+03  0.51882433501E+02  0.24832539611E+02  0.14501802045E+03  0.81693976798E+02 0.  0.
        -24    2    1    2    0    0 -0.79416922252E+02  0.18694880563E+03 -0.13068096287E+03  0.25228289631E+03  0.72885130492E+02 0.  0.
         11    1    4    4    0    0 -0.49608169138E+02  0.14878266688E+03 -0.13022645449E+03  0.20385333418E+03  0.00000000000E+00 0. -1.
        -12    1    4    4    0    0 -0.29808753114E+02  0.38166138758E+02 -0.45450837359E+00  0.48429562127E+02  0.00000000000E+00 0.  1.
        -13    1    3    3    0    0 -0.48914036166E+02 -0.93428432728E+01 -0.16157859016E+02  0.52354064431E+02  0.00000000000E+00 0. -1.
         13    1    3    3    0    0 -0.56194852525E+02  0.61225276774E+02  0.40990398627E+02  0.92663956023E+02  0.00000000000E+00 0.  1.
          4    1    1    2  501    0  0.18452581094E+03 -0.23883123913E+03 -0.14137895329E+04  0.14456455233E+04  0.00000000000E+00 0. -1.
<scales pt_clust_5="13000.00000" pt_clust_6="13000.00000" pt_clust_7="13000.00000" pt_clust_8="13000.00000" pt_clust_9="13000.00000"></scales>
<clustering>
<clus scale="   72.885">  5  6 -1 -1</clus>
<clus scale="   81.694">  7  8 -1 -1</clus>
<clus scale="  142.876">  1  7  2 -1</clus>
<clus scale="  280.152">  5  9 -1 -1</clus>
<clus scale="  705.388">  2  5  1 -1</clus>
</clustering>
</event>
<event>
 9    1  0.4516508E-005  0.2000986E+03  0.7546771E-02  0.1171738E+00
         21   -1    0    0  501  502  0.00000000000E+00  0.00000000000E+00  0.42878754220E+03  0.42878754220E+03  0.00000000000E+00 0.  1.
         -4   -1    0    0    0  501 -0.00000000000E+00 -0.00000000000E+00 -0.63331024861E+02  0.63331024861E+02  0.00000000000E+00 0.  1.
         23    2    1    2    0    0  0.75951458633E+02  0.42512608938E+01  0.81913781133E+02  0.14507974749E+03  0.92474690071E+02 0.  0.
        -24    2    1    2    0    0 -0.12549591480E+02  0.45457607457E+02  0.66170036236E+02  0.11521634645E+03  0.81685044364E+02 0.  0.
         11    1    4    4    0    0  0.33159292255E+02  0.10742285330E+02  0.36998382957E+02  0.50831247264E+02  0.00000000000E+00 0. -1.
        -12    1    4    4    0    0 -0.45708883735E+02  0.34715322126E+02  0.29171653279E+02  0.64385099190E+02  0.00000000000E+00 0.  1.
        -13    1    3    3    0    0 -0.49139132496E+01  0.20344165028E+02 -0.86134370967E+01  0.22632341742E+02  0.00000000000E+00 0. -1.
         13    1    3    3    0    0  0.80865371882E+02 -0.16092904135E+02  0.90527218230E+02  0.12244740574E+03  0.00000000000E+00 0.  1.
         -3    1    1    2    0  502 -0.63401867152E+02 -0.49708868351E+02  0.21737269997E+03  0.23182247312E+03  0.00000000000E+00 0.  1.
<scales pt_clust_5="13000.00000" pt_clust_6="13000.00000" pt_clust_7="13000.00000" pt_clust_8="13000.00000" pt_clust_9="13000.00000"></scales>
<clustering>
<clus scale="   81.685">  5  6 -1 -1</clus>
<clus scale="   80.565">  5  9 -1 -1</clus>
<clus scale="   92.475">  7  8 -1 -1</clus>
<clus scale="  119.742">  2  7  1 -1</clus>
<clus scale="  200.099">  1  5  2 -1</clus>
</clustering>
</event>
<event>
 9    1  0.4516508E-005  0.1834758E+03  0.7546771E-02  0.1195767E+00
          1   -1    0    0  502    0 -0.00000000000E+00  0.00000000000E+00  0.37938176946E+03  0.37938176946E+03  0.00000000000E+00 0. -1.
         21   -1    0    0  501  502  0.00000000000E+00 -0.00000000000E+00 -0.50150003636E+02  0.50150003636E+02  0.00000000000E+00 0. -1.
         23    2    1    2    0    0  0.80750186315E+01 -0.15696014188E+02  0.88031682439E+02  0.12647921900E+03  0.89083359489E+02 0.  0.
        -24    2    1    2    0    0  0.52054438634E+02  0.48730601928E+02  0.10079982966E+03  0.14678654095E+03  0.79381022919E+02 0.  0.
         13    1    4    4    0    0  0.37587126393E+02  0.64870967012E+02  0.10014664218E+03  0.12510149628E+03  0.00000000000E+00 0. -1.
        -14    1    4    4    0    0  0.14467312242E+02 -0.16140365083E+02  0.65318747711E+00  0.21685044671E+02  0.00000000000E+00 0.  1.
        -11    1    3    3    0    0 -0.22859714551E+02 -0.32014667653E+02  0.82054652373E+02  0.90997095945E+02  0.00000000000E+00 0.  1.
         11    1    3    3    0    0  0.30934733182E+02  0.16318653465E+02  0.59770300662E+01  0.35482123053E+02  0.00000000000E+00 0. -1.
          2    1    1    2  501    0 -0.60129457266E+02 -0.33034587740E+02  0.14040025373E+03  0.15626601315E+03  0.00000000000E+00 0. -1.
<scales pt_clust_5="13000.00000" pt_clust_6="13000.00000" pt_clust_7="13000.00000" pt_clust_8="13000.00000" pt_clust_9="13000.00000"></scales>
<clustering>
<clus scale="   79.381">  5  6 -1 -1</clus>
<clus scale="   68.606">  5  9 -1 -1</clus>
<clus scale="   89.083">  7  8 -1 -1</clus>
<clus scale="   90.815">  1  7  2 -1</clus>
<clus scale="  183.476">  2  5  1 -1</clus>
</clustering>
</event>
<event>
 9    1  0.4516508E-005  0.1311837E+03  0.7546771E-02  0.1240652E+00
         21   -1    0    0  501  502  0.00000000000E+00  0.00000000000E+00  0.53129991042E+02  0.53129991042E+02  0.00000000000E+00 0. -1.
          1   -1    0    0  502    0 -0.00000000000E+00 -0.00000000000E+00 -0.31780392668E+03  0.31780392668E+03  0.00000000000E+00 0. -1.
         23    2    1    2    0    0 -0.30509618849E+02  0.28339033568E+01 -0.28265457987E+02  0.10056725928E+03  0.91520323827E+02 0.  0.
        -24    2    1    2    0    0  0.14827775414E+02 -0.36457925206E+02 -0.13694478735E+03  0.16420865947E+03  0.81618415977E+02 0.  0.
         11    1    4    4    0    0  0.19572369088E+02  0.15349791938E+02 -0.96264843490E+01  0.26671388138E+02  0.00000000000E+00 0. -1.
        -12    1    4    4    0    0 -0.47445936744E+01 -0.51807717144E+02 -0.12731830300E+03  0.13753727133E+03  0.00000000000E+00 0.  1.
        -13    1    3    3    0    0 -0.19238594799E+02  0.45644405887E+02 -0.30654757146E+01  0.49627940316E+02  0.00000000000E+00 0. -1.
         13    1    3    3    0    0 -0.11271024049E+02 -0.42810502530E+02 -0.25199982272E+02  0.50939318964E+02  0.00000000000E+00 0.  1.
          2    1    1    2  501    0  0.15681843435E+02  0.33624021849E+02 -0.99463690298E+02  0.10615799898E+03  0.00000000000E+00 0. -1.
<scales pt_clust_5="13000.00000" pt_clust_6="13000.00000" pt_clust_7="13000.00000" pt_clust_8="13000.00000" pt_clust_9="13000.00000"></scales>
<clustering>
<clus scale="   81.618">  5  6 -1 -1</clus>
<clus scale="   37.101">  5  9 -1 -1</clus>
<clus scale="   91.520">  7  8 -1 -1</clus>
<clus scale="   96.513">  2  7  1 -1</clus>
<clus scale="  131.184">  1  5  2 -1</clus>
</clustering>
</event>
<event>
 9    1  0.4516508E-005  0.3127731E+03  0.7546771E-02  0.1110725E+00
         21   -1    0    0  501  502  0.00000000000E+00  0.00000000000E+00  0.99249941779E+02  0.99249941779E+02  0.00000000000E+00 0.  1.
         -2   -1    0    0    0  501 -0.00000000000E+00 -0.00000000000E+00 -0.52291963943E+03  0.52291963943E+03  0.00000000000E+00 0.  1.
         23    2    1    2    0    0  0.10922649197E+02  0.10079192384E+03 -0.82496641674E+02  0.15932393527E+03  0.91104908129E+02 0.  0.
        -24    2    1    2    0    0 -0.25884136592E+02 -0.11902237106E+03 -0.38569966479E+03  0.41245899887E+03  0.80758163601E+02 0.  0.
         13    1    4    4    0    0  0.27146495122E+02 -0.27594126560E+02 -0.13371651338E+03  0.13920658738E+03  0.00000000000E+00 0. -1.
        -14    1    4    4    0    0 -0.53030631714E+02 -0.91428244498E+02 -0.25198315141E+03  0.27325241149E+03  0.00000000000E+00 0.  1.
        -13    1    3    3    0    0  0.22683136595E+02  0.49621336047E+02  0.75579851422E+01  0.55081074938E+02  0.00000000000E+00 0. -1.
         13    1    3    3    0    0 -0.11760487398E+02  0.51170587794E+02 -0.90054626817E+02  0.10424286033E+03  0.00000000000E+00 0.  1.
         -1    1    1    2    0  502  0.14961487394E+02  0.18230447217E+02  0.44526608813E+02  0.50386647072E+02  0.00000000000E+00 0.  1.
<scales pt_clust_5="13000.00000" pt_clust_6="13000.00000" pt_clust_7="13000.00000" pt_clust_8="13000.00000" pt_clust_9="13000.00000"></scales>
<clustering>
<clus scale="   80.758">  5  6 -1 -1</clus>
<clus scale="   23.584">  5  9 -1 -1</clus>
<clus scale="   91.105">  7  8 -1 -1</clus>
<clus scale="  136.303">  2  7  1 -1</clus>
<clus scale="  312.773">  1  5  2 -1</clus>
</clustering>
</event>
<event>
 9    1  0.4516508E-005  0.1674269E+03  0.7546771E-02  0.1204412E+00
         21   -1    0    0  501  502  0.00000000000E+00  0.00000000000E+00  0.13153013131E+03  0.13153013131E+03  0.00000000000E+00 0.  1.
          1   -1    0    0  502    0 -0.00000000000E+00 -0.00000000000E+00 -0.17350523494E+03  0.17350523494E+03  0.00000000000E+00 0. -1.
         23    2    1    2    0    0 -0.21711503129E+02 -0.31722663998E+02  0.53207869280E+02  0.11244365921E+03  0.91295029245E+02 0.  0.
        -24    2    1    2    0    0  0.38919660954E+02 -0.24066345888E+02 -0.10023800045E+03  0.13399061811E+03  0.76235818321E+02 0.  0.
         13    1    4    4    0    0  0.51766185863E+02 -0.36673244233E+02 -0.96691243474E+02  0.11564541239E+03  0.00000000000E+00 0. -1.
        -14    1    4    4    0    0 -0.12846524909E+02  0.12606898345E+02 -0.35467569760E+01  0.18345205727E+02  0.00000000000E+00 0.  1.
        -11    1    3    3    0    0 -0.23421773821E+01  0.31635599331E+02  0.96605628999E+01  0.33160570192E+02  0.00000000000E+00 0. -1.
         11    1    3    3    0    0 -0.19369325747E+02 -0.63358263329E+02  0.43547306380E+02  0.79283089022E+02  0.00000000000E+00 0.  1.
          2    1    1    2  501    0 -0.17208157825E+02  0.55789009886E+02  0.50550275340E+01  0.58601088924E+02  0.00000000000E+00 0. -1.
<scales pt_clust_5="13000.00000" pt_clust_6="13000.00000" pt_clust_7="13000.00000" pt_clust_8="13000.00000" pt_clust_9="13000.00000"></scales>
<clustering>
<clus scale="   76.236">  5  6 -1 -1</clus>
<clus scale="   58.383">  5  9 -1 -1</clus>
<clus scale="   91.295">  7  8 -1 -1</clus>
<clus scale="   99.058">  2  7  1 -1</clus>
<clus scale="  167.427">  1  5  2 -1</clus>
</clustering>
</event>
<event>
 9    1  0.4516508E-005  0.3612787E+03  0.7546771E-02  0.1108094E+00
          1   -1    0    0  502    0 -0.00000000000E+00  0.00000000000E+00  0.41903322590E+03  0.41903322590E+03  0.00000000000E+00 0. -1.
         21   -1    0    0  501  502  0.00000000000E+00 -0.00000000000E+00 -0.13211733864E+03  0.13211733864E+03  0.00000000000E+00 0. -1.
         23    2    1    2    0    0 -0.27534110785E+02  0.38757246331E+01  0.12104470397E+03  0.15361369838E+03  0.90400218313E+02 0.  0.
        -24    2    1    2    0    0 -0.11997445104E+03 -0.10489011163E+03  0.52979078620E+02  0.18609583540E+03  0.80181498870E+02 0.  0.
         11    1    4    4    0    0 -0.12009346522E+03 -0.11236902707E+03  0.37181632654E+02  0.16861705857E+03  0.00000000000E+00 0. -1.
        -12    1    4    4    0    0  0.11901417450E+00  0.74789154415E+01  0.15797445966E+02  0.17478776833E+02  0.00000000000E+00 0.  1.
        -13    1    3    3    0    0 -0.18311362141E+02  0.43794100932E+02  0.91572854336E+02  0.10314464073E+03  0.00000000000E+00 0. -1.
         13    1    3    3    0    0 -0.92227486444E+01 -0.39918376299E+02  0.29471849638E+02  0.50469057649E+02  0.00000000000E+00 0.  1.
          2    1    1    2  501    0  0.14750856183E+03  0.10101438700E+03  0.11289210467E+03  0.21144103076E+03  0.00000000000E+00 0. -1.
<scales pt_clust_5="13000.00000" pt_clust_6="13000.00000" pt_clust_7="13000.00000" pt_clust_8="13000.00000" pt_clust_9="13000.00000"></scales>
<clustering>
<clus scale="   80.181">  5  6 -1 -1</clus>
<clus scale="   90.400">  7  8 -1 -1</clus>
<clus scale="   94.580">  1  7  2 -1</clus>
<clus scale="  167.313">  5  9 -1 -1</clus>
<clus scale="  361.279">  2  5  1 -1</clus>
</clustering>
</event>
<event>
 9    1  0.4516508E-005  0.2185026E+03  0.7546771E-02  0.1148543E+00
         -4   -1    0    0    0  501 -0.00000000000E+00  0.00000000000E+00  0.44184324796E+02  0.44184324796E+02  0.00000000000E+00 0.  1.
         21   -1    0    0  501  502  0.00000000000E+00 -0.00000000000E+00 -0.10097340856E+04  0.10097340856E+04  0.00000000000E+00 0.  1.
         23    2    1    2    0    0 -0.11686938891E+03 -0.54848044805E+02 -0.65798208581E+03  0.67663702932E+03  0.90722004598E+02 0.  0.
        -24    2    1    2    0    0  0.32847010862E+02  0.85548272770E+02 -0.22005303344E+03  0.25213715829E+03  0.82172842055E+02 0.  0.
         13    1    4    4    0    0  0.36801380734E+02  0.88532740743E+02 -0.12787540103E+03  0.15982648715E+03  0.00000000000E+00 0. -1.
        -14    1    4    4    0    0 -0.39543698716E+01 -0.29844679726E+01 -0.92177632409E+02  0.92310671142E+02  0.00000000000E+00 0.  1.
        -11    1    3    3    0    0 -0.12965738965E+02  0.24047406369E+02 -0.11171095567E+03  0.11500315542E+03  0.00000000000E+00 0. -1.
         11    1    3    3    0    0 -0.10390364994E+03 -0.78895451174E+02 -0.54627113014E+03  0.56163387390E+03  0.00000000000E+00 0.  1.
         -3    1    1    2    0  502  0.84022378045E+02 -0.30700227966E+02 -0.87514641569E+02  0.12514422279E+03  0.00000000000E+00 0.  1.
<scales pt_clust_5="13000.00000" pt_clust_6="13000.00000" pt_clust_7="13000.00000" pt_clust_8="13000.00000" pt_clust_9="13000.00000"></scales>
<clustering>
<clus scale="   82.173">  5  6 -1 -1</clus>
<clus scale="   89.455">  5  9 -1 -1</clus>
<clus scale="   90.722">  7  8 -1 -1</clus>
<clus scale="  157.789">  1  7  2 -1</clus>
<clus scale="  218.503">  2  5  1 -1</clus>
</clustering>
</event>
<event>
 9    1  0.4516508E-005  0.2115151E+03  0.7546771E-02  0.1161763E+00
         21   -1    0    0  501  502  0.00000000000E+00  0.00000000000E+00  0.15872979595E+03  0.15872979595E+03  0.00000000000E+00 0. -1.
          1   -1    0    0  502    0 -0.00000000000E+00 -0.00000000000E+00 -0.26119308716E+03  0.26119308716E+03  0.00000000000E+00 0. -1.
         23    2    1    2    0    0  0.17217787435E+02  0.88471053927E+02 -0.15623843185E+03  0.20167896771E+03  0.90224048023E+02 0.  0.
        -24    2    1    2    0    0  0.36051575287E+02  0.99535420900E+00 -0.19197689745E+02  0.91094801506E+02  0.81418700304E+02 0.  0.
         13    1    4    4    0    0  0.57031138525E+02  0.19036284211E+02 -0.20143299944E+02  0.63408859086E+02  0.00000000000E+00 0. -1.
        -14    1    4    4    0    0 -0.20979563238E+02 -0.18040930002E+02  0.94561019907E+00  0.27685942419E+02  0.00000000000E+00 0.  1.
        -13    1    3    3    0    0 -0.27910455371E+02  0.73424148584E+02 -0.82382436924E+02  0.11382866523E+03  0.00000000000E+00 0. -1.
         13    1    3    3    0    0  0.45128242806E+02  0.15046905344E+02 -0.73855994926E+02  0.87850302479E+02  0.00000000000E+00 0.  1.
          2    1    1    2  501    0 -0.53269362722E+02 -0.89466408136E+02  0.72972830380E+02  0.12714911389E+03  0.00000000000E+00 0. -1.
<scales pt_clust_5="13000.00000" pt_clust_6="13000.00000" pt_clust_7="13000.00000" pt_clust_8="13000.00000" pt_clust_9="13000.00000"></scales>
<clustering>
<clus scale="   81.419">  5  6 -1 -1</clus>
<clus scale="   90.224">  7  8 -1 -1</clus>
<clus scale="  104.124">  5  9 -1 -1</clus>
<clus scale="  127.530">  2  7  1 -1</clus>
<clus scale="  211.515">  1  5  2 -1</clus>
</clustering>
</event>
<event>
 9    1  0.4516508E-005  0.9745692E+03  0.7546771E-02  0.1001807E+00
         -4   -1    0    0    0  501 -0.00000000000E+00  0.00000000000E+00  0.20406509904E+03  0.20406509904E+03  0.00000000000E+00 0.  1.
         21   -1    0    0  501  502  0.00000000000E+00 -0.00000000000E+00 -0.14097266618E+04  0.14097266618E+04  0.00000000000E+00 0.  1.
         23    2    1    2    0    0 -0.32405554945E+01  0.25016444758E+02 -0.10025230520E+03  0.14011788171E+03  0.94584207820E+02 0.  0.
        -24    2    1    2    0    0 -0.76973607777E+00  0.31897298488E+03 -0.14055194113E+02  0.32938436071E+03  0.80945358249E+02 0.  0.
         11    1    4    4    0    0 -0.37704030945E+02  0.16702046801E+03 -0.22951207685E+02  0.17275470650E+03  0.00000000000E+00 0. -1.
        -12    1    4    4    0    0  0.36934294867E+02  0.15195251687E+03  0.88960135723E+01  0.15662965421E+03  0.00000000000E+00 0.  1.
        -11    1    3    3    0    0  0.38653489478E+02  0.41216619299E+01 -0.80326849828E+02  0.89238350215E+02  0.00000000000E+00 0. -1.
         11    1    3    3    0    0 -0.41894044972E+02  0.20894782828E+02 -0.19925455376E+02  0.50879531498E+02  0.00000000000E+00 0.  1.
         -3    1    1    2    0  502  0.40102915723E+01 -0.34398942964E+03 -0.10913540635E+04  0.11442895184E+04  0.00000000000E+00 0.  1.
<scales pt_clust_5="13000.00000" pt_clust_6="13000.00000" pt_clust_7="13000.00000" pt_clust_8="13000.00000" pt_clust_9="13000.00000"></scales>
<clustering>
<clus scale="   80.945">  5  6 -1 -1</clus>
<clus scale="   94.584">  7  8 -1 -1</clus>
<clus scale="   97.890">  1  7  2 -1</clus>
<clus scale="  340.412">  5  9 -1 -1</clus>
<clus scale="  974.569">  2  5  1 -1</clus>
</clustering>
</event>
<event>
 9    1  0.4516508E-005  0.1156039E+03  0.7546771E-02  0.1254271E+00
         -2   -1    0    0    0  501 -0.00000000000E+00  0.00000000000E+00  0.13788830797E+03  0.13788830797E+03  0.00000000000E+00 0.  1.
         21   -1    0    0  501  502  0.00000000000E+00 -0.00000000000E+00 -0.99892628145E+02  0.99892628145E+02  0.00000000000E+00 0.  1.
         23    2    1    2    0    0 -0.48727589025E+02 -0.26317966723E+01  0.55574700520E+02  0.12084809178E+03  0.95574105605E+02 0.  0.
        -24    2    1    2    0    0  0.28707844492E+02  0.22313957283E+02 -0.14975288520E+02  0.88737861828E+02  0.79549329542E+02 0.  0.
         13    1    4    4    0    0  0.50426560033E+02  0.93777445453E+01  0.11037295404E+02  0.52465245061E+02  0.00000000000E+00 0. -1.
        -14    1    4    4    0    0 -0.21718715541E+02  0.12936212738E+02 -0.26012583924E+02  0.36272616767E+02  0.00000000000E+00 0.  1.
        -13    1    3    3    0    0 -0.12110776615E+02 -0.45423377249E+02  0.92213281086E+01  0.47906022617E+02  0.00000000000E+00 0. -1.
         13    1    3    3    0    0 -0.36616812410E+02  0.42791580576E+02  0.46353372412E+02  0.72942069159E+02  0.00000000000E+00 0.  1.
         -1    1    1    2    0  502  0.20019744533E+02 -0.19682160611E+02 -0.26037321763E+01  0.28194982510E+02  0.00000000000E+00 0.  1.
<scales pt_clust_5="13000.00000" pt_clust_6="13000.00000" pt_clust_7="13000.00000" pt_clust_8="13000.00000" pt_clust_9="13000.00000"></scales>
<clustering>
<clus scale="   79.549">  5  6 -1 -1</clus>
<clus scale="   28.075">  5  9 -1 -1</clus>
<clus scale="   95.574">  7  8 -1 -1</clus>
<clus scale="  107.311">  1  7  2 -1</clus>
<clus scale="  115.604">  2  5  1 -1</clus>
</clustering>
</event>
<event>
 9    1  0.4516508E-005  0.4479363E+03  0.7546771E-02  0.1071267E+00
         21   -1    0    0  501  502  0.00000000000E+00  0.00000000000E+00  0.38515614890E+03  0.38515614890E+03  0.00000000000E+00 0. -1.
          1   -1    0    0  502    0 -0.00000000000E+00 -0.00000000000E+00 -0.36364997133E+03  0.36364997133E+03  0.00000000000E+00 0. -1.
         23    2    1    2    0    0  0.82605848588E+02  0.44480475359E+02 -0.20755907296E+03  0.24569795205E+03  0.92111215183E+02 0.  0.
        -24    2    1    2    0    0  0.62576490166E+01  0.11492180886E+03  0.28023000626E+03  0.31357283730E+03  0.80949907760E+02 0.  0.
         13    1    4    4    0    0 -0.30812081184E+02  0.56586890292E+02  0.18503851746E+03  0.19593548286E+03  0.00000000000E+00 0. -1.
        -14    1    4    4    0    0  0.37069730201E+02  0.58334918567E+02  0.95191488793E+02  0.11763735444E+03  0.00000000000E+00 0.  1.
        -11    1    3    3    0    0  0.31312134596E+02 -0.16230105106E+02 -0.16843401071E+02  0.39084091960E+02  0.00000000000E+00 0.  1.
         11    1    3    3    0    0  0.51293713992E+02  0.60710580465E+02 -0.19071567189E+03  0.20661386009E+03  0.00000000000E+00 0. -1.
          2    1    1    2  501    0 -0.88863497604E+02 -0.15940228422E+03 -0.51164755720E+02  0.18953533087E+03  0.00000000000E+00 0. -1.
<scales pt_clust_5="13000.00000" pt_clust_6="13000.00000" pt_clust_7="13000.00000" pt_clust_8="13000.00000" pt_clust_9="13000.00000"></scales>
<clustering>
<clus scale="   80.950">  5  6 -1 -1</clus>
<clus scale="   92.111">  7  8 -1 -1</clus>
<clus scale="  131.479">  2  7  1 -1</clus>
<clus scale="  121.434">  5  9 -1 -1</clus>
<clus scale="  447.936">  1  5  2 -1</clus>
</clustering>
</event>
<event>
 9    1  0.4516508E-005  0.2047160E+03  0.7546771E-02  0.1171474E+00
          3   -1    0    0  502    0 -0.00000000000E+00  0.00000000000E+00  0.95556800197E+02  0.95556800197E+02  0.00000000000E+00 0. -1.
         21   -1    0    0  501  502  0.00000000000E+00 -0.00000000000E+00 -0.26558517519E+03  0.26558517519E+03  0.00000000000E+00 0. -1.
         23    2    1    2    0    0  0.63300947877E+02  0.17962435219E+02 -0.44337758693E+02  0.12091967715E+03  0.91247314459E+02 0.  0.
        -24    2    1    2    0    0 -0.17001045820E+01 -0.53714245330E+02 -0.15719713416E+01  0.97119908850E+02  0.80880746128E+02 0.  0.
         11    1    4    4    0    0  0.22611939826E+02 -0.35479937667E+02 -0.32948221618E+02  0.53438853911E+02  0.00000000000E+00 0. -1.
        -12    1    4    4    0    0 -0.24312044408E+02 -0.18234307662E+02  0.31376250276E+02  0.43681054939E+02  0.00000000000E+00 0.  1.
        -13    1    3    3    0    0  0.65437916775E+02  0.44480038402E+02 -0.13627664994E+02  0.80288903476E+02  0.00000000000E+00 0.  1.
         13    1    3    3    0    0 -0.21369688988E+01 -0.26517603183E+02 -0.30710093699E+02  0.40630773678E+02  0.00000000000E+00 0. -1.
          4    1    1    2  501    0 -0.61600843295E+02  0.35751810110E+02 -0.12411864496E+03  0.14310238938E+03  0.00000000000E+00 0. -1.
<scales pt_clust_5="13000.00000" pt_clust_6="13000.00000" pt_clust_7="13000.00000" pt_clust_8="13000.00000" pt_clust_9="13000.00000"></scales>
<clustering>
<clus scale="   80.881">  5  6 -1 -1</clus>
<clus scale="   71.224">  5  9 -1 -1</clus>
<clus scale="   91.247">  7  8 -1 -1</clus>
<clus scale="  112.498">  1  7  2 -1</clus>
<clus scale="  204.716">  2  5  1 -1</clus>
</clustering>
</event>
<event>
 9    1  0.4516508E-005  0.2531165E+03  0.7546771E-02  0.1142543E+00
         -2   -1    0    0    0  501 -0.00000000000E+00  0.00000000000E+00  0.61795394622E+03  0.61795394622E+03  0.00000000000E+00 0.  1.
         21   -1    0    0  501  502  0.00000000000E+00 -0.00000000000E+00 -0.63287519707E+02  0.63287519707E+02  0.00000000000E+00 0.  1.
         23    2    1    2    0    0  0.55622833766E+02 -0.53991801636E+02  0.75609373786E+02  0.13942634320E+03  0.87828887583E+02 0.  0.
        -24    2    1    2    0    0  0.69105791243E+02 -0.21198792352E+02  0.18817918963E+03  0.21651405208E+03  0.79005874207E+02 0.  0.
         11    1    4    4    0    0  0.72904949064E+02 -0.10176018932E+02  0.19084893680E+03  0.20455317068E+03  0.00000000000E+00 0. -1.
        -12    1    4    4    0    0 -0.37991578211E+01 -0.11022773420E+02 -0.26697471655E+01  0.11960881403E+02  0.00000000000E+00 0.  1.
        -13    1    3    3    0    0  0.78923586142E+02 -0.38516960230E+02  0.65977261848E+02  0.10984301414E+03  0.00000000000E+00 0.  1.
         13    1    3    3    0    0 -0.23300752376E+02 -0.15474841406E+02  0.96321119388E+01  0.29583329060E+02  0.00000000000E+00 0. -1.
         -1    1    1    2    0  502 -0.12472862501E+03  0.75190593988E+02  0.29087786309E+03  0.32530107064E+03  0.00000000000E+00 0.  1.
<scales pt_clust_5="13000.00000" pt_clust_6="13000.00000" pt_clust_7="13000.00000" pt_clust_8="13000.00000" pt_clust_9="13000.00000"></scales>
<clustering>
<clus scale="   79.006">  5  6 -1 -1</clus>
<clus scale="   87.829">  7  8 -1 -1</clus>
<clus scale="  117.145">  1  7  2 -1</clus>
<clus scale="  100.620">  5  9 -1 -1</clus>
<clus scale="  253.117">  2  5  1 -1</clus>
</clustering>
</event>
<event>
 9    1  0.4516508E-005  0.2587927E+03  0.7546771E-02  0.1145883E+00
          3   -1    0    0  502    0 -0.00000000000E+00  0.00000000000E+00  0.72362892875E+02  0.72362892875E+02  0.00000000000E+00 0. -1.
         21   -1    0    0  501  502  0.00000000000E+00 -0.00000000000E+00 -0.45365522845E+03  0.45365522845E+03  0.00000000000E+00 0. -1.
         23    2    1    2    0    0 -0.33876391656E+02  0.24691759422E+02 -0.81093009841E+02  0.12966814465E+03  0.92089405454E+02 0.  0.
        -24    2    1    2    0    0 -0.14758779276E+02  0.50812721284E+02 -0.29048354075E+03  0.30601336762E+03  0.80397384939E+02 0.  0.
         13    1    4    4    0    0  0.17846659752E+02  0.59174435761E+02 -0.20595542120E+03  0.21502965524E+03  0.00000000000E+00 0. -1.
        -14    1    4    4    0    0 -0.32605439029E+02 -0.83617144771E+01 -0.84528119546E+02  0.90983712373E+02  0.00000000000E+00 0.  1.
        -13    1    3    3    0    0 -0.38867283381E+02  0.56378233364E+02 -0.48318041542E+02  0.83808138347E+02  0.00000000000E+00 0. -1.
         13    1    3    3    0    0  0.49908917254E+01 -0.31686473942E+02 -0.32774968299E+02  0.45860006303E+02  0.00000000000E+00 0.  1.
          4    1    1    2  501    0  0.48635170932E+02 -0.75504480706E+02 -0.97157849862E+01  0.90336609058E+02  0.00000000000E+00 0. -1.
<scales pt_clust_5="13000.00000" pt_clust_6="13000.00000" pt_clust_7="13000.00000" pt_clust_8="13000.00000" pt_clust_9="13000.00000"></scales>
<clustering>
<clus scale="   80.397">  5  6 -1 -1</clus>
<clus scale="   89.813">  5  9 -1 -1</clus>
<clus scale="   92.089">  7  8 -1 -1</clus>
<clus scale="  101.182">  1  7  2 -1</clus>
<clus scale="  258.793">  2  5  1 -1</clus>
</clustering>
</event>
<event>
 9    1  0.4516508E-005  0.3170831E+03  0.7546771E-02  0.1116467E+00
          3   -1    0    0  502    0 -0.00000000000E+00  0.00000000000E+00  0.18657607837E+03  0.18657607837E+03  0.00000000000E+00 0. -1.
         21   -1    0    0  501  502  0.00000000000E+00 -0.00000000000E+00 -0.29507053428E+03  0.29507053428E+03  0.00000000000E+00 0.  1.
         23    2    1    2    0    0  0.53461387539E+02  0.40944477535E+02  0.53996472574E+02  0.12535317233E+03  0.90902302302E+02 0.  0.
        -24    2    1    2    0    0  0.58471991650E+02  0.63783840510E+02 -0.16452736665E+03  0.20299226924E+03  0.81542963357E+02 0.  0.
         11    1    4    4    0    0  0.63042704512E+02  0.11791935074E+02 -0.69470317261E+02  0.94549232177E+02  0.00000000000E+00 0. -1.
        -12    1    4    4    0    0 -0.45707128613E+01  0.51991905436E+02 -0.95057049394E+02  0.10844303706E+03  0.00000000000E+00 0.  1.
        -11    1    3    3    0    0  0.57639740648E+02 -0.12850441186E+02  0.25384064356E+02  0.64279267761E+02  0.00000000000E+00 0.  1.
         11    1    3    3    0    0 -0.41783531088E+01  0.53794918722E+02  0.28612408217E+02  0.61073904566E+02  0.00000000000E+00 0. -1.
          4    1    1    2  501    0 -0.11193337919E+03 -0.10472831805E+03  0.20364381706E+01  0.15330117109E+03  0.00000000000E+00 0. -1.
<scales pt_clust_5="13000.00000" pt_clust_6="13000.00000" pt_clust_7="13000.00000" pt_clust_8="13000.00000" pt_clust_9="13000.00000"></scales>
<clustering>
<clus scale="   81.543">  5  6 -1 -1</clus>
<clus scale="   90.902">  7  8 -1 -1</clus>
<clus scale="  113.127">  1  7  2 -1</clus>
<clus scale="   99.717">  5  9 -1 -1</clus>
<clus scale="  317.083">  2  5  1 -1</clus>
</clustering>
</event>
<event>
 9    1  0.4516508E-005  0.2404725E+03  0.7546771E-02  0.1159380E+00
          1   -1    0    0  502    0 -0.00000000000E+00  0.00000000000E+00  0.58183976785E+03  0.58183976785E+03  0.00000000000E+00 0. -1.
         21   -1    0    0  501  502  0.00000000000E+00 -0.00000000000E+00 -0.49182513409E+02  0.49182513409E+02  0.00000000000E+00 0. -1.
         23    2    1    2    0    0  0.10843524033E+01  0.14920446112E+02  0.20503441595E+03  0.22461882701E+03  0.90502542454E+02 0.  0.
        -24    2    1    2    0    0  0.41167886396E+02 -0.10095602988E+03  0.24360260196E+03  0.27894062239E+03  0.81109360103E+02 0.  0.
         13    1    4    4    0    0  0.50103067503E+02 -0.75441565862E+02  0.10930126623E+03  0.14194546147E+03  0.00000000000E+00 0. -1.
        -14    1    4    4    0    0 -0.89351811071E+01 -0.25514464022E+02  0.13430133573E+03  0.13699516092E+03  0.00000000000E+00 0.  1.
        -13    1    3    3    0    0 -0.21672562010E+01  0.46510513046E+02  0.17434810469E+03  0.18045826784E+03  0.00000000000E+00 0.  1.
         13    1    3    3    0    0  0.32516086042E+01 -0.31590066935E+02  0.30686311269E+02  0.44160559176E+02  0.00000000000E+00 0. -1.
          2    1    1    2  501    0 -0.42252238799E+02  0.86035583772E+02  0.84020236519E+02  0.12746283185E+03  0.00000000000E+00 0. -1.
<scales pt_clust_5="13000.00000" pt_clust_6="13000.00000" pt_clust_7="13000.00000" pt_clust_8="13000.00000" pt_clust_9="13000.00000"></scales>
<clustering>
<clus scale="   81.109">  5  6 -1 -1</clus>
<clus scale="   90.503">  7  8 -1 -1</clus>
<clus scale="   91.731">  1  7  2 -1</clus>
<clus scale="   99.595">  5  9 -1 -1</clus>
<clus scale="  240.473">  2  5  1 -1</clus>
</clustering>
</event>
<event>
 9    1  0.4516508E-005  0.2653738E+03  0.7546771E-02  0.1141193E+00
         21   -1    0    0  501  502  0.00000000000E+00  0.00000000000E+00  0.92997820801E+02  0.92997820801E+02  0.00000000000E+00 0. -1.
          1   -1    0    0  502    0 -0.00000000000E+00 -0.00000000000E+00 -0.57994565786E+03  0.57994565786E+03  0.00000000000E+00 0. -1.
         23    2    1    2    0    0  0.38257115331E+02  0.15607750606E+02 -0.36699108532E+03  0.38171695126E+03  0.96530644968E+02 0.  0.
        -24    2    1    2    0    0  0.46174277976E+02 -0.85897016578E+02  0.95346193087E+01  0.12141116808E+03  0.71689618258E+02 0.  0.
         11    1    4    4    0    0  0.51682327155E+02 -0.86544319349E+02  0.25946567872E+02  0.10408749462E+03  0.00000000000E+00 0. -1.
        -12    1    4    4    0    0 -0.55080491782E+01  0.64730277080E+00 -0.16411948563E+02  0.17323673463E+02  0.00000000000E+00 0.  1.
        -11    1    3    3    0    0  0.30792797595E+02  0.54100973178E+02 -0.27035165618E+03  0.27742589944E+03  0.00000000000E+00 0.  1.
         11    1    3    3    0    0  0.74643177356E+01 -0.38493222573E+02 -0.96639429140E+02  0.10429105181E+03  0.00000000000E+00 0. -1.
          2    1    1    2  501    0 -0.84431393308E+02  0.70289265972E+02 -0.12949137104E+03  0.16981535932E+03  0.00000000000E+00 0. -1.
<scales pt_clust_5="13000.00000" pt_clust_6="13000.00000" pt_clust_7="13000.00000" pt_clust_8="13000.00000" pt_clust_9="13000.00000"></scales>
<clustering>
<clus scale="   71.690">  5  6 -1 -1</clus>
<clus scale="   96.531">  7  8 -1 -1</clus>
<clus scale="  105.002">  2  7  1 -1</clus>
<clus scale="   99.340">  5  9 -1 -1</clus>
<clus scale="  265.374">  1  5  2 -1</clus>
</clustering>
</event>
<event>
 9    1  0.4516508E-005  0.3277971E+03  0.7546771E-02  0.1100628E+00
         -2   -1    0    0    0  501 -0.00000000000E+00  0.00000000000E+00  0.10434057490E+04  0.10434057490E+04  0.00000000000E+00 0.  1.
         21   -1    0    0  501  502  0.00000000000E+00 -0.00000000000E+00 -0.68788242756E+02  0.68788242756E+02  0.00000000000E+00 0. -1.
         23    2    1    2    0    0  0.11490470209E+03 -0.56937431279E+02  0.11370685336E+03  0.19098930505E+03  0.84277544441E+02 0.  0.
        -24    2    1    2    0    0 -0.12550266036E+02 -0.10558700905E+03  0.30070991760E+03  0.32899231932E+03  0.80643449635E+02 0.  0.
         13    1    4    4    0    0  0.24800630052E+02 -0.82436045701E+02  0.23173825237E+03  0.24721122647E+03  0.00000000000E+00 0. -1.
        -14    1    4    4    0    0 -0.37350896088E+02 -0.23150963350E+02  0.68971665233E+02  0.81781092849E+02  0.00000000000E+00 0.  1.
        -13    1    3    3    0    0  0.37524297947E+02 -0.44155176293E+01  0.85228257746E+02  0.93227815864E+02  0.00000000000E+00 0.  1.
         13    1    3    3    0    0  0.77380404142E+02 -0.52521913650E+02  0.28478595618E+02  0.97761489182E+02  0.00000000000E+00 0. -1.
         -1    1    1    2    0  502 -0.10235443605E+03  0.16252444033E+03  0.56020073529E+03  0.59221236740E+03  0.00000000000E+00 0.  1.
<scales pt_clust_5="13000.00000" pt_clust_6="13000.00000" pt_clust_7="13000.00000" pt_clust_8="13000.00000" pt_clust_9="13000.00000"></scales>
<clustering>
<clus scale="   80.643">  5  6 -1 -1</clus>
<clus scale="   84.278">  7  8 -1 -1</clus>
<clus scale="  153.453">  1  7  2 -1</clus>
<clus scale="  128.797">  5  9 -1 -1</clus>
<clus scale="  327.797">  2  5  1 -1</clus>
</clustering>
</event>
<event>
 9    1  0.4516508E-005  0.1936585E+03  0.7546771E-02  0.1187544E+00
         21   -1    0    0  501  502  0.00000000000E+00  0.00000000000E+00  0.20027718268E+03  0.20027718268E+03  0.00000000000E+00 0. -1.
          1   -1    0    0  502    0 -0.00000000000E+00 -0.00000000000E+00 -0.14214951814E+03  0.14214951814E+03  0.00000000000E+00 0. -1.
         23    2    1    2    0    0 -0.11504498127E+02  0.17168718254E+02 -0.64846594772E+02  0.11302250746E+03  0.90232410892E+02 0.  0.
        -24    2    1    2    0    0 -0.51014882951E+02 -0.56376631024E+02  0.10559079198E+03  0.15358784703E+03  0.81602503610E+02 0.  0.
         13    1    4    4    0    0 -0.33050973027E+02  0.24076177450E+01  0.80759192833E+02  0.87293818042E+02  0.00000000000E+00 0. -1.
        -14    1    4    4    0    0 -0.17963909924E+02 -0.58784248769E+02  0.24831599151E+02  0.66294028988E+02  0.00000000000E+00 0.  1.
        -11    1    3    3    0    0 -0.34723738536E+02  0.56303748381E+01 -0.76799035719E+02  0.84472072463E+02  0.00000000000E+00 0. -1.
         11    1    3    3    0    0  0.23219240409E+02  0.11538343416E+02  0.11952440947E+02  0.28550434998E+02  0.00000000000E+00 0.  1.
          2    1    1    2  501    0  0.62519381078E+02  0.39207912771E+02  0.17383467328E+02  0.75816346328E+02  0.00000000000E+00 0. -1.
<scales pt_clust_5="13000.00000" pt_clust_6="13000.00000" pt_clust_7="13000.00000" pt_clust_8="13000.00000" pt_clust_9="13000.00000"></scales>
<clustering>
<clus scale="   81.603">  5  6 -1 -1</clus>
<clus scale="   73.797">  5  9 -1 -1</clus>
<clus scale="   90.232">  7  8 -1 -1</clus>
<clus scale="   92.569">  2  7  1 -1</clus>
<clus scale="  193.659">  1  5  2 -1</clus>
</clustering>
</event>
<event>
 9    1  0.4516508E-005  0.2828774E+03  0.7546771E-02  0.1131495E+00
          1   -1    0    0  502    0 -0.00000000000E+00  0.00000000000E+00  0.98993732797E+02  0.98993732797E+02  0.00000000000E+00 0. -1.
         21   -1    0    0  501  502  0.00000000000E+00 -0.00000000000E+00 -0.54042748205E+03  0.54042748205E+03  0.00000000000E+00 0. -1.
         23    2    1    2    0    0  0.59799247148E+02 -0.11921005501E+02  0.62137474492E+01  0.10988566462E+03  0.91204102431E+02 0.  0.
        -24    2    1    2    0    0  0.79736398642E+00  0.10933772901E+03 -0.35980767858E+03  0.38504402470E+03  0.82716144846E+02 0.  0.
         11    1    4    4    0    0  0.21287583725E+02  0.10959460714E+03 -0.33354052179E+03  0.35172918391E+03  0.00000000000E+00 0. -1.
        -12    1    4    4    0    0 -0.20490219739E+02 -0.25687813300E+00 -0.26267156790E+02  0.33314840794E+02  0.00000000000E+00 0.  1.
        -13    1    3    3    0    0  0.18519695000E+02 -0.23438603956E+02 -0.37983135170E+02  0.48322518722E+02  0.00000000000E+00 0.  1.
         13    1    3    3    0    0  0.41279552148E+02  0.11517598455E+02  0.44196882619E+02  0.61563145899E+02  0.00000000000E+00 0. -1.
          2    1    1    2  501    0 -0.60596611134E+02 -0.97416723509E+02 -0.87839818118E+02  0.14449152552E+03  0.00000000000E+00 0. -1.
<scales pt_clust_5="13000.00000" pt_clust_6="13000.00000" pt_clust_7="13000.00000" pt_clust_8="13000.00000" pt_clust_9="13000.00000"></scales>
<clustering>
<clus scale="   82.716">  5  6 -1 -1</clus>
<clus scale="   91.204">  7  8 -1 -1</clus>
<clus scale="  109.710">  1  7  2 -1</clus>
<clus scale="  107.399">  5  9 -1 -1</clus>
<clus scale="  282.877">  2  5  1 -1</clus>
</clustering>
</event>
<event>
 9    1  0.4516508E-005  0.1376045E+03  0.7546771E-02  0.1233121E+00
          3   -1    0    0  502    0 -0.00000000000E+00  0.00000000000E+00  0.74610339508E+03  0.74610339508E+03  0.00000000000E+00 0. -1.
         21   -1    0    0  501  502  0.00000000000E+00 -0.00000000000E+00 -0.18539519274E+02  0.18539519274E+02  0.00000000000E+00 0.  1.
         23    2    1    2    0    0 -0.17738181437E+02 -0.16499190807E+02  0.29100202388E+03  0.30690799409E+03  0.94464133697E+02 0.  0.
        -24    2    1    2    0    0  0.32153196170E+02 -0.25497742582E+02  0.24409507547E+03  0.26021278200E+03  0.80276541711E+02 0.  0.
         13    1    4    4    0    0  0.48745126661E+02  0.33694458185E+01  0.19402446931E+03  0.20008232113E+03  0.00000000000E+00 0. -1.
        -14    1    4    4    0    0 -0.16591930491E+02 -0.28867188401E+02  0.50070606160E+02  0.60130460873E+02  0.00000000000E+00 0.  1.
        -13    1    3    3    0    0  0.23087353942E+02 -0.42695714784E+02  0.13041451353E+03  0.13915421414E+03  0.00000000000E+00 0.  1.
         13    1    3    3    0    0 -0.40825535379E+02  0.26196523977E+02  0.16058751035E+03  0.16775377995E+03  0.00000000000E+00 0. -1.
          4    1    1    2  501    0 -0.14415014733E+02  0.41996933389E+02  0.19246677646E+03  0.19752213827E+03  0.00000000000E+00 0. -1.
<scales pt_clust_5="13000.00000" pt_clust_6="13000.00000" pt_clust_7="13000.00000" pt_clust_8="13000.00000" pt_clust_9="13000.00000"></scales>
<clustering>
<clus scale="   80.277">  5  6 -1 -1</clus>
<clus scale="   44.402">  5  9 -1 -1</clus>
<clus scale="   94.464">  7  8 -1 -1</clus>
<clus scale="   97.521">  1  7  2 -1</clus>
<clus scale="  137.605">  2  5  1 -1</clus>
</clustering>
</event>
<event>
 9    1  0.4516508E-005  0.6054055E+03  0.7546771E-02  0.1023522E+00
         21   -1    0    0  501  502  0.00000000000E+00  0.00000000000E+00  0.25257516709E+03  0.25257516709E+03  0.00000000000E+00 0. -1.
          1   -1    0    0  502    0 -0.00000000000E+00 -0.00000000000E+00 -0.87733630194E+03  0.87733630194E+03  0.00000000000E+00 0. -1.
         23    2    1    2    0    0  0.18804175269E+03 -0.14774115052E+02 -0.45533807581E+03  0.50124624158E+03  0.91307481524E+02 0.  0.
        -24    2    1    2    0    0  0.29804130354E+02 -0.21625428249E+03 -0.20366233353E+03  0.30928570846E+03  0.80778106439E+02 0.  0.
         11    1    4    4    0    0  0.30479194805E+02 -0.14246604951E+03 -0.82515436305E+02  0.16743462547E+03  0.00000000000E+00 0. -1.
        -12    1    4    4    0    0 -0.67506445114E+00 -0.73788232979E+02 -0.12114689722E+03  0.14185108299E+03  0.00000000000E+00 0.  1.
        -13    1    3    3    0    0  0.93742685654E+02 -0.86027786735E+01 -0.11815335887E+03  0.15106923951E+03  0.00000000000E+00 0.  1.
         13    1    3    3    0    0  0.94299067038E+02 -0.61713363783E+01 -0.33718471695E+03  0.35017700207E+03  0.00000000000E+00 0. -1.
          2    1    1    2  501    0 -0.21784588305E+03  0.23102839754E+03  0.34239274494E+02  0.31937951899E+03  0.00000000000E+00 0. -1.
<scales pt_clust_5="13000.00000" pt_clust_6="13000.00000" pt_clust_7="13000.00000" pt_clust_8="13000.00000" pt_clust_9="13000.00000"></scales>
<clustering>
<clus scale="   80.778">  5  6 -1 -1</clus>
<clus scale="   91.307">  7  8 -1 -1</clus>
<clus scale="  209.559">  2  7  1 -1</clus>
<clus scale="  271.408">  5  9 -1 -1</clus>
<clus scale="  605.405">  1  5  2 -1</clus>
</clustering>
</event>
<event>
 9    1  0.4516508E-005  0.3871327E+03  0.7546771E-02  0.1067615E+00
         21   -1    0    0  501  502  0.00000000000E+00  0.00000000000E+00  0.10667480319E+03  0.10667480319E+03  0.00000000000E+00 0. -1.
          1   -1    0    0  502    0 -0.00000000000E+00 -0.00000000000E+00 -0.10786152828E+04  0.10786152828E+04  0.00000000000E+00 0. -1.
         23    2    1    2    0    0  0.20043468803E+03  0.47483244748E+02 -0.62905636456E+03  0.66814287333E+03  0.90962996278E+02 0.  0.
        -24    2    1    2    0    0 -0.92761629197E+01  0.14660832724E+02  0.34796417612E+02  0.89308396238E+02  0.80400321798E+02 0.  0.
         13    1    4    4    0    0  0.70211141671E+01  0.46188727681E+02  0.18383490226E+02  0.50206048658E+02  0.00000000000E+00 0. -1.
        -14    1    4    4    0    0 -0.16297277087E+02 -0.31527894957E+02  0.16412927386E+02  0.39102347580E+02  0.00000000000E+00 0.  1.
        -11    1    3    3    0    0  0.16901743454E+03  0.62012051151E+02 -0.58522892229E+03  0.61229509156E+03  0.00000000000E+00 0. -1.
         11    1    3    3    0    0  0.31417253494E+02 -0.14528806404E+02 -0.43827442269E+02  0.55847781769E+02  0.00000000000E+00 0.  1.
          2    1    1    2  501    0 -0.19115852511E+03 -0.62144077472E+02 -0.37768053261E+03  0.42783881638E+03  0.00000000000E+00 0. -1.
<scales pt_clust_5="13000.00000" pt_clust_6="13000.00000" pt_clust_7="13000.00000" pt_clust_8="13000.00000" pt_clust_9="13000.00000"></scales>
<clustering>
<clus scale="   80.400">  5  6 -1 -1</clus>
<clus scale="   90.963">  7  8 -1 -1</clus>
<clus scale="  201.006">  5  9 -1 -1</clus>
<clus scale="  225.173">  2  7  1 -1</clus>
<clus scale="  387.133">  1  5  2 -1</clus>
</clustering>
</event>
<event>
 9    1  0.4569323E-005  0.4209598E+03  0.7546771E-02  0.1052047E+00
         -2   -1    0    0    0  501 -0.00000000000E+00  0.00000000000E+00  0.16749815333E+03  0.16749815333E+03  0.00000000000E+00 0.  1.
         21   -1    0    0  501  502  0.00000000000E+00 -0.00000000000E+00 -0.72171463584E+03  0.72171463584E+03  0.00000000000E+00 0.  1.
         23    2    1    2    0    0  0.25454796568E+03 -0.19476314998E+02 -0.17343723173E+03  0.32158616687E+03  0.90350405068E+02 0.  0.
        -24    2    1    2    0    0  0.79427644130E+01 -0.18326570673E+02 -0.26568588657E+03  0.27852988411E+03  0.81184698809E+02 0.  0.
         13    1    4    4    0    0  0.11596203701E+02 -0.19205330041E+02 -0.13228191246E+02  0.26044225577E+02  0.00000000000E+00 0. -1.
        -14    1    4    4    0    0 -0.36534392877E+01  0.87875936874E+00 -0.25245769532E+03  0.25248565853E+03  0.00000000000E+00 0.  1.
        -13    1    3    3    0    0  0.21568724671E+03  0.38339354676E+01 -0.10605055068E+03  0.24037971369E+03  0.00000000000E+00 0.  1.
         13    1    3    3    0    0  0.38860718967E+02 -0.23310250465E+02 -0.67386681043E+02  0.81206453176E+02  0.00000000000E+00 0. -1.
         -1    1    1    2    0  502 -0.26249073009E+03  0.37802885670E+02 -0.11509336421E+03  0.28909673820E+03  0.00000000000E+00 0.  1.
<scales pt_clust_5="13000.00000" pt_clust_6="13000.00000" pt_clust_7="13000.00000" pt_clust_8="13000.00000" pt_clust_9="13000.00000"></scales>
<clustering>
<clus scale="   81.185">  5  6 -1 -1</clus>
<clus scale="   90.350">  7  8 -1 -1</clus>
<clus scale="  265.199">  5  9 -1 -1</clus>
<clus scale="  270.808">  1  7  2 -1</clus>
<clus scale="  420.960">  2  5  1 -1</clus>
</clustering>
</event>
<event>
 9    1  0.4516508E-005  0.3421370E+03  0.7546771E-02  0.1110106E+00
         21   -1    0    0  501  502  0.00000000000E+00  0.00000000000E+00  0.94359862154E+02  0.94359862154E+02  0.00000000000E+00 0. -1.
          1   -1    0    0  502    0 -0.00000000000E+00 -0.00000000000E+00 -0.53595695150E+03  0.53595695150E+03  0.00000000000E+00 0. -1.
         23    2    1    2    0    0  0.65146595979E+02  0.91928540088E+01 -0.12950076822E+03  0.16721655502E+03  0.82839240521E+02 0.  0.
        -24    2    1    2    0    0 -0.17531568910E+03  0.25831612670E+02 -0.95494026959E+02  0.21757939153E+03  0.82576142892E+02 0.  0.
         11    1    4    4    0    0 -0.17437039006E+03  0.11640219484E+02 -0.69742021849E+02  0.18816077501E+03  0.00000000000E+00 0. -1.
        -12    1    4    4    0    0 -0.94529904023E+00  0.14191393186E+02 -0.25752005110E+02  0.29418616522E+02  0.00000000000E+00 0.  1.
        -13    1    3    3    0    0  0.15404676715E+02  0.42928993800E+02 -0.52770962804E+02  0.69749387729E+02  0.00000000000E+00 0. -1.
         13    1    3    3    0    0  0.49741919264E+02 -0.33736139791E+02 -0.76729805415E+02  0.97467167288E+02  0.00000000000E+00 0.  1.
          2    1    1    2  501    0  0.11016909312E+03 -0.35024466679E+02 -0.21660229417E+03  0.24552086710E+03  0.00000000000E+00 0. -1.
<scales pt_clust_5="13000.00000" pt_clust_6="13000.00000" pt_clust_7="13000.00000" pt_clust_8="13000.00000" pt_clust_9="13000.00000"></scales>
<clustering>
<clus scale="   82.576">  5  6 -1 -1</clus>
<clus scale="   82.839">  7  8 -1 -1</clus>
<clus scale="  105.787">  2  7  1 -1</clus>
<clus scale="  151.906">  5  9 -1 -1</clus>
<clus scale="  342.137">  1  5  2 -1</clus>
</clustering>
</event>
<event>
 9    1  0.4516508E-005  0.5367267E+03  0.7546771E-02  0.1063346E+00
         21   -1    0    0  501  502  0.00000000000E+00  0.00000000000E+00  0.28882620947E+03  0.28882620947E+03  0.00000000000E+00 0. -1.
          1   -1    0    0  502    0 -0.00000000000E+00 -0.00000000000E+00 -0.35127690027E+03  0.35127690027E+03  0.00000000000E+00 0. -1.
         23    2    1    2    0    0 -0.22924910089E+02 -0.11862137277E+02  0.19720911178E+02  0.97122695928E+02  0.91529459320E+02 0.  0.
        -24    2    1    2    0    0  0.27865287585E+02  0.20176433532E+03  0.13243851265E+03  0.25637135349E+03  0.81859574881E+02 0.  0.
         13    1    4    4    0    0  0.46857915789E+02  0.18062707413E+03  0.13084836548E+03  0.22791028702E+03  0.00000000000E+00 0. -1.
        -14    1    4    4    0    0 -0.18992628203E+02  0.21137261187E+02  0.15901471680E+01  0.28461066469E+02  0.00000000000E+00 0.  1.
        -11    1    3    3    0    0  0.22334185518E+02 -0.23656858501E+02  0.35128197181E+02  0.47879568023E+02  0.00000000000E+00 0.  1.
         11    1    3    3    0    0 -0.45259095607E+02  0.11794721224E+02 -0.15407286003E+02  0.49243127905E+02  0.00000000000E+00 0. -1.
          2    1    1    2  501    0 -0.49403774963E+01 -0.18990219804E+03 -0.21461011463E+03  0.28660906031E+03  0.00000000000E+00 0. -1.
<scales pt_clust_5="13000.00000" pt_clust_6="13000.00000" pt_clust_7="13000.00000" pt_clust_8="13000.00000" pt_clust_9="13000.00000"></scales>
<clustering>
<clus scale="   81.860">  5  6 -1 -1</clus>
<clus scale="   91.529">  7  8 -1 -1</clus>
<clus scale="   95.099">  2  7  1 -1</clus>
<clus scale="  200.772">  5  9 -1 -1</clus>
<clus scale="  536.727">  1  5  2 -1</clus>
</clustering>
</event>
<event>
 9    1  0.4516508E-005  0.3005285E+03  0.7546771E-02  0.1127969E+00
         21   -1    0    0  501  502  0.00000000000E+00  0.00000000000E+00  0.57668022342E+03  0.57668022342E+03  0.00000000000E+00 0. -1.
          1   -1    0    0  502    0 -0.00000000000E+00 -0.00000000000E+00 -0.11004246092E+03  0.11004246092E+03  0.00000000000E+00 0. -1.
         23    2    1    2    0    0 -0.11950443031E+02 -0.34808647520E+02 -0.31781009055E+02  0.10471010186E+03  0.92734663771E+02 0.  0.
        -24    2    1    2    0    0  0.13843150316E+03 -0.48678869267E+01  0.23770658872E+03  0.28953603942E+03  0.90220388001E+02 0.  0.
         11    1    4    4    0    0  0.11237783703E+03 -0.28646597822E+02  0.22293290294E+03  0.25129362315E+03  0.00000000000E+00 0. -1.
        -12    1    4    4    0    0  0.26053666126E+02  0.23778710895E+02  0.14773685779E+02  0.38242416267E+02  0.00000000000E+00 0.  1.
        -11    1    3    3    0    0 -0.13973746158E+02 -0.65435194048E+02 -0.31645080698E+02  0.74016493663E+02  0.00000000000E+00 0.  1.
         11    1    3    3    0    0  0.20233031271E+01  0.30626546528E+02 -0.13592835691E+00  0.30693608199E+02  0.00000000000E+00 0. -1.
          2    1    1    2  501    0 -0.12648106013E+03  0.39676534447E+02  0.26071218283E+03  0.29247654305E+03  0.00000000000E+00 0. -1.
<scales pt_clust_5="13000.00000" pt_clust_6="13000.00000" pt_clust_7="13000.00000" pt_clust_8="13000.00000" pt_clust_9="13000.00000"></scales>
<clustering>
<clus scale="   90.220">  5  6 -1 -1</clus>
<clus scale="   92.735">  7  8 -1 -1</clus>
<clus scale="   99.771">  2  7  1 -1</clus>
<clus scale="  133.665">  5  9 -1 -1</clus>
<clus scale="  300.528">  1  5  2 -1</clus>
</clustering>
</event>
<event>
 9    1  0.4516508E-005  0.3461567E+03  0.7546771E-02  0.1084474E+00
         21   -1    0    0  501  502  0.00000000000E+00  0.00000000000E+00  0.25021874411E+03  0.25021874411E+03  0.00000000000E+00 0. -1.
          1   -1    0    0  502    0 -0.00000000000E+00 -0.00000000000E+00 -0.32728960606E+03  0.32728960606E+03  0.00000000000E+00 0. -1.
         23    2    1    2    0    0 -0.17604765115E+03 -0.26543648452E+02 -0.11361644558E+03  0.22942780117E+03  0.89616284759E+02 0.  0.
        -24    2    1    2    0    0 -0.66228699995E+02  0.61761223855E+01  0.14404151800E+02  0.10394347797E+03  0.78564507468E+02 0.  0.
         13    1    4    4    0    0 -0.56509257670E+02  0.23207568012E+02  0.39007921492E+02  0.72481068939E+02  0.00000000000E+00 0. -1.
        -14    1    4    4    0    0 -0.97194423253E+01 -0.17031445626E+02 -0.24603769692E+02  0.31462409035E+02  0.00000000000E+00 0.  1.
        -13    1    3    3    0    0 -0.11318462733E+03 -0.49160781516E+02 -0.10507716739E+03  0.16207638140E+03  0.00000000000E+00 0. -1.
         13    1    3    3    0    0 -0.62863023824E+02  0.22617133064E+02 -0.85392781917E+01  0.67351419765E+02  0.00000000000E+00 0.  1.
          2    1    1    2  501    0  0.24227635115E+03  0.20367526066E+02  0.22141431834E+02  0.24413707102E+03  0.00000000000E+00 0. -1.
<scales pt_clust_5="13000.00000" pt_clust_6="13000.00000" pt_clust_7="13000.00000" pt_clust_8="13000.00000" pt_clust_9="13000.00000"></scales>
<clustering>
<clus scale="   78.565">  5  6 -1 -1</clus>
<clus scale="   89.616">  7  8 -1 -1</clus>
<clus scale="  199.320">  2  7  1 -1</clus>
<clus scale="  116.836">  5  9 -1 -1</clus>
<clus scale="  346.157">  1  5  2 -1</clus>
</clustering>
</event>
<event>
 9    1  0.4516508E-005  0.3683832E+03  0.7546771E-02  0.1101479E+00
         21   -1    0    0  501  502  0.00000000000E+00  0.00000000000E+00  0.45254662245E+03  0.45254662245E+03  0.00000000000E+00 0. -1.
          1   -1    0    0  502    0 -0.00000000000E+00 -0.00000000000E+00 -0.22760633802E+03  0.22760633802E+03  0.00000000000E+00 0. -1.
         23    2    1    2    0    0 -0.50937423645E+02  0.23710720611E+02 -0.13068803822E+03  0.16812007745E+03  0.89600098806E+02 0.  0.
        -24    2    1    2    0    0  0.14195025901E+02  0.16033049237E+03  0.19071873591E+03  0.26220025172E+03  0.80423691964E+02 0.  0.
         13    1    4    4    0    0 -0.31440629943E+02  0.46604469121E+02  0.74329427432E+02  0.93195244169E+02  0.00000000000E+00 0. -1.
        -14    1    4    4    0    0  0.45635655844E+02  0.11372602324E+03  0.11638930848E+03  0.16900500755E+03  0.00000000000E+00 0.  1.
        -13    1    3    3    0    0  0.25108472771E+02  0.85132177347E+01 -0.47452824605E+02  0.54356976039E+02  0.00000000000E+00 0.  1.
         13    1    3    3    0    0 -0.76045896417E+02  0.15197502876E+02 -0.83235213619E+02  0.11376310141E+03  0.00000000000E+00 0. -1.
          2    1    1    2  501    0  0.36742397744E+02 -0.18404121298E+03  0.16490958674E+03  0.24983263131E+03  0.00000000000E+00 0. -1.
<scales pt_clust_5="13000.00000" pt_clust_6="13000.00000" pt_clust_7="13000.00000" pt_clust_8="13000.00000" pt_clust_9="13000.00000"></scales>
<clustering>
<clus scale="   80.424">  5  6 -1 -1</clus>
<clus scale="   89.600">  7  8 -1 -1</clus>
<clus scale="  105.759">  2  7  1 -1</clus>
<clus scale="  171.408">  5  9 -1 -1</clus>
<clus scale="  368.383">  1  5  2 -1</clus>
</clustering>
</event>
<event>
 9    1  0.4516508E-005  0.2759858E+03  0.7546771E-02  0.1104594E+00
         21   -1    0    0  501  502  0.00000000000E+00  0.00000000000E+00  0.22626674506E+03  0.22626674506E+03  0.00000000000E+00 0.  1.
          1   -1    0    0  502    0 -0.00000000000E+00 -0.00000000000E+00 -0.35453855602E+03  0.35453855602E+03  0.00000000000E+00 0. -1.
         23    2    1    2    0    0 -0.32709314140E+02 -0.20993785931E+03  0.68353045985E+02  0.24194026010E+03  0.93376370436E+02 0.  0.
        -24    2    1    2    0    0  0.45018842126E+02  0.10358598676E+03 -0.32697174632E+02  0.14307298216E+03  0.81510859362E+02 0.  0.
         11    1    4    4    0    0  0.43986905387E+02  0.11658608305E+03 -0.35837681858E+02  0.12965917649E+03  0.00000000000E+00 0. -1.
        -12    1    4    4    0    0  0.10319367384E+01 -0.13000096286E+02  0.31405072263E+01  0.13413805669E+02  0.00000000000E+00 0.  1.
        -11    1    3    3    0    0 -0.74590195870E+01 -0.53572670036E+02  0.63583408791E+02  0.83477648634E+02  0.00000000000E+00 0.  1.
         11    1    3    3    0    0 -0.25250294553E+02 -0.15636518928E+03  0.47696371946E+01  0.15846261146E+03  0.00000000000E+00 0. -1.
          2    1    1    2  501    0 -0.12309527986E+02  0.10635187255E+03 -0.16392768231E+03  0.19579205883E+03  0.00000000000E+00 0. -1.
<scales pt_clust_5="13000.00000" pt_clust_6="13000.00000" pt_clust_7="13000.00000" pt_clust_8="13000.00000" pt_clust_9="13000.00000"></scales>
<clustering>
<clus scale="   81.511">  5  6 -1 -1</clus>
<clus scale="   93.376">  7  8 -1 -1</clus>
<clus scale="  107.062">  5  9 -1 -1</clus>
<clus scale="  232.084">  2  7  1 -1</clus>
<clus scale="  275.986">  1  5  2 -1</clus>
</clustering>
</event>
<event>
 9    1  0.4516508E-005  0.4924211E+03  0.7546771E-02  0.1070514E+00
         21   -1    0    0  501  502  0.00000000000E+00  0.00000000000E+00  0.43824675617E+03  0.43824675617E+03  0.00000000000E+00 0.  1.
          1   -1    0    0  502    0 -0.00000000000E+00 -0.00000000000E+00 -0.50354582432E+03  0.50354582432E+03  0.00000000000E+00 0. -1.
         23    2    1    2    0    0 -0.42591959861E+02 -0.12732968549E+02 -0.35593671575E+03  0.36999819290E+03  0.90727689272E+02 0.  0.
        -24    2    1    2    0    0  0.62134818896E+02  0.21445566207E+03  0.26230494750E+02  0.23865010819E+03  0.80086631642E+02 0.  0.
         13    1    4    4    0    0  0.50632596229E+02  0.94225400280E+02  0.45683198181E+02  0.11631440347E+03  0.00000000000E+00 0. -1.
        -14    1    4    4    0    0  0.11502222667E+02  0.12023026179E+03 -0.19452703431E+02  0.12233570471E+03  0.00000000000E+00 0.  1.
        -13    1    3    3    0    0 -0.25198948990E+02  0.36992838682E+02 -0.11576457648E+03  0.12411645463E+03  0.00000000000E+00 0.  1.
         13    1    3    3    0    0 -0.17393010871E+02 -0.49725807231E+02 -0.24017213927E+03  0.24588173827E+03  0.00000000000E+00 0. -1.
          2    1    1    2  501    0 -0.19542859035E+02 -0.20172269352E+03  0.26440715285E+03  0.33314427940E+03  0.00000000000E+00 0. -1.
<scales pt_clust_5="13000.00000" pt_clust_6="13000.00000" pt_clust_7="13000.00000" pt_clust_8="13000.00000" pt_clust_9="13000.00000"></scales>
<clustering>
<clus scale="   80.087">  5  6 -1 -1</clus>
<clus scale="   90.728">  7  8 -1 -1</clus>
<clus scale="  101.033">  2  7  1 -1</clus>
<clus scale="  207.015">  5  9 -1 -1</clus>
<clus scale="  492.421">  1  5  2 -1</clus>
</clustering>
</event>
<event>
 9    1  0.4516508E-005  0.7436522E+03  0.7546771E-02  0.9955168E-01
         21   -1    0    0  501  502  0.00000000000E+00  0.00000000000E+00  0.54799482829E+03  0.54799482829E+03  0.00000000000E+00 0. -1.
          1   -1    0    0  502    0 -0.00000000000E+00 -0.00000000000E+00 -0.47852904260E+03  0.47852904260E+03  0.00000000000E+00 0. -1.
         23    2    1    2    0    0  0.25339987260E+03  0.47890704489E+01 -0.49826864231E+02  0.27336427646E+03  0.89503522930E+02 0.  0.
        -24    2    1    2    0    0  0.23243782685E+03 -0.41238908803E+02  0.83760004555E+02  0.26466248102E+03  0.85454663667E+02 0.  0.
         11    1    4    4    0    0  0.12445501231E+03 -0.64445719453E+02  0.54771034739E+02  0.15047314408E+03  0.00000000000E+00 0. -1.
        -12    1    4    4    0    0  0.10798281455E+03  0.23206810649E+02  0.28988969816E+02  0.11418933693E+03  0.00000000000E+00 0.  1.
        -13    1    3    3    0    0  0.46811975778E+02  0.95015722641E+01  0.24598708781E+02  0.53728367046E+02  0.00000000000E+00 0.  1.
         13    1    3    3    0    0  0.20658789682E+03 -0.47125018153E+01 -0.74425573012E+02  0.21963590942E+03  0.00000000000E+00 0. -1.
          2    1    1    2  501    0 -0.48583769945E+03  0.36449838355E+02  0.35532645364E+02  0.48849711341E+03  0.00000000000E+00 0. -1.
<scales pt_clust_5="13000.00000" pt_clust_6="13000.00000" pt_clust_7="13000.00000" pt_clust_8="13000.00000" pt_clust_9="13000.00000"></scales>
<clustering>
<clus scale="   85.455">  5  6 -1 -1</clus>
<clus scale="   89.504">  7  8 -1 -1</clus>
<clus scale="  268.785">  2  7  1 -1</clus>
<clus scale="  307.354">  5  9 -1 -1</clus>
<clus scale="  743.652">  1  5  2 -1</clus>
</clustering>
</event>
<event>
 9    1  0.4516508E-005  0.1073560E+04  0.7546771E-02  0.9782296E-01
          1   -1    0    0  502    0 -0.00000000000E+00  0.00000000000E+00  0.40784147214E+03  0.40784147214E+03  0.00000000000E+00 0. -1.
         21   -1    0    0  501  502  0.00000000000E+00 -0.00000000000E+00 -0.92878880027E+03  0.92878880027E+03  0.00000000000E+00 0. -1.
         23    2    1    2    0    0 -0.14713135304E+02  0.12651335648E+03 -0.84589341013E+02  0.17777728386E+03  0.90704466955E+02 0.  0.
        -24    2    1    2    0    0 -0.46439220045E+03  0.16283460377E+03 -0.10882491800E+03  0.51036083270E+03  0.80312469457E+02 0.  0.
         11    1    4    4    0    0 -0.34339825335E+03  0.15546166307E+03 -0.91658768820E+02  0.38793300838E+03  0.00000000000E+00 0. -1.
        -12    1    4    4    0    0 -0.12099394710E+03  0.73729406941E+01 -0.17166149182E+02  0.12242782432E+03  0.00000000000E+00 0.  1.
        -13    1    3    3    0    0 -0.20028690008E+02  0.12984441395E+02 -0.55567333332E+02  0.60477042549E+02  0.00000000000E+00 0.  1.
         13    1    3    3    0    0  0.53155547039E+01  0.11352891508E+03 -0.29022007681E+02  0.11730024131E+03  0.00000000000E+00 0. -1.
          2    1    1    2  501    0  0.47910533575E+03 -0.28934796024E+03 -0.32753306911E+03  0.64849215586E+03  0.00000000000E+00 0. -1.
<scales pt_clust_5="13000.00000" pt_clust_6="13000.00000" pt_clust_7="13000.00000" pt_clust_8="13000.00000" pt_clust_9="13000.00000"></scales>
<clustering>
<clus scale="   80.312">  5  6 -1 -1</clus>
<clus scale="   90.704">  7  8 -1 -1</clus>
<clus scale="  156.363">  1  7  2 -1</clus>
<clus scale="  526.953">  5  9 -1 -1</clus>
<clus scale=" 1073.560">  2  5  1 -1</clus>
</clustering>
</event>
<event>
 9    1  0.4516508E-005  0.2085171E+03  0.7546771E-02  0.1147537E+00
         21   -1    0    0  501  502  0.00000000000E+00  0.00000000000E+00  0.54923892910E+02  0.54923892910E+02  0.00000000000E+00 0. -1.
          1   -1    0    0  502    0 -0.00000000000E+00 -0.00000000000E+00 -0.72239831592E+03  0.72239831592E+03  0.00000000000E+00 0. -1.
         23    2    1    2    0    0  0.13589748578E+03 -0.16454923889E+02 -0.36923943158E+03  0.41342183938E+03  0.12586090847E+03 0.  0.
        -24    2    1    2    0    0 -0.62919824969E+02  0.52369205927E+02 -0.12015482057E+03  0.16812467667E+03  0.84423266314E+02 0.  0.
         13    1    4    4    0    0 -0.52811272637E+02  0.45556954270E+01 -0.19949119276E+02  0.56637021798E+02  0.00000000000E+00 0. -1.
        -14    1    4    4    0    0 -0.10108552333E+02  0.47813510500E+02 -0.10020570129E+03  0.11148765487E+03  0.00000000000E+00 0.  1.
        -13    1    3    3    0    0  0.97753433976E+02  0.10853955930E+02 -0.10050277416E+03  0.14062129934E+03  0.00000000000E+00 0. -1.
         13    1    3    3    0    0  0.38144051801E+02 -0.27308879820E+02 -0.26873665742E+03  0.27280054004E+03  0.00000000000E+00 0.  1.
          2    1    1    2  501    0 -0.72977660808E+02 -0.35914282038E+02 -0.17808017086E+03  0.19577569279E+03  0.00000000000E+00 0. -1.
<scales pt_clust_5="13000.00000" pt_clust_6="13000.00000" pt_clust_7="13000.00000" pt_clust_8="13000.00000" pt_clust_9="13000.00000"></scales>
<clustering>
<clus scale="   84.423">  5  6 -1 -1</clus>
<clus scale="   81.336">  5  9 -1 -1</clus>
<clus scale="  125.861">  7  8 -1 -1</clus>
<clus scale="  185.957">  2  7  1 -1</clus>
<clus scale="  208.517">  1  5  2 -1</clus>
</clustering>
</event>
<event>
 9    1  0.4516508E-005  0.6497531E+03  0.7546771E-02  0.1038687E+00
          1   -1    0    0  502    0 -0.00000000000E+00  0.00000000000E+00  0.87127787229E+03  0.87127787229E+03  0.00000000000E+00 0. -1.
         21   -1    0    0  501  502  0.00000000000E+00 -0.00000000000E+00 -0.16810752588E+03  0.16810752588E+03  0.00000000000E+00 0.  1.
         23    2    1    2    0    0 -0.11054385032E+02 -0.55964587730E+02  0.54040410181E+02  0.12093629903E+03  0.91929255312E+02 0.  0.
        -24    2    1    2    0    0  0.76781640393E+02 -0.24541519357E+03  0.51683861111E+03  0.58281411976E+03  0.80163025919E+02 0.  0.
         13    1    4    4    0    0  0.84663274395E+02 -0.20286569306E+03  0.37671922207E+03  0.43616479882E+03  0.00000000000E+00 0. -1.
        -14    1    4    4    0    0 -0.78816340017E+01 -0.42549500509E+02  0.14011938904E+03  0.14664932094E+03  0.00000000000E+00 0.  1.
        -11    1    3    3    0    0 -0.30410275572E+02 -0.25417743818E+02  0.70753435215E+02  0.81098058891E+02  0.00000000000E+00 0. -1.
         11    1    3    3    0    0  0.19355890540E+02 -0.30546843912E+02 -0.16713025034E+02  0.39838240139E+02  0.00000000000E+00 0.  1.
          2    1    1    2  501    0 -0.65727255362E+02  0.30137978130E+03  0.13229132512E+03  0.33563497937E+03  0.00000000000E+00 0. -1.
<scales pt_clust_5="13000.00000" pt_clust_6="13000.00000" pt_clust_7="13000.00000" pt_clust_8="13000.00000" pt_clust_9="13000.00000"></scales>
<clustering>
<clus scale="   80.163">  5  6 -1 -1</clus>
<clus scale="   91.929">  7  8 -1 -1</clus>
<clus scale="  108.191">  1  7  2 -1</clus>
<clus scale="  292.924">  5  9 -1 -1</clus>
<clus scale="  649.753">  2  5  1 -1</clus>
</clustering>
</event>
<event>
 9    1  0.4516508E-005  0.2021042E+03  0.7546771E-02  0.1166983E+00
          1   -1    0    0  502    0 -0.00000000000E+00  0.00000000000E+00  0.64660181814E+03  0.64660181814E+03  0.00000000000E+00 0. -1.
         21   -1    0    0  501  502  0.00000000000E+00 -0.00000000000E+00 -0.54966347516E+02  0.54966347516E+02  0.00000000000E+00 0.  1.
         23    2    1    2    0    0  0.88681395767E+02 -0.15537800227E+02  0.40946195261E+03  0.42947754824E+03  0.93199037608E+02 0.  0.
        -24    2    1    2    0    0  0.33379277990E+01 -0.43268157074E+02  0.62722300963E+02  0.11024411675E+03  0.79601526756E+02 0.  0.
         13    1    4    4    0    0 -0.31896346489E+02 -0.39466122009E+02  0.53260805833E+02  0.73564020715E+02  0.00000000000E+00 0. -1.
        -14    1    4    4    0    0  0.35234274288E+02 -0.38020350654E+01  0.94614951293E+01  0.36680096037E+02  0.00000000000E+00 0.  1.
        -11    1    3    3    0    0  0.88368560275E+02  0.22778309948E+02  0.29067540405E+03  0.30466382189E+03  0.00000000000E+00 0. -1.
         11    1    3    3    0    0  0.31283549209E+00 -0.38316110176E+02  0.11878654856E+03  0.12481372634E+03  0.00000000000E+00 0.  1.
          2    1    1    2  501    0 -0.92019323566E+02  0.58805957301E+02  0.11945121705E+03  0.16184650067E+03  0.00000000000E+00 0. -1.
<scales pt_clust_5="13000.00000" pt_clust_6="13000.00000" pt_clust_7="13000.00000" pt_clust_8="13000.00000" pt_clust_9="13000.00000"></scales>
<clustering>
<clus scale="   79.602">  5  6 -1 -1</clus>
<clus scale="   93.199">  7  8 -1 -1</clus>
<clus scale="  109.205">  5  9 -1 -1</clus>
<clus scale="  129.583">  1  7  2 -1</clus>
<clus scale="  202.104">  2  5  1 -1</clus>
</clustering>
</event>
<event>
 9    1  0.4516508E-005  0.2279880E+03  0.7546771E-02  0.1154045E+00
          1   -1    0    0  502    0 -0.00000000000E+00  0.00000000000E+00  0.32265910576E+03  0.32265910576E+03  0.00000000000E+00 0. -1.
         21   -1    0    0  501  502  0.00000000000E+00 -0.00000000000E+00 -0.11437078815E+03  0.11437078815E+03  0.00000000000E+00 0.  1.
         23    2    1    2    0    0 -0.67459955221E+02 -0.35766169094E+02  0.16465455140E+03  0.20490398518E+03  0.95102352412E+02 0.  0.
        -24    2    1    2    0    0 -0.54887405075E+02  0.41016801133E+02  0.10457784176E+02  0.10525159498E+03  0.79205604506E+02 0.  0.
         13    1    4    4    0    0 -0.33643565287E+02 -0.98854549469E+01  0.30591504805E+02  0.46534415984E+02  0.00000000000E+00 0. -1.
        -14    1    4    4    0    0 -0.21243839788E+02  0.50902256080E+02 -0.20133720629E+02  0.58717178997E+02  0.00000000000E+00 0.  1.
        -11    1    3    3    0    0 -0.56143723634E+02 -0.54647923047E+02  0.16525013336E+03  0.18288280338E+03  0.00000000000E+00 0. -1.
         11    1    3    3    0    0 -0.11316231587E+02  0.18881753953E+02 -0.59558196373E+00  0.22021181793E+02  0.00000000000E+00 0.  1.
          2    1    1    2  501    0  0.12234736030E+03 -0.52506320388E+01  0.33175982037E+02  0.12687431376E+03  0.00000000000E+00 0. -1.
<scales pt_clust_5="13000.00000" pt_clust_6="13000.00000" pt_clust_7="13000.00000" pt_clust_8="13000.00000" pt_clust_9="13000.00000"></scales>
<clustering>
<clus scale="   79.206">  5  6 -1 -1</clus>
<clus scale="   95.102">  7  8 -1 -1</clus>
<clus scale="  121.961">  1  7  2 -1</clus>
<clus scale="   87.165">  5  9 -1 -1</clus>
<clus scale="  227.988">  2  5  1 -1</clus>
</clustering>
</event>
<event>
 9    1  0.4516508E-005  0.4143424E+03  0.7546771E-02  0.1049375E+00
         21   -1    0    0  501  502  0.00000000000E+00  0.00000000000E+00  0.11217005103E+03  0.11217005103E+03  0.00000000000E+00 0. -1.
          3   -1    0    0  502    0 -0.00000000000E+00 -0.00000000000E+00 -0.11704859496E+04  0.11704859496E+04  0.00000000000E+00 0. -1.
         23    2    1    2    0    0  0.11590683554E+03 -0.26835803203E+03 -0.51644215681E+03  0.60052200168E+03  0.91998615673E+02 0.  0.
        -24    2    1    2    0    0  0.27188382606E+02 -0.19201908132E+02 -0.68549080268E+02  0.11011721963E+03  0.79491535580E+02 0.  0.
         11    1    4    4    0    0 -0.11666245895E+02 -0.21259015100E+02 -0.66915440268E+02  0.71173893827E+02  0.00000000000E+00 0. -1.
        -12    1    4    4    0    0  0.38854628501E+02  0.20571069678E+01 -0.16336400008E+01  0.38943325804E+02  0.00000000000E+00 0.  1.
        -13    1    3    3    0    0  0.39922785589E+01 -0.69271074976E+02 -0.67377052024E+02  0.96716530416E+02  0.00000000000E+00 0.  1.
         13    1    3    3    0    0  0.11191455698E+03 -0.19908695705E+03 -0.44906510479E+03  0.50380547126E+03  0.00000000000E+00 0. -1.
          4    1    1    2  501    0 -0.14309521815E+03  0.28755994016E+03 -0.47332466148E+03  0.57201677931E+03  0.00000000000E+00 0. -1.
<scales pt_clust_5="13000.00000" pt_clust_6="13000.00000" pt_clust_7="13000.00000" pt_clust_8="13000.00000" pt_clust_9="13000.00000"></scales>
<clustering>
<clus scale="   79.492">  5  6 -1 -1</clus>
<clus scale="   91.999">  7  8 -1 -1</clus>
<clus scale="  306.454">  2  7  1 -1</clus>
<clus scale="   73.164">  5  9 -1 -1</clus>
<clus scale="  414.342">  1  5  2 -1</clus>
</clustering>
</event>
<event>
 9    1  0.4516508E-005  0.3256800E+03  0.7546771E-02  0.1110259E+00
         21   -1    0    0  501  502  0.00000000000E+00  0.00000000000E+00  0.14763242653E+03  0.14763242653E+03  0.00000000000E+00 0. -1.
          3   -1    0    0  502    0 -0.00000000000E+00 -0.00000000000E+00 -0.67705426158E+03  0.67705426158E+03  0.00000000000E+00 0. -1.
         23    2    1    2    0    0 -0.59166432837E+02 -0.69231020557E+02 -0.47996866308E+03  0.49527348557E+03  0.81438977069E+02 0.  0.
        -24    2    1    2    0    0 -0.70549264912E+02  0.38495968384E+02 -0.13056293922E+03  0.17336961882E+03  0.80939516122E+02 0.  0.
         11    1    4    4    0    0 -0.63165104025E+02 -0.75718721563E+01 -0.52753842937E+02  0.82644609982E+02  0.00000000000E+00 0. -1.
        -12    1    4    4    0    0 -0.73841608870E+01  0.46067840540E+02 -0.77809096282E+02  0.90725008836E+02  0.00000000000E+00 0.  1.
        -13    1    3    3    0    0 -0.66970071838E+02 -0.16904045730E+02 -0.28556527538E+03  0.29379970011E+03  0.00000000000E+00 0. -1.
         13    1    3    3    0    0  0.78036390010E+01 -0.52326974827E+02 -0.19440338771E+03  0.20147378546E+03  0.00000000000E+00 0.  1.
          4    1    1    2  501    0  0.12971569775E+03  0.30735052173E+02  0.81109767252E+02  0.15604358371E+03  0.00000000000E+00 0. -1.
<scales pt_clust_5="13000.00000" pt_clust_6="13000.00000" pt_clust_7="13000.00000" pt_clust_8="13000.00000" pt_clust_9="13000.00000"></scales>
<clustering>
<clus scale="   80.940">  5  6 -1 -1</clus>
<clus scale="   81.439">  7  8 -1 -1</clus>
<clus scale="  122.172">  2  7  1 -1</clus>
<clus scale="  119.238">  5  9 -1 -1</clus>
<clus scale="  325.680">  1  5  2 -1</clus>
</clustering>
</event>
<event>
 9    1  0.4516508E-005  0.2631562E+03  0.7546771E-02  0.1147041E+00
          1   -1    0    0  502    0 -0.00000000000E+00  0.00000000000E+00  0.26205016983E+03  0.26205016983E+03  0.00000000000E+00 0. -1.
         21   -1    0    0  501  502  0.00000000000E+00 -0.00000000000E+00 -0.12587086840E+03  0.12587086840E+03  0.00000000000E+00 0. -1.
         23    2    1    2    0    0  0.49914379811E+01  0.17117550271E+02  0.69095245108E+02  0.11634881845E+03  0.91896516139E+02 0.  0.
        -24    2    1    2    0    0  0.93503135184E+02  0.60142704260E+02  0.20221211921E+02  0.13790676403E+03  0.79053127642E+02 0.  0.
         11    1    4    4    0    0  0.89737454733E+02  0.53622361921E+02 -0.11625230337E+02  0.10518229157E+03  0.00000000000E+00 0. -1.
        -12    1    4    4    0    0  0.37656804506E+01  0.65203423390E+01  0.31846442258E+02  0.32724472463E+02  0.00000000000E+00 0.  1.
        -13    1    3    3    0    0  0.38617439322E+02 -0.11511248321E+02  0.58325809031E+02  0.70892280657E+02  0.00000000000E+00 0. -1.
         13    1    3    3    0    0 -0.33626001341E+02  0.28628798592E+02  0.10769436077E+02  0.45456537796E+02  0.00000000000E+00 0.  1.
          2    1    1    2  501    0 -0.98494573165E+02 -0.77260254531E+02  0.46862844396E+02  0.13366545574E+03  0.00000000000E+00 0. -1.
<scales pt_clust_5="13000.00000" pt_clust_6="13000.00000" pt_clust_7="13000.00000" pt_clust_8="13000.00000" pt_clust_9="13000.00000"></scales>
<clustering>
<clus scale="   79.053">  5  6 -1 -1</clus>
<clus scale="   91.897">  7  8 -1 -1</clus>
<clus scale="   93.610">  1  7  2 -1</clus>
<clus scale="  117.586">  5  9 -1 -1</clus>
<clus scale="  263.156">  2  5  1 -1</clus>
</clustering>
</event>
