<event>
 9    1  0.4731329E-005  0.1209657E+03  0.7546771E-02  0.1260012E+00
          1   -1    0    0  502    0 -0.00000000000E+00  0.00000000000E+00  0.70453693198E+02  0.70453693198E+02  0.00000000000E+00 0. -1.
         21   -1    0    0  501  502  0.00000000000E+00 -0.00000000000E+00 -0.32239313442E+03  0.32239313442E+03  0.00000000000E+00 0. -1.
        -24    2    1    2    0    0 -0.12857367849E+02 -0.44229926824E+01 -0.29991098911E+02  0.88842123911E+02  0.82514133304E+02 0.  0.
         23    2    1    2    0    0 -0.75197807748E+02  0.11875103859E+02 -0.14884739596E+03  0.18931819069E+03  0.88826244212E+02 0.  0.
         11    1    3    3    0    0 -0.19951702597E+02 -0.14686109181E+02  0.23360619300E+02  0.34051002533E+02  0.00000000000E+00 0. -1.
        -12    1    3    3    0    0  0.70943347487E+01  0.10263116499E+02 -0.53351718211E+02  0.54791121378E+02  0.00000000000E+00 0.  1.
        -11    1    4    4    0    0 -0.53491186651E+02 -0.33214860917E+02 -0.10669286555E+03  0.12388664817E+03  0.00000000000E+00 0. -1.
         11    1    4    4    0    0 -0.21706621097E+02  0.45089964775E+02 -0.42154530410E+02  0.65431542523E+02  0.00000000000E+00 0.  1.
          2    1    1    2  501    0  0.88055175597E+02 -0.74521111762E+01 -0.73100946351E+02  0.11468651302E+03  0.00000000000E+00 0. -1.
<scales pt_clust_5="13000.00000" pt_clust_6="13000.00000" pt_clust_7="13000.00000" pt_clust_8="13000.00000" pt_clust_9="82.11338"></scales>
<clustering>
<clus scale="   82.514">  5  6 -1 -1</clus>
<clus scale="   83.627">  1  5  2 -1</clus>
<clus scale="   82.113">  2  9  1 -1</clus>
<clus scale="   88.826">  7  8 -1 -1</clus>
<clus scale="   82.113">  2  5  1 -1</clus>
</clustering>
</event>
<event>
 9    1  0.4731329E-005  0.1457056E+03  0.7546771E-02  0.1206265E+00
         -4   -1    0    0    0  501 -0.00000000000E+00  0.00000000000E+00  0.45856318946E+03  0.45856318946E+03  0.00000000000E+00 0.  1.
         21   -1    0    0  501  502  0.00000000000E+00 -0.00000000000E+00 -0.33080774984E+03  0.33080774984E+03  0.00000000000E+00 0. -1.
         23    2    1    2    0    0  0.17363853824E+02  0.11175837867E+03  0.40396195553E+03  0.42916383872E+03  0.90580904843E+02 0.  0.
        -24    2    1    2    0    0 -0.24373319683E+01 -0.12698778061E+03 -0.10355234354E+03  0.18624101487E+03  0.88491755313E+02 0.  0.
         11    1    4    4    0    0 -0.10235553282E+02 -0.11061739114E+03 -0.11872808810E+03  0.16259561088E+03  0.00000000000E+00 0. -1.
        -12    1    4    4    0    0  0.77982213141E+01 -0.16370389469E+02  0.15175744563E+02  0.23645403995E+02  0.00000000000E+00 0.  1.
        -11    1    3    3    0    0  0.37797190665E+02  0.75760271804E+02  0.35544139316E+03  0.36538586505E+03  0.00000000000E+00 0. -1.
         11    1    3    3    0    0 -0.20433336841E+02  0.35998106865E+02  0.48520562375E+02  0.63777973670E+02  0.00000000000E+00 0.  1.
         -3    1    1    2    0  502 -0.14926521856E+02  0.15229401939E+02 -0.17265417237E+03  0.17396608571E+03  0.00000000000E+00 0.  1.
<scales pt_clust_5="13000.00000" pt_clust_6="13000.00000" pt_clust_7="13000.00000" pt_clust_8="13000.00000" pt_clust_9="21.32453"></scales>
<clustering>
<clus scale="   21.325">  2  9  1 -1</clus>
<clus scale="   88.492">  5  6 -1 -1</clus>
<clus scale="   90.581">  7  8 -1 -1</clus>
<clus scale="  144.416">  2  5  1 -1</clus>
<clus scale="   21.325">  2  5  1 -1</clus>
</clustering>
</event>
<event>
 9    1  0.4731329E-005  0.9900810E+02  0.7546771E-02  0.1287230E+00
         21   -1    0    0  501  502  0.00000000000E+00  0.00000000000E+00  0.28147355640E+02  0.28147355640E+02  0.00000000000E+00 0. -1.
          1   -1    0    0  502    0 -0.00000000000E+00 -0.00000000000E+00 -0.56550373100E+03  0.56550373100E+03  0.00000000000E+00 0. -1.
         23    2    1    2    0    0  0.29830029437E+02 -0.34697683958E+02 -0.37107632390E+03  0.38457363149E+03  0.90030439008E+02 0.  0.
        -24    2    1    2    0    0  0.41108799782E+01  0.40907951121E+02 -0.13543763298E+03  0.16279778869E+03  0.80432628802E+02 0.  0.
         13    1    4    4    0    0  0.12172751372E+02  0.62936016710E+02 -0.79384080985E+02  0.10203406485E+03  0.00000000000E+00 0. -1.
        -14    1    4    4    0    0 -0.80618713933E+01 -0.22028065589E+02 -0.56053551998E+02  0.60763723845E+02  0.00000000000E+00 0.  1.
        -11    1    3    3    0    0  0.41670343161E+02  0.16548953154E+02 -0.22222658680E+03  0.22670452406E+03  0.00000000000E+00 0.  1.
         11    1    3    3    0    0 -0.11840313724E+02 -0.51246637112E+02 -0.14884973711E+03  0.15786910743E+03  0.00000000000E+00 0. -1.
          2    1    1    2  501    0 -0.33940909415E+02 -0.62102671631E+01 -0.30842418477E+02  0.46279666460E+02  0.00000000000E+00 0. -1.
<scales pt_clust_5="13000.00000" pt_clust_6="13000.00000" pt_clust_7="13000.00000" pt_clust_8="13000.00000" pt_clust_9="34.50439"></scales>
<clustering>
<clus scale="   34.504">  1  9  2 -1</clus>
<clus scale="   80.433">  5  6 -1 -1</clus>
<clus scale="   90.030">  7  8 -1 -1</clus>
<clus scale="   90.369">  1  5  2 -1</clus>
<clus scale="   34.504">  1  5  2 -1</clus>
</clustering>
</event>
<event>
 9    1  0.4731329E-005  0.3486757E+03  0.7546771E-02  0.1063505E+00
         21   -1    0    0  501  502  0.00000000000E+00  0.00000000000E+00  0.35042358241E+03  0.35042358241E+03  0.00000000000E+00 0. -1.
          3   -1    0    0  502    0 -0.00000000000E+00 -0.00000000000E+00 -0.56109438072E+03  0.56109438072E+03  0.00000000000E+00 0. -1.
         23    2    1    2    0    0 -0.30233140738E+03  0.30184711141E+02 -0.14385756788E+03  0.34892985250E+03  0.93496767068E+02 0.  0.
        -24    2    1    2    0    0  0.38478181002E+03  0.80234223498E+02 -0.11380981030E+03  0.41698904284E+03  0.80203597056E+02 0.  0.
         13    1    4    4    0    0  0.38498623214E+03  0.75713553368E+02 -0.10357938740E+03  0.40580245267E+03  0.00000000000E+00 0. -1.
        -14    1    4    4    0    0 -0.20442211400E+00  0.45206701297E+01 -0.10230422903E+02  0.11186590168E+02  0.00000000000E+00 0.  1.
        -13    1    3    3    0    0 -0.27395103052E+03  0.98652299028E+01 -0.97608944082E+02  0.29098796513E+03  0.00000000000E+00 0. -1.
         13    1    3    3    0    0 -0.28380376860E+02  0.20319481238E+02 -0.46248623803E+02  0.57941887372E+02  0.00000000000E+00 0.  1.
          4    1    1    2  501    0 -0.82450402640E+02 -0.11041893464E+03  0.46996579875E+02  0.14559906779E+03  0.00000000000E+00 0. -1.
<scales pt_clust_5="13000.00000" pt_clust_6="13000.00000" pt_clust_7="13000.00000" pt_clust_8="13000.00000" pt_clust_9="137.80570"></scales>
<clustering>
<clus scale="   80.204">  5  6 -1 -1</clus>
<clus scale="   93.497">  7  8 -1 -1</clus>
<clus scale="  137.806">  1  9  2 -1</clus>
<clus scale="  345.349">  1  5  2 -1</clus>
<clus scale="  137.806">  1  5  2 -1</clus>
</clustering>
</event>
<event>
 9    1  0.4731329E-005  0.1369905E+03  0.7546771E-02  0.1226347E+00
         21   -1    0    0  501  502  0.00000000000E+00  0.00000000000E+00  0.12852921408E+03  0.12852921408E+03  0.00000000000E+00 0. -1.
          1   -1    0    0  502    0 -0.00000000000E+00 -0.00000000000E+00 -0.19080431638E+03  0.19080431638E+03  0.00000000000E+00 0. -1.
         23    2    1    2    0    0 -0.61938047259E+02 -0.51858000466E+02 -0.85858235956E+02  0.16156661816E+03  0.11048330874E+03 0.  0.
        -24    2    1    2    0    0  0.37914993573E+02  0.77595022460E+02  0.31428303310E+02  0.12169686799E+03  0.79773775030E+02 0.  0.
         13    1    4    4    0    0  0.55824248609E+02  0.78201394353E+02  0.14733164921E+02  0.97205303148E+02  0.00000000000E+00 0. -1.
        -14    1    4    4    0    0 -0.17909255036E+02 -0.60637189280E+00  0.16695138389E+02  0.24491564847E+02  0.00000000000E+00 0.  1.
        -11    1    3    3    0    0 -0.57656234335E+02  0.11736136846E+02 -0.56385874263E+01  0.59108137629E+02  0.00000000000E+00 0.  1.
         11    1    3    3    0    0 -0.42818129242E+01 -0.63594137312E+02 -0.80219648529E+02  0.10245848053E+03  0.00000000000E+00 0. -1.
          2    1    1    2  501    0  0.24023053686E+02 -0.25737021994E+02 -0.78451696504E+01  0.36070044308E+02  0.00000000000E+00 0. -1.
<scales pt_clust_5="13000.00000" pt_clust_6="13000.00000" pt_clust_7="13000.00000" pt_clust_8="13000.00000" pt_clust_9="35.20657"></scales>
<clustering>
<clus scale="   35.207">  1  9  2 -1</clus>
<clus scale="   79.774">  5  6 -1 -1</clus>
<clus scale="  110.483">  7  8 -1 -1</clus>
<clus scale="  113.682">  1  5  2 -1</clus>
<clus scale="   35.207">  1  5  2 -1</clus>
</clustering>
</event>
<event>
 9    1  0.4731329E-005  0.1752558E+03  0.7546771E-02  0.1180604E+00
          3   -1    0    0  502    0 -0.00000000000E+00  0.00000000000E+00  0.18270785098E+03  0.18270785098E+03  0.00000000000E+00 0. -1.
         21   -1    0    0  501  502  0.00000000000E+00 -0.00000000000E+00 -0.28871563006E+03  0.28871563006E+03  0.00000000000E+00 0. -1.
        -24    2    1    2    0    0 -0.31545008426E+02  0.90451996763E+02  0.18290331181E+01  0.12638808067E+03  0.82425422648E+02 0.  0.
         23    2    1    2    0    0 -0.56765046542E+01 -0.18533337694E+03 -0.62723789155E+02  0.23357642950E+03  0.12744799479E+03 0.  0.
         13    1    3    3    0    0 -0.52019684838E+02  0.87146680294E+02  0.13824726491E+02  0.10242907087E+03  0.00000000000E+00 0. -1.
        -14    1    3    3    0    0  0.20474676412E+02  0.33053164691E+01 -0.11995693372E+02  0.23959009801E+02  0.00000000000E+00 0.  1.
        -11    1    4    4    0    0  0.18699582177E+02  0.12968825453E+02  0.36449479270E+01  0.23046701556E+02  0.00000000000E+00 0.  1.
         11    1    4    4    0    0 -0.24376086831E+02 -0.19830220240E+03 -0.66368737082E+02  0.21052972794E+03  0.00000000000E+00 0. -1.
          4    1    1    2  501    0  0.37221513080E+02  0.94881380182E+02 -0.45113023037E+02  0.11145897088E+03  0.00000000000E+00 0. -1.
<scales pt_clust_5="13000.00000" pt_clust_6="13000.00000" pt_clust_7="13000.00000" pt_clust_8="13000.00000" pt_clust_9="101.92113"></scales>
<clustering>
<clus scale="   82.425">  5  6 -1 -1</clus>
<clus scale="  101.921">  2  9  1 -1</clus>
<clus scale="  127.448">  7  8 -1 -1</clus>
<clus scale="  145.827">  1  5  2 -1</clus>
<clus scale="  101.921">  2  5  1 -1</clus>
</clustering>
</event>
<event>
 9    1  0.4731329E-005  0.1281121E+03  0.7546771E-02  0.1231062E+00
         21   -1    0    0  501  502  0.00000000000E+00  0.00000000000E+00  0.51537743118E+02  0.51537743118E+02  0.00000000000E+00 0. -1.
          3   -1    0    0  502    0 -0.00000000000E+00 -0.00000000000E+00 -0.48327160513E+03  0.48327160513E+03  0.00000000000E+00 0. -1.
         23    2    1    2    0    0 -0.19963306248E+02 -0.10231429859E+03 -0.32885458434E+03  0.35376818992E+03  0.78357164747E+02 0.  0.
        -24    2    1    2    0    0  0.29219638980E+02  0.82501247029E+02 -0.10483211569E+03  0.15908551476E+03  0.81597705010E+02 0.  0.
         11    1    4    4    0    0  0.27001368376E+02 -0.56411757393E+01 -0.44123229913E+02  0.52036104541E+02  0.00000000000E+00 0. -1.
        -12    1    4    4    0    0  0.22182706032E+01  0.88142422768E+02 -0.60708885782E+02  0.10704941022E+03  0.00000000000E+00 0.  1.
        -11    1    3    3    0    0  0.21437145996E+01 -0.61744471217E+02 -0.27915690902E+03  0.28591179600E+03  0.00000000000E+00 0. -1.
         11    1    3    3    0    0 -0.22107020848E+02 -0.40569827377E+02 -0.49697675321E+02  0.67856393924E+02  0.00000000000E+00 0.  1.
          4    1    1    2  501    0 -0.92563327315E+01  0.19813051565E+02  0.19528380202E+01  0.21955643564E+02  0.00000000000E+00 0. -1.
<scales pt_clust_5="13000.00000" pt_clust_6="13000.00000" pt_clust_7="13000.00000" pt_clust_8="13000.00000" pt_clust_9="21.86862"></scales>
<clustering>
<clus scale="   21.869">  1  9  2 -1</clus>
<clus scale="   78.357">  7  8 -1 -1</clus>
<clus scale="   81.598">  5  6 -1 -1</clus>
<clus scale="  126.073">  2  7  1 -1</clus>
<clus scale="   21.869">  1  5  2 -1</clus>
</clustering>
</event>
<event>
 9    1  0.4731329E-005  0.1030027E+03  0.7546771E-02  0.1278759E+00
          1   -1    0    0  502    0 -0.00000000000E+00  0.00000000000E+00  0.23609837549E+03  0.23609837549E+03  0.00000000000E+00 0. -1.
         21   -1    0    0  501  502  0.00000000000E+00 -0.00000000000E+00 -0.18820249827E+03  0.18820249827E+03  0.00000000000E+00 0.  1.
        -24    2    1    2    0    0 -0.53242804386E+02  0.57594616223E+01  0.20372637679E+03  0.22479604298E+03  0.78491125105E+02 0.  0.
         23    2    1    2    0    0  0.31255259869E+02  0.44537852802E+01 -0.14498963269E+03  0.17294759221E+03  0.88837765559E+02 0.  0.
         11    1    3    3    0    0 -0.50420107496E+02  0.92472678040E+01  0.21051076847E+03  0.21666213985E+03  0.00000000000E+00 0. -1.
        -12    1    3    3    0    0 -0.28226968906E+01 -0.34878061817E+01 -0.67843916771E+01  0.81339031298E+01  0.00000000000E+00 0.  1.
        -11    1    4    4    0    0  0.57942086464E+02 -0.12206258913E+02 -0.11565868176E+03  0.12993540243E+03  0.00000000000E+00 0.  1.
         11    1    4    4    0    0 -0.26686826595E+02  0.16660044193E+02 -0.29330950939E+02  0.43012189775E+02  0.00000000000E+00 0. -1.
          2    1    1    2  501    0  0.21987544517E+02 -0.10213246903E+02 -0.10840866879E+02  0.26557238577E+02  0.00000000000E+00 0. -1.
<scales pt_clust_5="13000.00000" pt_clust_6="13000.00000" pt_clust_7="13000.00000" pt_clust_8="13000.00000" pt_clust_9="24.24381"></scales>
<clustering>
<clus scale="   24.244">  2  9  1 -1</clus>
<clus scale="   78.491">  5  6 -1 -1</clus>
<clus scale="   88.838">  7  8 -1 -1</clus>
<clus scale="   94.225">  1  5  2 -1</clus>
<clus scale="   24.244">  2  5  1 -1</clus>
</clustering>
</event>
<event>
 9    1  0.4731329E-005  0.1080008E+03  0.7546771E-02  0.1269185E+00
         21   -1    0    0  501  502  0.00000000000E+00  0.00000000000E+00  0.10330505625E+03  0.10330505625E+03  0.00000000000E+00 0. -1.
          1   -1    0    0  502    0 -0.00000000000E+00 -0.00000000000E+00 -0.26111352820E+03  0.26111352820E+03  0.00000000000E+00 0. -1.
        -24    2    1    2    0    0  0.41916242869E+02  0.41234296090E+02 -0.19609774106E+03  0.21961473544E+03  0.79492574381E+02 0.  0.
         23    2    1    2    0    0 -0.55518268437E+02 -0.16322172353E+02  0.17170105314E+02  0.10942521014E+03  0.91270875180E+02 0.  0.
         13    1    3    3    0    0  0.62823185157E+01  0.56120823560E+02 -0.14467290945E+03  0.15530378325E+03  0.00000000000E+00 0. -1.
        -14    1    3    3    0    0  0.35633924354E+02 -0.14886527471E+02 -0.51424831607E+02  0.64310952184E+02  0.00000000000E+00 0.  1.
        -13    1    4    4    0    0 -0.56925235733E+02  0.27006500778E+02  0.58454624156E+00  0.63009326626E+02  0.00000000000E+00 0. -1.
         13    1    4    4    0    0  0.14069672962E+01 -0.43328673131E+02  0.16585559072E+02  0.46415883510E+02  0.00000000000E+00 0.  1.
          2    1    1    2  501    0  0.13602025568E+02 -0.24912123737E+02  0.21119163802E+02  0.35378638871E+02  0.00000000000E+00 0. -1.
<scales pt_clust_5="13000.00000" pt_clust_6="13000.00000" pt_clust_7="13000.00000" pt_clust_8="13000.00000" pt_clust_9="28.38360"></scales>
<clustering>
<clus scale="   28.384">  1  9  2 -1</clus>
<clus scale="   79.493">  5  6 -1 -1</clus>
<clus scale="   91.271">  7  8 -1 -1</clus>
<clus scale="   98.249">  2  5  1 -1</clus>
<clus scale="   28.384">  1  5  2 -1</clus>
</clustering>
</event>
<event>
 9    1  0.4731329E-005  0.1397690E+03  0.7546771E-02  0.1218631E+00
          1   -1    0    0  502    0 -0.00000000000E+00  0.00000000000E+00  0.56190783916E+03  0.56190783916E+03  0.00000000000E+00 0. -1.
         21   -1    0    0  501  502  0.00000000000E+00 -0.00000000000E+00 -0.52315584573E+02  0.52315584573E+02  0.00000000000E+00 0. -1.
        -24    2    1    2    0    0 -0.58067742957E+02  0.27363646928E+02  0.20271289499E+03  0.23921353993E+03  0.10958999929E+03 0.  0.
         23    2    1    2    0    0  0.74500822481E+02 -0.87860398070E+02  0.25213560466E+03  0.29178259438E+03  0.91076325922E+02 0.  0.
         13    1    3    3    0    0 -0.88085592143E+02  0.31213877985E+01  0.13349568585E+03  0.15996847422E+03  0.00000000000E+00 0. -1.
        -14    1    3    3    0    0  0.30017849186E+02  0.24242259130E+02  0.69217209142E+02  0.79245065707E+02  0.00000000000E+00 0.  1.
        -13    1    4    4    0    0  0.14898764680E+02  0.13791833540E+02  0.10299836611E+02  0.22765642877E+02  0.00000000000E+00 0.  1.
         13    1    4    4    0    0  0.59602057801E+02 -0.10165223161E+03  0.24183576805E+03  0.26901695150E+03  0.00000000000E+00 0. -1.
          2    1    1    2  501    0 -0.16433079524E+02  0.60496751141E+02  0.54743754939E+02  0.83227289432E+02  0.00000000000E+00 0. -1.
<scales pt_clust_5="13000.00000" pt_clust_6="13000.00000" pt_clust_7="13000.00000" pt_clust_8="13000.00000" pt_clust_9="62.68894"></scales>
<clustering>
<clus scale="   62.689">  2  9  1 -1</clus>
<clus scale="   91.076">  7  8 -1 -1</clus>
<clus scale="  109.590">  5  6 -1 -1</clus>
<clus scale="  125.779">  2  7  1 -1</clus>
<clus scale="   62.689">  2  5  1 -1</clus>
</clustering>
</event>
<event>
 9    1  0.4731329E-005  0.8870820E+02  0.7546771E-02  0.1307573E+00
         21   -1    0    0  501  502  0.00000000000E+00  0.00000000000E+00  0.13367892900E+03  0.13367892900E+03  0.00000000000E+00 0. -1.
          1   -1    0    0  502    0 -0.00000000000E+00 -0.00000000000E+00 -0.14474156466E+03  0.14474156466E+03  0.00000000000E+00 0. -1.
         23    2    1    2    0    0 -0.85228084686E+01 -0.30051884843E+02 -0.41886032913E+02  0.94680491774E+02  0.78956961203E+02 0.  0.
        -24    2    1    2    0    0 -0.11656272670E+01  0.49693976268E+02  0.83344094794E+02  0.12683568560E+03  0.81671311000E+02 0.  0.
         13    1    4    4    0    0 -0.30011723554E+02  0.46995948099E+01  0.62456246606E+02  0.69451943689E+02  0.00000000000E+00 0. -1.
        -14    1    4    4    0    0  0.28846096287E+02  0.44994381458E+02  0.20887848188E+02  0.57383741911E+02  0.00000000000E+00 0.  1.
        -13    1    3    3    0    0 -0.19183356436E+02  0.13157027717E+02 -0.44379229891E+02  0.50106133239E+02  0.00000000000E+00 0.  1.
         13    1    3    3    0    0  0.10660547967E+02 -0.43208912560E+02  0.24931969777E+01  0.44574358534E+02  0.00000000000E+00 0. -1.
          2    1    1    2  501    0  0.96884357356E+01 -0.19642091425E+02 -0.52520697534E+02  0.56904316287E+02  0.00000000000E+00 0. -1.
<scales pt_clust_5="13000.00000" pt_clust_6="13000.00000" pt_clust_7="13000.00000" pt_clust_8="13000.00000" pt_clust_9="21.90155"></scales>
<clustering>
<clus scale="   21.902">  1  9  2 -1</clus>
<clus scale="   78.957">  7  8 -1 -1</clus>
<clus scale="   81.671">  5  6 -1 -1</clus>
<clus scale="   86.216">  2  7  1 -1</clus>
<clus scale="   21.902">  1  5  2 -1</clus>
</clustering>
</event>
<event>
 9    1  0.4731329E-005  0.3901831E+03  0.7546771E-02  0.1098984E+00
          1   -1    0    0  502    0 -0.00000000000E+00  0.00000000000E+00  0.10410685705E+04  0.10410685705E+04  0.00000000000E+00 0. -1.
         21   -1    0    0  501  502  0.00000000000E+00 -0.00000000000E+00 -0.21062675843E+03  0.21062675843E+03  0.00000000000E+00 0. -1.
        -24    2    1    2    0    0 -0.24563137804E+02  0.29310784191E+02  0.29178231791E+03  0.30684343049E+03  0.86910873806E+02 0.  0.
         23    2    1    2    0    0  0.22713200758E+03  0.29863226481E+03  0.21798044532E+03  0.44343805465E+03  0.91387391455E+02 0.  0.
         13    1    3    3    0    0 -0.49860612088E+02 -0.56981270266E+01  0.18420832197E+03  0.19092211808E+03  0.00000000000E+00 0. -1.
        -14    1    3    3    0    0  0.25297474285E+02  0.35008911218E+02  0.10757399593E+03  0.11592131241E+03  0.00000000000E+00 0.  1.
        -11    1    4    4    0    0  0.97398196899E+02  0.10895534218E+03  0.36535386333E+02  0.15064033259E+03  0.00000000000E+00 0.  1.
         11    1    4    4    0    0  0.12973381068E+03  0.18967692263E+03  0.18144505898E+03  0.29279772206E+03  0.00000000000E+00 0. -1.
          2    1    1    2  501    0 -0.20256886978E+03 -0.32794304900E+03  0.32067904887E+03  0.50141384382E+03  0.00000000000E+00 0. -1.
<scales pt_clust_5="13000.00000" pt_clust_6="13000.00000" pt_clust_7="13000.00000" pt_clust_8="13000.00000" pt_clust_9="379.33010"></scales>
<clustering>
<clus scale="   86.911">  5  6 -1 -1</clus>
<clus scale="   91.387">  7  8 -1 -1</clus>
<clus scale="   94.952">  1  5  2 -1</clus>
<clus scale="  379.330">  2  9  1 -1</clus>
<clus scale="  379.330">  2  5  1 -1</clus>
</clustering>
</event>
<event>
 9    1  0.4731329E-005  0.9581798E+02  0.7546771E-02  0.1297440E+00
         21   -1    0    0  501  502  0.00000000000E+00  0.00000000000E+00  0.10113521770E+03  0.10113521770E+03  0.00000000000E+00 0.  1.
          3   -1    0    0  502    0 -0.00000000000E+00 -0.00000000000E+00 -0.39485296195E+03  0.39485296195E+03  0.00000000000E+00 0. -1.
         23    2    1    2    0    0  0.12747015330E+02  0.28788501955E+02 -0.34580374149E+03  0.35914309539E+03  0.91718433763E+02 0.  0.
        -24    2    1    2    0    0  0.23753631743E+02 -0.18965563144E+01  0.34911010054E+02  0.88363601584E+02  0.77598424695E+02 0.  0.
         13    1    4    4    0    0  0.15469737993E+02 -0.32177471457E+02 -0.66105619842E+01  0.36309805737E+02  0.00000000000E+00 0. -1.
        -14    1    4    4    0    0  0.82838937499E+01  0.30280915143E+02  0.41521572038E+02  0.52053795847E+02  0.00000000000E+00 0.  1.
        -11    1    3    3    0    0  0.40865817633E+02  0.44405169356E+02 -0.27234975277E+03  0.27895559135E+03  0.00000000000E+00 0. -1.
         11    1    3    3    0    0 -0.28118802303E+02 -0.15616667401E+02 -0.73453988729E+02  0.80187504038E+02  0.00000000000E+00 0.  1.
          4    1    1    2  501    0 -0.36500647072E+02 -0.26891945641E+02  0.17174987188E+02  0.48481482671E+02  0.00000000000E+00 0. -1.
<scales pt_clust_5="13000.00000" pt_clust_6="13000.00000" pt_clust_7="13000.00000" pt_clust_8="13000.00000" pt_clust_9="45.33734"></scales>
<clustering>
<clus scale="   45.337">  1  9  2 -1</clus>
<clus scale="   77.598">  5  6 -1 -1</clus>
<clus scale="   82.403">  1  5  2 -1</clus>
<clus scale="   91.718">  7  8 -1 -1</clus>
<clus scale="   45.337">  1  5  2 -1</clus>
</clustering>
</event>
<event>
 9    1  0.4731329E-005  0.1516493E+03  0.7546771E-02  0.1200348E+00
         21   -1    0    0  501  502  0.00000000000E+00  0.00000000000E+00  0.34573910734E+02  0.34573910734E+02  0.00000000000E+00 0.  1.
          1   -1    0    0  502    0 -0.00000000000E+00 -0.00000000000E+00 -0.11265172124E+04  0.11265172124E+04  0.00000000000E+00 0. -1.
         23    2    1    2    0    0 -0.73496965517E+02 -0.75325545696E+02 -0.50476869547E+03  0.52359654218E+03  0.91028354265E+02 0.  0.
        -24    2    1    2    0    0  0.83428635166E+02  0.11399080212E+03 -0.57221987774E+03  0.59486496658E+03  0.80464276886E+02 0.  0.
         11    1    4    4    0    0  0.33944904698E+02  0.34686427386E+02 -0.77876479353E+02  0.91761379873E+02  0.00000000000E+00 0. -1.
        -12    1    4    4    0    0  0.49483730467E+02  0.79304374737E+02 -0.49434339838E+03  0.50310358671E+03  0.00000000000E+00 0.  1.
        -11    1    3    3    0    0  0.52770898232E+01 -0.24250616424E+02 -0.26928061608E+02  0.36620493933E+02  0.00000000000E+00 0.  1.
         11    1    3    3    0    0 -0.78774055340E+02 -0.51074929271E+02 -0.47784063386E+03  0.48697604824E+03  0.00000000000E+00 0. -1.
          2    1    1    2  501    0 -0.99316696483E+01 -0.38665256427E+02 -0.14954728427E+02  0.42629614342E+02  0.00000000000E+00 0. -1.
<scales pt_clust_5="13000.00000" pt_clust_6="13000.00000" pt_clust_7="13000.00000" pt_clust_8="13000.00000" pt_clust_9="39.92042"></scales>
<clustering>
<clus scale="   39.920">  1  9  2 -1</clus>
<clus scale="   80.464">  5  6 -1 -1</clus>
<clus scale="   91.028">  7  8 -1 -1</clus>
<clus scale="  145.554">  1  5  2 -1</clus>
<clus scale="   39.920">  1  5  2 -1</clus>
</clustering>
</event>
<event>
 9    1  0.4731329E-005  0.1040163E+03  0.7546771E-02  0.1276465E+00
          1   -1    0    0  502    0 -0.00000000000E+00  0.00000000000E+00  0.36493838580E+03  0.36493838580E+03  0.00000000000E+00 0. -1.
         21   -1    0    0  501  502  0.00000000000E+00 -0.00000000000E+00 -0.54006245818E+02  0.54006245818E+02  0.00000000000E+00 0.  1.
         23    2    1    2    0    0  0.15771254988E+02 -0.51486671247E+02  0.25766847281E+03  0.27822202244E+03  0.90082418313E+02 0.  0.
        -24    2    1    2    0    0  0.16651424708E+02  0.50710434307E+02  0.30359440238E+02  0.10101824778E+03  0.80213294915E+02 0.  0.
         13    1    4    4    0    0  0.22099826096E+02  0.28621948849E+02  0.56049824171E+02  0.66702331736E+02  0.00000000000E+00 0. -1.
        -14    1    4    4    0    0 -0.54484013877E+01  0.22088485458E+02 -0.25690383933E+02  0.34315916047E+02  0.00000000000E+00 0.  1.
        -11    1    3    3    0    0 -0.16728925077E+00 -0.67023073403E+02  0.24172035035E+03  0.25084028410E+03  0.00000000000E+00 0.  1.
         11    1    3    3    0    0  0.15938544239E+02  0.15536402156E+02  0.15948122460E+02  0.27381738338E+02  0.00000000000E+00 0. -1.
          2    1    1    2  501    0 -0.32422679696E+02  0.77623694038E+00  0.22904226928E+02  0.39704361393E+02  0.00000000000E+00 0. -1.
<scales pt_clust_5="13000.00000" pt_clust_6="13000.00000" pt_clust_7="13000.00000" pt_clust_8="13000.00000" pt_clust_9="32.43197"></scales>
<clustering>
<clus scale="   32.432">  2  9  1 -1</clus>
<clus scale="   80.213">  5  6 -1 -1</clus>
<clus scale="   90.082">  7  8 -1 -1</clus>
<clus scale="   95.597">  2  5  1 -1</clus>
<clus scale="   32.432">  2  5  1 -1</clus>
</clustering>
</event>
<event>
 9    1  0.4731329E-005  0.1846490E+03  0.7546771E-02  0.1175908E+00
          3   -1    0    0  502    0 -0.00000000000E+00  0.00000000000E+00  0.47274923145E+03  0.47274923145E+03  0.00000000000E+00 0. -1.
         21   -1    0    0  501  502  0.00000000000E+00 -0.00000000000E+00 -0.14549621538E+03  0.14549621538E+03  0.00000000000E+00 0. -1.
         23    2    1    2    0    0 -0.53437331682E+02 -0.89999060871E+02  0.31011818359E+02  0.14203766269E+03  0.90871257116E+02 0.  0.
        -24    2    1    2    0    0 -0.14261391284E+03  0.52277427928E+02  0.11927474091E+03  0.20941921821E+03  0.80983254632E+02 0.  0.
         13    1    4    4    0    0 -0.78129580995E+02  0.64017650642E+02  0.45644089876E+02  0.11084166167E+03  0.00000000000E+00 0. -1.
        -14    1    4    4    0    0 -0.64484331848E+02 -0.11740222714E+02  0.73630651032E+02  0.98577556547E+02  0.00000000000E+00 0.  1.
        -11    1    3    3    0    0  0.10115531409E+02 -0.32255215963E+02  0.43687860283E+02  0.55239044784E+02  0.00000000000E+00 0. -1.
         11    1    3    3    0    0 -0.63552863091E+02 -0.57743844908E+02 -0.12676041924E+02  0.86798617907E+02  0.00000000000E+00 0.  1.
          4    1    1    2  501    0  0.19605124453E+03  0.37721632943E+02  0.17696645680E+03  0.26678856592E+03  0.00000000000E+00 0. -1.
<scales pt_clust_5="13000.00000" pt_clust_6="13000.00000" pt_clust_7="13000.00000" pt_clust_8="13000.00000" pt_clust_9="165.94275"></scales>
<clustering>
<clus scale="   80.983">  5  6 -1 -1</clus>
<clus scale="   90.871">  7  8 -1 -1</clus>
<clus scale="  138.611">  1  7  2 -1</clus>
<clus scale="  165.943">  2  9  1 -1</clus>
<clus scale="  165.943">  2  5  1 -1</clus>
</clustering>
</event>
<event>
 9    1  0.4731329E-005  0.1100917E+03  0.7546771E-02  0.1263507E+00
         21   -1    0    0  501  502  0.00000000000E+00  0.00000000000E+00  0.12228196880E+03  0.12228196880E+03  0.00000000000E+00 0. -1.
          1   -1    0    0  502    0 -0.00000000000E+00 -0.00000000000E+00 -0.53422945622E+03  0.53422945622E+03  0.00000000000E+00 0. -1.
        -24    2    1    2    0    0  0.90766748176E+01 -0.46950526573E+02 -0.20469151064E+03  0.22630919607E+03  0.83848075254E+02 0.  0.
         23    2    1    2    0    0  0.59001016674E+02  0.70106252318E+02 -0.29173856677E+03  0.31926049773E+03  0.91759835917E+02 0.  0.
         11    1    3    3    0    0  0.29501176543E+02 -0.34650724089E+02 -0.19554866068E+03  0.20077417859E+03  0.00000000000E+00 0. -1.
        -12    1    3    3    0    0 -0.20424501725E+02 -0.12299802484E+02 -0.91428499663E+01  0.25535017473E+02  0.00000000000E+00 0.  1.
        -13    1    4    4    0    0  0.43681023310E+02  0.83321581267E+02 -0.28105177945E+03  0.29637918354E+03  0.00000000000E+00 0.  1.
         13    1    4    4    0    0  0.15319993363E+02 -0.13215328950E+02 -0.10686787317E+02  0.22881314190E+02  0.00000000000E+00 0. -1.
          2    1    1    2  501    0 -0.68077691491E+02 -0.23155725745E+02  0.84482589997E+02  0.11094173122E+03  0.00000000000E+00 0. -1.
<scales pt_clust_5="13000.00000" pt_clust_6="13000.00000" pt_clust_7="13000.00000" pt_clust_8="13000.00000" pt_clust_9="71.90799"></scales>
<clustering>
<clus scale="   71.908">  1  9  2 -1</clus>
<clus scale="   83.848">  5  6 -1 -1</clus>
<clus scale="   91.760">  7  8 -1 -1</clus>
<clus scale="  103.590">  2  5  1 -1</clus>
<clus scale="   71.908">  1  5  2 -1</clus>
</clustering>
</event>
<event>
 9    1  0.4731329E-005  0.9999549E+02  0.7546771E-02  0.1296631E+00
         21   -1    0    0  501  502  0.00000000000E+00  0.00000000000E+00  0.24449934291E+03  0.24449934291E+03  0.00000000000E+00 0. -1.
          3   -1    0    0  502    0 -0.00000000000E+00 -0.00000000000E+00 -0.45235074748E+02  0.45235074748E+02  0.00000000000E+00 0. -1.
         23    2    1    2    0    0 -0.14327924018E+02 -0.22268130881E+02  0.10098588612E+03  0.13784842614E+03  0.90016000438E+02 0.  0.
        -24    2    1    2    0    0  0.44537321335E+02  0.36098443620E+02  0.72520174711E+02  0.10984588588E+03  0.59331882507E+02 0.  0.
         13    1    4    4    0    0  0.56789507460E+02  0.34989386772E+02  0.47257667041E+02  0.81747124955E+02  0.00000000000E+00 0. -1.
        -14    1    4    4    0    0 -0.12252186125E+02  0.11090568478E+01  0.25262507670E+02  0.28098760928E+02  0.00000000000E+00 0.  1.
        -13    1    3    3    0    0 -0.41300242129E+02  0.12016929370E+02  0.76656428006E+02  0.87899513913E+02  0.00000000000E+00 0.  1.
         13    1    3    3    0    0  0.26972318111E+02 -0.34285060251E+02  0.24329458109E+02  0.49948912226E+02  0.00000000000E+00 0. -1.
          4    1    1    2  501    0 -0.30209397317E+02 -0.13830312739E+02  0.25758207333E+02  0.42040105634E+02  0.00000000000E+00 0. -1.
<scales pt_clust_5="13000.00000" pt_clust_6="13000.00000" pt_clust_7="13000.00000" pt_clust_8="13000.00000" pt_clust_9="33.22479"></scales>
<clustering>
<clus scale="   33.225">  1  9  2 -1</clus>
<clus scale="   59.332">  5  6 -1 -1</clus>
<clus scale="   73.597">  1  5  2 -1</clus>
<clus scale="   90.016">  7  8 -1 -1</clus>
<clus scale="   33.225">  1  5  2 -1</clus>
</clustering>
</event>
<event>
 9    1  0.4731329E-005  0.1180183E+03  0.7546771E-02  0.1260579E+00
         21   -1    0    0  501  502  0.00000000000E+00  0.00000000000E+00  0.49872914380E+03  0.49872914380E+03  0.00000000000E+00 0. -1.
          3   -1    0    0  502    0 -0.00000000000E+00 -0.00000000000E+00 -0.13482448412E+03  0.13482448412E+03  0.00000000000E+00 0. -1.
         23    2    1    2    0    0  0.13969097019E+02  0.39203399462E+02 -0.10223516262E+03  0.13522207764E+03  0.78108511727E+02 0.  0.
        -24    2    1    2    0    0 -0.42781612739E+02 -0.50210672133E+02  0.26018708215E+03  0.29008205499E+03  0.10999501318E+03 0.  0.
         13    1    4    4    0    0 -0.63911293453E+02 -0.64929242135E+02  0.13905451053E+03  0.16624264439E+03  0.00000000000E+00 0. -1.
        -14    1    4    4    0    0  0.21129680714E+02  0.14718570002E+02  0.12113257163E+03  0.12383941060E+03  0.00000000000E+00 0.  1.
        -13    1    3    3    0    0  0.36778860683E+02  0.50947783437E+02 -0.73617129090E+02  0.96787617626E+02  0.00000000000E+00 0.  1.
         13    1    3    3    0    0 -0.22809763664E+02 -0.11744383975E+02 -0.28618033530E+02  0.38434460013E+02  0.00000000000E+00 0. -1.
          4    1    1    2  501    0  0.28812515720E+02  0.11007272671E+02  0.20595274015E+03  0.20824949529E+03  0.00000000000E+00 0. -1.
<scales pt_clust_5="13000.00000" pt_clust_6="13000.00000" pt_clust_7="13000.00000" pt_clust_8="13000.00000" pt_clust_9="30.84349"></scales>
<clustering>
<clus scale="   30.843">  1  9  2 -1</clus>
<clus scale="   78.109">  7  8 -1 -1</clus>
<clus scale="   89.053">  2  7  1 -1</clus>
<clus scale="  109.995">  5  6 -1 -1</clus>
<clus scale="   30.843">  1  5  2 -1</clus>
</clustering>
</event>
<event>
 9    1  0.4731329E-005  0.2662111E+03  0.7546771E-02  0.1128449E+00
         21   -1    0    0  501  502  0.00000000000E+00  0.00000000000E+00  0.28825458359E+03  0.28825458359E+03  0.00000000000E+00 0. -1.
          1   -1    0    0  502    0 -0.00000000000E+00 -0.00000000000E+00 -0.10504260494E+04  0.10504260494E+04  0.00000000000E+00 0. -1.
        -24    2    1    2    0    0 -0.43639126983E+02 -0.10702380477E+03  0.44199301795E+01  0.14192419428E+03  0.82246416025E+02 0.  0.
         23    2    1    2    0    0  0.22990172775E+03 -0.64527945298E+02 -0.88211728143E+03  0.91842212599E+03  0.91376381811E+02 0.  0.
         11    1    3    3    0    0 -0.11603137512E+01 -0.98279651007E+02  0.65322084863E+01  0.98503329273E+02  0.00000000000E+00 0. -1.
        -12    1    3    3    0    0 -0.42478813232E+02 -0.87441537620E+01 -0.21122783069E+01  0.43420865010E+02  0.00000000000E+00 0.  1.
        -11    1    4    4    0    0  0.18198447042E+03 -0.64897054262E+02 -0.80306675042E+03  0.82598194941E+03  0.00000000000E+00 0. -1.
         11    1    4    4    0    0  0.47917257334E+02  0.36910896398E+00 -0.79050531017E+02  0.92440176579E+02  0.00000000000E+00 0.  1.
          2    1    1    2  501    0 -0.18626260077E+03  0.17155175007E+03  0.11552588549E+03  0.27833431268E+03  0.00000000000E+00 0. -1.
<scales pt_clust_5="13000.00000" pt_clust_6="13000.00000" pt_clust_7="13000.00000" pt_clust_8="13000.00000" pt_clust_9="250.03739"></scales>
<clustering>
<clus scale="   82.246">  5  6 -1 -1</clus>
<clus scale="   91.376">  7  8 -1 -1</clus>
<clus scale="  141.855">  2  5  1 -1</clus>
<clus scale="  250.037">  1  9  2 -1</clus>
<clus scale="  250.037">  1  5  2 -1</clus>
</clustering>
</event>
<event>
 9    1  0.4731329E-005  0.9551298E+02  0.7546771E-02  0.1300643E+00
         -2   -1    0    0    0  501 -0.00000000000E+00  0.00000000000E+00  0.86020687688E+02  0.86020687688E+02  0.00000000000E+00 0.  1.
         21   -1    0    0  501  502  0.00000000000E+00 -0.00000000000E+00 -0.13184419966E+03  0.13184419966E+03  0.00000000000E+00 0. -1.
        -24    2    1    2    0    0 -0.81076419766E+00 -0.37503964488E+02  0.22959711663E+02  0.83910523084E+02  0.71460638351E+02 0.  0.
         23    2    1    2    0    0  0.89151663118E+01  0.17001618657E+02 -0.62065913202E+02  0.11090767735E+03  0.89887708207E+02 0.  0.
         11    1    3    3    0    0  0.21417563521E+02  0.74886250195E+01 -0.90055215703E+01  0.24410877711E+02  0.00000000000E+00 0. -1.
        -12    1    3    3    0    0 -0.22228327719E+02 -0.44992589508E+02  0.31965233234E+02  0.59499645373E+02  0.00000000000E+00 0.  1.
        -11    1    4    4    0    0 -0.22918592666E+02 -0.28247431130E+02 -0.20947504225E+02  0.41975912003E+02  0.00000000000E+00 0.  1.
         11    1    4    4    0    0  0.31833758978E+02  0.45249049787E+02 -0.41118408976E+02  0.68931765348E+02  0.00000000000E+00 0. -1.
         -1    1    1    2    0  502 -0.81044021141E+01  0.20502345831E+02 -0.67173104333E+01  0.23046686913E+02  0.00000000000E+00 0.  1.
<scales pt_clust_5="13000.00000" pt_clust_6="13000.00000" pt_clust_7="13000.00000" pt_clust_8="13000.00000" pt_clust_9="22.04603"></scales>
<clustering>
<clus scale="   22.046">  2  9  1 -1</clus>
<clus scale="   71.461">  5  6 -1 -1</clus>
<clus scale="   78.419">  1  5  2 -1</clus>
<clus scale="   89.888">  7  8 -1 -1</clus>
<clus scale="   22.046">  2  5  1 -1</clus>
</clustering>
</event>
<event>
 9    1  0.4731329E-005  0.1379412E+03  0.7546771E-02  0.1231134E+00
          1   -1    0    0  502    0 -0.00000000000E+00  0.00000000000E+00  0.33684593537E+03  0.33684593537E+03  0.00000000000E+00 0. -1.
         21   -1    0    0  501  502  0.00000000000E+00 -0.00000000000E+00 -0.16543402978E+03  0.16543402978E+03  0.00000000000E+00 0. -1.
        -24    2    1    2    0    0  0.43556768887E+01 -0.59768138118E+02 -0.13060904344E+02  0.10168936220E+03  0.81110646079E+02 0.  0.
         23    2    1    2    0    0  0.86844371789E+02  0.19519131821E+01  0.24617427846E+03  0.27622326012E+03  0.90287093098E+02 0.  0.
         11    1    3    3    0    0  0.10372949914E+02 -0.79107261313E+02 -0.51663612700E+01  0.79951536390E+02  0.00000000000E+00 0. -1.
        -12    1    3    3    0    0 -0.60172730253E+01  0.19339123195E+02 -0.78945430736E+01  0.21737825810E+02  0.00000000000E+00 0.  1.
        -13    1    4    4    0    0  0.30697583183E+02  0.14188975228E+02  0.19906315669E+03  0.20191535104E+03  0.00000000000E+00 0.  1.
         13    1    4    4    0    0  0.56146788607E+02 -0.12237062046E+02  0.47111121764E+02  0.74307909083E+02  0.00000000000E+00 0. -1.
          2    1    1    2  501    0 -0.91200048678E+02  0.57816224936E+02 -0.61701468521E+02  0.12436734283E+03  0.00000000000E+00 0. -1.
<scales pt_clust_5="13000.00000" pt_clust_6="13000.00000" pt_clust_7="13000.00000" pt_clust_8="13000.00000" pt_clust_9="104.28816"></scales>
<clustering>
<clus scale="   81.111">  5  6 -1 -1</clus>
<clus scale="   90.287">  7  8 -1 -1</clus>
<clus scale="  100.847">  1  5  2 -1</clus>
<clus scale="  104.288">  2  9  1 -1</clus>
<clus scale="  104.288">  2  5  1 -1</clus>
</clustering>
</event>
<event>
 9    1  0.4731329E-005  0.9256272E+02  0.7546771E-02  0.1302319E+00
          1   -1    0    0  502    0 -0.00000000000E+00  0.00000000000E+00  0.82917765764E+02  0.82917765764E+02  0.00000000000E+00 0. -1.
         21   -1    0    0  501  502  0.00000000000E+00 -0.00000000000E+00 -0.15714474632E+03  0.15714474632E+03  0.00000000000E+00 0. -1.
         23    2    1    2    0    0  0.11672732772E+02 -0.26557505027E+02  0.15948053562E+01  0.95633545942E+02  0.91113544228E+02 0.  0.
        -24    2    1    2    0    0 -0.12430957038E+02 -0.10686690183E+02 -0.39589122534E+02  0.92462526238E+02  0.81934645268E+02 0.  0.
         13    1    4    4    0    0  0.13657990367E+02 -0.39555429763E+02 -0.32328936267E+02  0.52880363508E+02  0.00000000000E+00 0. -1.
        -14    1    4    4    0    0 -0.26088947405E+02  0.28868739580E+02 -0.72601862676E+01  0.39582162729E+02  0.00000000000E+00 0.  1.
        -13    1    3    3    0    0 -0.20108245454E+02 -0.51440562066E+02  0.20195478209E+01  0.55267997379E+02  0.00000000000E+00 0.  1.
         13    1    3    3    0    0  0.31780978226E+02  0.24883057039E+02 -0.42474246465E+00  0.40365548563E+02  0.00000000000E+00 0. -1.
          2    1    1    2  501    0  0.75822426624E+00  0.37244195210E+02 -0.36232663383E+02  0.51966439908E+02  0.00000000000E+00 0. -1.
<scales pt_clust_5="13000.00000" pt_clust_6="13000.00000" pt_clust_7="13000.00000" pt_clust_8="13000.00000" pt_clust_9="37.25191"></scales>
<clustering>
<clus scale="   37.252">  2  9  1 -1</clus>
<clus scale="   81.935">  5  6 -1 -1</clus>
<clus scale="   83.543">  2  5  1 -1</clus>
<clus scale="   91.114">  7  8 -1 -1</clus>
<clus scale="   37.252">  2  5  1 -1</clus>
</clustering>
</event>
<event>
 9    1  0.4731329E-005  0.1486055E+03  0.7546771E-02  0.1204347E+00
          1   -1    0    0  502    0 -0.00000000000E+00  0.00000000000E+00  0.48544751492E+03  0.48544751492E+03  0.00000000000E+00 0. -1.
         21   -1    0    0  501  502  0.00000000000E+00 -0.00000000000E+00 -0.10811175952E+03  0.10811175952E+03  0.00000000000E+00 0. -1.
         23    2    1    2    0    0  0.98465171063E+02  0.12645283514E+03  0.25233588814E+03  0.31017521521E+03  0.82762033913E+02 0.  0.
        -24    2    1    2    0    0  0.14372268009E+02 -0.10526099681E+03  0.10891524331E+03  0.16745262779E+03  0.69938635906E+02 0.  0.
         13    1    4    4    0    0  0.16093051552E+02 -0.83893119321E+02  0.38228246328E+02  0.93586540672E+02  0.00000000000E+00 0. -1.
        -14    1    4    4    0    0 -0.17207835429E+01 -0.21367877492E+02  0.70686996982E+02  0.73866087122E+02  0.00000000000E+00 0.  1.
        -11    1    3    3    0    0 -0.10887072870E+02  0.33463209096E+02  0.67754197974E+02  0.76347534746E+02  0.00000000000E+00 0.  1.
         11    1    3    3    0    0  0.10935224393E+03  0.92989626044E+02  0.18458169017E+03  0.23382768046E+03  0.00000000000E+00 0. -1.
          2    1    1    2  501    0 -0.11283743907E+03 -0.21191838328E+02  0.16084623951E+02  0.11593143144E+03  0.00000000000E+00 0. -1.
<scales pt_clust_5="13000.00000" pt_clust_6="13000.00000" pt_clust_7="13000.00000" pt_clust_8="13000.00000" pt_clust_9="114.81020"></scales>
<clustering>
<clus scale="   69.939">  5  6 -1 -1</clus>
<clus scale="   82.762">  7  8 -1 -1</clus>
<clus scale="  114.810">  2  9  1 -1</clus>
<clus scale="  141.864">  2  5  1 -1</clus>
<clus scale="  114.810">  2  5  1 -1</clus>
</clustering>
</event>
<event>
 9    1  0.4731329E-005  0.1018739E+03  0.7546771E-02  0.1282170E+00
         -4   -1    0    0    0  501 -0.00000000000E+00  0.00000000000E+00  0.10140222698E+03  0.10140222698E+03  0.00000000000E+00 0.  1.
         21   -1    0    0  501  502  0.00000000000E+00 -0.00000000000E+00 -0.14666049137E+03  0.14666049137E+03  0.00000000000E+00 0. -1.
         23    2    1    2    0    0  0.50713041306E+02  0.11552893550E+02 -0.33258611544E+02  0.11051314919E+03  0.91661000396E+02 0.  0.
        -24    2    1    2    0    0 -0.38364591741E+02  0.17306373120E+02 -0.36978903389E+02  0.97433432301E+02  0.79715004762E+02 0.  0.
         11    1    4    4    0    0 -0.24915566459E+02 -0.25303634535E+02 -0.38949511208E+02  0.52707910185E+02  0.00000000000E+00 0. -1.
        -12    1    4    4    0    0 -0.13449025282E+02  0.42610007655E+02  0.19706078191E+01  0.44725522116E+02  0.00000000000E+00 0.  1.
        -11    1    3    3    0    0  0.23078049728E+02  0.81831637219E+01  0.31574011825E+02  0.39955960387E+02  0.00000000000E+00 0.  1.
         11    1    3    3    0    0  0.27634991578E+02  0.33697298279E+01 -0.64832623368E+02  0.70557188800E+02  0.00000000000E+00 0. -1.
         -3    1    1    2    0  502 -0.12348449565E+02 -0.28859266670E+02  0.24979250540E+02  0.40116136864E+02  0.00000000000E+00 0.  1.
<scales pt_clust_5="13000.00000" pt_clust_6="13000.00000" pt_clust_7="13000.00000" pt_clust_8="13000.00000" pt_clust_9="31.39017"></scales>
<clustering>
<clus scale="   31.390">  2  9  1 -1</clus>
<clus scale="   79.715">  5  6 -1 -1</clus>
<clus scale="   91.274">  2  5  1 -1</clus>
<clus scale="   91.661">  7  8 -1 -1</clus>
<clus scale="   31.390">  2  5  1 -1</clus>
</clustering>
</event>
<event>
 9    1  0.4731329E-005  0.1005479E+03  0.7546771E-02  0.1281038E+00
         21   -1    0    0  501  502  0.00000000000E+00  0.00000000000E+00  0.92124324261E+03  0.92124324261E+03  0.00000000000E+00 0. -1.
          3   -1    0    0  502    0 -0.00000000000E+00 -0.00000000000E+00 -0.20767564528E+02  0.20767564528E+02  0.00000000000E+00 0. -1.
         23    2    1    2    0    0 -0.34686923795E+02  0.12092011141E+02  0.27540140274E+03  0.29242358885E+03  0.91193329086E+02 0.  0.
        -24    2    1    2    0    0  0.31706796305E+02 -0.53277189579E+02  0.57406243668E+03  0.58395713550E+03  0.87260959394E+02 0.  0.
         11    1    4    4    0    0  0.36391995603E+02 -0.75578594251E+02  0.47023560038E+03  0.47765889619E+03  0.00000000000E+00 0. -1.
        -12    1    4    4    0    0 -0.46851992981E+01  0.22301404671E+02  0.10382683631E+03  0.10629823931E+03  0.00000000000E+00 0.  1.
        -11    1    3    3    0    0 -0.55856157992E+02  0.23062462178E+02  0.25151907392E+03  0.25867669415E+03  0.00000000000E+00 0.  1.
         11    1    3    3    0    0  0.21169234197E+02 -0.10970451037E+02  0.23882328814E+02  0.33746894702E+02  0.00000000000E+00 0. -1.
          4    1    1    2  501    0  0.29801274902E+01  0.41185178439E+02  0.51011838666E+02  0.65630082789E+02  0.00000000000E+00 0. -1.
<scales pt_clust_5="13000.00000" pt_clust_6="13000.00000" pt_clust_7="13000.00000" pt_clust_8="13000.00000" pt_clust_9="41.29288"></scales>
<clustering>
<clus scale="   41.293">  1  9  2 -1</clus>
<clus scale="   87.261">  5  6 -1 -1</clus>
<clus scale="   91.193">  7  8 -1 -1</clus>
<clus scale="   96.996">  1  5  2 -1</clus>
<clus scale="   41.293">  1  5  2 -1</clus>
</clustering>
</event>
<event>
 9    1  0.4731329E-005  0.1225198E+03  0.7546771E-02  0.1252052E+00
          1   -1    0    0  502    0 -0.00000000000E+00  0.00000000000E+00  0.24311170738E+03  0.24311170738E+03  0.00000000000E+00 0. -1.
         21   -1    0    0  501  502  0.00000000000E+00 -0.00000000000E+00 -0.16292006476E+03  0.16292006476E+03  0.00000000000E+00 0. -1.
        -24    2    1    2    0    0  0.47712971174E+02 -0.46994732769E+02  0.13250921160E+03  0.16258577069E+03  0.66260162600E+02 0.  0.
         23    2    1    2    0    0  0.22091597314E+01 -0.42310557798E+02  0.41684473753E+02  0.10450702882E+03  0.85959641885E+02 0.  0.
         13    1    3    3    0    0  0.55628199979E+02 -0.56169265812E+02  0.12622257539E+03  0.14893495759E+03  0.00000000000E+00 0. -1.
        -14    1    3    3    0    0 -0.79152288056E+01  0.91745330428E+01  0.62866362126E+01  0.13650813106E+02  0.00000000000E+00 0.  1.
        -11    1    4    4    0    0 -0.12016800229E+02 -0.63520181451E+02  0.12710993718E+02  0.65884643891E+02  0.00000000000E+00 0.  1.
         11    1    4    4    0    0  0.14225959961E+02  0.21209623653E+02  0.28973480035E+02  0.38622384930E+02  0.00000000000E+00 0. -1.
          2    1    1    2  501    0 -0.49922130905E+02  0.89305290568E+02 -0.94002042724E+02  0.13893897262E+03  0.00000000000E+00 0. -1.
<scales pt_clust_5="13000.00000" pt_clust_6="13000.00000" pt_clust_7="13000.00000" pt_clust_8="13000.00000" pt_clust_9="87.30430"></scales>
<clustering>
<clus scale="   66.260">  5  6 -1 -1</clus>
<clus scale="   85.960">  7  8 -1 -1</clus>
<clus scale="   94.210">  1  5  2 -1</clus>
<clus scale="   87.304">  2  9  1 -1</clus>
<clus scale="   87.304">  2  5  1 -1</clus>
</clustering>
</event>
<event>
 9    1  0.4731329E-005  0.9587082E+02  0.7546771E-02  0.1294224E+00
          1   -1    0    0  502    0 -0.00000000000E+00  0.00000000000E+00  0.36810590425E+03  0.36810590425E+03  0.00000000000E+00 0. -1.
         21   -1    0    0  501  502  0.00000000000E+00 -0.00000000000E+00 -0.20035817267E+03  0.20035817267E+03  0.00000000000E+00 0. -1.
         23    2    1    2    0    0  0.14828551684E+02  0.16510783288E+02  0.32657567829E+03  0.34030541772E+03  0.93078524755E+02 0.  0.
        -24    2    1    2    0    0 -0.54768831865E+00 -0.55115210425E+02 -0.15755716453E+03  0.18697784157E+03  0.84252399140E+02 0.  0.
         11    1    4    4    0    0 -0.41324733750E+02 -0.23279571032E+02 -0.91613703997E+02  0.10316367000E+03  0.00000000000E+00 0. -1.
        -12    1    4    4    0    0  0.40777045431E+02 -0.31835639393E+02 -0.65943460533E+02  0.83814171575E+02  0.00000000000E+00 0.  1.
        -11    1    3    3    0    0  0.19515218390E+02  0.54141726611E+02  0.20785250775E+03  0.21567298228E+03  0.00000000000E+00 0. -1.
         11    1    3    3    0    0 -0.46866667060E+01 -0.37630943323E+02  0.11872317054E+03  0.12463243544E+03  0.00000000000E+00 0.  1.
          2    1    1    2  501    0 -0.14280863366E+02  0.38604427137E+02 -0.12707821749E+01  0.41180817627E+02  0.00000000000E+00 0. -1.
<scales pt_clust_5="13000.00000" pt_clust_6="13000.00000" pt_clust_7="13000.00000" pt_clust_8="13000.00000" pt_clust_9="41.16121"></scales>
<clustering>
<clus scale="   41.161">  2  9  1 -1</clus>
<clus scale="   84.252">  5  6 -1 -1</clus>
<clus scale="   87.327">  2  5  1 -1</clus>
<clus scale="   93.079">  7  8 -1 -1</clus>
<clus scale="   41.161">  2  5  1 -1</clus>
</clustering>
</event>
<event>
 9    1  0.4731329E-005  0.4448116E+03  0.7546771E-02  0.1085386E+00
          3   -1    0    0  502    0 -0.00000000000E+00  0.00000000000E+00  0.49661398100E+03  0.49661398100E+03  0.00000000000E+00 0. -1.
         21   -1    0    0  501  502  0.00000000000E+00 -0.00000000000E+00 -0.80697317102E+03  0.80697317102E+03  0.00000000000E+00 0.  1.
         23    2    1    2    0    0 -0.40042859900E+01  0.39528508256E+01  0.43826077830E+02  0.10161730290E+03  0.91507878427E+02 0.  0.
        -24    2    1    2    0    0  0.17323943298E+03 -0.40275953792E+03 -0.56541533470E+03  0.71998909247E+03  0.80390584229E+02 0.  0.
         13    1    4    4    0    0  0.14179176390E+02 -0.44006324314E+02 -0.26371383102E+02  0.53226454601E+02  0.00000000000E+00 0. -1.
        -14    1    4    4    0    0  0.15906025659E+03 -0.35875321360E+03 -0.53904395160E+03  0.66676263786E+03  0.00000000000E+00 0.  1.
        -13    1    3    3    0    0 -0.35906001125E+02  0.32823529117E+02  0.22641486766E+02  0.53658754211E+02  0.00000000000E+00 0.  1.
         13    1    3    3    0    0  0.31901715135E+02 -0.28870678291E+02  0.21184591064E+02  0.47958548686E+02  0.00000000000E+00 0. -1.
          4    1    1    2  501    0 -0.16923514699E+03  0.39880668709E+03  0.21123006685E+03  0.48198075665E+03  0.00000000000E+00 0. -1.
<scales pt_clust_5="13000.00000" pt_clust_6="13000.00000" pt_clust_7="13000.00000" pt_clust_8="13000.00000" pt_clust_9="437.48701"></scales>
<clustering>
<clus scale="   80.391">  5  6 -1 -1</clus>
<clus scale="   91.508">  7  8 -1 -1</clus>
<clus scale="   91.681">  1  7  2 -1</clus>
<clus scale="  437.487">  2  9  1 -1</clus>
<clus scale="  437.487">  2  5  1 -1</clus>
</clustering>
</event>
<event>
 9    1  0.4731329E-005  0.1489845E+03  0.7546771E-02  0.1219853E+00
         21   -1    0    0  501  502  0.00000000000E+00  0.00000000000E+00  0.17021981199E+03  0.17021981199E+03  0.00000000000E+00 0. -1.
          3   -1    0    0  502    0 -0.00000000000E+00 -0.00000000000E+00 -0.44404805401E+03  0.44404805401E+03  0.00000000000E+00 0. -1.
         23    2    1    2    0    0 -0.70715766627E+01  0.39015890495E+02 -0.23665245579E+03  0.25738950480E+03  0.93127468802E+02 0.  0.
        -24    2    1    2    0    0 -0.77758677152E+02  0.60682646785E+02 -0.14090706485E+03  0.18985695999E+03  0.80386994226E+02 0.  0.
         11    1    4    4    0    0 -0.27054827409E+02  0.65911177282E+02 -0.55165692508E+02  0.90108271578E+02  0.00000000000E+00 0. -1.
        -12    1    4    4    0    0 -0.50703849743E+02 -0.52285304971E+01 -0.85741372339E+02  0.99748688415E+02  0.00000000000E+00 0.  1.
        -11    1    3    3    0    0  0.30270565078E+02 -0.14239460535E+02 -0.11055435685E+03  0.11550469759E+03  0.00000000000E+00 0.  1.
         11    1    3    3    0    0 -0.37342141741E+02  0.53255351030E+02 -0.12609809894E+03  0.14188480722E+03  0.00000000000E+00 0. -1.
          4    1    1    2  501    0  0.84830253815E+02 -0.99698537281E+02  0.10373127861E+03  0.16702140120E+03  0.00000000000E+00 0. -1.
<scales pt_clust_5="13000.00000" pt_clust_6="13000.00000" pt_clust_7="13000.00000" pt_clust_8="13000.00000" pt_clust_9="125.43651"></scales>
<clustering>
<clus scale="   80.387">  5  6 -1 -1</clus>
<clus scale="   93.127">  7  8 -1 -1</clus>
<clus scale="  101.217">  2  7  1 -1</clus>
<clus scale="  125.437">  1  9  2 -1</clus>
<clus scale="  125.437">  1  5  2 -1</clus>
</clustering>
</event>
<event>
 9    1  0.4731329E-005  0.1245821E+03  0.7546771E-02  0.1239330E+00
         21   -1    0    0  501  502  0.00000000000E+00  0.00000000000E+00  0.41485168837E+03  0.41485168837E+03  0.00000000000E+00 0. -1.
          3   -1    0    0  502    0 -0.00000000000E+00 -0.00000000000E+00 -0.90745096999E+02  0.90745096999E+02  0.00000000000E+00 0. -1.
         23    2    1    2    0    0 -0.80637808427E+02 -0.50305143129E+02  0.16515513237E+02  0.13459390283E+03  0.93859964465E+02 0.  0.
        -24    2    1    2    0    0  0.46353763101E+02  0.48824059872E+02  0.61398119655E+02  0.12242983054E+03  0.81773309423E+02 0.  0.
         13    1    4    4    0    0  0.12950687005E+01  0.55872383716E+02  0.16123664997E+02  0.58166769190E+02  0.00000000000E+00 0. -1.
        -14    1    4    4    0    0  0.45058694400E+02 -0.70483238440E+01  0.45274454659E+02  0.64263061355E+02  0.00000000000E+00 0.  1.
        -13    1    3    3    0    0 -0.70400765287E+02  0.67794453212E+01 -0.88808055344E+01  0.71281816326E+02  0.00000000000E+00 0. -1.
         13    1    3    3    0    0 -0.10237043140E+02 -0.57084588450E+02  0.25396318772E+02  0.63312086507E+02  0.00000000000E+00 0.  1.
          4    1    1    2  501    0  0.34284045326E+02  0.14810832570E+01  0.24619295848E+03  0.24857305199E+03  0.00000000000E+00 0. -1.
<scales pt_clust_5="13000.00000" pt_clust_6="13000.00000" pt_clust_7="13000.00000" pt_clust_8="13000.00000" pt_clust_9="34.31602"></scales>
<clustering>
<clus scale="   34.316">  1  9  2 -1</clus>
<clus scale="   81.773">  5  6 -1 -1</clus>
<clus scale="   93.860">  7  8 -1 -1</clus>
<clus scale="  115.749">  1  5  2 -1</clus>
<clus scale="   34.316">  1  5  2 -1</clus>
</clustering>
</event>
<event>
 9    1  0.4731329E-005  0.2513266E+03  0.7546771E-02  0.1113137E+00
         21   -1    0    0  501  502  0.00000000000E+00  0.00000000000E+00  0.38758836325E+03  0.38758836325E+03  0.00000000000E+00 0. -1.
          1   -1    0    0  502    0 -0.00000000000E+00 -0.00000000000E+00 -0.63247281865E+03  0.63247281865E+03  0.00000000000E+00 0. -1.
         23    2    1    2    0    0  0.15111896010E+03  0.20167683990E+03 -0.48254966332E+03  0.55190100521E+03  0.90719645713E+02 0.  0.
        -24    2    1    2    0    0 -0.18510953174E+03 -0.72173757781E+02  0.22483884931E+02  0.21472496011E+03  0.78273196952E+02 0.  0.
         11    1    4    4    0    0 -0.48877733362E+02  0.14774658988E+02  0.13721472200E+02  0.52873454267E+02  0.00000000000E+00 0. -1.
        -12    1    4    4    0    0 -0.13623179837E+03 -0.86948416769E+02  0.87624127310E+01  0.16185150584E+03  0.00000000000E+00 0.  1.
        -13    1    3    3    0    0  0.82381913080E+02  0.77462574442E+02 -0.30029102971E+03  0.32087681837E+03  0.00000000000E+00 0.  1.
         13    1    3    3    0    0  0.68737047021E+02  0.12421426546E+03 -0.18225863361E+03  0.23102418684E+03  0.00000000000E+00 0. -1.
          2    1    1    2  501    0  0.33990571634E+02 -0.12950308212E+03  0.21518132300E+03  0.25343521659E+03  0.00000000000E+00 0. -1.
<scales pt_clust_5="13000.00000" pt_clust_6="13000.00000" pt_clust_7="13000.00000" pt_clust_8="13000.00000" pt_clust_9="133.88953"></scales>
<clustering>
<clus scale="   78.273">  5  6 -1 -1</clus>
<clus scale="   90.720">  7  8 -1 -1</clus>
<clus scale="  133.890">  1  9  2 -1</clus>
<clus scale="  247.107">  1  5  2 -1</clus>
<clus scale="  133.890">  1  5  2 -1</clus>
</clustering>
</event>
<event>
 9    1  0.4731329E-005  0.1998087E+03  0.7546771E-02  0.1151729E+00
          3   -1    0    0  502    0 -0.00000000000E+00  0.00000000000E+00  0.11246551623E+03  0.11246551623E+03  0.00000000000E+00 0. -1.
         21   -1    0    0  501  502  0.00000000000E+00 -0.00000000000E+00 -0.61174784476E+03  0.61174784476E+03  0.00000000000E+00 0.  1.
        -24    2    1    2    0    0  0.16791621888E+03  0.11970901344E+03 -0.77187323415E+02  0.23340693280E+03  0.77426151409E+02 0.  0.
         23    2    1    2    0    0 -0.10927808233E+03 -0.66450676530E+02 -0.20806535056E+03  0.26258816743E+03  0.96457057209E+02 0.  0.
         11    1    3    3    0    0  0.10661861708E+03  0.28996406980E+02 -0.32661629833E+02  0.11521763402E+03  0.00000000000E+00 0. -1.
        -12    1    3    3    0    0  0.61297601798E+02  0.90712606465E+02 -0.44525693582E+02  0.11818929878E+03  0.00000000000E+00 0.  1.
        -11    1    4    4    0    0 -0.41304791471E+02 -0.54320771229E+02 -0.17123587080E+03  0.18433273023E+03  0.00000000000E+00 0.  1.
         11    1    4    4    0    0 -0.67973290858E+02 -0.12129905301E+02 -0.36829479754E+02  0.78255437201E+02  0.00000000000E+00 0. -1.
          4    1    1    2  501    0 -0.58638136548E+02 -0.53258336914E+02 -0.21402965456E+03  0.22821826075E+03  0.00000000000E+00 0. -1.
<scales pt_clust_5="13000.00000" pt_clust_6="13000.00000" pt_clust_7="13000.00000" pt_clust_8="13000.00000" pt_clust_9="79.21415"></scales>
<clustering>
<clus scale="   77.426">  5  6 -1 -1</clus>
<clus scale="   79.214">  2  9  1 -1</clus>
<clus scale="   96.457">  7  8 -1 -1</clus>
<clus scale="  191.349">  1  5  2 -1</clus>
<clus scale="   79.214">  2  5  1 -1</clus>
</clustering>
</event>
<event>
 9    1  0.4731329E-005  0.3092109E+03  0.7546771E-02  0.1081167E+00
          1   -1    0    0  502    0 -0.00000000000E+00  0.00000000000E+00  0.85019401831E+02  0.85019401831E+02  0.00000000000E+00 0. -1.
         21   -1    0    0  501  502  0.00000000000E+00 -0.00000000000E+00 -0.19159786633E+04  0.19159786633E+04  0.00000000000E+00 0. -1.
         23    2    1    2    0    0 -0.14405925673E+03 -0.19829919571E+03 -0.72991482186E+03  0.77533375608E+03  0.91055728414E+02 0.  0.
        -24    2    1    2    0    0  0.13702400585E+03  0.33923514867E+03 -0.93922007126E+03  0.10109562194E+04  0.77730759314E+02 0.  0.
         13    1    4    4    0    0  0.95284746836E+02  0.21292773822E+03 -0.69136465872E+03  0.72965916428E+03  0.00000000000E+00 0. -1.
        -14    1    4    4    0    0  0.41739259013E+02  0.12630741044E+03 -0.24785541253E+03  0.28129705508E+03  0.00000000000E+00 0.  1.
        -11    1    3    3    0    0 -0.92893693515E+02 -0.15135849135E+03 -0.62326222712E+03  0.64806977630E+03  0.00000000000E+00 0. -1.
         11    1    3    3    0    0 -0.51165563212E+02 -0.46940704365E+02 -0.10665259475E+03  0.12726397979E+03  0.00000000000E+00 0.  1.
          2    1    1    2  501    0  0.70352508787E+01 -0.14093595295E+03 -0.16182436840E+03  0.21470808973E+03  0.00000000000E+00 0. -1.
<scales pt_clust_5="13000.00000" pt_clust_6="13000.00000" pt_clust_7="13000.00000" pt_clust_8="13000.00000" pt_clust_9="141.11151"></scales>
<clustering>
<clus scale="   77.731">  5  6 -1 -1</clus>
<clus scale="   91.056">  7  8 -1 -1</clus>
<clus scale="  141.112">  2  9  1 -1</clus>
<clus scale="  305.552">  2  5  1 -1</clus>
<clus scale="  141.112">  2  5  1 -1</clus>
</clustering>
</event>
<event>
 9    1  0.4731329E-005  0.1052111E+03  0.7546771E-02  0.1275295E+00
         21   -1    0    0  501  502  0.00000000000E+00  0.00000000000E+00  0.31501358548E+03  0.31501358548E+03  0.00000000000E+00 0. -1.
         -4   -1    0    0    0  501 -0.00000000000E+00 -0.00000000000E+00 -0.10947881425E+03  0.10947881425E+03  0.00000000000E+00 0.  1.
         23    2    1    2    0    0 -0.52470683905E+02 -0.77016654082E+01 -0.55265361495E+02  0.11833570499E+03  0.90203051908E+02 0.  0.
        -24    2    1    2    0    0  0.61011223777E+02 -0.28456278186E+02  0.10820844157E+03  0.14910714231E+03  0.77406355473E+02 0.  0.
         11    1    4    4    0    0  0.44061011554E+02  0.10634410170E+02  0.93717392896E+02  0.10410289693E+03  0.00000000000E+00 0. -1.
        -12    1    4    4    0    0  0.16950212223E+02 -0.39090688356E+02  0.14491048671E+02  0.45004245379E+02  0.00000000000E+00 0.  1.
        -11    1    3    3    0    0 -0.53450564766E+02 -0.43248499037E+02 -0.40766921994E+02  0.79933331419E+02  0.00000000000E+00 0. -1.
         11    1    3    3    0    0  0.97988086089E+00  0.35546833629E+02 -0.14498439500E+02  0.38402373566E+02  0.00000000000E+00 0.  1.
         -3    1    1    2    0  502 -0.85405398720E+01  0.36157943594E+02  0.15259169117E+03  0.15704955243E+03  0.00000000000E+00 0.  1.
<scales pt_clust_5="13000.00000" pt_clust_6="13000.00000" pt_clust_7="13000.00000" pt_clust_8="13000.00000" pt_clust_9="37.15290"></scales>
<clustering>
<clus scale="   37.153">  1  9  2 -1</clus>
<clus scale="   77.406">  5  6 -1 -1</clus>
<clus scale="   90.203">  7  8 -1 -1</clus>
<clus scale="   94.470">  1  5  2 -1</clus>
<clus scale="   37.153">  1  5  2 -1</clus>
</clustering>
</event>
<event>
 9    1  0.4731329E-005  0.9612976E+02  0.7546771E-02  0.1296935E+00
          1   -1    0    0  502    0 -0.00000000000E+00  0.00000000000E+00  0.58897624971E+03  0.58897624971E+03  0.00000000000E+00 0. -1.
         21   -1    0    0  501  502  0.00000000000E+00 -0.00000000000E+00 -0.74439749903E+02  0.74439749903E+02  0.00000000000E+00 0.  1.
         23    2    1    2    0    0  0.72430537606E+00 -0.12792212293E+02  0.49196317215E+03  0.50125131101E+03  0.95189015752E+02 0.  0.
        -24    2    1    2    0    0 -0.47385081353E+02  0.12608495110E+02 -0.22218763723E+02  0.97483986562E+02  0.81271976048E+02 0.  0.
         11    1    4    4    0    0 -0.31053067967E+02  0.13511562245E+02  0.28456802711E+02  0.44233979755E+02  0.00000000000E+00 0. -1.
        -12    1    4    4    0    0 -0.16332013386E+02 -0.90306713509E+00 -0.50675566434E+02  0.53250006806E+02  0.00000000000E+00 0.  1.
        -13    1    3    3    0    0 -0.40483398979E+01  0.41245637114E+02  0.19196169568E+03  0.19638453159E+03  0.00000000000E+00 0.  1.
         13    1    3    3    0    0  0.47726452740E+01 -0.54037849407E+02  0.30000147647E+03  0.30486677942E+03  0.00000000000E+00 0. -1.
          2    1    1    2  501    0  0.46660775977E+02  0.18371718344E+00  0.44792091377E+02  0.64680702043E+02  0.00000000000E+00 0. -1.
<scales pt_clust_5="13000.00000" pt_clust_6="13000.00000" pt_clust_7="13000.00000" pt_clust_8="13000.00000" pt_clust_9="46.66114"></scales>
<clustering>
<clus scale="   46.661">  2  9  1 -1</clus>
<clus scale="   81.272">  5  6 -1 -1</clus>
<clus scale="   82.372">  2  5  1 -1</clus>
<clus scale="   95.189">  7  8 -1 -1</clus>
<clus scale="   46.661">  2  5  1 -1</clus>
</clustering>
</event>
<event>
 9    1  0.4731329E-005  0.1974720E+03  0.7546771E-02  0.1170426E+00
         21   -1    0    0  501  502  0.00000000000E+00  0.00000000000E+00  0.15427460446E+03  0.15427460446E+03  0.00000000000E+00 0.  1.
          1   -1    0    0  502    0 -0.00000000000E+00 -0.00000000000E+00 -0.52762139787E+03  0.52762139787E+03  0.00000000000E+00 0. -1.
        -24    2    1    2    0    0 -0.27991584727E+02 -0.96077907774E+02 -0.24149442182E+03  0.27349533619E+03  0.80409265424E+02 0.  0.
         23    2    1    2    0    0  0.81971414429E+02 -0.11240479084E+03 -0.91716048281E+02  0.18933496348E+03  0.89898526657E+02 0.  0.
         13    1    3    3    0    0  0.83941413361E+01 -0.44405785684E+02 -0.17899842440E+03  0.18461519804E+03  0.00000000000E+00 0. -1.
        -14    1    3    3    0    0 -0.36385726063E+02 -0.51672122091E+02 -0.62495997427E+02  0.88880138146E+02  0.00000000000E+00 0.  1.
        -13    1    4    4    0    0  0.46200782315E+02 -0.90391381623E+02 -0.10424310474E+03  0.14550511690E+03  0.00000000000E+00 0. -1.
         13    1    4    4    0    0  0.35770632114E+02 -0.22013409217E+02  0.12527056461E+02  0.43829846575E+02  0.00000000000E+00 0.  1.
          2    1    1    2  501    0 -0.53979829702E+02  0.20848269861E+03 -0.40136323311E+02  0.21906570267E+03  0.00000000000E+00 0. -1.
<scales pt_clust_5="13000.00000" pt_clust_6="13000.00000" pt_clust_7="13000.00000" pt_clust_8="13000.00000" pt_clust_9="175.82228"></scales>
<clustering>
<clus scale="   80.409">  5  6 -1 -1</clus>
<clus scale="   89.899">  7  8 -1 -1</clus>
<clus scale="  128.375">  2  5  1 -1</clus>
<clus scale="  175.822">  1  9  2 -1</clus>
<clus scale="  175.822">  1  5  2 -1</clus>
</clustering>
</event>
<event>
 9    1  0.4731329E-005  0.1679329E+03  0.7546771E-02  0.1183343E+00
         21   -1    0    0  501  502  0.00000000000E+00  0.00000000000E+00  0.38921736444E+02  0.38921736444E+02  0.00000000000E+00 0.  1.
          1   -1    0    0  502    0 -0.00000000000E+00 -0.00000000000E+00 -0.12249746153E+04  0.12249746153E+04  0.00000000000E+00 0. -1.
         23    2    1    2    0    0 -0.33819037062E+02  0.17925918238E+03 -0.73331211595E+03  0.76212804439E+03  0.99070252402E+02 0.  0.
        -24    2    1    2    0    0  0.40250737315E+02 -0.83792414421E+02 -0.25074633689E+03  0.27825763939E+03  0.76891467995E+02 0.  0.
         11    1    4    4    0    0  0.23231529656E+02  0.45703060507E-01 -0.11848345731E+03  0.12073953667E+03  0.00000000000E+00 0. -1.
        -12    1    4    4    0    0  0.17019207658E+02 -0.83838117481E+02 -0.13226287957E+03  0.15751810272E+03  0.00000000000E+00 0.  1.
        -11    1    3    3    0    0  0.21317560275E+02  0.13558030729E+03 -0.48521162755E+03  0.50424872991E+03  0.00000000000E+00 0.  1.
         11    1    3    3    0    0 -0.55136597336E+02  0.43678875090E+02 -0.24810048840E+03  0.25787931448E+03  0.00000000000E+00 0. -1.
          2    1    1    2  501    0 -0.64317002529E+01 -0.95466767955E+02 -0.20199442607E+03  0.22351066801E+03  0.00000000000E+00 0. -1.
<scales pt_clust_5="13000.00000" pt_clust_6="13000.00000" pt_clust_7="13000.00000" pt_clust_8="13000.00000" pt_clust_9="95.68318"></scales>
<clustering>
<clus scale="   76.891">  5  6 -1 -1</clus>
<clus scale="   95.683">  1  9  2 -1</clus>
<clus scale="   99.070">  7  8 -1 -1</clus>
<clus scale="  155.881">  1  5  2 -1</clus>
<clus scale="   95.683">  1  5  2 -1</clus>
</clustering>
</event>
<event>
 9    1  0.4731329E-005  0.9083925E+02  0.7546771E-02  0.1317118E+00
         21   -1    0    0  501  502  0.00000000000E+00  0.00000000000E+00  0.14015769491E+03  0.14015769491E+03  0.00000000000E+00 0. -1.
          1   -1    0    0  502    0 -0.00000000000E+00 -0.00000000000E+00 -0.10594548151E+03  0.10594548151E+03  0.00000000000E+00 0. -1.
         23    2    1    2    0    0 -0.26258836568E+01  0.46940068019E+01 -0.55590232539E+02  0.10658619872E+03  0.90782238564E+02 0.  0.
        -24    2    1    2    0    0 -0.23524280802E+01  0.20001987146E+02  0.33816429276E+02  0.78123901817E+02  0.67484662986E+02 0.  0.
         13    1    4    4    0    0  0.31033257774E+00  0.41023292031E+02  0.35504825309E+01  0.41177818320E+02  0.00000000000E+00 0. -1.
        -14    1    4    4    0    0 -0.26627606579E+01 -0.21021304885E+02  0.30265946745E+02  0.36946083497E+02  0.00000000000E+00 0.  1.
        -11    1    3    3    0    0  0.42944454432E+02 -0.40723658939E+01 -0.17507387045E+02  0.46554472734E+02  0.00000000000E+00 0.  1.
         11    1    3    3    0    0 -0.45570338089E+02  0.87663726958E+01 -0.38082845494E+02  0.60031725984E+02  0.00000000000E+00 0. -1.
          2    1    1    2  501    0  0.49783117370E+01 -0.24695993948E+02  0.55986016661E+02  0.61393075883E+02  0.00000000000E+00 0. -1.
<scales pt_clust_5="13000.00000" pt_clust_6="13000.00000" pt_clust_7="13000.00000" pt_clust_8="13000.00000" pt_clust_9="25.19277"></scales>
<clustering>
<clus scale="   25.193">  1  9  2 -1</clus>
<clus scale="   67.485">  5  6 -1 -1</clus>
<clus scale="   67.561">  1  5  2 -1</clus>
<clus scale="   90.782">  7  8 -1 -1</clus>
<clus scale="   25.193">  1  5  2 -1</clus>
</clustering>
</event>
<event>
 9    1  0.4731329E-005  0.1005324E+03  0.7546771E-02  0.1282111E+00
         21   -1    0    0  501  502  0.00000000000E+00  0.00000000000E+00  0.12762281073E+03  0.12762281073E+03  0.00000000000E+00 0.  1.
          1   -1    0    0  502    0 -0.00000000000E+00 -0.00000000000E+00 -0.13387562737E+03  0.13387562737E+03  0.00000000000E+00 0. -1.
         23    2    1    2    0    0 -0.61368271598E+02 -0.31914661741E+02 -0.28226515440E+02  0.11698725927E+03  0.90025953287E+02 0.  0.
        -24    2    1    2    0    0  0.73859799594E+01  0.16287386689E+02  0.20947207265E+02  0.88303054671E+02  0.83897629925E+02 0.  0.
         13    1    4    4    0    0 -0.33766197126E+02  0.26392564110E+02  0.15527376203E+02  0.45583142941E+02  0.00000000000E+00 0. -1.
        -14    1    4    4    0    0  0.41152177085E+02 -0.10105177421E+02  0.54198310618E+01  0.42719911731E+02  0.00000000000E+00 0.  1.
        -13    1    3    3    0    0 -0.77731895915E+02 -0.47037557749E+02 -0.26486528942E+02  0.94637813251E+02  0.00000000000E+00 0. -1.
         13    1    3    3    0    0  0.16363624317E+02  0.15122896008E+02 -0.17399864986E+01  0.22349446022E+02  0.00000000000E+00 0.  1.
          2    1    1    2  501    0  0.53982291639E+02  0.15627275052E+02  0.10264915389E+01  0.56208124155E+02  0.00000000000E+00 0. -1.
<scales pt_clust_5="13000.00000" pt_clust_6="13000.00000" pt_clust_7="13000.00000" pt_clust_8="13000.00000" pt_clust_9="56.19875"></scales>
<clustering>
<clus scale="   56.199">  1  9  2 -1</clus>
<clus scale="   83.898">  5  6 -1 -1</clus>
<clus scale="   90.026">  7  8 -1 -1</clus>
<clus scale="   95.084">  1  5  2 -1</clus>
<clus scale="   56.199">  1  5  2 -1</clus>
</clustering>
</event>
<event>
 9    1  0.4731329E-005  0.9765170E+02  0.7546771E-02  0.1289423E+00
          1   -1    0    0  502    0 -0.00000000000E+00  0.00000000000E+00  0.13040266927E+03  0.13040266927E+03  0.00000000000E+00 0. -1.
         21   -1    0    0  501  502  0.00000000000E+00 -0.00000000000E+00 -0.22341227561E+03  0.22341227561E+03  0.00000000000E+00 0. -1.
         23    2    1    2    0    0  0.14040887322E+02 -0.30665930084E+02  0.78281604165E+02  0.12441417725E+03  0.90627436046E+02 0.  0.
        -24    2    1    2    0    0 -0.56910600524E+02  0.23477097406E+02 -0.88546382413E+02  0.13593313580E+03  0.82748806734E+02 0.  0.
         11    1    4    4    0    0 -0.35048843198E+02  0.50249798096E+02 -0.30651864578E+02  0.68505477302E+02  0.00000000000E+00 0. -1.
        -12    1    4    4    0    0 -0.21861757326E+02 -0.26772700689E+02 -0.57894517835E+02  0.67427658501E+02  0.00000000000E+00 0.  1.
        -13    1    3    3    0    0 -0.29805072368E+02  0.13126477575E+02  0.15042774076E+02  0.35873831748E+02  0.00000000000E+00 0. -1.
         13    1    3    3    0    0  0.43845959690E+02 -0.43792407660E+02  0.63238830089E+02  0.88540345497E+02  0.00000000000E+00 0.  1.
          2    1    1    2  501    0  0.42869713202E+02  0.71888326779E+01 -0.82744828090E+02  0.93467631835E+02  0.00000000000E+00 0. -1.
<scales pt_clust_5="13000.00000" pt_clust_6="13000.00000" pt_clust_7="13000.00000" pt_clust_8="13000.00000" pt_clust_9="43.46828"></scales>
<clustering>
<clus scale="   43.468">  2  9  1 -1</clus>
<clus scale="   82.749">  5  6 -1 -1</clus>
<clus scale="   90.387">  2  5  1 -1</clus>
<clus scale="   90.627">  7  8 -1 -1</clus>
<clus scale="   43.468">  2  5  1 -1</clus>
</clustering>
</event>
<event>
 9    1  0.4731329E-005  0.9180420E+02  0.7546771E-02  0.1304992E+00
         21   -1    0    0  501  502  0.00000000000E+00  0.00000000000E+00  0.81972658805E+02  0.81972658805E+02  0.00000000000E+00 0. -1.
          3   -1    0    0  502    0 -0.00000000000E+00 -0.00000000000E+00 -0.14654660944E+03  0.14654660944E+03  0.00000000000E+00 0. -1.
        -24    2    1    2    0    0 -0.61420541129E+00 -0.19952828663E+02 -0.64028088435E+02  0.10476452178E+03  0.80483018670E+02 0.  0.
         23    2    1    2    0    0 -0.15930649123E+02 -0.58698644230E+01  0.50494451251E+01  0.92580219143E+02  0.90870012604E+02 0.  0.
         11    1    3    3    0    0 -0.38796466749E+02 -0.35303488606E+01 -0.43543617215E+02  0.58426670241E+02  0.00000000000E+00 0. -1.
        -12    1    3    3    0    0  0.38182261337E+02 -0.16422479802E+02 -0.20484471219E+02  0.46337851534E+02  0.00000000000E+00 0.  1.
        -11    1    4    4    0    0 -0.33479315173E+02 -0.35975745348E+02 -0.16224161962E+02  0.51752702626E+02  0.00000000000E+00 0. -1.
         11    1    4    4    0    0  0.17548666050E+02  0.30105880925E+02  0.21273607087E+02  0.40827516516E+02  0.00000000000E+00 0.  1.
          4    1    1    2  501    0  0.16544854534E+02  0.25822693086E+02 -0.55953073211E+01  0.31174527322E+02  0.00000000000E+00 0. -1.
<scales pt_clust_5="13000.00000" pt_clust_6="13000.00000" pt_clust_7="13000.00000" pt_clust_8="13000.00000" pt_clust_9="30.66828"></scales>
<clustering>
<clus scale="   30.668">  1  9  2 -1</clus>
<clus scale="   80.483">  5  6 -1 -1</clus>
<clus scale="   81.536">  2  5  1 -1</clus>
<clus scale="   90.870">  7  8 -1 -1</clus>
<clus scale="   30.668">  1  5  2 -1</clus>
</clustering>
</event>
<event>
 9    1  0.4731329E-005  0.9022898E+02  0.7546771E-02  0.1305551E+00
         -2   -1    0    0    0  501 -0.00000000000E+00  0.00000000000E+00  0.68304495027E+02  0.68304495027E+02  0.00000000000E+00 0.  1.
         21   -1    0    0  501  502  0.00000000000E+00 -0.00000000000E+00 -0.33437124315E+03  0.33437124315E+03  0.00000000000E+00 0. -1.
         23    2    1    2    0    0 -0.22544750786E+02  0.27845711917E+02 -0.30812867991E+02  0.97592485105E+02  0.85388587381E+02 0.  0.
        -24    2    1    2    0    0  0.43844317211E+02  0.49333237642E+02 -0.18040045229E+03  0.20803089436E+03  0.79852597550E+02 0.  0.
         11    1    4    4    0    0  0.65051938321E+02  0.38312778085E+02 -0.15872933899E+03  0.17576867383E+03  0.00000000000E+00 0. -1.
        -12    1    4    4    0    0 -0.21207621110E+02  0.11020459556E+02 -0.21671113294E+02  0.32262220528E+02  0.00000000000E+00 0.  1.
        -11    1    3    3    0    0 -0.35919015994E+02  0.49012351875E+02 -0.39843082432E+01  0.60895492924E+02  0.00000000000E+00 0.  1.
         11    1    3    3    0    0  0.13374265208E+02 -0.21166639958E+02 -0.26828559748E+02  0.36696992181E+02  0.00000000000E+00 0. -1.
         -1    1    1    2    0  502 -0.21299566425E+02 -0.77178949558E+02 -0.54853427840E+02  0.97052358707E+02  0.00000000000E+00 0.  1.
<scales pt_clust_5="13000.00000" pt_clust_6="13000.00000" pt_clust_7="13000.00000" pt_clust_8="13000.00000" pt_clust_9="80.06415"></scales>
<clustering>
<clus scale="   79.853">  5  6 -1 -1</clus>
<clus scale="   80.064">  2  9  1 -1</clus>
<clus scale="   85.009">  2  5  1 -1</clus>
<clus scale="   85.389">  7  8 -1 -1</clus>
<clus scale="   80.064">  2  5  1 -1</clus>
</clustering>
</event>
<event>
 9    1  0.4731329E-005  0.1171749E+03  0.7546771E-02  0.1252233E+00
          1   -1    0    0  502    0 -0.00000000000E+00  0.00000000000E+00  0.83989644872E+03  0.83989644872E+03  0.00000000000E+00 0. -1.
         21   -1    0    0  501  502  0.00000000000E+00 -0.00000000000E+00 -0.29572924051E+02  0.29572924051E+02  0.00000000000E+00 0. -1.
        -24    2    1    2    0    0  0.22445825099E+02  0.42278009137E+02  0.29185040983E+03  0.30626273177E+03  0.79554723508E+02 0.  0.
         23    2    1    2    0    0 -0.48774643513E+02 -0.10151640352E+03  0.42637873778E+03  0.45058440370E+03  0.92427976251E+02 0.  0.
         11    1    3    3    0    0 -0.80949797213E+01 -0.18559840024E+02  0.11488877940E+03  0.11665945307E+03  0.00000000000E+00 0. -1.
        -12    1    3    3    0    0  0.30540804820E+02  0.60837849161E+02  0.17696163043E+03  0.18960327870E+03  0.00000000000E+00 0.  1.
        -13    1    4    4    0    0 -0.55378166838E+02 -0.25753321988E+02  0.26830040081E+03  0.27516373314E+03  0.00000000000E+00 0.  1.
         13    1    4    4    0    0  0.66035233252E+01 -0.75763081535E+02  0.15807833697E+03  0.17542067057E+03  0.00000000000E+00 0. -1.
          2    1    1    2  501    0  0.26328818414E+02  0.59238394386E+02  0.92094377064E+02  0.11262223730E+03  0.00000000000E+00 0. -1.
<scales pt_clust_5="13000.00000" pt_clust_6="13000.00000" pt_clust_7="13000.00000" pt_clust_8="13000.00000" pt_clust_9="64.82587"></scales>
<clustering>
<clus scale="   64.826">  2  9  1 -1</clus>
<clus scale="   79.555">  5  6 -1 -1</clus>
<clus scale="   92.428">  7  8 -1 -1</clus>
<clus scale="  107.312">  1  5  2 -1</clus>
<clus scale="   64.826">  2  5  1 -1</clus>
</clustering>
</event>
<event>
 9    1  0.4731329E-005  0.1782543E+03  0.7546771E-02  0.1170661E+00
          3   -1    0    0  502    0 -0.00000000000E+00  0.00000000000E+00  0.58079318723E+03  0.58079318723E+03  0.00000000000E+00 0. -1.
         21   -1    0    0  501  502  0.00000000000E+00 -0.00000000000E+00 -0.31849432675E+03  0.31849432675E+03  0.00000000000E+00 0. -1.
         23    2    1    2    0    0 -0.11095421275E+02 -0.16373810278E+03  0.52188974510E+03  0.55455557609E+03  0.90717728421E+02 0.  0.
        -24    2    1    2    0    0  0.48656413415E+02  0.69966213993E+02 -0.93434521943E+02  0.15027903327E+03  0.81185345250E+02 0.  0.
         11    1    4    4    0    0  0.35875007606E+02  0.26370428273E+01 -0.68466140566E+02  0.77340691551E+02  0.00000000000E+00 0. -1.
        -12    1    4    4    0    0  0.12781405809E+02  0.67329171166E+02 -0.24968381377E+02  0.72938341721E+02  0.00000000000E+00 0.  1.
        -11    1    3    3    0    0 -0.28022059396E+02 -0.56904098005E+02  0.31255818603E+03  0.31892935242E+03  0.00000000000E+00 0. -1.
         11    1    3    3    0    0  0.16926638121E+02 -0.10683400477E+03  0.20933155907E+03  0.23562622366E+03  0.00000000000E+00 0.  1.
          4    1    1    2  501    0 -0.37560992141E+02  0.93771888782E+02 -0.16615636268E+03  0.19445290462E+03  0.00000000000E+00 0. -1.
<scales pt_clust_5="13000.00000" pt_clust_6="13000.00000" pt_clust_7="13000.00000" pt_clust_8="13000.00000" pt_clust_9="101.01483"></scales>
<clustering>
<clus scale="   81.185">  5  6 -1 -1</clus>
<clus scale="   90.718">  7  8 -1 -1</clus>
<clus scale="  101.015">  2  9  1 -1</clus>
<clus scale="  173.597">  2  5  1 -1</clus>
<clus scale="  101.015">  2  5  1 -1</clus>
</clustering>
</event>
<event>
 9    1  0.4731329E-005  0.1575605E+03  0.7546771E-02  0.1201787E+00
         21   -1    0    0  501  502  0.00000000000E+00  0.00000000000E+00  0.12048150584E+03  0.12048150584E+03  0.00000000000E+00 0.  1.
         -4   -1    0    0    0  501 -0.00000000000E+00 -0.00000000000E+00 -0.40788287207E+03  0.40788287207E+03  0.00000000000E+00 0.  1.
        -24    2    1    2    0    0 -0.94404711196E+02  0.25270501751E+02 -0.12548131806E+03  0.17767803238E+03  0.79202741464E+02 0.  0.
         23    2    1    2    0    0 -0.64632392235E+02 -0.83971043327E+02 -0.61198928737E+02  0.15349786273E+03  0.92670398406E+02 0.  0.
         11    1    3    3    0    0 -0.48962956349E+02  0.52950301789E+02 -0.64583129524E+02  0.96809535548E+02  0.00000000000E+00 0. -1.
        -12    1    3    3    0    0 -0.45441754848E+02 -0.27679800038E+02 -0.60898188532E+02  0.80868496835E+02  0.00000000000E+00 0.  1.
        -13    1    4    4    0    0  0.22285873899E+02 -0.16530790724E+02 -0.25907964343E+02  0.37962479290E+02  0.00000000000E+00 0. -1.
         13    1    4    4    0    0 -0.86918266134E+02 -0.67440252603E+02 -0.35290964393E+02  0.11553538344E+03  0.00000000000E+00 0.  1.
         -3    1    1    2    0  502  0.15903710343E+03  0.58700541576E+02 -0.10072111943E+03  0.19718848280E+03  0.00000000000E+00 0.  1.
<scales pt_clust_5="13000.00000" pt_clust_6="13000.00000" pt_clust_7="13000.00000" pt_clust_8="13000.00000" pt_clust_9="127.42650"></scales>
<clustering>
<clus scale="   79.203">  5  6 -1 -1</clus>
<clus scale="   92.670">  7  8 -1 -1</clus>
<clus scale="  125.793">  2  5  1 -1</clus>
<clus scale="  127.427">  1  9  2 -1</clus>
<clus scale="  127.427">  1  5  2 -1</clus>
</clustering>
</event>
<event>
 9    1  0.4731329E-005  0.1672106E+03  0.7546771E-02  0.1182163E+00
          1   -1    0    0  502    0 -0.00000000000E+00  0.00000000000E+00  0.38654976436E+03  0.38654976436E+03  0.00000000000E+00 0. -1.
         21   -1    0    0  501  502  0.00000000000E+00 -0.00000000000E+00 -0.20100729335E+03  0.20100729335E+03  0.00000000000E+00 0. -1.
        -24    2    1    2    0    0 -0.53310461559E+02 -0.12248075917E+03  0.27036484281E+03  0.31240307975E+03  0.81578148608E+02 0.  0.
         23    2    1    2    0    0  0.98657956855E+02  0.15314835356E+03 -0.48459760688E+02  0.20943384284E+03  0.91248975177E+02 0.  0.
         13    1    3    3    0    0 -0.59423547163E+02 -0.11031228818E+03  0.27121384663E+03  0.29875894880E+03  0.00000000000E+00 0. -1.
        -14    1    3    3    0    0  0.61130856038E+01 -0.12168470990E+02 -0.84900382681E+00  0.13644130949E+02  0.00000000000E+00 0.  1.
        -13    1    4    4    0    0 -0.76126670108E+01  0.51026552897E+02  0.67845556513E+01  0.52035487842E+02  0.00000000000E+00 0.  1.
         13    1    4    4    0    0  0.10627062387E+03  0.10212180066E+03 -0.55244316339E+02  0.15739835499E+03  0.00000000000E+00 0. -1.
          2    1    1    2  501    0 -0.45347495296E+02 -0.30667594385E+02 -0.36362611112E+02  0.65720135133E+02  0.00000000000E+00 0. -1.
<scales pt_clust_5="13000.00000" pt_clust_6="13000.00000" pt_clust_7="13000.00000" pt_clust_8="13000.00000" pt_clust_9="54.74392"></scales>
<clustering>
<clus scale="   54.744">  2  9  1 -1</clus>
<clus scale="   81.578">  5  6 -1 -1</clus>
<clus scale="   91.249">  7  8 -1 -1</clus>
<clus scale="  162.136">  1  5  2 -1</clus>
<clus scale="   54.744">  2  5  1 -1</clus>
</clustering>
</event>
<event>
 9    1  0.4731329E-005  0.9258854E+02  0.7546771E-02  0.1304923E+00
          1   -1    0    0  502    0 -0.00000000000E+00  0.00000000000E+00  0.69298022604E+03  0.69298022604E+03  0.00000000000E+00 0. -1.
         21   -1    0    0  501  502  0.00000000000E+00 -0.00000000000E+00 -0.16165528398E+03  0.16165528398E+03  0.00000000000E+00 0. -1.
        -24    2    1    2    0    0 -0.67579213023E+00 -0.83988093132E+00  0.49928431015E+03  0.50551021059E+03  0.79085956709E+02 0.  0.
         23    2    1    2    0    0 -0.41951302972E+02 -0.47774115210E+02  0.16608596546E+03  0.20030143944E+03  0.92162035646E+02 0.  0.
         13    1    3    3    0    0 -0.16070253965E+02  0.20700190142E+02  0.60548700393E+02  0.65976481064E+02  0.00000000000E+00 0. -1.
        -14    1    3    3    0    0  0.15394461834E+02 -0.21540071073E+02  0.43873560976E+03  0.43953372953E+03  0.00000000000E+00 0.  1.
        -11    1    4    4    0    0 -0.34848857889E+02 -0.11425128115E+02  0.74803984238E+01  0.37429036979E+02  0.00000000000E+00 0.  1.
         11    1    4    4    0    0 -0.71024450828E+01 -0.36348987095E+02  0.15860556703E+03  0.16287240246E+03  0.00000000000E+00 0. -1.
          2    1    1    2  501    0  0.42627095102E+02  0.48613996142E+02 -0.13404533355E+03  0.14882385999E+03  0.00000000000E+00 0. -1.
<scales pt_clust_5="13000.00000" pt_clust_6="13000.00000" pt_clust_7="13000.00000" pt_clust_8="13000.00000" pt_clust_9="64.65593"></scales>
<clustering>
<clus scale="   64.656">  2  9  1 -1</clus>
<clus scale="   79.086">  5  6 -1 -1</clus>
<clus scale="   79.583">  1  5  2 -1</clus>
<clus scale="   92.162">  7  8 -1 -1</clus>
<clus scale="   64.656">  2  5  1 -1</clus>
</clustering>
</event>
<event>
 9    1  0.4731329E-005  0.1121508E+03  0.7546771E-02  0.1261142E+00
          1   -1    0    0  502    0 -0.00000000000E+00  0.00000000000E+00  0.12358879747E+03  0.12358879747E+03  0.00000000000E+00 0. -1.
         21   -1    0    0  501  502  0.00000000000E+00 -0.00000000000E+00 -0.23013256405E+03  0.23013256405E+03  0.00000000000E+00 0. -1.
        -24    2    1    2    0    0 -0.34971600125E+02 -0.65069588750E+02  0.33020070035E+01  0.10999450387E+03  0.81429868202E+02 0.  0.
         23    2    1    2    0    0 -0.50225287388E+02  0.53175834972E+02 -0.10382043245E+03  0.15749301420E+03  0.93140315704E+02 0.  0.
         11    1    3    3    0    0 -0.27059894088E+02 -0.80594404486E+01  0.34456561231E+02  0.44547133019E+02  0.00000000000E+00 0. -1.
        -12    1    3    3    0    0 -0.79117060368E+01 -0.57010148301E+02 -0.31154554227E+02  0.65447370848E+02  0.00000000000E+00 0.  1.
        -13    1    4    4    0    0 -0.27027602846E+02 -0.46167412715E+01 -0.89482680949E+02  0.93589293220E+02  0.00000000000E+00 0. -1.
         13    1    4    4    0    0 -0.23197684541E+02  0.57792576244E+02 -0.14337751501E+02  0.63903720980E+02  0.00000000000E+00 0.  1.
          2    1    1    2  501    0  0.85196887512E+02  0.11893753778E+02 -0.60253411370E+01  0.86233843452E+02  0.00000000000E+00 0. -1.
<scales pt_clust_5="13000.00000" pt_clust_6="13000.00000" pt_clust_7="13000.00000" pt_clust_8="13000.00000" pt_clust_9="86.02313"></scales>
<clustering>
<clus scale="   81.430">  5  6 -1 -1</clus>
<clus scale="   86.023">  2  9  1 -1</clus>
<clus scale="   93.140">  7  8 -1 -1</clus>
<clus scale="  102.633">  1  5  2 -1</clus>
<clus scale="   86.023">  2  5  1 -1</clus>
</clustering>
</event>
<event>
 9    1  0.4731329E-005  0.9550175E+02  0.7546771E-02  0.1296791E+00
         21   -1    0    0  501  502  0.00000000000E+00  0.00000000000E+00  0.43042877609E+02  0.43042877609E+02  0.00000000000E+00 0.  1.
          1   -1    0    0  502    0 -0.00000000000E+00 -0.00000000000E+00 -0.39566993218E+03  0.39566993218E+03  0.00000000000E+00 0. -1.
         23    2    1    2    0    0  0.23847523622E+02 -0.13011076620E+02 -0.30497150030E+03  0.31972452339E+03  0.92076937197E+02 0.  0.
        -24    2    1    2    0    0 -0.43344756576E+01  0.26098208951E+02 -0.30528063973E+02  0.89912815682E+02  0.80327128320E+02 0.  0.
         13    1    4    4    0    0  0.32696239857E+02  0.13170614930E+02 -0.35914168686E+02  0.50322328154E+02  0.00000000000E+00 0. -1.
        -14    1    4    4    0    0 -0.37030715515E+02  0.12927594021E+02  0.53861047124E+01  0.39590487528E+02  0.00000000000E+00 0.  1.
        -13    1    3    3    0    0  0.53849243119E+02 -0.25936330925E+02 -0.15254084361E+03  0.16383266834E+03  0.00000000000E+00 0. -1.
         13    1    3    3    0    0 -0.30001719497E+02  0.12925254305E+02 -0.15243065669E+03  0.15589185505E+03  0.00000000000E+00 0.  1.
          2    1    1    2  501    0 -0.19513047964E+02 -0.13087132331E+02 -0.17127490297E+02  0.29075470716E+02  0.00000000000E+00 0. -1.
<scales pt_clust_5="13000.00000" pt_clust_6="13000.00000" pt_clust_7="13000.00000" pt_clust_8="13000.00000" pt_clust_9="23.49536"></scales>
<clustering>
<clus scale="   23.495">  1  9  2 -1</clus>
<clus scale="   80.327">  5  6 -1 -1</clus>
<clus scale="   84.231">  1  5  2 -1</clus>
<clus scale="   92.077">  7  8 -1 -1</clus>
<clus scale="   23.495">  1  5  2 -1</clus>
</clustering>
</event>
<event>
 9    1  0.4731329E-005  0.1586009E+03  0.7546771E-02  0.1211253E+00
         21   -1    0    0  501  502  0.00000000000E+00  0.00000000000E+00  0.81618865809E+02  0.81618865809E+02  0.00000000000E+00 0. -1.
         -2   -1    0    0    0  501 -0.00000000000E+00 -0.00000000000E+00 -0.68866286175E+03  0.68866286175E+03  0.00000000000E+00 0.  1.
        -24    2    1    2    0    0 -0.59748439686E+02  0.11810756002E+02 -0.88513973280E+02  0.13402746599E+03  0.80120335571E+02 0.  0.
         23    2    1    2    0    0  0.83088246615E+02 -0.11096908870E+03 -0.78015967064E+02  0.18411517377E+03  0.92704426664E+02 0.  0.
         11    1    3    3    0    0 -0.65831018535E+02 -0.19540373317E+02 -0.58747075496E+02  0.90370172458E+02  0.00000000000E+00 0. -1.
        -12    1    3    3    0    0  0.60825788485E+01  0.31351129319E+02 -0.29766897785E+02  0.43657293534E+02  0.00000000000E+00 0.  1.
        -13    1    4    4    0    0  0.29082133081E+02 -0.59487995027E+02  0.11896842757E+02  0.67276495780E+02  0.00000000000E+00 0.  1.
         13    1    4    4    0    0  0.54006113534E+02 -0.51481093678E+02 -0.89912809821E+02  0.11683867799E+03  0.00000000000E+00 0. -1.
         -1    1    1    2    0  502 -0.23339806929E+02  0.99158332703E+02 -0.44051405559E+03  0.45213908779E+03  0.00000000000E+00 0.  1.
<scales pt_clust_5="13000.00000" pt_clust_6="13000.00000" pt_clust_7="13000.00000" pt_clust_8="13000.00000" pt_clust_9="128.68620"></scales>
<clustering>
<clus scale="   80.120">  5  6 -1 -1</clus>
<clus scale="   92.704">  7  8 -1 -1</clus>
<clus scale="  100.641">  2  5  1 -1</clus>
<clus scale="  128.686">  1  9  2 -1</clus>
<clus scale="  128.686">  1  5  2 -1</clus>
</clustering>
</event>
<event>
 9    1  0.4731329E-005  0.1529471E+03  0.7546771E-02  0.1201323E+00
          1   -1    0    0  502    0 -0.00000000000E+00  0.00000000000E+00  0.61413631937E+03  0.61413631937E+03  0.00000000000E+00 0. -1.
         21   -1    0    0  501  502  0.00000000000E+00 -0.00000000000E+00 -0.14485559226E+03  0.14485559226E+03  0.00000000000E+00 0. -1.
        -24    2    1    2    0    0  0.73994836008E+02  0.85512220320E+02 -0.47931570617E+02  0.14694703980E+03  0.80674788281E+02 0.  0.
         23    2    1    2    0    0  0.97642586476E+02 -0.36511772810E+02  0.15600380676E+03  0.20914038860E+03  0.92386850657E+02 0.  0.
         13    1    3    3    0    0  0.56969334854E+02  0.67902196944E+02 -0.70796700456E+02  0.11343890981E+03  0.00000000000E+00 0. -1.
        -14    1    3    3    0    0  0.17025501154E+02  0.17610023375E+02  0.22865129839E+02  0.33508129989E+02  0.00000000000E+00 0.  1.
        -11    1    4    4    0    0  0.50804018415E+02  0.39544382771E+00  0.10483643692E+02  0.51875923587E+02  0.00000000000E+00 0.  1.
         11    1    4    4    0    0  0.46838568061E+02 -0.36907216638E+02  0.14552016306E+03  0.15726446501E+03  0.00000000000E+00 0. -1.
          2    1    1    2  501    0 -0.17163742248E+03 -0.49000447510E+02  0.36120849098E+03  0.40290448323E+03  0.00000000000E+00 0. -1.
<scales pt_clust_5="13000.00000" pt_clust_6="13000.00000" pt_clust_7="13000.00000" pt_clust_8="13000.00000" pt_clust_9="121.89135"></scales>
<clustering>
<clus scale="   80.675">  5  6 -1 -1</clus>
<clus scale="   92.387">  7  8 -1 -1</clus>
<clus scale="  138.910">  1  5  2 -1</clus>
<clus scale="  121.891">  2  9  1 -1</clus>
<clus scale="  121.891">  2  5  1 -1</clus>
</clustering>
</event>
<event>
 9    1  0.4731329E-005  0.1198746E+03  0.7546771E-02  0.1247837E+00
         21   -1    0    0  501  502  0.00000000000E+00  0.00000000000E+00  0.14148490054E+03  0.14148490054E+03  0.00000000000E+00 0. -1.
          3   -1    0    0  502    0 -0.00000000000E+00 -0.00000000000E+00 -0.31291991148E+03  0.31291991148E+03  0.00000000000E+00 0. -1.
         23    2    1    2    0    0  0.63532404897E+02  0.23429985183E+02 -0.16704986158E+03  0.20378441041E+03  0.95063657594E+02 0.  0.
        -24    2    1    2    0    0 -0.43455410723E+02 -0.91038148719E+02 -0.75834450329E+02  0.15022641732E+03  0.81491075345E+02 0.  0.
         13    1    4    4    0    0  0.15356347521E+02 -0.29595780708E+02  0.39918541662E+01  0.33580687077E+02  0.00000000000E+00 0. -1.
        -14    1    4    4    0    0 -0.58811758244E+02 -0.61442368012E+02 -0.79826304496E+02  0.11664573024E+03  0.00000000000E+00 0.  1.
        -13    1    3    3    0    0  0.59857824451E+02  0.49536794439E+02 -0.15771774781E+03  0.17581735160E+03  0.00000000000E+00 0.  1.
         13    1    3    3    0    0  0.36745804456E+01 -0.26106809255E+02 -0.93321137727E+01  0.27967058809E+02  0.00000000000E+00 0. -1.
          4    1    1    2  501    0 -0.20076994174E+02  0.67608163536E+02  0.71449300971E+02  0.10039398429E+03  0.00000000000E+00 0. -1.
<scales pt_clust_5="13000.00000" pt_clust_6="13000.00000" pt_clust_7="13000.00000" pt_clust_8="13000.00000" pt_clust_9="70.52623"></scales>
<clustering>
<clus scale="   70.526">  1  9  2 -1</clus>
<clus scale="   81.491">  5  6 -1 -1</clus>
<clus scale="   95.064">  7  8 -1 -1</clus>
<clus scale="  109.424">  1  5  2 -1</clus>
<clus scale="   70.526">  1  5  2 -1</clus>
</clustering>
</event>
<event>
 9    1  0.4731329E-005  0.3323631E+03  0.7546771E-02  0.1070524E+00
          1   -1    0    0  502    0 -0.00000000000E+00  0.00000000000E+00  0.32337079928E+03  0.32337079928E+03  0.00000000000E+00 0. -1.
         21   -1    0    0  501  502  0.00000000000E+00 -0.00000000000E+00 -0.57091325986E+03  0.57091325986E+03  0.00000000000E+00 0. -1.
         23    2    1    2    0    0 -0.28415308950E+02  0.40056255522E+03 -0.48691955463E+02  0.41522467560E+03  0.93716776876E+02 0.  0.
        -24    2    1    2    0    0  0.36372028363E+02 -0.22898646168E+03 -0.18464418898E+03  0.30671239437E+03  0.78875168798E+02 0.  0.
         11    1    4    4    0    0  0.47496573931E+02 -0.20513277174E+03 -0.13384412310E+03  0.24949875324E+03  0.00000000000E+00 0. -1.
        -12    1    4    4    0    0 -0.11124545568E+02 -0.23853689935E+02 -0.50800065880E+02  0.57213641127E+02  0.00000000000E+00 0.  1.
        -13    1    3    3    0    0 -0.39912290207E+02  0.29030975612E+03 -0.72434156161E+02  0.30185998805E+03  0.00000000000E+00 0. -1.
         13    1    3    3    0    0  0.11496981258E+02  0.11025279910E+03  0.23742200698E+02  0.11336468755E+03  0.00000000000E+00 0.  1.
          2    1    1    2  501    0 -0.79567194135E+01 -0.17157609354E+03 -0.14206316136E+02  0.17234698917E+03  0.00000000000E+00 0. -1.
<scales pt_clust_5="13000.00000" pt_clust_6="13000.00000" pt_clust_7="13000.00000" pt_clust_8="13000.00000" pt_clust_9="171.76057"></scales>
<clustering>
<clus scale="   78.875">  5  6 -1 -1</clus>
<clus scale="   93.717">  7  8 -1 -1</clus>
<clus scale="  171.761">  2  9  1 -1</clus>
<clus scale="  328.487">  2  5  1 -1</clus>
<clus scale="  171.761">  2  5  1 -1</clus>
</clustering>
</event>
<event>
 9    1  0.4731329E-005  0.1212661E+03  0.7546771E-02  0.1245637E+00
          1   -1    0    0  502    0 -0.00000000000E+00  0.00000000000E+00  0.40724913187E+03  0.40724913187E+03  0.00000000000E+00 0. -1.
         21   -1    0    0  501  502  0.00000000000E+00 -0.00000000000E+00 -0.33647657225E+03  0.33647657225E+03  0.00000000000E+00 0. -1.
         23    2    1    2    0    0  0.27293552826E+01 -0.91834232284E+02  0.24107746776E+03  0.27452167777E+03  0.93823400630E+02 0.  0.
        -24    2    1    2    0    0  0.86929617585E+02  0.34883099971E+02  0.11285981929E+03  0.16677316526E+03  0.79387409358E+02 0.  0.
         13    1    4    4    0    0  0.47464506275E+02  0.68355011019E+01  0.10793314955E+03  0.11810659678E+03  0.00000000000E+00 0. -1.
        -14    1    4    4    0    0  0.39465111310E+02  0.28047598869E+02  0.49266697376E+01  0.48666568481E+02  0.00000000000E+00 0.  1.
        -11    1    3    3    0    0 -0.27875786164E+02 -0.73854343663E+02  0.21882312383E+03  0.23262648829E+03  0.00000000000E+00 0. -1.
         11    1    3    3    0    0  0.30605141446E+02 -0.17979888621E+02  0.22254343928E+02  0.41895189478E+02  0.00000000000E+00 0.  1.
          2    1    1    2  501    0 -0.89658972867E+02  0.56951132313E+02 -0.28316472742E+03  0.30243086110E+03  0.00000000000E+00 0. -1.
<scales pt_clust_5="13000.00000" pt_clust_6="13000.00000" pt_clust_7="13000.00000" pt_clust_8="13000.00000" pt_clust_9="106.21753"></scales>
<clustering>
<clus scale="   79.387">  5  6 -1 -1</clus>
<clus scale="   93.823">  7  8 -1 -1</clus>
<clus scale="  106.218">  2  9  1 -1</clus>
<clus scale="  110.476">  2  5  1 -1</clus>
<clus scale="  106.218">  2  5  1 -1</clus>
</clustering>
</event>
<event>
 9    1  0.4731329E-005  0.1369354E+03  0.7546771E-02  0.1219546E+00
          1   -1    0    0  502    0 -0.00000000000E+00  0.00000000000E+00  0.49927391090E+03  0.49927391090E+03  0.00000000000E+00 0. -1.
         21   -1    0    0  501  502  0.00000000000E+00 -0.00000000000E+00 -0.79617205042E+02  0.79617205042E+02  0.00000000000E+00 0. -1.
        -24    2    1    2    0    0  0.11234319855E+03 -0.21869169696E+02  0.37602236458E+03  0.40127835525E+03  0.80822304374E+02 0.  0.
         23    2    1    2    0    0 -0.64847170389E+02 -0.13698988642E+02  0.18456177566E+02  0.11315419643E+03  0.89835537966E+02 0.  0.
         11    1    3    3    0    0  0.10427164607E+03 -0.38667644158E+02  0.35971596488E+03  0.37651472517E+03  0.00000000000E+00 0. -1.
        -12    1    3    3    0    0  0.80715524780E+01  0.16798474462E+02  0.16306399700E+02  0.24763630082E+02  0.00000000000E+00 0.  1.
        -13    1    4    4    0    0 -0.33109907635E+02 -0.49478739078E+02  0.25582917659E+02  0.64798898758E+02  0.00000000000E+00 0. -1.
         13    1    4    4    0    0 -0.31737262754E+02  0.35779750436E+02 -0.71267400933E+01  0.48355297670E+02  0.00000000000E+00 0.  1.
          2    1    1    2  501    0 -0.47496028164E+02  0.35568158338E+02  0.25178163713E+02  0.64458564263E+02  0.00000000000E+00 0. -1.
<scales pt_clust_5="13000.00000" pt_clust_6="13000.00000" pt_clust_7="13000.00000" pt_clust_8="13000.00000" pt_clust_9="59.33773"></scales>
<clustering>
<clus scale="   59.338">  2  9  1 -1</clus>
<clus scale="   80.822">  5  6 -1 -1</clus>
<clus scale="   89.836">  7  8 -1 -1</clus>
<clus scale="  131.199">  1  5  2 -1</clus>
<clus scale="   59.338">  2  5  1 -1</clus>
</clustering>
</event>
<event>
 9    1  0.4731329E-005  0.1176116E+03  0.7546771E-02  0.1251816E+00
          1   -1    0    0  502    0 -0.00000000000E+00  0.00000000000E+00  0.47336203418E+03  0.47336203418E+03  0.00000000000E+00 0. -1.
         21   -1    0    0  501  502  0.00000000000E+00 -0.00000000000E+00 -0.14126161169E+03  0.14126161169E+03  0.00000000000E+00 0.  1.
         23    2    1    2    0    0  0.12923035952E+02  0.64432885814E+02  0.39631214563E+03  0.41271237926E+03  0.94602270523E+02 0.  0.
        -24    2    1    2    0    0 -0.26169905617E+02 -0.11062749392E+03 -0.29664458702E+02  0.14272566993E+03  0.81039066972E+02 0.  0.
         11    1    4    4    0    0 -0.26309537256E+02 -0.44655125142E+01  0.11239399457E+02  0.28956115982E+02  0.00000000000E+00 0. -1.
        -12    1    4    4    0    0  0.13963163815E+00 -0.10616198141E+03 -0.40903858159E+02  0.11376955395E+03  0.00000000000E+00 0.  1.
        -13    1    3    3    0    0 -0.35994866437E+02  0.72368025245E+01  0.88101198137E+02  0.95445391894E+02  0.00000000000E+00 0.  1.
         13    1    3    3    0    0  0.48917902389E+02  0.57196083290E+02  0.30821094749E+03  0.31726698736E+03  0.00000000000E+00 0. -1.
          2    1    1    2  501    0  0.13246869665E+02  0.46194608105E+02 -0.34547264443E+02  0.59185596681E+02  0.00000000000E+00 0. -1.
<scales pt_clust_5="13000.00000" pt_clust_6="13000.00000" pt_clust_7="13000.00000" pt_clust_8="13000.00000" pt_clust_9="48.05644"></scales>
<clustering>
<clus scale="   48.056">  2  9  1 -1</clus>
<clus scale="   81.039">  5  6 -1 -1</clus>
<clus scale="   94.602">  7  8 -1 -1</clus>
<clus scale="  107.006">  2  5  1 -1</clus>
<clus scale="   48.056">  2  5  1 -1</clus>
</clustering>
</event>
<event>
 9    1  0.4731329E-005  0.1717783E+03  0.7546771E-02  0.1177525E+00
          1   -1    0    0  502    0 -0.00000000000E+00  0.00000000000E+00  0.17861321679E+03  0.17861321679E+03  0.00000000000E+00 0. -1.
         21   -1    0    0  501  502  0.00000000000E+00 -0.00000000000E+00 -0.28278443815E+03  0.28278443815E+03  0.00000000000E+00 0.  1.
         23    2    1    2    0    0  0.13379379850E+03 -0.60662997655E+02  0.77996254938E+02  0.18999390354E+03  0.91834023078E+02 0.  0.
        -24    2    1    2    0    0 -0.11704812384E+03  0.80239568691E+02 -0.11537054866E+03  0.19981122878E+03  0.80470565853E+02 0.  0.
         13    1    4    4    0    0 -0.67528939820E+02  0.24231569956E+02 -0.10067032833E+03  0.12361974640E+03  0.00000000000E+00 0. -1.
        -14    1    4    4    0    0 -0.49519184018E+02  0.56007998735E+02 -0.14700220336E+02  0.76191482372E+02  0.00000000000E+00 0.  1.
        -11    1    3    3    0    0  0.77819743566E+02  0.14665695415E+02  0.40343025048E+02  0.88873813808E+02  0.00000000000E+00 0. -1.
         11    1    3    3    0    0  0.55974054936E+02 -0.75328693070E+02  0.37653229889E+02  0.10112008973E+03  0.00000000000E+00 0.  1.
          2    1    1    2  501    0 -0.16745674665E+02 -0.19576571036E+02 -0.66796927644E+02  0.71592522628E+02  0.00000000000E+00 0. -1.
<scales pt_clust_5="13000.00000" pt_clust_6="13000.00000" pt_clust_7="13000.00000" pt_clust_8="13000.00000" pt_clust_9="25.76159"></scales>
<clustering>
<clus scale="   25.762">  2  9  1 -1</clus>
<clus scale="   80.471">  5  6 -1 -1</clus>
<clus scale="   91.834">  7  8 -1 -1</clus>
<clus scale="  165.981">  2  5  1 -1</clus>
<clus scale="   25.762">  2  5  1 -1</clus>
</clustering>
</event>
<event>
 9    1  0.4731329E-005  0.9616010E+02  0.7546771E-02  0.1296455E+00
          3   -1    0    0  502    0 -0.00000000000E+00  0.00000000000E+00  0.10385769830E+04  0.10385769830E+04  0.00000000000E+00 0. -1.
         21   -1    0    0  501  502  0.00000000000E+00 -0.00000000000E+00 -0.10364084779E+02  0.10364084779E+02  0.00000000000E+00 0. -1.
        -24    2    1    2    0    0  0.21132470648E+02  0.22566287871E+02  0.48245121674E+03  0.48968209431E+03  0.77933037230E+02 0.  0.
         23    2    1    2    0    0 -0.30878433212E+02 -0.77888221304E+00  0.40017601726E+03  0.41172978836E+03  0.91795912425E+02 0.  0.
         11    1    3    3    0    0 -0.27750255070E+02  0.96646153295E-01  0.11429052528E+03  0.11761126717E+03  0.00000000000E+00 0. -1.
        -12    1    3    3    0    0  0.48882725718E+02  0.22469641718E+02  0.36816069146E+03  0.37207082714E+03  0.00000000000E+00 0.  1.
        -13    1    4    4    0    0 -0.15693238796E+02 -0.44460871376E+02  0.14737111056E+03  0.15472973552E+03  0.00000000000E+00 0.  1.
         13    1    4    4    0    0 -0.15185194416E+02  0.43681989163E+02  0.25280490670E+03  0.25700005284E+03  0.00000000000E+00 0. -1.
          4    1    1    2  501    0  0.97459625642E+01 -0.21787405658E+02  0.14558566417E+03  0.14752918506E+03  0.00000000000E+00 0. -1.
<scales pt_clust_5="13000.00000" pt_clust_6="13000.00000" pt_clust_7="13000.00000" pt_clust_8="13000.00000" pt_clust_9="23.86787"></scales>
<clustering>
<clus scale="   23.868">  2  9  1 -1</clus>
<clus scale="   77.933">  5  6 -1 -1</clus>
<clus scale="   83.029">  1  5  2 -1</clus>
<clus scale="   91.796">  7  8 -1 -1</clus>
<clus scale="   23.868">  2  5  1 -1</clus>
</clustering>
</event>
<event>
 9    1  0.4731329E-005  0.1249239E+03  0.7546771E-02  0.1240501E+00
          3   -1    0    0  502    0 -0.00000000000E+00  0.00000000000E+00  0.10692683058E+03  0.10692683058E+03  0.00000000000E+00 0. -1.
         21   -1    0    0  501  502  0.00000000000E+00 -0.00000000000E+00 -0.71459244992E+03  0.71459244992E+03  0.00000000000E+00 0. -1.
        -24    2    1    2    0    0 -0.44674060190E+02 -0.89493489746E+02  0.50920467798E+02  0.13322223018E+03  0.71766372444E+02 0.  0.
         23    2    1    2    0    0  0.18356953372E+02  0.16343690026E+02 -0.17535769357E+03  0.19885536466E+03  0.90493322511E+02 0.  0.
         13    1    3    3    0    0 -0.47317531441E+02 -0.63394160052E+02  0.65948113116E+02  0.10298991181E+03  0.00000000000E+00 0. -1.
        -14    1    3    3    0    0  0.26434712509E+01 -0.26099329694E+02 -0.15027645317E+02  0.30232318378E+02  0.00000000000E+00 0.  1.
        -11    1    4    4    0    0  0.72443871242E+01  0.45289126389E+02 -0.42844950329E+02  0.62763650966E+02  0.00000000000E+00 0.  1.
         11    1    4    4    0    0  0.11112566248E+02 -0.28945436363E+02 -0.13251274324E+03  0.13609171369E+03  0.00000000000E+00 0. -1.
          4    1    1    2  501    0  0.26317106818E+02  0.73149799720E+02 -0.48322839357E+03  0.48944168566E+03  0.00000000000E+00 0. -1.
<scales pt_clust_5="13000.00000" pt_clust_6="13000.00000" pt_clust_7="13000.00000" pt_clust_8="13000.00000" pt_clust_9="77.73984"></scales>
<clustering>
<clus scale="   71.766">  5  6 -1 -1</clus>
<clus scale="   77.740">  2  9  1 -1</clus>
<clus scale="   90.493">  7  8 -1 -1</clus>
<clus scale="  112.104">  1  5  2 -1</clus>
<clus scale="   77.740">  2  5  1 -1</clus>
</clustering>
</event>
<event>
 9    1  0.4731329E-005  0.1661620E+03  0.7546771E-02  0.1195064E+00
         21   -1    0    0  501  502  0.00000000000E+00  0.00000000000E+00  0.10936360340E+03  0.10936360340E+03  0.00000000000E+00 0. -1.
          1   -1    0    0  502    0 -0.00000000000E+00 -0.00000000000E+00 -0.69077699097E+03  0.69077699097E+03  0.00000000000E+00 0. -1.
        -24    2    1    2    0    0  0.44435281679E+02 -0.83264684681E+02 -0.12092080883E+03  0.17331437252E+03  0.80675446948E+02 0.  0.
         23    2    1    2    0    0 -0.52638885944E+02 -0.11622390829E+03 -0.40642316713E+02  0.16192059662E+03  0.91036435179E+02 0.  0.
         11    1    3    3    0    0 -0.12359946169E+02 -0.62161155799E+02 -0.56975077788E+02  0.85222866934E+02  0.00000000000E+00 0. -1.
        -12    1    3    3    0    0  0.56795227848E+02 -0.21103528882E+02 -0.63945731039E+02  0.88091505582E+02  0.00000000000E+00 0.  1.
        -11    1    4    4    0    0 -0.31329153239E+02  0.60286468143E+01 -0.14767178213E+02  0.35155795787E+02  0.00000000000E+00 0.  1.
         11    1    4    4    0    0 -0.21309732705E+02 -0.12225255511E+03 -0.25875138500E+02  0.12676480083E+03  0.00000000000E+00 0. -1.
          2    1    1    2  501    0  0.82036042650E+01  0.19948859297E+03 -0.41985026203E+03  0.46490562524E+03  0.00000000000E+00 0. -1.
<scales pt_clust_5="13000.00000" pt_clust_6="13000.00000" pt_clust_7="13000.00000" pt_clust_8="13000.00000" pt_clust_9="139.00436"></scales>
<clustering>
<clus scale="   80.675">  5  6 -1 -1</clus>
<clus scale="   91.036">  7  8 -1 -1</clus>
<clus scale="  124.161">  2  5  1 -1</clus>
<clus scale="  139.004">  1  9  2 -1</clus>
<clus scale="  139.004">  1  5  2 -1</clus>
</clustering>
</event>
<event>
 9    1  0.4731329E-005  0.1528712E+03  0.7546771E-02  0.1207928E+00
          1   -1    0    0  502    0 -0.00000000000E+00  0.00000000000E+00  0.28273969403E+03  0.28273969403E+03  0.00000000000E+00 0. -1.
         21   -1    0    0  501  502  0.00000000000E+00 -0.00000000000E+00 -0.17596734600E+03  0.17596734600E+03  0.00000000000E+00 0. -1.
         23    2    1    2    0    0 -0.77467223032E+02 -0.35240969042E+02  0.98906175627E+02  0.15601771676E+03  0.85533618083E+02 0.  0.
        -24    2    1    2    0    0 -0.67589101893E+02  0.80164917387E+02  0.56810440996E+02  0.14314296648E+03  0.79169324697E+02 0.  0.
         11    1    4    4    0    0 -0.67694314406E+02  0.24807212846E+02  0.14678067259E+02  0.73575564357E+02  0.00000000000E+00 0. -1.
        -12    1    4    4    0    0  0.10521251306E+00  0.55357704542E+02  0.42132373736E+02  0.69567402125E+02  0.00000000000E+00 0.  1.
        -11    1    3    3    0    0 -0.77329496802E+02 -0.58001204225E+02  0.88236265502E+02  0.13088020980E+03  0.00000000000E+00 0.  1.
         11    1    3    3    0    0 -0.13772622921E+00  0.22760235183E+02  0.10669910125E+02  0.25137506960E+02  0.00000000000E+00 0. -1.
          2    1    1    2  501    0  0.14505632492E+03 -0.44923948345E+02 -0.48944268598E+02  0.15954635679E+03  0.00000000000E+00 0. -1.
<scales pt_clust_5="13000.00000" pt_clust_6="13000.00000" pt_clust_7="13000.00000" pt_clust_8="13000.00000" pt_clust_9="130.77396"></scales>
<clustering>
<clus scale="   79.169">  5  6 -1 -1</clus>
<clus scale="   85.534">  7  8 -1 -1</clus>
<clus scale="  120.661">  1  7  2 -1</clus>
<clus scale="  130.774">  2  9  1 -1</clus>
<clus scale="  130.774">  2  5  1 -1</clus>
</clustering>
</event>
<event>
 9    1  0.4731329E-005  0.9863537E+02  0.7546771E-02  0.1291023E+00
         21   -1    0    0  501  502  0.00000000000E+00  0.00000000000E+00  0.42806204051E+02  0.42806204051E+02  0.00000000000E+00 0.  1.
          1   -1    0    0  502    0 -0.00000000000E+00 -0.00000000000E+00 -0.34310994002E+03  0.34310994002E+03  0.00000000000E+00 0. -1.
         23    2    1    2    0    0  0.34565634095E+02  0.10906979465E+02 -0.12534466111E+03  0.16137027862E+03  0.94949131079E+02 0.  0.
        -24    2    1    2    0    0 -0.16740943591E+02  0.14139066042E+02 -0.53765240851E+02  0.99513991956E+02  0.80821785988E+02 0.  0.
         11    1    4    4    0    0 -0.22655099717E+02 -0.21645395403E+01 -0.71304318854E+02  0.74848144010E+02  0.00000000000E+00 0. -1.
        -12    1    4    4    0    0  0.59141561261E+01  0.16303605582E+02  0.17539078003E+02  0.24665847945E+02  0.00000000000E+00 0.  1.
        -11    1    3    3    0    0 -0.30561843976E+02 -0.10653264114E+02 -0.31873604586E+02  0.45425158369E+02  0.00000000000E+00 0. -1.
         11    1    3    3    0    0  0.65127478072E+02  0.21560243579E+02 -0.93471056524E+02  0.11594512025E+03  0.00000000000E+00 0.  1.
          2    1    1    2  501    0 -0.17824690504E+02 -0.25046045507E+02 -0.12119383401E+03  0.12503187349E+03  0.00000000000E+00 0. -1.
<scales pt_clust_5="13000.00000" pt_clust_6="13000.00000" pt_clust_7="13000.00000" pt_clust_8="13000.00000" pt_clust_9="30.74126"></scales>
<clustering>
<clus scale="   30.741">  1  9  2 -1</clus>
<clus scale="   80.822">  5  6 -1 -1</clus>
<clus scale="   85.122">  1  5  2 -1</clus>
<clus scale="   94.949">  7  8 -1 -1</clus>
<clus scale="   30.741">  1  5  2 -1</clus>
</clustering>
</event>
<event>
 9    1  0.4731329E-005  0.9308157E+02  0.7546771E-02  0.1300695E+00
         21   -1    0    0  501  502  0.00000000000E+00  0.00000000000E+00  0.63517560915E+02  0.63517560915E+02  0.00000000000E+00 0. -1.
          1   -1    0    0  502    0 -0.00000000000E+00 -0.00000000000E+00 -0.62918765985E+03  0.62918765985E+03  0.00000000000E+00 0. -1.
        -24    2    1    2    0    0  0.89284983873E+00  0.11937041216E+02 -0.54111704796E+03  0.54775740195E+03  0.84185638093E+02 0.  0.
         23    2    1    2    0    0  0.18157259353E+02  0.26277161149E+02 -0.28479059561E+02  0.10206838941E+03  0.92664578007E+02 0.  0.
         11    1    3    3    0    0  0.38444069622E+02  0.15447560154E+02 -0.18153699778E+03  0.18620487418E+03  0.00000000000E+00 0. -1.
        -12    1    3    3    0    0 -0.37551219784E+02 -0.35105189376E+01 -0.35958005018E+03  0.36155252777E+03  0.00000000000E+00 0.  1.
        -13    1    4    4    0    0  0.41363747262E+02 -0.28244888911E+01 -0.45137657339E+02  0.61289031931E+02  0.00000000000E+00 0. -1.
         13    1    4    4    0    0 -0.23206487909E+02  0.29101650040E+02  0.16658597778E+02  0.40779357475E+02  0.00000000000E+00 0.  1.
          2    1    1    2  501    0 -0.19050109192E+02 -0.38214202365E+02  0.39260085933E+01  0.42879429405E+02  0.00000000000E+00 0. -1.
<scales pt_clust_5="13000.00000" pt_clust_6="13000.00000" pt_clust_7="13000.00000" pt_clust_8="13000.00000" pt_clust_9="42.69932"></scales>
<clustering>
<clus scale="   42.699">  1  9  2 -1</clus>
<clus scale="   84.186">  5  6 -1 -1</clus>
<clus scale="   84.644">  2  5  1 -1</clus>
<clus scale="   92.665">  7  8 -1 -1</clus>
<clus scale="   42.699">  1  5  2 -1</clus>
</clustering>
</event>
<event>
 9    1  0.4731329E-005  0.1000771E+03  0.7546771E-02  0.1287340E+00
          1   -1    0    0  502    0 -0.00000000000E+00  0.00000000000E+00  0.27521597207E+03  0.27521597207E+03  0.00000000000E+00 0. -1.
         21   -1    0    0  501  502  0.00000000000E+00 -0.00000000000E+00 -0.70036951080E+02  0.70036951080E+02  0.00000000000E+00 0. -1.
         23    2    1    2    0    0 -0.29498167488E+02 -0.48698952941E+02  0.15745969881E+03  0.19144216682E+03  0.92816036236E+02 0.  0.
        -24    2    1    2    0    0 -0.18395189313E+02  0.19084402876E+02  0.50640544298E+02  0.97425219712E+02  0.78896205778E+02 0.  0.
         11    1    4    4    0    0 -0.61335974450E+01  0.31290452240E+02  0.66630173963E+02  0.73866727973E+02  0.00000000000E+00 0. -1.
        -12    1    4    4    0    0 -0.12261591868E+02 -0.12206049364E+02 -0.15989629665E+02  0.23558491740E+02  0.00000000000E+00 0.  1.
        -11    1    3    3    0    0  0.19771379210E+02 -0.31356979564E+02  0.12397424839E+03  0.12939776608E+03  0.00000000000E+00 0.  1.
         11    1    3    3    0    0 -0.49269546698E+02 -0.17341973377E+02  0.33485450422E+02  0.62044400734E+02  0.00000000000E+00 0. -1.
          2    1    1    2  501    0  0.47893356801E+02  0.29614550065E+02 -0.29212221216E+01  0.56385536620E+02  0.00000000000E+00 0. -1.
<scales pt_clust_5="13000.00000" pt_clust_6="13000.00000" pt_clust_7="13000.00000" pt_clust_8="13000.00000" pt_clust_9="56.30981"></scales>
<clustering>
<clus scale="   56.310">  2  9  1 -1</clus>
<clus scale="   78.896">  5  6 -1 -1</clus>
<clus scale="   87.323">  2  5  1 -1</clus>
<clus scale="   92.816">  7  8 -1 -1</clus>
<clus scale="   56.310">  2  5  1 -1</clus>
</clustering>
</event>
<event>
 9    1  0.4731329E-005  0.2941649E+03  0.7546771E-02  0.1110958E+00
         21   -1    0    0  501  502  0.00000000000E+00  0.00000000000E+00  0.28189998237E+03  0.28189998237E+03  0.00000000000E+00 0. -1.
          1   -1    0    0  502    0 -0.00000000000E+00 -0.00000000000E+00 -0.58224566584E+03  0.58224566584E+03  0.00000000000E+00 0. -1.
         23    2    1    2    0    0 -0.27299294049E+02 -0.12389908643E+03 -0.48695085853E+02  0.16999628917E+03  0.10213369606E+03 0.  0.
        -24    2    1    2    0    0  0.28589227497E+03 -0.18168889067E+02  0.13230657087E+02  0.29764498511E+03  0.79705617496E+02 0.  0.
         11    1    4    4    0    0  0.24329461039E+03 -0.40876738628E+02 -0.29827782448E+01  0.24672266246E+03  0.00000000000E+00 0. -1.
        -12    1    4    4    0    0  0.42597664580E+02  0.22707849561E+02  0.16213435332E+02  0.50922322656E+02  0.00000000000E+00 0.  1.
        -13    1    3    3    0    0  0.16833370187E+02 -0.11595233497E+03 -0.27275023472E+02  0.12030059536E+03  0.00000000000E+00 0. -1.
         13    1    3    3    0    0 -0.44132664236E+02 -0.79467514573E+01 -0.21420062382E+02  0.49695693815E+02  0.00000000000E+00 0.  1.
          2    1    1    2  501    0 -0.25859298092E+03  0.14206797550E+03 -0.26488125470E+03  0.39650437392E+03  0.00000000000E+00 0. -1.
<scales pt_clust_5="13000.00000" pt_clust_6="13000.00000" pt_clust_7="13000.00000" pt_clust_8="13000.00000" pt_clust_9="283.16089"></scales>
<clustering>
<clus scale="   79.706">  5  6 -1 -1</clus>
<clus scale="  102.134">  7  8 -1 -1</clus>
<clus scale="  162.873">  2  7  1 -1</clus>
<clus scale="  283.161">  1  9  2 -1</clus>
<clus scale="  283.161">  1  5  2 -1</clus>
</clustering>
</event>
<event>
 9    1  0.4731329E-005  0.1119861E+03  0.7546771E-02  0.1271068E+00
          1   -1    0    0  502    0 -0.00000000000E+00  0.00000000000E+00  0.16239808750E+03  0.16239808750E+03  0.00000000000E+00 0. -1.
         21   -1    0    0  501  502  0.00000000000E+00 -0.00000000000E+00 -0.14514632799E+03  0.14514632799E+03  0.00000000000E+00 0. -1.
         23    2    1    2    0    0  0.27081518660E+02 -0.41500217570E+02  0.68334716513E+02  0.13662383300E+03  0.10742793655E+03 0.  0.
        -24    2    1    2    0    0  0.23396527610E+02  0.20996548425E+02  0.13987130341E+02  0.86052744811E+02  0.78874473211E+02 0.  0.
         13    1    4    4    0    0  0.52403932184E+02  0.10674022448E+02  0.13925847219E+02  0.55263333996E+02  0.00000000000E+00 0. -1.
        -14    1    4    4    0    0 -0.29007404574E+02  0.10322525977E+02  0.61283122333E-01  0.30789410815E+02  0.00000000000E+00 0.  1.
        -11    1    3    3    0    0  0.13212205867E+02 -0.76604157517E+02  0.31470590675E+02  0.83863921982E+02  0.00000000000E+00 0. -1.
         11    1    3    3    0    0  0.13869312794E+02  0.35103939947E+02  0.36864125837E+02  0.52759911021E+02  0.00000000000E+00 0.  1.
          2    1    1    2  501    0 -0.50478046271E+02  0.20503669145E+02 -0.65070087351E+02  0.84867837675E+02  0.00000000000E+00 0. -1.
<scales pt_clust_5="13000.00000" pt_clust_6="13000.00000" pt_clust_7="13000.00000" pt_clust_8="13000.00000" pt_clust_9="54.48333"></scales>
<clustering>
<clus scale="   54.483">  2  9  1 -1</clus>
<clus scale="   78.874">  5  6 -1 -1</clus>
<clus scale="   84.978">  2  5  1 -1</clus>
<clus scale="  107.428">  7  8 -1 -1</clus>
<clus scale="   54.483">  2  5  1 -1</clus>
</clustering>
</event>
<event>
 9    1  0.4731329E-005  0.1027059E+03  0.7546771E-02  0.1280502E+00
         21   -1    0    0  501  502  0.00000000000E+00  0.00000000000E+00  0.80228791562E+02  0.80228791562E+02  0.00000000000E+00 0. -1.
          1   -1    0    0  502    0 -0.00000000000E+00 -0.00000000000E+00 -0.44729692608E+03  0.44729692608E+03  0.00000000000E+00 0. -1.
         23    2    1    2    0    0  0.16145749289E+01  0.63825749865E+02 -0.30262624674E+03  0.32280644380E+03  0.92439286804E+02 0.  0.
        -24    2    1    2    0    0  0.21902578424E+02 -0.15154132541E+02 -0.10664990292E+03  0.13613721077E+03  0.80310445696E+02 0.  0.
         13    1    4    4    0    0  0.22466328189E+02  0.29238351343E+02 -0.67639416053E+02  0.77037054043E+02  0.00000000000E+00 0. -1.
        -14    1    4    4    0    0 -0.56374976465E+00 -0.44392483885E+02 -0.39010486868E+02  0.59100156725E+02  0.00000000000E+00 0.  1.
        -11    1    3    3    0    0  0.12327946897E+02 -0.20068822021E+02 -0.35430924413E+02  0.42545108964E+02  0.00000000000E+00 0.  1.
         11    1    3    3    0    0 -0.10713371968E+02  0.83894571886E+02 -0.26719532232E+03  0.28026133483E+03  0.00000000000E+00 0. -1.
          2    1    1    2  501    0 -0.23517153353E+02 -0.48671617324E+02  0.42208015136E+02  0.68582063081E+02  0.00000000000E+00 0. -1.
<scales pt_clust_5="13000.00000" pt_clust_6="13000.00000" pt_clust_7="13000.00000" pt_clust_8="13000.00000" pt_clust_9="54.05537"></scales>
<clustering>
<clus scale="   54.055">  1  9  2 -1</clus>
<clus scale="   80.310">  5  6 -1 -1</clus>
<clus scale="   91.942">  1  5  2 -1</clus>
<clus scale="   92.439">  7  8 -1 -1</clus>
<clus scale="   54.055">  1  5  2 -1</clus>
</clustering>
</event>
<event>
 9    1  0.4731329E-005  0.9672049E+02  0.7546771E-02  0.1293777E+00
         21   -1    0    0  501  502  0.00000000000E+00  0.00000000000E+00  0.39791914555E+03  0.39791914555E+03  0.00000000000E+00 0. -1.
          1   -1    0    0  502    0 -0.00000000000E+00 -0.00000000000E+00 -0.74027625716E+02  0.74027625716E+02  0.00000000000E+00 0. -1.
         23    2    1    2    0    0 -0.18435822806E+02  0.20007142761E+02 -0.27286056483E+02  0.10077216822E+03  0.93114637333E+02 0.  0.
        -24    2    1    2    0    0 -0.20320776496E+01 -0.27983935325E+02  0.19246674429E+03  0.21095072102E+03  0.81667184749E+02 0.  0.
         13    1    4    4    0    0 -0.35745685486E+02 -0.28690053005E+02  0.68061677047E+02  0.82056474788E+02  0.00000000000E+00 0. -1.
        -14    1    4    4    0    0  0.33713607836E+02  0.70611767989E+00  0.12440506725E+03  0.12889424623E+03  0.00000000000E+00 0.  1.
        -13    1    3    3    0    0 -0.41866133114E+02  0.23643551136E+02 -0.48979280138E+02  0.68634980113E+02  0.00000000000E+00 0. -1.
         13    1    3    3    0    0  0.23430310308E+02 -0.36364083755E+01  0.21693223654E+02  0.32137188108E+02  0.00000000000E+00 0.  1.
          2    1    1    2  501    0  0.20467900456E+02  0.79767925641E+01  0.15871083202E+03  0.16022388202E+03  0.00000000000E+00 0. -1.
<scales pt_clust_5="13000.00000" pt_clust_6="13000.00000" pt_clust_7="13000.00000" pt_clust_8="13000.00000" pt_clust_9="21.96734"></scales>
<clustering>
<clus scale="   21.967">  1  9  2 -1</clus>
<clus scale="   81.667">  5  6 -1 -1</clus>
<clus scale="   85.756">  1  5  2 -1</clus>
<clus scale="   93.115">  7  8 -1 -1</clus>
<clus scale="   21.967">  1  5  2 -1</clus>
</clustering>
</event>
<event>
 9    1  0.4731329E-005  0.1395227E+03  0.7546771E-02  0.1222498E+00
          1   -1    0    0  502    0 -0.00000000000E+00  0.00000000000E+00  0.56738201036E+03  0.56738201036E+03  0.00000000000E+00 0. -1.
         21   -1    0    0  501  502  0.00000000000E+00 -0.00000000000E+00 -0.12554273913E+03  0.12554273913E+03  0.00000000000E+00 0. -1.
         23    2    1    2    0    0  0.43688532369E+02  0.58425832142E+02  0.29568276078E+03  0.31783966577E+03  0.90947745402E+02 0.  0.
        -24    2    1    2    0    0  0.74316272993E+02 -0.75229331546E+02  0.20352417841E+03  0.24280303276E+03  0.79679738731E+02 0.  0.
         13    1    4    4    0    0  0.54696633848E+02 -0.95532535611E+01  0.50193741206E+02  0.74849168760E+02  0.00000000000E+00 0. -1.
        -14    1    4    4    0    0  0.19619639145E+02 -0.65676077985E+02  0.15333043720E+03  0.16795386400E+03  0.00000000000E+00 0.  1.
        -13    1    3    3    0    0 -0.16647036144E+02  0.40001707467E+02  0.60972796865E+02  0.74799347392E+02  0.00000000000E+00 0. -1.
         13    1    3    3    0    0  0.60335568513E+02  0.18424124676E+02  0.23470996391E+03  0.24304031838E+03  0.00000000000E+00 0.  1.
          2    1    1    2  501    0 -0.11800480536E+03  0.16803499403E+02 -0.57367667954E+02  0.13228205096E+03  0.00000000000E+00 0. -1.
<scales pt_clust_5="13000.00000" pt_clust_6="13000.00000" pt_clust_7="13000.00000" pt_clust_8="13000.00000" pt_clust_9="114.53260"></scales>
<clustering>
<clus scale="   79.680">  5  6 -1 -1</clus>
<clus scale="   90.948">  7  8 -1 -1</clus>
<clus scale="  116.592">  1  7  2 -1</clus>
<clus scale="  114.533">  2  9  1 -1</clus>
<clus scale="  114.533">  2  5  1 -1</clus>
</clustering>
</event>
<event>
 9    1  0.4731329E-005  0.1624616E+03  0.7546771E-02  0.1187731E+00
         21   -1    0    0  501  502  0.00000000000E+00  0.00000000000E+00  0.57159495115E+03  0.57159495115E+03  0.00000000000E+00 0. -1.
          1   -1    0    0  502    0 -0.00000000000E+00 -0.00000000000E+00 -0.11943758255E+03  0.11943758255E+03  0.00000000000E+00 0. -1.
        -24    2    1    2    0    0  0.68238286874E+02  0.15304931173E+03 -0.13485755262E+01  0.18571537090E+03  0.80048889539E+02 0.  0.
         23    2    1    2    0    0 -0.30725873500E+02 -0.58396434698E+02  0.17057189529E+03  0.20462126280E+03  0.91765281219E+02 0.  0.
         13    1    3    3    0    0  0.85321926153E+02  0.13498971178E+03  0.59565179363E+01  0.15980467288E+03  0.00000000000E+00 0. -1.
        -14    1    3    3    0    0 -0.17083639279E+02  0.18059599952E+02 -0.73050934625E+01  0.25910698021E+02  0.00000000000E+00 0.  1.
        -13    1    4    4    0    0 -0.47927831172E+02 -0.45405794006E+02  0.51820590706E+02  0.83929355719E+02  0.00000000000E+00 0.  1.
         13    1    4    4    0    0  0.17201957672E+02 -0.12990640692E+02  0.11875130458E+03  0.12069190708E+03  0.00000000000E+00 0. -1.
          2    1    1    2  501    0 -0.37512413373E+02 -0.94652877033E+02  0.28293404883E+03  0.30069590000E+03  0.00000000000E+00 0. -1.
<scales pt_clust_5="13000.00000" pt_clust_6="13000.00000" pt_clust_7="13000.00000" pt_clust_8="13000.00000" pt_clust_9="101.81527"></scales>
<clustering>
<clus scale="   80.049">  5  6 -1 -1</clus>
<clus scale="   91.765">  7  8 -1 -1</clus>
<clus scale="  101.815">  1  9  2 -1</clus>
<clus scale="  156.143">  2  5  1 -1</clus>
<clus scale="  101.815">  1  5  2 -1</clus>
</clustering>
</event>
<event>
 9    1  0.4731329E-005  0.1024492E+03  0.7546771E-02  0.1287635E+00
         21   -1    0    0  501  502  0.00000000000E+00  0.00000000000E+00  0.22187866491E+03  0.22187866491E+03  0.00000000000E+00 0. -1.
          1   -1    0    0  502    0 -0.00000000000E+00 -0.00000000000E+00 -0.34460723623E+03  0.34460723623E+03  0.00000000000E+00 0. -1.
        -24    2    1    2    0    0  0.57027538472E+00  0.11738098779E+02 -0.27093200965E+03  0.28270346174E+03  0.79868549820E+02 0.  0.
         23    2    1    2    0    0 -0.56718528182E+02 -0.11294851277E+02 -0.86072036414E+01  0.11722193930E+03  0.10159888776E+03 0.  0.
         11    1    3    3    0    0 -0.35081401459E+02  0.23676985506E+02 -0.16322137627E+03  0.16861945926E+03  0.00000000000E+00 0. -1.
        -12    1    3    3    0    0  0.35651676843E+02 -0.11938886727E+02 -0.10771063338E+03  0.11408400247E+03  0.00000000000E+00 0.  1.
        -13    1    4    4    0    0 -0.23404254163E+02  0.45038644962E+02 -0.10128223421E+02  0.51757314098E+02  0.00000000000E+00 0. -1.
         13    1    4    4    0    0 -0.33314274019E+02 -0.56333496240E+02  0.15210197801E+01  0.65464625205E+02  0.00000000000E+00 0.  1.
          2    1    1    2  501    0  0.56148252797E+02 -0.44324750174E+00  0.15681064196E+03  0.16656050010E+03  0.00000000000E+00 0. -1.
<scales pt_clust_5="13000.00000" pt_clust_6="13000.00000" pt_clust_7="13000.00000" pt_clust_8="13000.00000" pt_clust_9="56.15000"></scales>
<clustering>
<clus scale="   56.150">  1  9  2 -1</clus>
<clus scale="   79.869">  5  6 -1 -1</clus>
<clus scale="   80.947">  2  5  1 -1</clus>
<clus scale="  101.599">  7  8 -1 -1</clus>
<clus scale="   56.150">  1  5  2 -1</clus>
</clustering>
</event>
<event>
 9    1  0.4731329E-005  0.2652342E+03  0.7546771E-02  0.1104322E+00
          3   -1    0    0  502    0 -0.00000000000E+00  0.00000000000E+00  0.71967038357E+02  0.71967038357E+02  0.00000000000E+00 0. -1.
         21   -1    0    0  501  502  0.00000000000E+00 -0.00000000000E+00 -0.22661629183E+04  0.22661629183E+04  0.00000000000E+00 0. -1.
         23    2    1    2    0    0  0.11615527871E+03 -0.25125560722E+03 -0.50919535176E+03  0.58630923546E+03  0.88640760338E+02 0.  0.
        -24    2    1    2    0    0  0.70695350379E+02  0.24258958215E+03 -0.69118561138E+03  0.74055599501E+03  0.82692771348E+02 0.  0.
         11    1    4    4    0    0  0.28439404863E+02  0.20015948830E+03 -0.47509070899E+03  0.51631754015E+03  0.00000000000E+00 0. -1.
        -12    1    4    4    0    0  0.42255945516E+02  0.42430093849E+02 -0.21609490240E+03  0.22423845486E+03  0.00000000000E+00 0.  1.
        -11    1    3    3    0    0  0.12922292533E+03 -0.22946320643E+03 -0.44246996453E+03  0.51490930953E+03  0.00000000000E+00 0. -1.
         11    1    3    3    0    0 -0.13067646615E+02 -0.21792400792E+02 -0.66725387236E+02  0.71399925925E+02  0.00000000000E+00 0.  1.
          4    1    1    2  501    0 -0.18685062909E+03  0.86660250777E+01 -0.99381491683E+03  0.10112647262E+04  0.00000000000E+00 0. -1.
<scales pt_clust_5="13000.00000" pt_clust_6="13000.00000" pt_clust_7="13000.00000" pt_clust_8="13000.00000" pt_clust_9="187.05148"></scales>
<clustering>
<clus scale="   82.693">  5  6 -1 -1</clus>
<clus scale="   88.641">  7  8 -1 -1</clus>
<clus scale="  187.051">  2  9  1 -1</clus>
<clus scale="  263.306">  2  5  1 -1</clus>
<clus scale="  187.051">  2  5  1 -1</clus>
</clustering>
</event>
<event>
 9    1  0.4731329E-005  0.1132119E+03  0.7546771E-02  0.1258027E+00
         21   -1    0    0  501  502  0.00000000000E+00  0.00000000000E+00  0.81231400431E+02  0.81231400431E+02  0.00000000000E+00 0.  1.
          1   -1    0    0  502    0 -0.00000000000E+00 -0.00000000000E+00 -0.30977100376E+03  0.30977100376E+03  0.00000000000E+00 0. -1.
        -24    2    1    2    0    0  0.49781185277E+02 -0.60168680470E+02 -0.19215415865E+03  0.22952513566E+03  0.98285963899E+02 0.  0.
         23    2    1    2    0    0 -0.20552425968E+02  0.11934418768E+02 -0.46732128868E+02  0.10413689665E+03  0.89976490327E+02 0.  0.
         11    1    3    3    0    0  0.18995572542E+02  0.23093067823E+02 -0.86533256596E+02  0.91553951606E+02  0.00000000000E+00 0. -1.
        -12    1    3    3    0    0  0.30785612736E+02 -0.83261748294E+02 -0.10562090205E+03  0.13797118406E+03  0.00000000000E+00 0.  1.
        -11    1    4    4    0    0 -0.15936127588E+02 -0.13217589807E+02  0.22354475354E+02  0.30469450457E+02  0.00000000000E+00 0.  1.
         11    1    4    4    0    0 -0.46162983799E+01  0.25152008575E+02 -0.69086604222E+02  0.73667446196E+02  0.00000000000E+00 0. -1.
          2    1    1    2  501    0 -0.29228759310E+02  0.48234261703E+02  0.10346684186E+02  0.57340371872E+02  0.00000000000E+00 0. -1.
<scales pt_clust_5="13000.00000" pt_clust_6="13000.00000" pt_clust_7="13000.00000" pt_clust_8="13000.00000" pt_clust_9="56.39915"></scales>
<clustering>
<clus scale="   56.399">  1  9  2 -1</clus>
<clus scale="   89.976">  7  8 -1 -1</clus>
<clus scale="   98.286">  5  6 -1 -1</clus>
<clus scale="  106.078">  1  7  2 -1</clus>
<clus scale="   56.399">  1  5  2 -1</clus>
</clustering>
</event>
<event>
 9    1  0.4731329E-005  0.1246936E+03  0.7546771E-02  0.1238956E+00
          1   -1    0    0  502    0 -0.00000000000E+00  0.00000000000E+00  0.61591791976E+03  0.61591791976E+03  0.00000000000E+00 0. -1.
         21   -1    0    0  501  502  0.00000000000E+00 -0.00000000000E+00 -0.50184364487E+02  0.50184364487E+02  0.00000000000E+00 0.  1.
         23    2    1    2    0    0  0.74697091907E+02 -0.54676290539E+02  0.44952504071E+03  0.46853484080E+03  0.94249575779E+02 0.  0.
        -24    2    1    2    0    0 -0.59272208675E+02 -0.35044938329E+00  0.65087785679E+02  0.12089151469E+03  0.82855421927E+02 0.  0.
         13    1    4    4    0    0 -0.20262231958E+02 -0.12474285208E+02  0.75144155322E+02  0.78821379806E+02  0.00000000000E+00 0. -1.
        -14    1    4    4    0    0 -0.39009976717E+02  0.12123835824E+02 -0.10056369643E+02  0.42070134882E+02  0.00000000000E+00 0.  1.
        -11    1    3    3    0    0  0.31278792970E+02 -0.62311639949E+02  0.37903876339E+03  0.38539783019E+03  0.00000000000E+00 0. -1.
         11    1    3    3    0    0  0.43418298937E+02  0.76353494107E+01  0.70486277318E+02  0.83137010611E+02  0.00000000000E+00 0.  1.
          2    1    1    2  501    0 -0.15424883232E+02  0.55026739922E+02  0.51120728884E+02  0.76675928757E+02  0.00000000000E+00 0. -1.
<scales pt_clust_5="13000.00000" pt_clust_6="13000.00000" pt_clust_7="13000.00000" pt_clust_8="13000.00000" pt_clust_9="57.14778"></scales>
<clustering>
<clus scale="   57.148">  2  9  1 -1</clus>
<clus scale="   82.855">  5  6 -1 -1</clus>
<clus scale="   94.250">  7  8 -1 -1</clus>
<clus scale="  116.321">  2  5  1 -1</clus>
<clus scale="   57.148">  2  5  1 -1</clus>
</clustering>
</event>
<event>
 9    1  0.4731329E-005  0.1169818E+03  0.7546771E-02  0.1252100E+00
         -2   -1    0    0    0  501 -0.00000000000E+00  0.00000000000E+00  0.41895435972E+03  0.41895435972E+03  0.00000000000E+00 0.  1.
         21   -1    0    0  501  502  0.00000000000E+00 -0.00000000000E+00 -0.11420838540E+03  0.11420838540E+03  0.00000000000E+00 0.  1.
         23    2    1    2    0    0 -0.42247340060E+02  0.68700841084E+02  0.29566369999E+03  0.32011864139E+03  0.92489338656E+02 0.  0.
        -24    2    1    2    0    0  0.11821021096E+02 -0.55966035827E+02  0.84784172193E+02  0.13046860197E+03  0.81004731585E+02 0.  0.
         11    1    4    4    0    0  0.23706102500E+02 -0.73679727241E+02  0.61226708105E+02  0.98688354365E+02  0.00000000000E+00 0. -1.
        -12    1    4    4    0    0 -0.11885081403E+02  0.17713691413E+02  0.23557464088E+02  0.31780247603E+02  0.00000000000E+00 0.  1.
        -11    1    3    3    0    0 -0.57428422583E+02  0.14103396813E+02  0.20358154199E+03  0.21199616450E+03  0.00000000000E+00 0. -1.
         11    1    3    3    0    0  0.15181082523E+02  0.54597444271E+02  0.92082158003E+02  0.10812247690E+03  0.00000000000E+00 0.  1.
         -1    1    1    2    0  502  0.30426318963E+02 -0.12734805257E+02 -0.75701897868E+02  0.82575501763E+02  0.00000000000E+00 0.  1.
<scales pt_clust_5="13000.00000" pt_clust_6="13000.00000" pt_clust_7="13000.00000" pt_clust_8="13000.00000" pt_clust_9="32.98388"></scales>
<clustering>
<clus scale="   32.984">  2  9  1 -1</clus>
<clus scale="   81.005">  5  6 -1 -1</clus>
<clus scale="   92.489">  7  8 -1 -1</clus>
<clus scale="  108.131">  2  5  1 -1</clus>
<clus scale="   32.984">  2  5  1 -1</clus>
</clustering>
</event>
<event>
 9    1  0.4731329E-005  0.9381812E+02  0.7546771E-02  0.1301028E+00
          1   -1    0    0  502    0 -0.00000000000E+00  0.00000000000E+00  0.49616227372E+03  0.49616227372E+03  0.00000000000E+00 0. -1.
         21   -1    0    0  501  502  0.00000000000E+00 -0.00000000000E+00 -0.73602877923E+02  0.73602877923E+02  0.00000000000E+00 0. -1.
         23    2    1    2    0    0 -0.81462809561E+01 -0.12794747966E+02  0.33298666695E+03  0.34565631655E+03  0.91477326896E+02 0.  0.
        -24    2    1    2    0    0 -0.14897300903E+01  0.34595853541E+02  0.14208237251E+03  0.16644252266E+03  0.79477169002E+02 0.  0.
         13    1    4    4    0    0 -0.37616518466E+02  0.21526716189E+02  0.10247734780E+03  0.11126548783E+03  0.00000000000E+00 0. -1.
        -14    1    4    4    0    0  0.36126788376E+02  0.13069137352E+02  0.39605024715E+02  0.55177034826E+02  0.00000000000E+00 0.  1.
        -13    1    3    3    0    0  0.22327348846E+02  0.29997130663E+02  0.98558138693E+02  0.10541368534E+03  0.00000000000E+00 0.  1.
         13    1    3    3    0    0 -0.30473629802E+02 -0.42791878629E+02  0.23442852825E+03  0.24024263121E+03  0.00000000000E+00 0. -1.
          2    1    1    2  501    0  0.96360110464E+01 -0.21801105575E+02 -0.52509643658E+02  0.57666312439E+02  0.00000000000E+00 0. -1.
<scales pt_clust_5="13000.00000" pt_clust_6="13000.00000" pt_clust_7="13000.00000" pt_clust_8="13000.00000" pt_clust_9="23.83571"></scales>
<clustering>
<clus scale="   23.836">  2  9  1 -1</clus>
<clus scale="   79.477">  5  6 -1 -1</clus>
<clus scale="   82.161">  2  5  1 -1</clus>
<clus scale="   91.477">  7  8 -1 -1</clus>
<clus scale="   23.836">  2  5  1 -1</clus>
</clustering>
</event>
<event>
 9    1  0.4731329E-005  0.9587360E+02  0.7546771E-02  0.1295718E+00
         21   -1    0    0  501  502  0.00000000000E+00  0.00000000000E+00  0.21137939944E+03  0.21137939944E+03  0.00000000000E+00 0.  1.
          1   -1    0    0  502    0 -0.00000000000E+00 -0.00000000000E+00 -0.10913317657E+03  0.10913317657E+03  0.00000000000E+00 0. -1.
         23    2    1    2    0    0 -0.24809323986E+02  0.26317606682E+02 -0.49667081498E+02  0.11073624551E+03  0.92128052775E+02 0.  0.
        -24    2    1    2    0    0 -0.14978781872E+02 -0.16460663887E+02  0.44451675386E+02  0.94762181835E+02  0.80675909041E+02 0.  0.
         13    1    4    4    0    0  0.19278956674E+02  0.13700675872E+02  0.43024403850E+02  0.49096700667E+02  0.00000000000E+00 0. -1.
        -14    1    4    4    0    0 -0.34257738545E+02 -0.30161339758E+02  0.14272715359E+01  0.45665481168E+02  0.00000000000E+00 0.  1.
        -13    1    3    3    0    0  0.35197672109E+02  0.12456568895E+02 -0.20445381147E+02  0.42568249210E+02  0.00000000000E+00 0. -1.
         13    1    3    3    0    0 -0.60006996095E+02  0.13861037787E+02 -0.29221700351E+02  0.68167996305E+02  0.00000000000E+00 0.  1.
          2    1    1    2  501    0  0.39788105858E+02 -0.98569427950E+01  0.10746162899E+03  0.11501414867E+03  0.00000000000E+00 0. -1.
<scales pt_clust_5="13000.00000" pt_clust_6="13000.00000" pt_clust_7="13000.00000" pt_clust_8="13000.00000" pt_clust_9="40.99089"></scales>
<clustering>
<clus scale="   40.991">  1  9  2 -1</clus>
<clus scale="   80.676">  5  6 -1 -1</clus>
<clus scale="   84.928">  1  5  2 -1</clus>
<clus scale="   92.128">  7  8 -1 -1</clus>
<clus scale="   40.991">  1  5  2 -1</clus>
</clustering>
</event>
<event>
 9    1  0.4731329E-005  0.1151652E+03  0.7546771E-02  0.1254516E+00
          1   -1    0    0  502    0 -0.00000000000E+00  0.00000000000E+00  0.13301628610E+03  0.13301628610E+03  0.00000000000E+00 0. -1.
         21   -1    0    0  501  502  0.00000000000E+00 -0.00000000000E+00 -0.47966090671E+03  0.47966090671E+03  0.00000000000E+00 0. -1.
         23    2    1    2    0    0 -0.52484164816E+02  0.64769084707E+02  0.53480238951E+02  0.13322943758E+03  0.89108502339E+02 0.  0.
        -24    2    1    2    0    0  0.74676313782E+02  0.56513300001E+01 -0.47547091089E+02  0.11922198004E+03  0.79653407230E+02 0.  0.
         13    1    4    4    0    0 -0.85401223740E+00  0.21922694169E+02  0.87544767418E+01  0.23621488513E+02  0.00000000000E+00 0. -1.
        -14    1    4    4    0    0  0.75530326019E+02 -0.16271364169E+02 -0.56301567830E+02  0.95600491529E+02  0.00000000000E+00 0.  1.
        -11    1    3    3    0    0 -0.33078792187E+02  0.55848372339E+02 -0.10522799708E+02  0.65756950196E+02  0.00000000000E+00 0.  1.
         11    1    3    3    0    0 -0.19405372629E+02  0.89207123684E+01  0.64003038659E+02  0.67472487383E+02  0.00000000000E+00 0. -1.
          2    1    1    2  501    0 -0.22192148965E+02 -0.70420414707E+02 -0.35257776847E+03  0.36022577518E+03  0.00000000000E+00 0. -1.
<scales pt_clust_5="13000.00000" pt_clust_6="13000.00000" pt_clust_7="13000.00000" pt_clust_8="13000.00000" pt_clust_9="73.83445"></scales>
<clustering>
<clus scale="   73.834">  2  9  1 -1</clus>
<clus scale="   79.653">  5  6 -1 -1</clus>
<clus scale="   89.109">  7  8 -1 -1</clus>
<clus scale="  108.016">  2  5  1 -1</clus>
<clus scale="   73.834">  2  5  1 -1</clus>
</clustering>
</event>
<event>
 9    1  0.4731329E-005  0.1615119E+03  0.7546771E-02  0.1188782E+00
          1   -1    0    0  502    0 -0.00000000000E+00  0.00000000000E+00  0.48546700755E+03  0.48546700755E+03  0.00000000000E+00 0. -1.
         21   -1    0    0  501  502  0.00000000000E+00 -0.00000000000E+00 -0.10633993707E+03  0.10633993707E+03  0.00000000000E+00 0.  1.
        -24    2    1    2    0    0  0.13559292010E+03 -0.70908176564E+02  0.21580345751E+03  0.27618220113E+03  0.79322546976E+02 0.  0.
         23    2    1    2    0    0 -0.12569626923E+03 -0.34768400250E+02  0.12681716761E+03  0.20338302604E+03  0.90959702743E+02 0.  0.
         11    1    3    3    0    0  0.94956198727E+02 -0.13763949130E+02  0.16001401682E+03  0.18657602084E+03  0.00000000000E+00 0. -1.
        -12    1    3    3    0    0  0.40636721371E+02 -0.57144227434E+02  0.55789440693E+02  0.89606180287E+02  0.00000000000E+00 0.  1.
        -13    1    4    4    0    0 -0.64119230561E+02 -0.19172103514E+02  0.12265534770E+03  0.13972537207E+03  0.00000000000E+00 0. -1.
         13    1    4    4    0    0 -0.61577038673E+02 -0.15596296737E+02  0.41618199152E+01  0.63657653968E+02  0.00000000000E+00 0.  1.
          2    1    1    2  501    0 -0.98966508638E+01  0.10567657681E+03  0.36506445354E+02  0.11224171746E+03  0.00000000000E+00 0. -1.
<scales pt_clust_5="13000.00000" pt_clust_6="13000.00000" pt_clust_7="13000.00000" pt_clust_8="13000.00000" pt_clust_9="106.13898"></scales>
<clustering>
<clus scale="   79.323">  5  6 -1 -1</clus>
<clus scale="   90.960">  7  8 -1 -1</clus>
<clus scale="  106.139">  2  9  1 -1</clus>
<clus scale="  155.256">  1  5  2 -1</clus>
<clus scale="  106.139">  2  5  1 -1</clus>
</clustering>
</event>
<event>
 9    1  0.4731329E-005  0.2562070E+03  0.7546771E-02  0.1149484E+00
         21   -1    0    0  501  502  0.00000000000E+00  0.00000000000E+00  0.39757929411E+03  0.39757929411E+03  0.00000000000E+00 0. -1.
          1   -1    0    0  502    0 -0.00000000000E+00 -0.00000000000E+00 -0.37668418588E+03  0.37668418588E+03  0.00000000000E+00 0. -1.
         23    2    1    2    0    0 -0.29859706980E+02 -0.52922480658E+01 -0.13580860896E+03  0.16614728421E+03  0.90781781163E+02 0.  0.
        -24    2    1    2    0    0 -0.20860334963E+03 -0.67159788781E+02 -0.95969777547E+02  0.25321082536E+03  0.82944132836E+02 0.  0.
         11    1    4    4    0    0 -0.14276334666E+03 -0.79983677778E+02 -0.47313553196E+02  0.17034475095E+03  0.00000000000E+00 0. -1.
        -12    1    4    4    0    0 -0.65840002969E+02  0.12823888997E+02 -0.48656224351E+02  0.82866074410E+02  0.00000000000E+00 0.  1.
        -11    1    3    3    0    0  0.27721582126E+02 -0.18454650961E+02 -0.29301589783E+02  0.44358126893E+02  0.00000000000E+00 0.  1.
         11    1    3    3    0    0 -0.57581289106E+02  0.13162402896E+02 -0.10650701918E+03  0.12178915732E+03  0.00000000000E+00 0. -1.
          2    1    1    2  501    0  0.23846305661E+03  0.72452036847E+02  0.25267349474E+03  0.35490537043E+03  0.00000000000E+00 0. -1.
<scales pt_clust_5="13000.00000" pt_clust_6="13000.00000" pt_clust_7="13000.00000" pt_clust_8="13000.00000" pt_clust_9="242.40931"></scales>
<clustering>
<clus scale="   82.944">  5  6 -1 -1</clus>
<clus scale="   90.782">  7  8 -1 -1</clus>
<clus scale="   95.713">  2  7  1 -1</clus>
<clus scale="  242.409">  1  9  2 -1</clus>
<clus scale="  242.409">  1  5  2 -1</clus>
</clustering>
</event>
<event>
 9    1  0.4731329E-005  0.2187412E+03  0.7546771E-02  0.1150570E+00
          1   -1    0    0  502    0 -0.00000000000E+00  0.00000000000E+00  0.53701354942E+03  0.53701354942E+03  0.00000000000E+00 0. -1.
         21   -1    0    0  501  502  0.00000000000E+00 -0.00000000000E+00 -0.25944599606E+03  0.25944599606E+03  0.00000000000E+00 0. -1.
         23    2    1    2    0    0 -0.56968764876E+02  0.10886152478E+03  0.10240097659E+03  0.18153206760E+03  0.85858370653E+02 0.  0.
        -24    2    1    2    0    0  0.17399252674E+03 -0.25271080040E+03  0.26089147213E+03  0.41063373685E+03  0.80122141813E+02 0.  0.
         11    1    4    4    0    0  0.90237259791E+02 -0.18549036156E+03  0.14204208674E+03  0.25045037770E+03  0.00000000000E+00 0. -1.
        -12    1    4    4    0    0  0.83755266949E+02 -0.67220438840E+02  0.11884938539E+03  0.16018335915E+03  0.00000000000E+00 0.  1.
        -11    1    3    3    0    0 -0.49921787767E+02  0.33437407014E+02  0.81867644500E+01  0.60640483127E+02  0.00000000000E+00 0. -1.
         11    1    3    3    0    0 -0.70469771093E+01  0.75424117762E+02  0.94214212140E+02  0.12089158447E+03  0.00000000000E+00 0.  1.
          2    1    1    2  501    0 -0.11702376186E+03  0.14384927562E+03 -0.85724895357E+02  0.20429374103E+03  0.00000000000E+00 0. -1.
<scales pt_clust_5="13000.00000" pt_clust_6="13000.00000" pt_clust_7="13000.00000" pt_clust_8="13000.00000" pt_clust_9="203.53907"></scales>
<clustering>
<clus scale="   80.122">  5  6 -1 -1</clus>
<clus scale="   85.858">  7  8 -1 -1</clus>
<clus scale="  149.893">  1  7  2 -1</clus>
<clus scale="  203.539">  2  9  1 -1</clus>
<clus scale="  203.539">  2  5  1 -1</clus>
</clustering>
</event>
<event>
 9    1  0.4731329E-005  0.1146915E+03  0.7546771E-02  0.1257297E+00
         21   -1    0    0  501  502  0.00000000000E+00  0.00000000000E+00  0.12088200257E+03  0.12088200257E+03  0.00000000000E+00 0. -1.
          1   -1    0    0  502    0 -0.00000000000E+00 -0.00000000000E+00 -0.41919893225E+03  0.41919893225E+03  0.00000000000E+00 0. -1.
         23    2    1    2    0    0  0.54120847925E+02  0.44901528706E+02 -0.36558766388E+03  0.38331836081E+03  0.91287525425E+02 0.  0.
        -24    2    1    2    0    0 -0.28755515492E+02 -0.62351075921E+02  0.27748055715E+02  0.10666338337E+03  0.76763183989E+02 0.  0.
         11    1    4    4    0    0 -0.13465528680E+01 -0.59273578371E+02  0.44733586346E+02  0.74271556095E+02  0.00000000000E+00 0. -1.
        -12    1    4    4    0    0 -0.27408962624E+02 -0.30774975501E+01 -0.16985530631E+02  0.32391827274E+02  0.00000000000E+00 0.  1.
        -13    1    3    3    0    0  0.48755222612E+02  0.71311233328E+02 -0.30520724660E+03  0.31719682708E+03  0.00000000000E+00 0. -1.
         13    1    3    3    0    0  0.53656253131E+01 -0.26409704622E+02 -0.60380417279E+02  0.66121533740E+02  0.00000000000E+00 0.  1.
          2    1    1    2  501    0 -0.25365332433E+02  0.17449547215E+02  0.39522678487E+02  0.50099190635E+02  0.00000000000E+00 0. -1.
<scales pt_clust_5="13000.00000" pt_clust_6="13000.00000" pt_clust_7="13000.00000" pt_clust_8="13000.00000" pt_clust_9="30.78777"></scales>
<clustering>
<clus scale="   30.788">  1  9  2 -1</clus>
<clus scale="   76.763">  5  6 -1 -1</clus>
<clus scale="   91.288">  7  8 -1 -1</clus>
<clus scale="  103.505">  1  5  2 -1</clus>
<clus scale="   30.788">  1  5  2 -1</clus>
</clustering>
</event>
<event>
 9    1  0.4731329E-005  0.1051652E+03  0.7546771E-02  0.1275147E+00
         21   -1    0    0  501  502  0.00000000000E+00  0.00000000000E+00  0.62365045360E+03  0.62365045360E+03  0.00000000000E+00 0. -1.
          1   -1    0    0  502    0 -0.00000000000E+00 -0.00000000000E+00 -0.37283761874E+02  0.37283761874E+02  0.00000000000E+00 0. -1.
        -24    2    1    2    0    0 -0.29386408894E+02  0.32232919751E+02  0.87580424127E+02  0.12652664933E+03  0.80225558006E+02 0.  0.
         23    2    1    2    0    0 -0.29990590709E+01 -0.81699064990E+02  0.25026658177E+03  0.27895159674E+03  0.92178629823E+02 0.  0.
         13    1    3    3    0    0 -0.49274024322E+02  0.25204317045E+02  0.89622850013E+02  0.10533490549E+03  0.00000000000E+00 0. -1.
        -14    1    3    3    0    0  0.19887615428E+02  0.70286027057E+01 -0.20424258866E+01  0.21191743838E+02  0.00000000000E+00 0.  1.
        -13    1    4    4    0    0 -0.33531134879E+02 -0.45021430137E+02  0.57472990330E+02  0.80339347740E+02  0.00000000000E+00 0.  1.
         13    1    4    4    0    0  0.30532075808E+02 -0.36677634853E+02  0.19279359144E+03  0.19861224900E+03  0.00000000000E+00 0. -1.
          2    1    1    2  501    0  0.32385467964E+02  0.49466145239E+02  0.24851968583E+03  0.25545596940E+03  0.00000000000E+00 0. -1.
<scales pt_clust_5="13000.00000" pt_clust_6="13000.00000" pt_clust_7="13000.00000" pt_clust_8="13000.00000" pt_clust_9="59.12460"></scales>
<clustering>
<clus scale="   59.125">  1  9  2 -1</clus>
<clus scale="   80.226">  5  6 -1 -1</clus>
<clus scale="   92.179">  7  8 -1 -1</clus>
<clus scale="   94.863">  2  5  1 -1</clus>
<clus scale="   59.125">  1  5  2 -1</clus>
</clustering>
</event>
<event>
 9    1  0.4731329E-005  0.9141569E+02  0.7546771E-02  0.1306570E+00
         21   -1    0    0  501  502  0.00000000000E+00  0.00000000000E+00  0.34199535288E+03  0.34199535288E+03  0.00000000000E+00 0. -1.
          3   -1    0    0  502    0 -0.00000000000E+00 -0.00000000000E+00 -0.51920203214E+02  0.51920203214E+02  0.00000000000E+00 0. -1.
        -24    2    1    2    0    0  0.41471603340E+01 -0.23537772404E+02  0.48273651774E+02  0.96283397946E+02  0.79805523592E+02 0.  0.
         23    2    1    2    0    0 -0.48624299207E+01 -0.40000015678E+02  0.19421639768E+03  0.21824762636E+03  0.91040500900E+02 0.  0.
         11    1    3    3    0    0 -0.20724835638E+02 -0.41590472452E+02  0.10595522455E+02  0.47660794235E+02  0.00000000000E+00 0. -1.
        -12    1    3    3    0    0  0.24871995973E+02  0.18052700047E+02  0.37678129319E+02  0.48622603711E+02  0.00000000000E+00 0.  1.
        -13    1    4    4    0    0  0.19969441789E+02  0.11252717902E+02  0.13169881274E+03  0.13367864281E+03  0.00000000000E+00 0.  1.
         13    1    4    4    0    0 -0.24831871710E+02 -0.51252733581E+02  0.62517584939E+02  0.84568983550E+02  0.00000000000E+00 0. -1.
          4    1    1    2  501    0  0.71526958667E+00  0.63537788083E+02  0.47585100208E+02  0.79384531786E+02  0.00000000000E+00 0. -1.
<scales pt_clust_5="13000.00000" pt_clust_6="13000.00000" pt_clust_7="13000.00000" pt_clust_8="13000.00000" pt_clust_9="63.54185"></scales>
<clustering>
<clus scale="   63.542">  1  9  2 -1</clus>
<clus scale="   79.806">  5  6 -1 -1</clus>
<clus scale="   80.233">  2  5  1 -1</clus>
<clus scale="   91.041">  7  8 -1 -1</clus>
<clus scale="   63.542">  1  5  2 -1</clus>
</clustering>
</event>
<event>
 9    1  0.4731329E-005  0.1028182E+03  0.7546771E-02  0.1281393E+00
          1   -1    0    0  502    0 -0.00000000000E+00  0.00000000000E+00  0.62580358376E+03  0.62580358376E+03  0.00000000000E+00 0. -1.
         21   -1    0    0  501  502  0.00000000000E+00 -0.00000000000E+00 -0.89103830633E+02  0.89103830633E+02  0.00000000000E+00 0.  1.
        -24    2    1    2    0    0 -0.45681426922E+02 -0.84713720630E+01  0.37953620819E+03  0.39055885486E+03  0.79560850117E+02 0.  0.
         23    2    1    2    0    0 -0.20654649330E+02  0.16813011629E+02 -0.47967771547E+02  0.10859658396E+03  0.93717762674E+02 0.  0.
         11    1    3    3    0    0 -0.39965291639E+02 -0.42073501772E+02  0.23526918914E+03  0.24232002691E+03  0.00000000000E+00 0. -1.
        -12    1    3    3    0    0 -0.57161352822E+01  0.33602129709E+02  0.14426701905E+03  0.14823882794E+03  0.00000000000E+00 0.  1.
        -11    1    4    4    0    0  0.21127788720E+01  0.39015065711E+02 -0.62440267324E+02  0.73657492291E+02  0.00000000000E+00 0.  1.
         11    1    4    4    0    0 -0.22767428202E+02 -0.22202054082E+02  0.14472495777E+02  0.34939091665E+02  0.00000000000E+00 0. -1.
          2    1    1    2  501    0  0.66336076251E+02 -0.83416395664E+01  0.20513131648E+03  0.21575197558E+03  0.00000000000E+00 0. -1.
<scales pt_clust_5="13000.00000" pt_clust_6="13000.00000" pt_clust_7="13000.00000" pt_clust_8="13000.00000" pt_clust_9="66.85853"></scales>
<clustering>
<clus scale="   66.859">  2  9  1 -1</clus>
<clus scale="   79.561">  5  6 -1 -1</clus>
<clus scale="   90.103">  1  5  2 -1</clus>
<clus scale="   93.718">  7  8 -1 -1</clus>
<clus scale="   66.859">  2  5  1 -1</clus>
</clustering>
</event>
<event>
 9    1  0.4731329E-005  0.9425832E+02  0.7546771E-02  0.1298495E+00
         21   -1    0    0  501  502  0.00000000000E+00  0.00000000000E+00  0.70209100868E+03  0.70209100868E+03  0.00000000000E+00 0. -1.
          3   -1    0    0  502    0 -0.00000000000E+00 -0.00000000000E+00 -0.32043619055E+02  0.32043619055E+02  0.00000000000E+00 0. -1.
         23    2    1    2    0    0 -0.30402453238E+02  0.90312556156E+01  0.55523394910E+02  0.10893101149E+03  0.88188690554E+02 0.  0.
        -24    2    1    2    0    0  0.36309730525E+02 -0.29189299050E+02  0.54637500864E+03  0.55389073561E+03  0.78095359824E+02 0.  0.
         11    1    4    4    0    0  0.44116250130E+02  0.13902795069E+02  0.24193500947E+03  0.24631703158E+03  0.00000000000E+00 0. -1.
        -12    1    4    4    0    0 -0.78065196050E+01 -0.43092094119E+02  0.30443999916E+03  0.30757370404E+03  0.00000000000E+00 0.  1.
        -13    1    3    3    0    0 -0.19770754028E+02 -0.38214850643E+02  0.14319481048E+02  0.45346499997E+02  0.00000000000E+00 0.  1.
         13    1    3    3    0    0 -0.10631699210E+02  0.47246106258E+02  0.41203913862E+02  0.63584511496E+02  0.00000000000E+00 0. -1.
          4    1    1    2  501    0 -0.59072772876E+01  0.20158043434E+02  0.68148986083E+02  0.71312880633E+02  0.00000000000E+00 0. -1.
<scales pt_clust_5="13000.00000" pt_clust_6="13000.00000" pt_clust_7="13000.00000" pt_clust_8="13000.00000" pt_clust_9="21.00578"></scales>
<clustering>
<clus scale="   21.006">  1  9  2 -1</clus>
<clus scale="   78.095">  5  6 -1 -1</clus>
<clus scale="   84.890">  1  5  2 -1</clus>
<clus scale="   88.189">  7  8 -1 -1</clus>
<clus scale="   21.006">  1  5  2 -1</clus>
</clustering>
</event>
<event>
 9    1  0.4731329E-005  0.1073058E+03  0.7546771E-02  0.1271671E+00
         21   -1    0    0  501  502  0.00000000000E+00  0.00000000000E+00  0.69592193772E+02  0.69592193772E+02  0.00000000000E+00 0. -1.
          1   -1    0    0  502    0 -0.00000000000E+00 -0.00000000000E+00 -0.34604941862E+03  0.34604941862E+03  0.00000000000E+00 0. -1.
        -24    2    1    2    0    0  0.46746543423E+02  0.56588253895E+02 -0.20581951891E+03  0.23916850814E+03  0.97223614002E+02 0.  0.
         23    2    1    2    0    0 -0.18774269266E+02  0.37263964540E+01 -0.68332852939E+02  0.10994778940E+03  0.83980821544E+02 0.  0.
         11    1    3    3    0    0  0.67669279656E+02  0.13481348602E+02 -0.15308404235E+03  0.16791546144E+03  0.00000000000E+00 0. -1.
        -12    1    3    3    0    0 -0.20922736233E+02  0.43106905293E+02 -0.52735476565E+02  0.71253046700E+02  0.00000000000E+00 0.  1.
        -11    1    4    4    0    0 -0.41629123896E+02 -0.19223915120E+02 -0.61722506510E+02  0.76890901145E+02  0.00000000000E+00 0.  1.
         11    1    4    4    0    0  0.22854854630E+02  0.22950311574E+02 -0.66103464287E+01  0.33056888260E+02  0.00000000000E+00 0. -1.
          2    1    1    2  501    0 -0.27972274157E+02 -0.60314650349E+02 -0.23048529968E+01  0.66525314848E+02  0.00000000000E+00 0. -1.
<scales pt_clust_5="13000.00000" pt_clust_6="13000.00000" pt_clust_7="13000.00000" pt_clust_8="13000.00000" pt_clust_9="66.48538"></scales>
<clustering>
<clus scale="   66.485">  1  9  2 -1</clus>
<clus scale="   83.981">  7  8 -1 -1</clus>
<clus scale="   95.472">  1  7  2 -1</clus>
<clus scale="   97.224">  5  6 -1 -1</clus>
<clus scale="   66.485">  1  5  2 -1</clus>
</clustering>
</event>
<event>
 9    1  0.4731329E-005  0.1276191E+03  0.7546771E-02  0.1239667E+00
          3   -1    0    0  502    0 -0.00000000000E+00  0.00000000000E+00  0.11592008888E+04  0.11592008888E+04  0.00000000000E+00 0. -1.
         21   -1    0    0  501  502  0.00000000000E+00 -0.00000000000E+00 -0.25756153760E+02  0.25756153760E+02  0.00000000000E+00 0.  1.
         23    2    1    2    0    0 -0.37812224998E+02  0.46874356022E+02  0.37201962584E+03  0.38708671617E+03  0.88377339918E+02 0.  0.
        -24    2    1    2    0    0 -0.77523175884E+02 -0.40104258124E+02  0.33840288282E+03  0.35935477030E+03  0.83672848154E+02 0.  0.
         13    1    4    4    0    0 -0.26854245411E+02 -0.45751222911E+02  0.26324088391E+03  0.26853321555E+03  0.00000000000E+00 0. -1.
        -14    1    4    4    0    0 -0.50668930473E+02  0.56469647865E+01  0.75161998918E+02  0.90821554754E+02  0.00000000000E+00 0.  1.
        -13    1    3    3    0    0 -0.10118817684E+01 -0.25492893794E+02  0.78183747967E+02  0.82241169647E+02  0.00000000000E+00 0. -1.
         13    1    3    3    0    0 -0.36800343230E+02  0.72367249817E+02  0.29383587787E+03  0.30484554652E+03  0.00000000000E+00 0.  1.
          4    1    1    2  501    0  0.11533540088E+03 -0.67700978981E+01  0.42302222636E+03  0.43851555607E+03  0.00000000000E+00 0. -1.
<scales pt_clust_5="13000.00000" pt_clust_6="13000.00000" pt_clust_7="13000.00000" pt_clust_8="13000.00000" pt_clust_9="96.36126"></scales>
<clustering>
<clus scale="   83.673">  5  6 -1 -1</clus>
<clus scale="   88.377">  7  8 -1 -1</clus>
<clus scale="  106.946">  1  7  2 -1</clus>
<clus scale="   96.361">  2  9  1 -1</clus>
<clus scale="   96.361">  2  5  1 -1</clus>
</clustering>
</event>
<event>
 9    1  0.4731329E-005  0.9171847E+02  0.7546771E-02  0.1304311E+00
          3   -1    0    0  502    0 -0.00000000000E+00  0.00000000000E+00  0.58368673792E+02  0.58368673792E+02  0.00000000000E+00 0. -1.
         21   -1    0    0  501  502  0.00000000000E+00 -0.00000000000E+00 -0.76185071213E+03  0.76185071213E+03  0.00000000000E+00 0. -1.
        -24    2    1    2    0    0  0.19834116087E+02  0.18442924660E+02 -0.30319867599E+03  0.31534213889E+03  0.82326750250E+02 0.  0.
         23    2    1    2    0    0  0.47254285980E+02  0.21901360785E+02 -0.41246761657E+03  0.42564990888E+03  0.91299907232E+02 0.  0.
         13    1    3    3    0    0  0.18757079767E+02  0.36684960610E+02 -0.68524961969E+02  0.79958018918E+02  0.00000000000E+00 0. -1.
        -14    1    3    3    0    0  0.10770363198E+01 -0.18242035950E+02 -0.23467371402E+03  0.23538411998E+03  0.00000000000E+00 0.  1.
        -11    1    4    4    0    0  0.42908426392E+02 -0.26873200935E+02 -0.14130422855E+03  0.15010058957E+03  0.00000000000E+00 0. -1.
         11    1    4    4    0    0  0.43458595875E+01  0.48774561721E+02 -0.27116338802E+03  0.27554931931E+03  0.00000000000E+00 0.  1.
          4    1    1    2  501    0 -0.67088402067E+02 -0.40344285446E+02  0.12184254222E+02  0.79227338154E+02  0.00000000000E+00 0. -1.
<scales pt_clust_5="13000.00000" pt_clust_6="13000.00000" pt_clust_7="13000.00000" pt_clust_8="13000.00000" pt_clust_9="78.28487"></scales>
<clustering>
<clus scale="   78.285">  2  9  1 -1</clus>
<clus scale="   82.327">  5  6 -1 -1</clus>
<clus scale="   82.791">  1  5  2 -1</clus>
<clus scale="   91.300">  7  8 -1 -1</clus>
<clus scale="   78.285">  2  5  1 -1</clus>
</clustering>
</event>
<event>
 9    1  0.4731329E-005  0.1257114E+03  0.7546771E-02  0.1236432E+00
         21   -1    0    0  501  502  0.00000000000E+00  0.00000000000E+00  0.78338176528E+02  0.78338176528E+02  0.00000000000E+00 0.  1.
          1   -1    0    0  502    0 -0.00000000000E+00 -0.00000000000E+00 -0.49431128612E+03  0.49431128612E+03  0.00000000000E+00 0. -1.
        -24    2    1    2    0    0 -0.67102036392E+02  0.54694852304E+02 -0.31619079514E+03  0.33763026096E+03  0.80767345079E+02 0.  0.
         23    2    1    2    0    0  0.99001079473E+02 -0.30175727275E+02 -0.10813971610E+02  0.13737647297E+03  0.89685924713E+02 0.  0.
         11    1    3    3    0    0 -0.75617817505E+02  0.57228446224E+02 -0.20263824076E+03  0.22373065503E+03  0.00000000000E+00 0. -1.
        -12    1    3    3    0    0  0.85157811127E+01 -0.25335939205E+01 -0.11355255437E+03  0.11389960593E+03  0.00000000000E+00 0.  1.
        -13    1    4    4    0    0  0.80091108866E+00 -0.36537783026E+02  0.74283474972E+01  0.37293851954E+02  0.00000000000E+00 0.  1.
         13    1    4    4    0    0  0.98200168384E+02  0.63620557505E+01 -0.18242319108E+02  0.10008262102E+03  0.00000000000E+00 0. -1.
          2    1    1    2  501    0 -0.31899043081E+02 -0.24519125029E+02 -0.88968342845E+02  0.97642728712E+02  0.00000000000E+00 0. -1.
<scales pt_clust_5="13000.00000" pt_clust_6="13000.00000" pt_clust_7="13000.00000" pt_clust_8="13000.00000" pt_clust_9="40.23354"></scales>
<clustering>
<clus scale="   40.234">  1  9  2 -1</clus>
<clus scale="   80.767">  5  6 -1 -1</clus>
<clus scale="   89.686">  7  8 -1 -1</clus>
<clus scale="  119.512">  2  5  1 -1</clus>
<clus scale="   40.234">  1  5  2 -1</clus>
</clustering>
</event>
<event>
 9    1  0.4731329E-005  0.1164336E+03  0.7546771E-02  0.1252430E+00
          1   -1    0    0  502    0 -0.00000000000E+00  0.00000000000E+00  0.21934380821E+03  0.21934380821E+03  0.00000000000E+00 0. -1.
         21   -1    0    0  501  502  0.00000000000E+00 -0.00000000000E+00 -0.24426899229E+03  0.24426899229E+03  0.00000000000E+00 0. -1.
         23    2    1    2    0    0 -0.58194733793E+02 -0.26890391672E+02  0.10676983304E+03  0.15373123093E+03  0.90131980510E+02 0.  0.
        -24    2    1    2    0    0  0.96722167528E+02  0.33045105676E+01  0.40333442712E+02  0.13202081523E+03  0.80228496010E+02 0.  0.
         13    1    4    4    0    0  0.25015452808E+02 -0.33620269648E+02  0.14162846685E+00  0.41906031416E+02  0.00000000000E+00 0. -1.
        -14    1    4    4    0    0  0.71706714721E+02  0.36924780216E+02  0.40191814245E+02  0.90114783816E+02  0.00000000000E+00 0.  1.
        -11    1    3    3    0    0 -0.70330677095E+02  0.70131670946E+01  0.88775476047E+02  0.11347543259E+03  0.00000000000E+00 0. -1.
         11    1    3    3    0    0  0.12135943302E+02 -0.33903558766E+02  0.17994356997E+02  0.40255798347E+02  0.00000000000E+00 0.  1.
          2    1    1    2  501    0 -0.38527433735E+02  0.23585881104E+02 -0.17202845984E+03  0.17786075433E+03  0.00000000000E+00 0. -1.
<scales pt_clust_5="13000.00000" pt_clust_6="13000.00000" pt_clust_7="13000.00000" pt_clust_8="13000.00000" pt_clust_9="45.17363"></scales>
<clustering>
<clus scale="   45.174">  2  9  1 -1</clus>
<clus scale="   80.228">  5  6 -1 -1</clus>
<clus scale="   90.132">  7  8 -1 -1</clus>
<clus scale="  108.948">  2  5  1 -1</clus>
<clus scale="   45.174">  2  5  1 -1</clus>
</clustering>
</event>
<event>
 9    1  0.4731329E-005  0.1506377E+03  0.7546771E-02  0.1206574E+00
          3   -1    0    0  502    0 -0.00000000000E+00  0.00000000000E+00  0.26942801216E+03  0.26942801216E+03  0.00000000000E+00 0. -1.
         21   -1    0    0  501  502  0.00000000000E+00 -0.00000000000E+00 -0.23844540379E+03  0.23844540379E+03  0.00000000000E+00 0. -1.
        -24    2    1    2    0    0 -0.83683986586E+02  0.67860913165E+02  0.34387112034E+02  0.13430171756E+03  0.72431793555E+02 0.  0.
         23    2    1    2    0    0  0.10173911075E+02  0.10477084574E+03 -0.90448113328E+02  0.16673348779E+03  0.92405390321E+02 0.  0.
         11    1    3    3    0    0 -0.34688943427E+02 -0.10638056170E+02  0.22784363370E+01  0.36354948870E+02  0.00000000000E+00 0. -1.
        -12    1    3    3    0    0 -0.48995043159E+02  0.78498969336E+02  0.32108675697E+02  0.97946768686E+02  0.00000000000E+00 0.  1.
        -11    1    4    4    0    0 -0.95993740768E+01  0.99505954287E+02 -0.10234289829E+03  0.14306520105E+03  0.00000000000E+00 0. -1.
         11    1    4    4    0    0  0.19773285152E+02  0.52648914556E+01  0.11894784961E+02  0.23668286736E+02  0.00000000000E+00 0.  1.
          4    1    1    2  501    0  0.73510075511E+02 -0.17263175891E+03  0.87043609658E+02  0.20683821061E+03  0.00000000000E+00 0. -1.
<scales pt_clust_5="13000.00000" pt_clust_6="13000.00000" pt_clust_7="13000.00000" pt_clust_8="13000.00000" pt_clust_9="118.96631"></scales>
<clustering>
<clus scale="   72.432">  5  6 -1 -1</clus>
<clus scale="   92.405">  7  8 -1 -1</clus>
<clus scale="  129.825">  1  5  2 -1</clus>
<clus scale="  118.966">  2  9  1 -1</clus>
<clus scale="  118.966">  2  5  1 -1</clus>
</clustering>
</event>
<event>
 9    1  0.4731329E-005  0.1387609E+03  0.7546771E-02  0.1217584E+00
         21   -1    0    0  501  502  0.00000000000E+00  0.00000000000E+00  0.26117570444E+03  0.26117570444E+03  0.00000000000E+00 0. -1.
          3   -1    0    0  502    0 -0.00000000000E+00 -0.00000000000E+00 -0.12236074424E+03  0.12236074424E+03  0.00000000000E+00 0. -1.
        -24    2    1    2    0    0  0.21149570231E+02 -0.11311317322E+03 -0.27190631039E+02  0.14294590544E+03  0.80326254669E+02 0.  0.
         23    2    1    2    0    0  0.16431623822E+01  0.83159243526E+02  0.82171087477E+02  0.14869402216E+03  0.91867648504E+02 0.  0.
         13    1    3    3    0    0  0.86373589540E+01 -0.10867644745E+03  0.39530484652E+01  0.10909079151E+03  0.00000000000E+00 0. -1.
        -14    1    3    3    0    0  0.12512211277E+02 -0.44367257774E+01 -0.31143679505E+02  0.33855113938E+02  0.00000000000E+00 0.  1.
        -11    1    4    4    0    0 -0.16758410074E+02  0.40445707960E+02 -0.10487010332E+02  0.45018629324E+02  0.00000000000E+00 0.  1.
         11    1    4    4    0    0  0.18401572456E+02  0.42713535567E+02  0.92658097808E+02  0.10367539283E+03  0.00000000000E+00 0. -1.
          4    1    1    2  501    0 -0.22792732614E+02  0.29953929697E+02  0.83834503769E+02  0.91896521079E+02  0.00000000000E+00 0. -1.
<scales pt_clust_5="13000.00000" pt_clust_6="13000.00000" pt_clust_7="13000.00000" pt_clust_8="13000.00000" pt_clust_9="37.63969"></scales>
<clustering>
<clus scale="   37.640">  1  9  2 -1</clus>
<clus scale="   80.326">  5  6 -1 -1</clus>
<clus scale="   91.868">  7  8 -1 -1</clus>
<clus scale="  131.405">  2  5  1 -1</clus>
<clus scale="   37.640">  1  5  2 -1</clus>
</clustering>
</event>
<event>
 9    1  0.4731329E-005  0.1444405E+03  0.7546771E-02  0.1209454E+00
          1   -1    0    0  502    0 -0.00000000000E+00  0.00000000000E+00  0.11238142148E+04  0.11238142148E+04  0.00000000000E+00 0. -1.
         21   -1    0    0  501  502  0.00000000000E+00 -0.00000000000E+00 -0.35677417405E+02  0.35677417405E+02  0.00000000000E+00 0.  1.
        -24    2    1    2    0    0 -0.55203208028E+02  0.68086344897E+02  0.20616943048E+03  0.23824323714E+03  0.81060850236E+02 0.  0.
         23    2    1    2    0    0  0.12706308171E+03 -0.65556856742E+02  0.40685664515E+03  0.44072738856E+03  0.90915197438E+02 0.  0.
         11    1    3    3    0    0 -0.30847183439E+02  0.55680410093E+02  0.20045470178E+03  0.21031867311E+03  0.00000000000E+00 0. -1.
        -12    1    3    3    0    0 -0.24356024588E+02  0.12405934804E+02  0.57147287018E+01  0.27924564030E+02  0.00000000000E+00 0.  1.
        -13    1    4    4    0    0  0.13084907137E+03 -0.31423241245E+02  0.33734054920E+03  0.36319078416E+03  0.00000000000E+00 0.  1.
         13    1    4    4    0    0 -0.37859896645E+01 -0.34133615497E+02  0.69516095955E+02  0.77536604397E+02  0.00000000000E+00 0. -1.
          2    1    1    2  501    0 -0.71859873683E+02 -0.25294881556E+01  0.47511072178E+03  0.48052100652E+03  0.00000000000E+00 0. -1.
<scales pt_clust_5="13000.00000" pt_clust_6="13000.00000" pt_clust_7="13000.00000" pt_clust_8="13000.00000" pt_clust_9="71.90442"></scales>
<clustering>
<clus scale="   71.904">  2  9  1 -1</clus>
<clus scale="   81.061">  5  6 -1 -1</clus>
<clus scale="   90.915">  7  8 -1 -1</clus>
<clus scale="  138.450">  1  5  2 -1</clus>
<clus scale="   71.904">  2  5  1 -1</clus>
</clustering>
</event>
<event>
 9    1  0.4731329E-005  0.1116024E+03  0.7546771E-02  0.1260835E+00
          1   -1    0    0  502    0 -0.00000000000E+00  0.00000000000E+00  0.28013237814E+02  0.28013237814E+02  0.00000000000E+00 0. -1.
         21   -1    0    0  501  502  0.00000000000E+00 -0.00000000000E+00 -0.77669574956E+03  0.77669574956E+03  0.00000000000E+00 0.  1.
        -24    2    1    2    0    0 -0.25003389785E+02 -0.45953866559E+02 -0.23244128176E+03  0.25156665758E+03  0.80745937255E+02 0.  0.
         23    2    1    2    0    0  0.21446874188E+02  0.94383466718E+02 -0.46160674071E+03  0.48004648592E+03  0.89418333521E+02 0.  0.
         13    1    3    3    0    0 -0.53109300321E+02 -0.36794778262E+02 -0.18166495992E+03  0.19281237292E+03  0.00000000000E+00 0. -1.
        -14    1    3    3    0    0  0.28105910536E+02 -0.91590882976E+01 -0.50776321843E+02  0.58754284656E+02  0.00000000000E+00 0.  1.
        -13    1    4    4    0    0  0.91055554312E+01  0.11037901991E+03 -0.40778802390E+03  0.42256066028E+03  0.00000000000E+00 0.  1.
         13    1    4    4    0    0  0.12341318757E+02 -0.15995553192E+02 -0.53818716811E+02  0.57485825643E+02  0.00000000000E+00 0. -1.
          2    1    1    2  501    0  0.35565155968E+01 -0.48429600159E+02 -0.54634489270E+02  0.73095843880E+02  0.00000000000E+00 0. -1.
<scales pt_clust_5="13000.00000" pt_clust_6="13000.00000" pt_clust_7="13000.00000" pt_clust_8="13000.00000" pt_clust_9="48.56004"></scales>
<clustering>
<clus scale="   48.560">  2  9  1 -1</clus>
<clus scale="   80.746">  5  6 -1 -1</clus>
<clus scale="   89.418">  7  8 -1 -1</clus>
<clus scale="  104.782">  1  5  2 -1</clus>
<clus scale="   48.560">  2  5  1 -1</clus>
</clustering>
</event>
<event>
 9    1  0.4731329E-005  0.1427179E+03  0.7546771E-02  0.1222747E+00
         -2   -1    0    0    0  501 -0.00000000000E+00  0.00000000000E+00  0.46368475780E+02  0.46368475780E+02  0.00000000000E+00 0.  1.
         21   -1    0    0  501  502  0.00000000000E+00 -0.00000000000E+00 -0.11726367102E+04  0.11726367102E+04  0.00000000000E+00 0.  1.
         23    2    1    2    0    0  0.85794082581E+01 -0.52828436487E+02 -0.13513325437E+03  0.17321985086E+03  0.94232002783E+02 0.  0.
        -24    2    1    2    0    0  0.57176395589E+02 -0.83059437421E+02 -0.74504788764E+03  0.75708445694E+03  0.88952288911E+02 0.  0.
         13    1    4    4    0    0  0.36271806096E+02  0.11157122189E+02 -0.21377757130E+03  0.21711972569E+03  0.00000000000E+00 0. -1.
        -14    1    4    4    0    0  0.20904589493E+02 -0.94216559611E+02 -0.53127031634E+03  0.53996473125E+03  0.00000000000E+00 0.  1.
        -11    1    3    3    0    0 -0.74431683812E+01  0.19338398747E+02 -0.75349713114E+02  0.78147000506E+02  0.00000000000E+00 0. -1.
         11    1    3    3    0    0  0.16022576639E+02 -0.72166835233E+02 -0.59783541252E+02  0.95072850354E+02  0.00000000000E+00 0.  1.
         -1    1    1    2    0  502 -0.65755803847E+02  0.13588787391E+03 -0.24608709246E+03  0.28870087823E+03  0.00000000000E+00 0.  1.
<scales pt_clust_5="13000.00000" pt_clust_6="13000.00000" pt_clust_7="13000.00000" pt_clust_8="13000.00000" pt_clust_9="111.60598"></scales>
<clustering>
<clus scale="   88.952">  5  6 -1 -1</clus>
<clus scale="   94.232">  7  8 -1 -1</clus>
<clus scale="  108.370">  1  7  2 -1</clus>
<clus scale="  111.606">  2  9  1 -1</clus>
<clus scale="  111.606">  2  5  1 -1</clus>
</clustering>
</event>
<event>
 9    1  0.4731329E-005  0.1000247E+03  0.7546771E-02  0.1284884E+00
          1   -1    0    0  502    0 -0.00000000000E+00  0.00000000000E+00  0.15274566427E+03  0.15274566427E+03  0.00000000000E+00 0. -1.
         21   -1    0    0  501  502  0.00000000000E+00 -0.00000000000E+00 -0.41869383224E+03  0.41869383224E+03  0.00000000000E+00 0.  1.
         23    2    1    2    0    0  0.12244631895E+02  0.36993627344E+02  0.10151381416E+03  0.14078810317E+03  0.89430285997E+02 0.  0.
        -24    2    1    2    0    0  0.12882096342E+02 -0.11176007055E+03 -0.17647155375E+03  0.22401471403E+03  0.79900694891E+02 0.  0.
         13    1    4    4    0    0 -0.23354610540E+02 -0.79607715670E+02 -0.76168143795E+02  0.11262509648E+03  0.00000000000E+00 0. -1.
        -14    1    4    4    0    0  0.36236706882E+02 -0.32152354883E+02 -0.10030340996E+03  0.11138961756E+03  0.00000000000E+00 0.  1.
        -11    1    3    3    0    0  0.31146857825E+02 -0.19624134223E+02  0.28978454504E+02  0.46850658713E+02  0.00000000000E+00 0.  1.
         11    1    3    3    0    0 -0.18902225930E+02  0.56617761567E+02  0.72535359656E+02  0.93937444453E+02  0.00000000000E+00 0. -1.
          2    1    1    2  501    0 -0.25126728237E+02  0.74766443208E+02 -0.19099042838E+03  0.20663667930E+03  0.00000000000E+00 0. -1.
<scales pt_clust_5="13000.00000" pt_clust_6="13000.00000" pt_clust_7="13000.00000" pt_clust_8="13000.00000" pt_clust_9="78.87568"></scales>
<clustering>
<clus scale="   78.876">  2  9  1 -1</clus>
<clus scale="   79.901">  5  6 -1 -1</clus>
<clus scale="   89.430">  7  8 -1 -1</clus>
<clus scale="   91.604">  2  5  1 -1</clus>
<clus scale="   78.876">  2  5  1 -1</clus>
</clustering>
</event>
<event>
 9    1  0.4731329E-005  0.8822973E+02  0.7546771E-02  0.1312113E+00
          1   -1    0    0  502    0 -0.00000000000E+00  0.00000000000E+00  0.38115481895E+02  0.38115481895E+02  0.00000000000E+00 0. -1.
         21   -1    0    0  501  502  0.00000000000E+00 -0.00000000000E+00 -0.40289338021E+03  0.40289338021E+03  0.00000000000E+00 0. -1.
        -24    2    1    2    0    0  0.27278080872E+01  0.49053562565E+02 -0.95330369176E+02  0.13057559042E+03  0.74487667360E+02 0.  0.
         23    2    1    2    0    0 -0.20353294723E+02  0.74042794250E+01 -0.20944550571E+03  0.22618133689E+03  0.82592356401E+02 0.  0.
         13    1    3    3    0    0  0.36654841253E+02  0.28543774461E+02 -0.68262677616E+02  0.82571893542E+02  0.00000000000E+00 0. -1.
        -14    1    3    3    0    0 -0.33927033166E+02  0.20509788104E+02 -0.27067691560E+02  0.48003696877E+02  0.00000000000E+00 0.  1.
        -11    1    4    4    0    0  0.90139893752E+01 -0.31902902638E+02 -0.55948948578E+02  0.65033314910E+02  0.00000000000E+00 0.  1.
         11    1    4    4    0    0 -0.29367284098E+02  0.39307182063E+02 -0.15349655713E+03  0.16114802198E+03  0.00000000000E+00 0. -1.
          2    1    1    2  501    0  0.17625486636E+02 -0.56457841990E+02 -0.60002023434E+02  0.84251934800E+02  0.00000000000E+00 0. -1.
<scales pt_clust_5="13000.00000" pt_clust_6="13000.00000" pt_clust_7="13000.00000" pt_clust_8="13000.00000" pt_clust_9="59.14515"></scales>
<clustering>
<clus scale="   59.145">  2  9  1 -1</clus>
<clus scale="   74.488">  5  6 -1 -1</clus>
<clus scale="   80.693">  1  5  2 -1</clus>
<clus scale="   82.592">  7  8 -1 -1</clus>
<clus scale="   59.145">  2  5  1 -1</clus>
</clustering>
</event>
<event>
 9    1  0.4731329E-005  0.4327474E+03  0.7546771E-02  0.1085220E+00
          1   -1    0    0  502    0 -0.00000000000E+00  0.00000000000E+00  0.57991042378E+03  0.57991042378E+03  0.00000000000E+00 0. -1.
         21   -1    0    0  501  502  0.00000000000E+00 -0.00000000000E+00 -0.45778208212E+03  0.45778208212E+03  0.00000000000E+00 0. -1.
         23    2    1    2    0    0 -0.27681663499E+02 -0.31299954578E+02 -0.12280480087E+02  0.10075703203E+03  0.90858173337E+02 0.  0.
        -24    2    1    2    0    0 -0.30438084369E+03  0.29599535223E+03  0.24567920078E+03  0.49794770699E+03  0.85631201419E+02 0.  0.
         13    1    4    4    0    0 -0.24589382774E+03  0.25782349069E+03  0.16933187591E+03  0.39447434780E+03  0.00000000000E+00 0. -1.
        -14    1    4    4    0    0 -0.58487015951E+02  0.38171861542E+02  0.76347324870E+02  0.10347335920E+03  0.00000000000E+00 0.  1.
        -13    1    3    3    0    0 -0.26990014689E+02 -0.62707036097E+02 -0.12152788000E+02  0.69342076153E+02  0.00000000000E+00 0. -1.
         13    1    3    3    0    0 -0.69164881012E+00  0.31407081519E+02 -0.12769208656E+00  0.31414955879E+02  0.00000000000E+00 0.  1.
          2    1    1    2  501    0  0.33206250719E+03 -0.26469539765E+03 -0.11127037903E+03  0.43898776688E+03  0.00000000000E+00 0. -1.
<scales pt_clust_5="13000.00000" pt_clust_6="13000.00000" pt_clust_7="13000.00000" pt_clust_8="13000.00000" pt_clust_9="424.19051"></scales>
<clustering>
<clus scale="   85.631">  5  6 -1 -1</clus>
<clus scale="   90.858">  7  8 -1 -1</clus>
<clus scale="  100.006">  1  7  2 -1</clus>
<clus scale="  424.191">  2  9  1 -1</clus>
<clus scale="  424.191">  2  5  1 -1</clus>
</clustering>
</event>
<event>
 9    1  0.4731329E-005  0.1021970E+03  0.7546771E-02  0.1281064E+00
          1   -1    0    0  502    0 -0.00000000000E+00  0.00000000000E+00  0.38874809535E+03  0.38874809535E+03  0.00000000000E+00 0. -1.
         21   -1    0    0  501  502  0.00000000000E+00 -0.00000000000E+00 -0.71216412788E+02  0.71216412788E+02  0.00000000000E+00 0. -1.
         23    2    1    2    0    0 -0.16805454174E+02 -0.17347489747E+02  0.70182644223E+02  0.11753154263E+03  0.91130133727E+02 0.  0.
        -24    2    1    2    0    0  0.85502852567E+02  0.25115036854E+02  0.43789803884E+02  0.12745382869E+03  0.79908877165E+02 0.  0.
         11    1    4    4    0    0  0.95111931407E+02  0.30459261739E+01  0.39359197117E+02  0.10297914138E+03  0.00000000000E+00 0. -1.
        -12    1    4    4    0    0 -0.96090788402E+01  0.22069110680E+02  0.44306067662E+01  0.24474687305E+02  0.00000000000E+00 0.  1.
        -13    1    3    3    0    0  0.30367452297E+02 -0.36112897199E+01 -0.15102885928E+01  0.30618695989E+02  0.00000000000E+00 0.  1.
         13    1    3    3    0    0 -0.47172906471E+02 -0.13736200027E+02  0.71692932815E+02  0.86912846644E+02  0.00000000000E+00 0. -1.
          2    1    1    2  501    0 -0.68697398393E+02 -0.77675471064E+01  0.20355923446E+03  0.21497913682E+03  0.00000000000E+00 0. -1.
<scales pt_clust_5="13000.00000" pt_clust_6="13000.00000" pt_clust_7="13000.00000" pt_clust_8="13000.00000" pt_clust_9="69.13517"></scales>
<clustering>
<clus scale="   69.135">  2  9  1 -1</clus>
<clus scale="   79.909">  5  6 -1 -1</clus>
<clus scale="   91.130">  7  8 -1 -1</clus>
<clus scale="   92.331">  2  5  1 -1</clus>
<clus scale="   69.135">  2  5  1 -1</clus>
</clustering>
</event>
<event>
 9    1  0.4731329E-005  0.9671316E+02  0.7546771E-02  0.1292145E+00
         21   -1    0    0  501  502  0.00000000000E+00  0.00000000000E+00  0.30092925682E+03  0.30092925682E+03  0.00000000000E+00 0. -1.
          3   -1    0    0  502    0 -0.00000000000E+00 -0.00000000000E+00 -0.60909975259E+02  0.60909975259E+02  0.00000000000E+00 0. -1.
        -24    2    1    2    0    0 -0.56181063037E+02 -0.24446966182E+01  0.55717476722E+02  0.11385238399E+03  0.81826888869E+02 0.  0.
         23    2    1    2    0    0 -0.93664694332E+01  0.51612270500E+01  0.14540687383E+03  0.17171972405E+03  0.90720095119E+02 0.  0.
         11    1    3    3    0    0 -0.24213210199E+02  0.33871973503E+02  0.21819258138E+01  0.41693535918E+02  0.00000000000E+00 0. -1.
        -12    1    3    3    0    0 -0.31967852838E+02 -0.36316670121E+02  0.53535550908E+02  0.72158848070E+02  0.00000000000E+00 0.  1.
        -13    1    4    4    0    0  0.23921818906E+02 -0.29004366492E+02  0.34654359744E+02  0.51131510291E+02  0.00000000000E+00 0.  1.
         13    1    4    4    0    0 -0.33288288339E+02  0.34165593542E+02  0.11075251408E+03  0.12058821376E+03  0.00000000000E+00 0. -1.
          4    1    1    2  501    0  0.65547532470E+02 -0.27165304318E+01  0.38894931009E+02  0.76267124036E+02  0.00000000000E+00 0. -1.
<scales pt_clust_5="13000.00000" pt_clust_6="13000.00000" pt_clust_7="13000.00000" pt_clust_8="13000.00000" pt_clust_9="65.60383"></scales>
<clustering>
<clus scale="   65.604">  1  9  2 -1</clus>
<clus scale="   81.827">  5  6 -1 -1</clus>
<clus scale="   88.425">  2  5  1 -1</clus>
<clus scale="   90.720">  7  8 -1 -1</clus>
<clus scale="   65.604">  1  5  2 -1</clus>
</clustering>
</event>
<event>
 9    1  0.4731329E-005  0.1412921E+03  0.7546771E-02  0.1234032E+00
          1   -1    0    0  502    0 -0.00000000000E+00  0.00000000000E+00  0.57891894033E+03  0.57891894033E+03  0.00000000000E+00 0. -1.
         21   -1    0    0  501  502  0.00000000000E+00 -0.00000000000E+00 -0.18901675600E+03  0.18901675600E+03  0.00000000000E+00 0.  1.
        -24    2    1    2    0    0  0.34173225957E+02  0.11122232827E+02 -0.60645475787E+02  0.10721449311E+03  0.80780940602E+02 0.  0.
         23    2    1    2    0    0  0.33793740866E+02  0.71127380482E+02  0.51938940856E+03  0.53374209549E+03  0.94414753107E+02 0.  0.
         13    1    3    3    0    0  0.28663169605E+02 -0.46771686538E+01  0.12908128562E+02  0.31781645354E+02  0.00000000000E+00 0. -1.
        -14    1    3    3    0    0  0.55100563526E+01  0.15799401481E+02 -0.73553604350E+02  0.75432847759E+02  0.00000000000E+00 0.  1.
        -11    1    4    4    0    0  0.46315686354E+02  0.89204910402E+02  0.44234392630E+03  0.45361967327E+03  0.00000000000E+00 0. -1.
         11    1    4    4    0    0 -0.12521945488E+02 -0.18077529920E+02  0.77045482256E+02  0.80122422223E+02  0.00000000000E+00 0.  1.
          2    1    1    2  501    0 -0.67966966823E+02 -0.82249613309E+02 -0.68841748442E+02  0.12697910772E+03  0.00000000000E+00 0. -1.
<scales pt_clust_5="13000.00000" pt_clust_6="13000.00000" pt_clust_7="13000.00000" pt_clust_8="13000.00000" pt_clust_9="105.11565"></scales>
<clustering>
<clus scale="   80.781">  5  6 -1 -1</clus>
<clus scale="   88.414">  1  5  2 -1</clus>
<clus scale="   94.415">  7  8 -1 -1</clus>
<clus scale="  105.116">  2  9  1 -1</clus>
<clus scale="  105.116">  2  5  1 -1</clus>
</clustering>
</event>
<event>
 9    1  0.4731329E-005  0.1568968E+03  0.7546771E-02  0.1203614E+00
         21   -1    0    0  501  502  0.00000000000E+00  0.00000000000E+00  0.31151529782E+02  0.31151529782E+02  0.00000000000E+00 0. -1.
          1   -1    0    0  502    0 -0.00000000000E+00 -0.00000000000E+00 -0.17686120725E+04  0.17686120725E+04  0.00000000000E+00 0. -1.
        -24    2    1    2    0    0 -0.57585009918E+02 -0.72354825283E+02 -0.89890106957E+03  0.90720430368E+03  0.80282386837E+02 0.  0.
         23    2    1    2    0    0  0.13425941174E+03 -0.38232521526E+02 -0.37495491114E+03  0.40981949800E+03  0.88732858681E+02 0.  0.
         13    1    3    3    0    0 -0.31799948331E+02  0.86904004075E+01 -0.15562377440E+03  0.15907708488E+03  0.00000000000E+00 0. -1.
        -14    1    3    3    0    0 -0.25785061587E+02 -0.81045225690E+02 -0.74327729517E+03  0.74812721881E+03  0.00000000000E+00 0.  1.
        -11    1    4    4    0    0  0.12319523771E+03 -0.61425633441E+02 -0.28910123773E+03  0.32020259320E+03  0.00000000000E+00 0. -1.
         11    1    4    4    0    0  0.11064174036E+02  0.23193111915E+02 -0.85853673413E+02  0.89616904800E+02  0.00000000000E+00 0.  1.
          2    1    1    2  501    0 -0.76674401824E+02  0.11058734681E+03 -0.46360456205E+03  0.48273980064E+03  0.00000000000E+00 0. -1.
<scales pt_clust_5="13000.00000" pt_clust_6="13000.00000" pt_clust_7="13000.00000" pt_clust_8="13000.00000" pt_clust_9="129.39509"></scales>
<clustering>
<clus scale="   80.282">  5  6 -1 -1</clus>
<clus scale="   88.733">  7  8 -1 -1</clus>
<clus scale="  122.460">  2  5  1 -1</clus>
<clus scale="  129.395">  1  9  2 -1</clus>
<clus scale="  129.395">  1  5  2 -1</clus>
</clustering>
</event>
<event>
 9    1  0.4731329E-005  0.1136194E+03  0.7546771E-02  0.1257666E+00
         21   -1    0    0  501  502  0.00000000000E+00  0.00000000000E+00  0.52456517990E+02  0.52456517990E+02  0.00000000000E+00 0. -1.
         -4   -1    0    0    0  501 -0.00000000000E+00 -0.00000000000E+00 -0.31114154099E+03  0.31114154099E+03  0.00000000000E+00 0.  1.
         23    2    1    2    0    0  0.33837598154E+02 -0.70198268718E+02 -0.15344680736E+03  0.19440792167E+03  0.90419783999E+02 0.  0.
        -24    2    1    2    0    0 -0.44250020378E+02  0.42232584060E+02 -0.92025340959E+02  0.13655460281E+03  0.80229924029E+02 0.  0.
         11    1    4    4    0    0 -0.53737625464E+02  0.18254073936E+02 -0.20201127151E+02  0.60241423821E+02  0.00000000000E+00 0. -1.
        -12    1    4    4    0    0  0.94876050864E+01  0.23978510124E+02 -0.71824213808E+02  0.76313178987E+02  0.00000000000E+00 0.  1.
        -13    1    3    3    0    0  0.46795117212E+02 -0.50594446844E+02 -0.15621956393E+03  0.17074581459E+03  0.00000000000E+00 0.  1.
         13    1    3    3    0    0 -0.12957519058E+02 -0.19603821875E+02  0.27727565706E+01  0.23662107075E+02  0.00000000000E+00 0. -1.
         -3    1    1    2    0  502  0.10412422224E+02  0.27965684659E+02 -0.13212874680E+02  0.32635534503E+02  0.00000000000E+00 0.  1.
<scales pt_clust_5="13000.00000" pt_clust_6="13000.00000" pt_clust_7="13000.00000" pt_clust_8="13000.00000" pt_clust_9="29.84121"></scales>
<clustering>
<clus scale="   29.841">  1  9  2 -1</clus>
<clus scale="   80.230">  5  6 -1 -1</clus>
<clus scale="   90.420">  7  8 -1 -1</clus>
<clus scale="  105.690">  1  5  2 -1</clus>
<clus scale="   29.841">  1  5  2 -1</clus>
</clustering>
</event>
<event>
 9    1  0.4731329E-005  0.9281341E+02  0.7546771E-02  0.1304409E+00
         21   -1    0    0  501  502  0.00000000000E+00  0.00000000000E+00  0.23964839275E+03  0.23964839275E+03  0.00000000000E+00 0.  1.
          1   -1    0    0  502    0 -0.00000000000E+00 -0.00000000000E+00 -0.18365877805E+03  0.18365877805E+03  0.00000000000E+00 0. -1.
         23    2    1    2    0    0  0.96002180959E+00  0.10207913180E+02 -0.15166436754E+03  0.17770121116E+03  0.92035411305E+02 0.  0.
        -24    2    1    2    0    0  0.33041996169E+02 -0.31198074421E+02  0.13802782103E+03  0.16532815187E+03  0.78845577323E+02 0.  0.
         13    1    4    4    0    0 -0.22953075283E+02  0.13005290494E+01  0.58005293261E+02  0.62395104672E+02  0.00000000000E+00 0. -1.
        -14    1    4    4    0    0  0.55995071452E+02 -0.32498603470E+02  0.80022527774E+02  0.10293304720E+03  0.00000000000E+00 0.  1.
        -11    1    3    3    0    0  0.36080980436E+01  0.44286364621E+02 -0.36288569589E+02  0.57368639043E+02  0.00000000000E+00 0. -1.
         11    1    3    3    0    0 -0.26480762340E+01 -0.34078451441E+02 -0.11537579795E+03  0.12033257212E+03  0.00000000000E+00 0.  1.
          2    1    1    2  501    0 -0.34002017978E+02  0.20990161241E+02  0.69626161203E+02  0.80277807764E+02  0.00000000000E+00 0. -1.
<scales pt_clust_5="13000.00000" pt_clust_6="13000.00000" pt_clust_7="13000.00000" pt_clust_8="13000.00000" pt_clust_9="39.95903"></scales>
<clustering>
<clus scale="   39.959">  1  9  2 -1</clus>
<clus scale="   78.846">  5  6 -1 -1</clus>
<clus scale="   79.752">  1  5  2 -1</clus>
<clus scale="   92.035">  7  8 -1 -1</clus>
<clus scale="   39.959">  1  5  2 -1</clus>
</clustering>
</event>
<event>
 9    1  0.4731329E-005  0.1379525E+03  0.7546771E-02  0.1218692E+00
          1   -1    0    0  502    0 -0.00000000000E+00  0.00000000000E+00  0.40951126984E+03  0.40951126984E+03  0.00000000000E+00 0. -1.
         21   -1    0    0  501  502  0.00000000000E+00 -0.00000000000E+00 -0.65230917623E+02  0.65230917623E+02  0.00000000000E+00 0. -1.
         23    2    1    2    0    0  0.71001179020E+02  0.78154470944E+02  0.17547489980E+03  0.22424942399E+03  0.91362327847E+02 0.  0.
        -24    2    1    2    0    0 -0.36224604095E+02 -0.98191083673E+02  0.82690203154E+02  0.15548375249E+03  0.79898790570E+02 0.  0.
         13    1    4    4    0    0 -0.52103520252E+02 -0.97028904377E+02  0.85359726294E+02  0.13934011619E+03  0.00000000000E+00 0. -1.
        -14    1    4    4    0    0  0.15878916157E+02 -0.11621792968E+01 -0.26695231397E+01  0.16143636295E+02  0.00000000000E+00 0.  1.
        -13    1    3    3    0    0  0.21259423294E+00  0.29269115152E+02  0.50484415890E+00  0.29274240652E+02  0.00000000000E+00 0.  1.
         13    1    3    3    0    0  0.70788584787E+02  0.48885355792E+02  0.17497005564E+03  0.19497518334E+03  0.00000000000E+00 0. -1.
          2    1    1    2  501    0 -0.34776574924E+02  0.20036612729E+02  0.86115249262E+02  0.95009010986E+02  0.00000000000E+00 0. -1.
<scales pt_clust_5="13000.00000" pt_clust_6="13000.00000" pt_clust_7="13000.00000" pt_clust_8="13000.00000" pt_clust_9="40.13574"></scales>
<clustering>
<clus scale="   40.136">  2  9  1 -1</clus>
<clus scale="   79.899">  5  6 -1 -1</clus>
<clus scale="   91.362">  7  8 -1 -1</clus>
<clus scale="  130.643">  2  5  1 -1</clus>
<clus scale="   40.136">  2  5  1 -1</clus>
</clustering>
</event>
<event>
 9    1  0.4731329E-005  0.1055082E+03  0.7546771E-02  0.1273974E+00
         21   -1    0    0  501  502  0.00000000000E+00  0.00000000000E+00  0.69664426455E+02  0.69664426455E+02  0.00000000000E+00 0. -1.
         -2   -1    0    0    0  501 -0.00000000000E+00 -0.00000000000E+00 -0.20691256253E+03  0.20691256253E+03  0.00000000000E+00 0.  1.
        -24    2    1    2    0    0  0.54362833303E+02  0.13041520823E+02 -0.78410464067E+02  0.12542176548E+03  0.80355581456E+02 0.  0.
         23    2    1    2    0    0 -0.37182570216E+02 -0.38108139832E+02 -0.58229443444E+02  0.12076004675E+03  0.91419620197E+02 0.  0.
         11    1    3    3    0    0  0.22729394972E+02  0.25567454358E+02  0.57082925636E+01  0.34682916863E+02  0.00000000000E+00 0. -1.
        -12    1    3    3    0    0  0.31633438331E+02 -0.12525933535E+02 -0.84118756631E+02  0.90738848619E+02  0.00000000000E+00 0.  1.
        -13    1    4    4    0    0  0.80407242226E+01 -0.26244428867E+02  0.16926841412E+02  0.32248120143E+02  0.00000000000E+00 0. -1.
         13    1    4    4    0    0 -0.45223294438E+02 -0.11863710965E+02 -0.75156284855E+02  0.88511926603E+02  0.00000000000E+00 0.  1.
         -1    1    1    2    0  502 -0.17180263087E+02  0.25066619009E+02 -0.60822856658E+00  0.30395176760E+02  0.00000000000E+00 0.  1.
<scales pt_clust_5="13000.00000" pt_clust_6="13000.00000" pt_clust_7="13000.00000" pt_clust_8="13000.00000" pt_clust_9="30.38909"></scales>
<clustering>
<clus scale="   30.389">  1  9  2 -1</clus>
<clus scale="   80.356">  5  6 -1 -1</clus>
<clus scale="   91.420">  7  8 -1 -1</clus>
<clus scale="   96.080">  2  5  1 -1</clus>
<clus scale="   30.389">  1  5  2 -1</clus>
</clustering>
</event>
<event>
 9    1  0.4731329E-005  0.1304596E+03  0.7546771E-02  0.1240015E+00
         21   -1    0    0  501  502  0.00000000000E+00  0.00000000000E+00  0.93681998941E+03  0.93681998941E+03  0.00000000000E+00 0. -1.
          3   -1    0    0  502    0 -0.00000000000E+00 -0.00000000000E+00 -0.31509565935E+02  0.31509565935E+02  0.00000000000E+00 0. -1.
        -24    2    1    2    0    0  0.54370601822E+02  0.15328389176E+02  0.40937545426E+03  0.42127156979E+03  0.81794566456E+02 0.  0.
         23    2    1    2    0    0  0.15879380833E+02 -0.88599515030E+02  0.29317743902E+03  0.32031069451E+03  0.92433227080E+02 0.  0.
         13    1    3    3    0    0  0.64659775266E+02 -0.13852885266E+02  0.23297436617E+03  0.24217729922E+03  0.00000000000E+00 0. -1.
        -14    1    3    3    0    0 -0.10289173444E+02  0.29181274442E+02  0.17640108809E+03  0.17909427056E+03  0.00000000000E+00 0.  1.
        -13    1    4    4    0    0 -0.31603943765E+02 -0.40355147302E+02  0.19089722662E+03  0.19765904560E+03  0.00000000000E+00 0. -1.
         13    1    4    4    0    0  0.47483324598E+02 -0.48244367729E+02  0.10228021239E+03  0.12265164891E+03  0.00000000000E+00 0.  1.
          4    1    1    2  501    0 -0.70249982656E+02  0.73271125854E+02  0.20275753020E+03  0.22674729105E+03  0.00000000000E+00 0. -1.
<scales pt_clust_5="13000.00000" pt_clust_6="13000.00000" pt_clust_7="13000.00000" pt_clust_8="13000.00000" pt_clust_9="92.06415"></scales>
<clustering>
<clus scale="   81.795">  5  6 -1 -1</clus>
<clus scale="   92.433">  7  8 -1 -1</clus>
<clus scale="   99.406">  2  5  1 -1</clus>
<clus scale="   92.064">  1  9  2 -1</clus>
<clus scale="   92.064">  1  5  2 -1</clus>
</clustering>
</event>
<event>
 9    1  0.4731329E-005  0.9797883E+02  0.7546771E-02  0.1289938E+00
         21   -1    0    0  501  502  0.00000000000E+00  0.00000000000E+00  0.16445526340E+03  0.16445526340E+03  0.00000000000E+00 0.  1.
         -4   -1    0    0    0  501 -0.00000000000E+00 -0.00000000000E+00 -0.21832135467E+03  0.21832135467E+03  0.00000000000E+00 0.  1.
         23    2    1    2    0    0  0.35387709698E+02  0.76167658337E+01 -0.15987991563E+03  0.18774039578E+03  0.91512642118E+02 0.  0.
        -24    2    1    2    0    0 -0.21992704102E+02 -0.32905676675E+02  0.56876706731E+01  0.90708410560E+02  0.81419921134E+02 0.  0.
         11    1    4    4    0    0 -0.49383451610E+02 -0.14961922315E+02 -0.12718939840E+02  0.53144668998E+02  0.00000000000E+00 0. -1.
        -12    1    4    4    0    0  0.27390747508E+02 -0.17943754360E+02  0.18406610513E+02  0.37563741562E+02  0.00000000000E+00 0.  1.
        -13    1    3    3    0    0  0.41680121416E+02 -0.31724654824E+02 -0.56985257093E+02  0.77401587651E+02  0.00000000000E+00 0. -1.
         13    1    3    3    0    0 -0.62924117179E+01  0.39341420657E+02 -0.10289465853E+03  0.11033880813E+03  0.00000000000E+00 0.  1.
         -3    1    1    2    0  502 -0.13395005596E+02  0.25288910841E+02  0.10032615369E+03  0.10432781173E+03  0.00000000000E+00 0.  1.
<scales pt_clust_5="13000.00000" pt_clust_6="13000.00000" pt_clust_7="13000.00000" pt_clust_8="13000.00000" pt_clust_9="28.61739"></scales>
<clustering>
<clus scale="   28.617">  1  9  2 -1</clus>
<clus scale="   81.420">  5  6 -1 -1</clus>
<clus scale="   88.626">  1  5  2 -1</clus>
<clus scale="   91.513">  7  8 -1 -1</clus>
<clus scale="   28.617">  1  5  2 -1</clus>
</clustering>
</event>
<event>
 9    1  0.4731329E-005  0.1207717E+03  0.7546771E-02  0.1244129E+00
          3   -1    0    0  502    0 -0.00000000000E+00  0.00000000000E+00  0.10531103626E+03  0.10531103626E+03  0.00000000000E+00 0. -1.
         21   -1    0    0  501  502  0.00000000000E+00 -0.00000000000E+00 -0.25118672205E+03  0.25118672205E+03  0.00000000000E+00 0. -1.
        -24    2    1    2    0    0 -0.72022763862E+02  0.72939158125E+02 -0.11953611631E+02  0.13262739247E+03  0.83305084474E+02 0.  0.
         23    2    1    2    0    0  0.25817586699E+02 -0.24874232461E+02 -0.12187530493E+03  0.15611875978E+03  0.90742503712E+02 0.  0.
         11    1    3    3    0    0 -0.80842273847E+02  0.40548108007E+02  0.12214589737E+02  0.91262360840E+02  0.00000000000E+00 0. -1.
        -12    1    3    3    0    0  0.88195099848E+01  0.32391050118E+02 -0.24168201368E+02  0.41365031627E+02  0.00000000000E+00 0.  1.
        -11    1    4    4    0    0 -0.26490396356E+02  0.81456943274E+01 -0.70349927181E+02  0.75612205956E+02  0.00000000000E+00 0. -1.
         11    1    4    4    0    0  0.52307983055E+02 -0.33019926788E+02 -0.51525377745E+02  0.80506553821E+02  0.00000000000E+00 0.  1.
          4    1    1    2  501    0  0.46205177163E+02 -0.48064925664E+02 -0.12046769237E+02  0.67751606068E+02  0.00000000000E+00 0. -1.
<scales pt_clust_5="13000.00000" pt_clust_6="13000.00000" pt_clust_7="13000.00000" pt_clust_8="13000.00000" pt_clust_9="66.67203"></scales>
<clustering>
<clus scale="   66.672">  2  9  1 -1</clus>
<clus scale="   83.305">  5  6 -1 -1</clus>
<clus scale="   90.743">  7  8 -1 -1</clus>
<clus scale="  115.288">  1  5  2 -1</clus>
<clus scale="   66.672">  2  5  1 -1</clus>
</clustering>
</event>
<event>
 9    1  0.4731329E-005  0.1169093E+03  0.7546771E-02  0.1253882E+00
         21   -1    0    0  501  502  0.00000000000E+00  0.00000000000E+00  0.45185211868E+02  0.45185211868E+02  0.00000000000E+00 0. -1.
         -2   -1    0    0    0  501 -0.00000000000E+00 -0.00000000000E+00 -0.61807892477E+03  0.61807892477E+03  0.00000000000E+00 0.  1.
         23    2    1    2    0    0  0.13106493950E+02  0.43400436029E+02 -0.24139192176E+03  0.26215050730E+03  0.91637604498E+02 0.  0.
        -24    2    1    2    0    0 -0.11664369636E+02 -0.11171115965E+03 -0.29299853298E+03  0.32268572886E+03  0.75249575196E+02 0.  0.
         11    1    4    4    0    0  0.17538277013E+02 -0.91716461193E+02 -0.25074695544E+03  0.26756968453E+03  0.00000000000E+00 0. -1.
        -12    1    4    4    0    0 -0.29202646648E+02 -0.19994698460E+02 -0.42251577539E+02  0.55116044328E+02  0.00000000000E+00 0.  1.
        -13    1    3    3    0    0  0.31583261555E+02 -0.14774460538E+02 -0.47814718964E+02  0.59177989525E+02  0.00000000000E+00 0. -1.
         13    1    3    3    0    0 -0.18476767604E+02  0.58174896567E+02 -0.19357720279E+03  0.20297251778E+03  0.00000000000E+00 0.  1.
         -1    1    1    2    0  502 -0.14421243147E+01  0.68310723624E+02 -0.38503258161E+02  0.78427900479E+02  0.00000000000E+00 0.  1.
<scales pt_clust_5="13000.00000" pt_clust_6="13000.00000" pt_clust_7="13000.00000" pt_clust_8="13000.00000" pt_clust_9="68.32594"></scales>
<clustering>
<clus scale="   68.326">  1  9  2 -1</clus>
<clus scale="   75.250">  5  6 -1 -1</clus>
<clus scale="   91.638">  7  8 -1 -1</clus>
<clus scale="  104.560">  1  5  2 -1</clus>
<clus scale="   68.326">  1  5  2 -1</clus>
</clustering>
</event>
<event>
 9    1  0.4731329E-005  0.8843248E+02  0.7546771E-02  0.1311200E+00
         -4   -1    0    0    0  501 -0.00000000000E+00  0.00000000000E+00  0.73747154897E+03  0.73747154897E+03  0.00000000000E+00 0.  1.
         21   -1    0    0  501  502  0.00000000000E+00 -0.00000000000E+00 -0.56410047600E+02  0.56410047600E+02  0.00000000000E+00 0.  1.
         23    2    1    2    0    0 -0.55171542682E+02  0.87742089560E+01  0.41452526193E+03  0.42719627233E+03  0.86859521353E+02 0.  0.
        -24    2    1    2    0    0 -0.23391382403E+02 -0.40992889074E+01  0.27519903607E+03  0.28750810453E+03  0.79764903150E+02 0.  0.
         13    1    4    4    0    0  0.96456514562E+01  0.31945873163E+02  0.90839877259E+02  0.96775310408E+02  0.00000000000E+00 0. -1.
        -14    1    4    4    0    0 -0.33037033859E+02 -0.36045162070E+02  0.18435915881E+03  0.19073279412E+03  0.00000000000E+00 0.  1.
        -11    1    3    3    0    0  0.10498289340E+02 -0.25473342398E+02  0.14945373652E+03  0.15197211788E+03  0.00000000000E+00 0. -1.
         11    1    3    3    0    0 -0.65669832021E+02  0.34247551354E+02  0.26507152540E+03  0.27522415445E+03  0.00000000000E+00 0.  1.
         -3    1    1    2    0  502  0.78562925085E+02 -0.46749200486E+01 -0.86627966340E+01  0.79177219709E+02  0.00000000000E+00 0.  1.
<scales pt_clust_5="13000.00000" pt_clust_6="13000.00000" pt_clust_7="13000.00000" pt_clust_8="13000.00000" pt_clust_9="78.70189"></scales>
<clustering>
<clus scale="   78.702">  2  9  1 -1</clus>
<clus scale="   79.765">  5  6 -1 -1</clus>
<clus scale="   81.475">  2  5  1 -1</clus>
<clus scale="   86.860">  7  8 -1 -1</clus>
<clus scale="   78.702">  2  5  1 -1</clus>
</clustering>
</event>
<event>
 9    1  0.4731329E-005  0.9172188E+02  0.7546771E-02  0.1306175E+00
          1   -1    0    0  502    0 -0.00000000000E+00  0.00000000000E+00  0.57104012240E+03  0.57104012240E+03  0.00000000000E+00 0. -1.
         21   -1    0    0  501  502  0.00000000000E+00 -0.00000000000E+00 -0.32024818730E+02  0.32024818730E+02  0.00000000000E+00 0. -1.
         23    2    1    2    0    0 -0.27469656502E+02  0.19079436581E+02  0.26959984561E+03  0.28638919380E+03  0.90642631512E+02 0.  0.
        -24    2    1    2    0    0 -0.45692318409E+02 -0.55123002062E+01  0.13290973884E+03  0.16120693006E+03  0.78768662586E+02 0.  0.
         13    1    4    4    0    0 -0.43998692997E+02  0.21506253995E+02  0.36529027447E+02  0.61096430277E+02  0.00000000000E+00 0. -1.
        -14    1    4    4    0    0 -0.16936254120E+01 -0.27018554201E+02  0.96380711393E+02  0.10011049978E+03  0.00000000000E+00 0.  1.
        -13    1    3    3    0    0 -0.42542258997E+02  0.39426615568E+02  0.24233381944E+03  0.24917861437E+03  0.00000000000E+00 0.  1.
         13    1    3    3    0    0  0.15072602495E+02 -0.20347178987E+02  0.27266026166E+02  0.37210579431E+02  0.00000000000E+00 0. -1.
          2    1    1    2  501    0  0.73161974911E+02 -0.13567136375E+02  0.13650571923E+03  0.15546881727E+03  0.00000000000E+00 0. -1.
<scales pt_clust_5="13000.00000" pt_clust_6="13000.00000" pt_clust_7="13000.00000" pt_clust_8="13000.00000" pt_clust_9="74.40929"></scales>
<clustering>
<clus scale="   74.409">  2  9  1 -1</clus>
<clus scale="   78.769">  5  6 -1 -1</clus>
<clus scale="   80.008">  2  5  1 -1</clus>
<clus scale="   90.643">  7  8 -1 -1</clus>
<clus scale="   74.409">  2  5  1 -1</clus>
</clustering>
</event>
<event>
 9    1  0.4731329E-005  0.9890661E+02  0.7546771E-02  0.1289502E+00
         21   -1    0    0  501  502  0.00000000000E+00  0.00000000000E+00  0.93360133009E+02  0.93360133009E+02  0.00000000000E+00 0.  1.
         -2   -1    0    0    0  501 -0.00000000000E+00 -0.00000000000E+00 -0.44974649966E+03  0.44974649966E+03  0.00000000000E+00 0.  1.
         23    2    1    2    0    0 -0.29219568811E+01 -0.36835521770E+02 -0.40989345630E+03  0.42175460135E+03  0.92189504527E+02 0.  0.
        -24    2    1    2    0    0 -0.11790603023E+02  0.21836343012E+02  0.56188430910E+02  0.10017127653E+03  0.79128380989E+02 0.  0.
         13    1    4    4    0    0  0.20975697231E+02 -0.15571509913E+02  0.40186116308E+02  0.47930947614E+02  0.00000000000E+00 0. -1.
        -14    1    4    4    0    0 -0.32766300254E+02  0.37407852925E+02  0.16002314602E+02  0.52240328917E+02  0.00000000000E+00 0.  1.
        -11    1    3    3    0    0 -0.31115618432E+01 -0.67828044151E+02 -0.26264811432E+03  0.27128279958E+03  0.00000000000E+00 0.  1.
         11    1    3    3    0    0  0.18960496208E+00  0.30992522381E+02 -0.14724534198E+03  0.15047180177E+03  0.00000000000E+00 0. -1.
         -1    1    1    2    0  502  0.14712559904E+02  0.14999178758E+02 -0.26813412586E+01  0.21180754786E+02  0.00000000000E+00 0.  1.
<scales pt_clust_5="13000.00000" pt_clust_6="13000.00000" pt_clust_7="13000.00000" pt_clust_8="13000.00000" pt_clust_9="21.01035"></scales>
<clustering>
<clus scale="   21.010">  1  9  2 -1</clus>
<clus scale="   79.128">  5  6 -1 -1</clus>
<clus scale="   86.861">  1  5  2 -1</clus>
<clus scale="   92.190">  7  8 -1 -1</clus>
<clus scale="   21.010">  1  5  2 -1</clus>
</clustering>
</event>
<event>
 9    1  0.4731329E-005  0.8803880E+02  0.7546771E-02  0.1312149E+00
         -2   -1    0    0    0  501 -0.00000000000E+00  0.00000000000E+00  0.55255340508E+02  0.55255340508E+02  0.00000000000E+00 0.  1.
         21   -1    0    0  501  502  0.00000000000E+00 -0.00000000000E+00 -0.21671194224E+03  0.21671194224E+03  0.00000000000E+00 0.  1.
        -24    2    1    2    0    0 -0.72589177655E+01  0.11205533544E+02 -0.19118213351E+02  0.83024009115E+02  0.79682018917E+02 0.  0.
         23    2    1    2    0    0  0.29872401051E+02  0.72391701932E+01 -0.88088932126E+02  0.12734310946E+03  0.86670881118E+02 0.  0.
         13    1    3    3    0    0  0.21518897863E+02 -0.23185547117E+02 -0.21287183509E+02  0.38128424333E+02  0.00000000000E+00 0. -1.
        -14    1    3    3    0    0 -0.28777815629E+02  0.34391080661E+02  0.21689701586E+01  0.44895584782E+02  0.00000000000E+00 0.  1.
        -11    1    4    4    0    0  0.19002182589E+02 -0.29045777377E+02 -0.81914780433E+02  0.88965000871E+02  0.00000000000E+00 0.  1.
         11    1    4    4    0    0  0.10870218462E+02  0.36284947570E+02 -0.61741516927E+01  0.38378108587E+02  0.00000000000E+00 0. -1.
         -1    1    1    2    0  502 -0.22613483286E+02 -0.18444703737E+02 -0.54249456254E+02  0.61600164173E+02  0.00000000000E+00 0.  1.
<scales pt_clust_5="13000.00000" pt_clust_6="13000.00000" pt_clust_7="13000.00000" pt_clust_8="13000.00000" pt_clust_9="29.18179"></scales>
<clustering>
<clus scale="   29.182">  2  9  1 -1</clus>
<clus scale="   79.682">  5  6 -1 -1</clus>
<clus scale="   81.168">  1  5  2 -1</clus>
<clus scale="   86.671">  7  8 -1 -1</clus>
<clus scale="   29.182">  2  5  1 -1</clus>
</clustering>
</event>
<event>
 9    1  0.4731329E-005  0.9367419E+02  0.7546771E-02  0.1302498E+00
         21   -1    0    0  501  502  0.00000000000E+00  0.00000000000E+00  0.16850507725E+03  0.16850507725E+03  0.00000000000E+00 0.  1.
         -2   -1    0    0    0  501 -0.00000000000E+00 -0.00000000000E+00 -0.19431877473E+03  0.19431877473E+03  0.00000000000E+00 0.  1.
         23    2    1    2    0    0  0.94951242612E+01 -0.98306616537E+01 -0.16076885058E+03  0.18615733731E+03  0.92850049133E+02 0.  0.
        -24    2    1    2    0    0  0.10958489648E+02  0.13717434087E+02  0.66236183232E+02  0.10486293440E+03  0.79377242010E+02 0.  0.
         13    1    4    4    0    0 -0.31237532656E+02 -0.95114145516E+01  0.21279267704E+02  0.38975090599E+02  0.00000000000E+00 0. -1.
        -14    1    4    4    0    0  0.42196022304E+02  0.23228848639E+02  0.44956915528E+02  0.65887843804E+02  0.00000000000E+00 0.  1.
        -11    1    3    3    0    0  0.50269495208E+01 -0.32566602489E+02 -0.15959003309E+03  0.16295653556E+03  0.00000000000E+00 0.  1.
         11    1    3    3    0    0  0.44681747404E+01  0.22735940835E+02 -0.11788174870E+01  0.23200801750E+02  0.00000000000E+00 0. -1.
         -1    1    1    2    0  502 -0.20453613909E+02 -0.38867724332E+01  0.68718969856E+02  0.71803580273E+02  0.00000000000E+00 0.  1.
<scales pt_clust_5="13000.00000" pt_clust_6="13000.00000" pt_clust_7="13000.00000" pt_clust_8="13000.00000" pt_clust_9="20.81964"></scales>
<clustering>
<clus scale="   20.820">  1  9  2 -1</clus>
<clus scale="   79.377">  5  6 -1 -1</clus>
<clus scale="   80.340">  1  5  2 -1</clus>
<clus scale="   92.850">  7  8 -1 -1</clus>
<clus scale="   20.820">  1  5  2 -1</clus>
</clustering>
</event>
<event>
 9    1  0.4731329E-005  0.9669801E+02  0.7546771E-02  0.1294571E+00
          3   -1    0    0  502    0 -0.00000000000E+00  0.00000000000E+00  0.22334274405E+03  0.22334274405E+03  0.00000000000E+00 0. -1.
         21   -1    0    0  501  502  0.00000000000E+00 -0.00000000000E+00 -0.11363725525E+03  0.11363725525E+03  0.00000000000E+00 0. -1.
        -24    2    1    2    0    0  0.36685620679E+02  0.23223524292E+02  0.12594292974E+03  0.15561418211E+03  0.80430002338E+02 0.  0.
         23    2    1    2    0    0  0.36789015605E+01  0.15290157589E+02  0.39633958133E+02  0.10240879355E+03  0.93109543678E+02 0.  0.
         11    1    3    3    0    0  0.16406594992E+02  0.48874650256E+02  0.45432940184E+02  0.68717245657E+02  0.00000000000E+00 0. -1.
        -12    1    3    3    0    0  0.20279025687E+02 -0.25651125964E+02  0.80509989558E+02  0.86896936451E+02  0.00000000000E+00 0.  1.
        -13    1    4    4    0    0  0.21893713381E+02 -0.13837500469E+02 -0.20582094756E+02  0.33082226790E+02  0.00000000000E+00 0. -1.
         13    1    4    4    0    0 -0.18214811821E+02  0.29127658057E+02  0.60216052889E+02  0.69326566763E+02  0.00000000000E+00 0.  1.
          4    1    1    2  501    0 -0.40364522239E+02 -0.38513681881E+02 -0.55871399071E+02  0.78957023638E+02  0.00000000000E+00 0. -1.
<scales pt_clust_5="13000.00000" pt_clust_6="13000.00000" pt_clust_7="13000.00000" pt_clust_8="13000.00000" pt_clust_9="55.79067"></scales>
<clustering>
<clus scale="   55.791">  2  9  1 -1</clus>
<clus scale="   80.430">  5  6 -1 -1</clus>
<clus scale="   84.558">  1  5  2 -1</clus>
<clus scale="   93.110">  7  8 -1 -1</clus>
<clus scale="   55.791">  2  5  1 -1</clus>
</clustering>
</event>
<event>
 9    1  0.4731329E-005  0.9360145E+02  0.7546771E-02  0.1299673E+00
          3   -1    0    0  502    0 -0.00000000000E+00  0.00000000000E+00  0.71592464183E+02  0.71592464183E+02  0.00000000000E+00 0. -1.
         21   -1    0    0  501  502  0.00000000000E+00 -0.00000000000E+00 -0.28451486900E+03  0.28451486900E+03  0.00000000000E+00 0.  1.
        -24    2    1    2    0    0 -0.13803456825E+02  0.34191867435E+02  0.20950308963E+02  0.89468546316E+02  0.78778716130E+02 0.  0.
         23    2    1    2    0    0  0.32353666355E+01 -0.10042199065E+02 -0.11725576706E+03  0.14707958281E+03  0.88159942213E+02 0.  0.
         13    1    3    3    0    0  0.30767436066E+02  0.22942648509E+02  0.20470212556E+02  0.43497469407E+02  0.00000000000E+00 0. -1.
        -14    1    3    3    0    0 -0.44570892891E+02  0.11249218926E+02  0.48009640705E+00  0.45971076909E+02  0.00000000000E+00 0.  1.
        -13    1    4    4    0    0 -0.25679045869E+02 -0.33716163389E+02 -0.93874231449E+02  0.10299788542E+03  0.00000000000E+00 0.  1.
         13    1    4    4    0    0  0.28914412504E+02  0.23673964324E+02 -0.23381535609E+02  0.44081697389E+02  0.00000000000E+00 0. -1.
          4    1    1    2  501    0  0.10568090190E+02 -0.24149668370E+02 -0.11661694673E+03  0.11955920406E+03  0.00000000000E+00 0. -1.
<scales pt_clust_5="13000.00000" pt_clust_6="13000.00000" pt_clust_7="13000.00000" pt_clust_8="13000.00000" pt_clust_9="26.36079"></scales>
<clustering>
<clus scale="   26.361">  2  9  1 -1</clus>
<clus scale="   78.779">  5  6 -1 -1</clus>
<clus scale="   84.824">  1  5  2 -1</clus>
<clus scale="   88.160">  7  8 -1 -1</clus>
<clus scale="   26.361">  2  5  1 -1</clus>
</clustering>
</event>
<event>
 9    1  0.4731329E-005  0.1114416E+03  0.7546771E-02  0.1276202E+00
         -4   -1    0    0    0  501 -0.00000000000E+00  0.00000000000E+00  0.19739607158E+03  0.19739607158E+03  0.00000000000E+00 0.  1.
         21   -1    0    0  501  502  0.00000000000E+00 -0.00000000000E+00 -0.11745400932E+03  0.11745400932E+03  0.00000000000E+00 0.  1.
         23    2    1    2    0    0 -0.24154717444E+02  0.13225719390E+02  0.35938589078E+02  0.11957495734E+03  0.11067166850E+03 0.  0.
        -24    2    1    2    0    0 -0.58796527404E+01  0.18464182375E+02 -0.48447550977E+02  0.93032739320E+02  0.77022263291E+02 0.  0.
         13    1    4    4    0    0  0.12979802915E+02  0.24739673769E+02  0.11246488621E+02  0.30116610836E+02  0.00000000000E+00 0. -1.
        -14    1    4    4    0    0 -0.18859455655E+02 -0.62754913937E+01 -0.59694039599E+02  0.62916128484E+02  0.00000000000E+00 0.  1.
        -11    1    3    3    0    0 -0.44317915129E+02 -0.15678325955E+02  0.60501197390E+02  0.76617768121E+02  0.00000000000E+00 0.  1.
         11    1    3    3    0    0  0.20163197686E+02  0.28904045345E+02 -0.24562608312E+02  0.42957189216E+02  0.00000000000E+00 0. -1.
         -3    1    1    2    0  502  0.30034370184E+02 -0.31689901766E+02  0.92451024165E+02  0.10224238424E+03  0.00000000000E+00 0.  1.
<scales pt_clust_5="13000.00000" pt_clust_6="13000.00000" pt_clust_7="13000.00000" pt_clust_8="13000.00000" pt_clust_9="43.66137"></scales>
<clustering>
<clus scale="   43.661">  2  9  1 -1</clus>
<clus scale="   77.022">  5  6 -1 -1</clus>
<clus scale="   78.125">  2  5  1 -1</clus>
<clus scale="  110.672">  7  8 -1 -1</clus>
<clus scale="   43.661">  2  5  1 -1</clus>
</clustering>
</event>
<event>
 9    1  0.4731329E-005  0.9706681E+02  0.7546771E-02  0.1294174E+00
          3   -1    0    0  502    0 -0.00000000000E+00  0.00000000000E+00  0.46321479020E+02  0.46321479020E+02  0.00000000000E+00 0. -1.
         21   -1    0    0  501  502  0.00000000000E+00 -0.00000000000E+00 -0.24781880769E+03  0.24781880769E+03  0.00000000000E+00 0.  1.
         23    2    1    2    0    0 -0.16580583565E+02 -0.16470359823E+02 -0.55316684832E+02  0.10953910953E+03  0.91611638959E+02 0.  0.
        -24    2    1    2    0    0  0.33145425494E+02  0.31182977624E+02 -0.11094729234E+03  0.14298093969E+03  0.77866874292E+02 0.  0.
         13    1    4    4    0    0  0.17985242473E+02  0.41371439984E+02 -0.18518722619E+02  0.48764824214E+02  0.00000000000E+00 0. -1.
        -14    1    4    4    0    0  0.15160183021E+02 -0.10188462360E+02 -0.92428569722E+02  0.94216115475E+02  0.00000000000E+00 0.  1.
        -13    1    3    3    0    0  0.17494667468E+02  0.19608646557E+02 -0.53816433781E+02  0.59889656490E+02  0.00000000000E+00 0.  1.
         13    1    3    3    0    0 -0.34075251033E+02 -0.36079006380E+02 -0.15002510505E+01  0.49649453044E+02  0.00000000000E+00 0. -1.
          4    1    1    2  501    0 -0.16564841928E+02 -0.14712617800E+02 -0.35233351495E+02  0.41620237484E+02  0.00000000000E+00 0. -1.
<scales pt_clust_5="13000.00000" pt_clust_6="13000.00000" pt_clust_7="13000.00000" pt_clust_8="13000.00000" pt_clust_9="22.15525"></scales>
<clustering>
<clus scale="   22.155">  2  9  1 -1</clus>
<clus scale="   77.867">  5  6 -1 -1</clus>
<clus scale="   84.217">  2  5  1 -1</clus>
<clus scale="   91.612">  7  8 -1 -1</clus>
<clus scale="   22.155">  2  5  1 -1</clus>
</clustering>
</event>
<event>
 9    1  0.4731329E-005  0.3092305E+03  0.7546771E-02  0.1081860E+00
          1   -1    0    0  502    0 -0.00000000000E+00  0.00000000000E+00  0.58364097103E+03  0.58364097103E+03  0.00000000000E+00 0. -1.
         21   -1    0    0  501  502  0.00000000000E+00 -0.00000000000E+00 -0.24966890854E+03  0.24966890854E+03  0.00000000000E+00 0. -1.
        -24    2    1    2    0    0  0.31814287987E+03 -0.28444394277E+02  0.29493765431E+03  0.43805182132E+03  0.53639562427E+02 0.  0.
         23    2    1    2    0    0 -0.26059482848E+03  0.36997706649E+02  0.11308822054E+03  0.30108319697E+03  0.92647994842E+02 0.  0.
         11    1    3    3    0    0  0.27975063235E+03 -0.12704950515E+02  0.23746991843E+03  0.36716998002E+03  0.00000000000E+00 0. -1.
        -12    1    3    3    0    0  0.38392247515E+02 -0.15739443761E+02  0.57467735876E+02  0.70881841298E+02  0.00000000000E+00 0.  1.
        -13    1    4    4    0    0 -0.83331650348E+02 -0.28821635264E+02  0.20422276642E+02  0.90509226006E+02  0.00000000000E+00 0.  1.
         13    1    4    4    0    0 -0.17726317813E+03  0.65819341913E+02  0.92665943896E+02  0.21057397096E+03  0.00000000000E+00 0. -1.
          2    1    1    2  501    0 -0.57548051394E+02 -0.85533123725E+01 -0.74053812352E+02  0.94174861272E+02  0.00000000000E+00 0. -1.
<scales pt_clust_5="13000.00000" pt_clust_6="13000.00000" pt_clust_7="13000.00000" pt_clust_8="13000.00000" pt_clust_9="58.18021"></scales>
<clustering>
<clus scale="   53.640">  5  6 -1 -1</clus>
<clus scale="   58.180">  2  9  1 -1</clus>
<clus scale="   92.648">  7  8 -1 -1</clus>
<clus scale="  299.862">  1  5  2 -1</clus>
<clus scale="   58.180">  2  5  1 -1</clus>
</clustering>
</event>
<event>
 9    1  0.4731329E-005  0.2849560E+03  0.7546771E-02  0.1093012E+00
         21   -1    0    0  501  502  0.00000000000E+00  0.00000000000E+00  0.28936228414E+03  0.28936228414E+03  0.00000000000E+00 0. -1.
          1   -1    0    0  502    0 -0.00000000000E+00 -0.00000000000E+00 -0.20993546755E+03  0.20993546755E+03  0.00000000000E+00 0. -1.
        -24    2    1    2    0    0 -0.10449085764E+03 -0.38536345548E+02  0.53254324322E+02  0.14717679608E+03  0.80134867474E+02 0.  0.
         23    2    1    2    0    0 -0.77158171855E+02 -0.56898528587E+02 -0.33328694203E+02  0.13847504223E+03  0.94200368487E+02 0.  0.
         11    1    3    3    0    0 -0.54678116093E+02 -0.55938017037E+02  0.52863865077E+02  0.94410520391E+02  0.00000000000E+00 0. -1.
        -12    1    3    3    0    0 -0.49812741549E+02  0.17401671489E+02  0.39045924491E+00  0.52766275685E+02  0.00000000000E+00 0.  1.
        -11    1    4    4    0    0 -0.73006406465E+02 -0.10313947456E+02  0.10383009055E+02  0.74458846177E+02  0.00000000000E+00 0. -1.
         11    1    4    4    0    0 -0.41517653910E+01 -0.46584581131E+02 -0.43711703258E+02  0.64016196050E+02  0.00000000000E+00 0.  1.
          2    1    1    2  501    0  0.18164902950E+03  0.95434874136E+02  0.59501186471E+02  0.21364591339E+03  0.00000000000E+00 0. -1.
<scales pt_clust_5="13000.00000" pt_clust_6="13000.00000" pt_clust_7="13000.00000" pt_clust_8="13000.00000" pt_clust_9="205.19304"></scales>
<clustering>
<clus scale="   80.135">  5  6 -1 -1</clus>
<clus scale="   94.200">  7  8 -1 -1</clus>
<clus scale="  127.285">  5  7 -1 -1</clus>
<clus scale="  205.193">  1  9  2 -1</clus>
<clus scale="  205.193">  1  5  2 -1</clus>
</clustering>
</event>
<event>
 9    1  0.4731329E-005  0.1038357E+03  0.7546771E-02  0.1284631E+00
          3   -1    0    0  502    0 -0.00000000000E+00  0.00000000000E+00  0.28640659018E+03  0.28640659018E+03  0.00000000000E+00 0. -1.
         21   -1    0    0  501  502  0.00000000000E+00 -0.00000000000E+00 -0.11855833353E+03  0.11855833353E+03  0.00000000000E+00 0. -1.
        -24    2    1    2    0    0 -0.34966223313E+02 -0.69883691380E+01  0.15122931286E+03  0.17164917720E+03  0.72949714820E+02 0.  0.
         23    2    1    2    0    0  0.35140791471E+02  0.33224490812E+02  0.99195171015E+02  0.14667165925E+03  0.96613413456E+02 0.  0.
         11    1    3    3    0    0 -0.56465686366E+02 -0.35880690612E+01  0.86526328804E+02  0.10338304287E+03  0.00000000000E+00 0. -1.
        -12    1    3    3    0    0  0.21499463052E+02 -0.34003000768E+01  0.64702984051E+02  0.68266134336E+02  0.00000000000E+00 0.  1.
        -11    1    4    4    0    0  0.28444720439E+02  0.56572716399E+02  0.24110724073E+02  0.67756190691E+02  0.00000000000E+00 0. -1.
         11    1    4    4    0    0  0.66960710323E+01 -0.23348225588E+02  0.75084446942E+02  0.78915468559E+02  0.00000000000E+00 0.  1.
          4    1    1    2  501    0 -0.17456815770E+00 -0.26236121674E+02 -0.82576227215E+02  0.86644087251E+02  0.00000000000E+00 0. -1.
<scales pt_clust_5="13000.00000" pt_clust_6="13000.00000" pt_clust_7="13000.00000" pt_clust_8="13000.00000" pt_clust_9="26.23670"></scales>
<clustering>
<clus scale="   26.237">  2  9  1 -1</clus>
<clus scale="   72.950">  5  6 -1 -1</clus>
<clus scale="   82.276">  1  5  2 -1</clus>
<clus scale="   96.613">  7  8 -1 -1</clus>
<clus scale="   26.237">  2  5  1 -1</clus>
</clustering>
</event>
<event>
 9    1  0.4731329E-005  0.9676927E+02  0.7546771E-02  0.1293230E+00
          1   -1    0    0  502    0 -0.00000000000E+00  0.00000000000E+00  0.66436083281E+03  0.66436083281E+03  0.00000000000E+00 0. -1.
         21   -1    0    0  501  502  0.00000000000E+00 -0.00000000000E+00 -0.24722424265E+02  0.24722424265E+02  0.00000000000E+00 0. -1.
        -24    2    1    2    0    0  0.46904715000E+02 -0.23214010691E+02  0.29537629829E+03  0.31065710378E+03  0.80757265638E+02 0.  0.
         23    2    1    2    0    0  0.14108516815E+02  0.18605261338E+02  0.18425197699E+03  0.20711620679E+03  0.91668566546E+02 0.  0.
         11    1    3    3    0    0  0.42848142469E+02  0.19428293333E+02  0.98287703493E+02  0.10896740133E+03  0.00000000000E+00 0. -1.
        -12    1    3    3    0    0  0.40565725307E+01 -0.42642304024E+02  0.19708859480E+03  0.20168970245E+03  0.00000000000E+00 0.  1.
        -13    1    4    4    0    0 -0.17047063864E+02  0.25975416338E+02  0.16867457524E+03  0.17151220649E+03  0.00000000000E+00 0.  1.
         13    1    4    4    0    0  0.31155580679E+02 -0.73701549994E+01  0.15577401747E+02  0.35604000300E+02  0.00000000000E+00 0. -1.
          2    1    1    2  501    0 -0.61013231815E+02  0.46087493523E+01  0.16001013326E+03  0.17130994651E+03  0.00000000000E+00 0. -1.
<scales pt_clust_5="13000.00000" pt_clust_6="13000.00000" pt_clust_7="13000.00000" pt_clust_8="13000.00000" pt_clust_9="61.18708"></scales>
<clustering>
<clus scale="   61.187">  2  9  1 -1</clus>
<clus scale="   80.757">  5  6 -1 -1</clus>
<clus scale="   86.504">  1  5  2 -1</clus>
<clus scale="   91.669">  7  8 -1 -1</clus>
<clus scale="   61.187">  2  5  1 -1</clus>
</clustering>
</event>
<event>
 9    1  0.4731329E-005  0.1185685E+03  0.7546771E-02  0.1248646E+00
         21   -1    0    0  501  502  0.00000000000E+00  0.00000000000E+00  0.40715027731E+03  0.40715027731E+03  0.00000000000E+00 0.  1.
          1   -1    0    0  502    0 -0.00000000000E+00 -0.00000000000E+00 -0.26538965033E+03  0.26538965033E+03  0.00000000000E+00 0. -1.
        -24    2    1    2    0    0  0.54448547908E+02  0.53309141728E+02 -0.21163595061E+03  0.23865833652E+03  0.79759118839E+02 0.  0.
         23    2    1    2    0    0 -0.12561703462E+03 -0.28490055703E+02  0.30856175207E+03  0.34618266233E+03  0.89670274860E+02 0.  0.
         13    1    3    3    0    0  0.37399208565E+02  0.31835514029E+02 -0.20451516180E+03  0.21032986512E+03  0.00000000000E+00 0. -1.
        -14    1    3    3    0    0  0.17049339343E+02  0.21473627699E+02 -0.71207888112E+01  0.28328471400E+02  0.00000000000E+00 0.  1.
        -13    1    4    4    0    0 -0.68982087949E+02  0.29495822663E+02  0.13022147341E+03  0.15028693939E+03  0.00000000000E+00 0. -1.
         13    1    4    4    0    0 -0.56634946673E+02 -0.57985878366E+02  0.17834027866E+03  0.19589572294E+03  0.00000000000E+00 0.  1.
          2    1    1    2  501    0  0.71168486714E+02 -0.24819086025E+02  0.44834825518E+02  0.87698928794E+02  0.00000000000E+00 0. -1.
<scales pt_clust_5="13000.00000" pt_clust_6="13000.00000" pt_clust_7="13000.00000" pt_clust_8="13000.00000" pt_clust_9="75.37201"></scales>
<clustering>
<clus scale="   75.372">  1  9  2 -1</clus>
<clus scale="   79.759">  5  6 -1 -1</clus>
<clus scale="   89.670">  7  8 -1 -1</clus>
<clus scale="  111.262">  2  5  1 -1</clus>
<clus scale="   75.372">  1  5  2 -1</clus>
</clustering>
</event>
<event>
 9    1  0.4731329E-005  0.1629671E+03  0.7546771E-02  0.1186827E+00
         21   -1    0    0  501  502  0.00000000000E+00  0.00000000000E+00  0.28974835999E+03  0.28974835999E+03  0.00000000000E+00 0.  1.
          1   -1    0    0  502    0 -0.00000000000E+00 -0.00000000000E+00 -0.72694390772E+03  0.72694390772E+03  0.00000000000E+00 0. -1.
         23    2    1    2    0    0 -0.43943368847E+02  0.12775189369E+03 -0.65482435494E+03  0.67456787820E+03  0.89416555889E+02 0.  0.
        -24    2    1    2    0    0  0.68925926737E+02 -0.13496082022E+03  0.58565023138E+02  0.18094937834E+03  0.79671884719E+02 0.  0.
         11    1    4    4    0    0 -0.14398999377E+02 -0.48515128270E+02  0.23983255453E+02  0.56002190995E+02  0.00000000000E+00 0. -1.
        -12    1    4    4    0    0  0.83324926115E+02 -0.86445691954E+02  0.34581767685E+02  0.12494718735E+03  0.00000000000E+00 0.  1.
        -13    1    3    3    0    0  0.18901978539E+02  0.58445986757E+02 -0.16899752210E+03  0.17981485099E+03  0.00000000000E+00 0.  1.
         13    1    3    3    0    0 -0.62845347386E+02  0.69305906929E+02 -0.48582683284E+03  0.49475302721E+03  0.00000000000E+00 0. -1.
          2    1    1    2  501    0 -0.24982557890E+02  0.72089265386E+01  0.15906378408E+03  0.16117501117E+03  0.00000000000E+00 0. -1.
<scales pt_clust_5="13000.00000" pt_clust_6="13000.00000" pt_clust_7="13000.00000" pt_clust_8="13000.00000" pt_clust_9="26.00186"></scales>
<clustering>
<clus scale="   26.002">  1  9  2 -1</clus>
<clus scale="   79.672">  5  6 -1 -1</clus>
<clus scale="   89.417">  7  8 -1 -1</clus>
<clus scale="  157.831">  1  5  2 -1</clus>
<clus scale="   26.002">  1  5  2 -1</clus>
</clustering>
</event>
<event>
 9    1  0.4731329E-005  0.1292648E+03  0.7546771E-02  0.1231358E+00
         -2   -1    0    0    0  501 -0.00000000000E+00  0.00000000000E+00  0.25750700624E+03  0.25750700624E+03  0.00000000000E+00 0.  1.
         21   -1    0    0  501  502  0.00000000000E+00 -0.00000000000E+00 -0.14147020732E+03  0.14147020732E+03  0.00000000000E+00 0.  1.
         23    2    1    2    0    0 -0.42970410772E+02  0.47340558951E+02  0.46028948368E+02  0.11983438085E+03  0.90299667890E+02 0.  0.
        -24    2    1    2    0    0  0.13937352436E+03 -0.30802398790E+02  0.77894188249E+02  0.18101401242E+03  0.79528617903E+02 0.  0.
         13    1    4    4    0    0  0.38530257812E+02 -0.27829853729E+02  0.63176350156E+02  0.79059045939E+02  0.00000000000E+00 0. -1.
        -14    1    4    4    0    0  0.10084326655E+03 -0.29725450608E+01  0.14717838093E+02  0.10195496648E+03  0.00000000000E+00 0.  1.
        -11    1    3    3    0    0  0.91622867906E+01 -0.17932505202E+02  0.27807628354E+02  0.34333459434E+02  0.00000000000E+00 0.  1.
         11    1    3    3    0    0 -0.52132697562E+02  0.65273064154E+02  0.18221320015E+02  0.85500921412E+02  0.00000000000E+00 0. -1.
         -1    1    1    2    0  502 -0.96403113586E+02 -0.16538160162E+02 -0.78863377041E+01  0.98128820298E+02  0.00000000000E+00 0.  1.
<scales pt_clust_5="13000.00000" pt_clust_6="13000.00000" pt_clust_7="13000.00000" pt_clust_8="13000.00000" pt_clust_9="97.81141"></scales>
<clustering>
<clus scale="   79.529">  5  6 -1 -1</clus>
<clus scale="   90.300">  7  8 -1 -1</clus>
<clus scale="   97.811">  2  9  1 -1</clus>
<clus scale="  121.984">  2  5  1 -1</clus>
<clus scale="   97.811">  2  5  1 -1</clus>
</clustering>
</event>
<event>
 9    1  0.4731329E-005  0.1248621E+03  0.7546771E-02  0.1238578E+00
          1   -1    0    0  502    0 -0.00000000000E+00  0.00000000000E+00  0.29992022455E+03  0.29992022455E+03  0.00000000000E+00 0. -1.
         21   -1    0    0  501  502  0.00000000000E+00 -0.00000000000E+00 -0.41215250930E+03  0.41215250930E+03  0.00000000000E+00 0. -1.
         23    2    1    2    0    0  0.79139883836E+02 -0.23237224040E+02  0.25312919049E+03  0.28147948925E+03  0.91395984579E+02 0.  0.
        -24    2    1    2    0    0 -0.10405136988E+03  0.74261276418E+02 -0.17039029669E+03  0.22752232958E+03  0.79950813027E+02 0.  0.
         11    1    4    4    0    0 -0.11034162082E+03  0.83011976091E+02 -0.14651723282E+03  0.20132948362E+03  0.00000000000E+00 0. -1.
        -12    1    4    4    0    0  0.62902509334E+01 -0.87506996723E+01 -0.23873063864E+02  0.26192845966E+02  0.00000000000E+00 0.  1.
        -11    1    3    3    0    0  0.50960739795E+02  0.19988994756E+02  0.20024472240E+03  0.20759216209E+03  0.00000000000E+00 0. -1.
         11    1    3    3    0    0  0.28179144041E+02 -0.43226218796E+02  0.52884468091E+02  0.73887327165E+02  0.00000000000E+00 0.  1.
          2    1    1    2  501    0  0.24911486048E+02 -0.51024052379E+02 -0.19497117855E+03  0.20307091501E+03  0.00000000000E+00 0. -1.
<scales pt_clust_5="13000.00000" pt_clust_6="13000.00000" pt_clust_7="13000.00000" pt_clust_8="13000.00000" pt_clust_9="56.78060"></scales>
<clustering>
<clus scale="   56.781">  2  9  1 -1</clus>
<clus scale="   79.951">  5  6 -1 -1</clus>
<clus scale="   91.396">  7  8 -1 -1</clus>
<clus scale="  116.745">  2  5  1 -1</clus>
<clus scale="   56.781">  2  5  1 -1</clus>
</clustering>
</event>
<event>
 9    1  0.4731329E-005  0.1205289E+03  0.7546771E-02  0.1242495E+00
         21   -1    0    0  501  502  0.00000000000E+00  0.00000000000E+00  0.27158549547E+03  0.27158549547E+03  0.00000000000E+00 0. -1.
         -4   -1    0    0    0  501 -0.00000000000E+00 -0.00000000000E+00 -0.15571588613E+03  0.15571588613E+03  0.00000000000E+00 0.  1.
         23    2    1    2    0    0  0.37376678613E+02 -0.67669132700E+02 -0.23510614407E+02  0.13185844098E+03  0.10420063264E+03 0.  0.
        -24    2    1    2    0    0 -0.27319513689E+02 -0.14886030309E+02  0.17444881169E+03  0.20518604413E+03  0.10344551744E+03 0.  0.
         13    1    4    4    0    0  0.32905849649E+02 -0.31242987935E+02  0.80257565746E+02  0.92196508045E+02  0.00000000000E+00 0. -1.
        -14    1    4    4    0    0 -0.60225363338E+02  0.16356957626E+02  0.94191245944E+02  0.11298953608E+03  0.00000000000E+00 0.  1.
        -13    1    3    3    0    0  0.33317064287E+02 -0.92017709096E+02 -0.35898093875E+02  0.10423990936E+03  0.00000000000E+00 0.  1.
         13    1    3    3    0    0  0.40596143267E+01  0.24348576396E+02  0.12387479468E+02  0.27618531615E+02  0.00000000000E+00 0. -1.
         -3    1    1    2    0  502 -0.10057164925E+02  0.82555163008E+02 -0.35068587942E+02  0.90256896500E+02  0.00000000000E+00 0.  1.
<scales pt_clust_5="13000.00000" pt_clust_6="13000.00000" pt_clust_7="13000.00000" pt_clust_8="13000.00000" pt_clust_9="83.16555"></scales>
<clustering>
<clus scale="   83.166">  1  9  2 -1</clus>
<clus scale="  103.446">  5  6 -1 -1</clus>
<clus scale="  104.201">  7  8 -1 -1</clus>
<clus scale="  119.877">  1  5  2 -1</clus>
<clus scale="   83.166">  1  5  2 -1</clus>
</clustering>
</event>
<event>
 9    1  0.4731329E-005  0.1273373E+03  0.7546771E-02  0.1235827E+00
         21   -1    0    0  501  502  0.00000000000E+00  0.00000000000E+00  0.54467504937E+02  0.54467504937E+02  0.00000000000E+00 0. -1.
          1   -1    0    0  502    0 -0.00000000000E+00 -0.00000000000E+00 -0.45109520201E+03  0.45109520201E+03  0.00000000000E+00 0. -1.
        -24    2    1    2    0    0 -0.72586213983E+02  0.13734412736E+01 -0.16513230857E+03  0.19765170494E+03  0.80789060722E+02 0.  0.
         23    2    1    2    0    0  0.92635727552E+02 -0.52075234650E+02 -0.19662604125E+03  0.24319217767E+03  0.95851067262E+02 0.  0.
         11    1    3    3    0    0 -0.44990898851E+02 -0.79200684619E+01 -0.20419782143E+02  0.50038744655E+02  0.00000000000E+00 0. -1.
        -12    1    3    3    0    0 -0.27595315132E+02  0.92935097355E+01 -0.14471252643E+03  0.14761296029E+03  0.00000000000E+00 0.  1.
        -13    1    4    4    0    0  0.19878404647E+00 -0.39895124002E+02 -0.22828853013E+02  0.45965388763E+02  0.00000000000E+00 0.  1.
         13    1    4    4    0    0  0.92436943506E+02 -0.12180110648E+02 -0.17379718824E+03  0.19722678890E+03  0.00000000000E+00 0. -1.
          2    1    1    2  501    0 -0.20049513569E+02  0.50701793377E+02 -0.34869347245E+02  0.64718824335E+02  0.00000000000E+00 0. -1.
<scales pt_clust_5="13000.00000" pt_clust_6="13000.00000" pt_clust_7="13000.00000" pt_clust_8="13000.00000" pt_clust_9="54.52206"></scales>
<clustering>
<clus scale="   54.522">  1  9  2 -1</clus>
<clus scale="   80.789">  5  6 -1 -1</clus>
<clus scale="   95.851">  7  8 -1 -1</clus>
<clus scale="  116.423">  2  5  1 -1</clus>
<clus scale="   54.522">  1  5  2 -1</clus>
</clustering>
</event>
<event>
 9    1  0.4731329E-005  0.1097970E+03  0.7546771E-02  0.1264158E+00
         21   -1    0    0  501  502  0.00000000000E+00  0.00000000000E+00  0.68374346050E+02  0.68374346050E+02  0.00000000000E+00 0. -1.
          1   -1    0    0  502    0 -0.00000000000E+00 -0.00000000000E+00 -0.65521133470E+03  0.65521133470E+03  0.00000000000E+00 0. -1.
        -24    2    1    2    0    0  0.17733913551E+02 -0.73065306618E+02 -0.50461139196E+03  0.51627302511E+03  0.79070530807E+02 0.  0.
         23    2    1    2    0    0  0.27691088937E+01  0.41201102157E+02 -0.11972751800E+03  0.15400134767E+03  0.87615853210E+02 0.  0.
         11    1    3    3    0    0  0.25518383534E+02 -0.88312147730E+02 -0.41861273698E+03  0.42858703538E+03  0.00000000000E+00 0. -1.
        -12    1    3    3    0    0 -0.77844699825E+01  0.15246841112E+02 -0.85998654982E+02  0.87685989733E+02  0.00000000000E+00 0.  1.
        -11    1    4    4    0    0  0.25356113967E+02  0.61469964181E+02 -0.83542747168E+02  0.10677490162E+03  0.00000000000E+00 0.  1.
         11    1    4    4    0    0 -0.22587005073E+02 -0.20268862023E+02 -0.36184770833E+02  0.47226446046E+02  0.00000000000E+00 0. -1.
          2    1    1    2  501    0 -0.20503022445E+02  0.31864204460E+02  0.37501921313E+02  0.53311307969E+02  0.00000000000E+00 0. -1.
<scales pt_clust_5="13000.00000" pt_clust_6="13000.00000" pt_clust_7="13000.00000" pt_clust_8="13000.00000" pt_clust_9="37.89065"></scales>
<clustering>
<clus scale="   37.891">  1  9  2 -1</clus>
<clus scale="   79.071">  5  6 -1 -1</clus>
<clus scale="   87.616">  7  8 -1 -1</clus>
<clus scale="  103.107">  2  5  1 -1</clus>
<clus scale="   37.891">  1  5  2 -1</clus>
</clustering>
</event>
<event>
 9    1  0.4731329E-005  0.1804592E+03  0.7546771E-02  0.1168833E+00
         21   -1    0    0  501  502  0.00000000000E+00  0.00000000000E+00  0.68950005902E+03  0.68950005902E+03  0.00000000000E+00 0.  1.
          3   -1    0    0  502    0 -0.00000000000E+00 -0.00000000000E+00 -0.16023392688E+03  0.16023392688E+03  0.00000000000E+00 0. -1.
         23    2    1    2    0    0  0.11112015187E+03 -0.96296312674E+02 -0.64466310438E+02  0.18533500802E+03  0.92587753124E+02 0.  0.
        -24    2    1    2    0    0 -0.15043652528E+03  0.13569143424E+03  0.33421915830E+03  0.39898440117E+03  0.80267011491E+02 0.  0.
         11    1    4    4    0    0 -0.32715619070E+02  0.20472893585E+02  0.18326452750E+02  0.42723646535E+02  0.00000000000E+00 0. -1.
        -12    1    4    4    0    0 -0.11772090621E+03  0.11521854065E+03  0.31589270555E+03  0.35626075463E+03  0.00000000000E+00 0.  1.
        -13    1    3    3    0    0  0.11705841373E+02 -0.26532560132E+02  0.21871930331E+02  0.36323336931E+02  0.00000000000E+00 0.  1.
         13    1    3    3    0    0  0.99414310498E+02 -0.69763752542E+02 -0.86338240769E+02  0.14901167109E+03  0.00000000000E+00 0. -1.
          4    1    1    2  501    0  0.39316373413E+02 -0.39395121563E+02  0.25951328427E+03  0.26541457672E+03  0.00000000000E+00 0. -1.
<scales pt_clust_5="13000.00000" pt_clust_6="13000.00000" pt_clust_7="13000.00000" pt_clust_8="13000.00000" pt_clust_9="55.65746"></scales>
<clustering>
<clus scale="   55.657">  1  9  2 -1</clus>
<clus scale="   80.267">  5  6 -1 -1</clus>
<clus scale="   92.588">  7  8 -1 -1</clus>
<clus scale="  174.459">  1  5  2 -1</clus>
<clus scale="   55.657">  1  5  2 -1</clus>
</clustering>
</event>
<event>
 9    1  0.4731329E-005  0.9973516E+02  0.7546771E-02  0.1291185E+00
          1   -1    0    0  502    0 -0.00000000000E+00  0.00000000000E+00  0.38786067074E+03  0.38786067074E+03  0.00000000000E+00 0. -1.
         21   -1    0    0  501  502  0.00000000000E+00 -0.00000000000E+00 -0.99787093985E+02  0.99787093985E+02  0.00000000000E+00 0. -1.
        -24    2    1    2    0    0 -0.33358901708E+02  0.12859917324E+02  0.30271610357E+03  0.31407898957E+03  0.75699263753E+02 0.  0.
         23    2    1    2    0    0  0.14467534330E+02  0.39283372737E+02  0.23779610745E+02  0.10609976660E+03  0.94547330276E+02 0.  0.
         11    1    3    3    0    0 -0.57137177642E+02  0.66535047883E+01  0.18152085923E+03  0.19041730103E+03  0.00000000000E+00 0. -1.
        -12    1    3    3    0    0  0.23778275934E+02  0.62064125360E+01  0.12119524434E+03  0.12366168854E+03  0.00000000000E+00 0.  1.
        -11    1    4    4    0    0  0.53102096121E+02  0.28496517907E+02  0.16490355662E+01  0.60287672567E+02  0.00000000000E+00 0.  1.
         11    1    4    4    0    0 -0.38634561791E+02  0.10786854830E+02  0.22130575178E+02  0.45812094033E+02  0.00000000000E+00 0. -1.
          2    1    1    2  501    0  0.18891367378E+02 -0.52143290061E+02 -0.38422137563E+02  0.67469008550E+02  0.00000000000E+00 0. -1.
<scales pt_clust_5="13000.00000" pt_clust_6="13000.00000" pt_clust_7="13000.00000" pt_clust_8="13000.00000" pt_clust_9="55.45995"></scales>
<clustering>
<clus scale="   55.460">  2  9  1 -1</clus>
<clus scale="   75.699">  5  6 -1 -1</clus>
<clus scale="   82.087">  1  5  2 -1</clus>
<clus scale="   94.547">  7  8 -1 -1</clus>
<clus scale="   55.460">  2  5  1 -1</clus>
</clustering>
</event>
<event>
 9    1  0.4731329E-005  0.1311051E+03  0.7546771E-02  0.1228635E+00
          1   -1    0    0  502    0 -0.00000000000E+00  0.00000000000E+00  0.12562046434E+03  0.12562046434E+03  0.00000000000E+00 0. -1.
         21   -1    0    0  501  502  0.00000000000E+00 -0.00000000000E+00 -0.26919047950E+03  0.26919047950E+03  0.00000000000E+00 0. -1.
        -24    2    1    2    0    0  0.53009419848E+02 -0.66614329672E+02  0.83970885559E+01  0.11731143710E+03  0.80274495747E+02 0.  0.
         23    2    1    2    0    0 -0.14598428415E+02  0.12462990781E+03 -0.70734205773E+02  0.17054159316E+03  0.91298297342E+02 0.  0.
         11    1    3    3    0    0  0.22087880859E+02  0.10429305214E+00  0.33051400614E+02  0.39752741295E+02  0.00000000000E+00 0. -1.
        -12    1    3    3    0    0  0.30921538989E+02 -0.66718622724E+02 -0.24654312058E+02  0.77558695803E+02  0.00000000000E+00 0.  1.
        -11    1    4    4    0    0 -0.20218173056E+02 -0.10763722155E+01  0.83722771241E+01  0.21909544110E+02  0.00000000000E+00 0.  1.
         11    1    4    4    0    0  0.56197446419E+01  0.12570628002E+03 -0.79106482897E+02  0.14863204905E+03  0.00000000000E+00 0. -1.
          2    1    1    2  501    0 -0.38410991433E+02 -0.58015578136E+02 -0.81232897944E+02  0.10695791358E+03  0.00000000000E+00 0. -1.
<scales pt_clust_5="13000.00000" pt_clust_6="13000.00000" pt_clust_7="13000.00000" pt_clust_8="13000.00000" pt_clust_9="69.57882"></scales>
<clustering>
<clus scale="   69.579">  2  9  1 -1</clus>
<clus scale="   80.274">  5  6 -1 -1</clus>
<clus scale="   91.298">  7  8 -1 -1</clus>
<clus scale="  123.682">  1  5  2 -1</clus>
<clus scale="   69.579">  2  5  1 -1</clus>
</clustering>
</event>
<event>
 9    1  0.4731329E-005  0.1188887E+03  0.7546771E-02  0.1248896E+00
          1   -1    0    0  502    0 -0.00000000000E+00  0.00000000000E+00  0.44530587842E+03  0.44530587842E+03  0.00000000000E+00 0. -1.
         21   -1    0    0  501  502  0.00000000000E+00 -0.00000000000E+00 -0.91978277012E+02  0.91978277012E+02  0.00000000000E+00 0. -1.
        -24    2    1    2    0    0  0.40332041046E+02 -0.49555898620E+02  0.17571660992E+03  0.20355032309E+03  0.80460837721E+02 0.  0.
         23    2    1    2    0    0 -0.51811828442E+02  0.70123084308E+02  0.23750821771E+03  0.26937179108E+03  0.92462402272E+02 0.  0.
         11    1    3    3    0    0 -0.17573902014E+02 -0.39971927038E+02  0.66335103258E+02  0.79416263495E+02  0.00000000000E+00 0. -1.
        -12    1    3    3    0    0  0.57905943060E+02 -0.95839715820E+01  0.10938150666E+03  0.12413405960E+03  0.00000000000E+00 0.  1.
        -11    1    4    4    0    0 -0.31033149022E+02  0.90875465381E+02  0.16156855004E+03  0.18795159725E+03  0.00000000000E+00 0.  1.
         11    1    4    4    0    0 -0.20778679420E+02 -0.20752381074E+02  0.75939667671E+02  0.81420193838E+02  0.00000000000E+00 0. -1.
          2    1    1    2  501    0  0.11479787396E+02 -0.20567185687E+02 -0.59897226218E+02  0.64362041254E+02  0.00000000000E+00 0. -1.
<scales pt_clust_5="13000.00000" pt_clust_6="13000.00000" pt_clust_7="13000.00000" pt_clust_8="13000.00000" pt_clust_9="23.55408"></scales>
<clustering>
<clus scale="   23.554">  2  9  1 -1</clus>
<clus scale="   80.461">  5  6 -1 -1</clus>
<clus scale="   92.462">  7  8 -1 -1</clus>
<clus scale="  109.814">  1  5  2 -1</clus>
<clus scale="   23.554">  2  5  1 -1</clus>
</clustering>
</event>
<event>
 9    1  0.4731329E-005  0.8978045E+02  0.7546771E-02  0.1316882E+00
         21   -1    0    0  501  502  0.00000000000E+00  0.00000000000E+00  0.13006243728E+03  0.13006243728E+03  0.00000000000E+00 0. -1.
          1   -1    0    0  502    0 -0.00000000000E+00 -0.00000000000E+00 -0.13135331535E+03  0.13135331535E+03  0.00000000000E+00 0. -1.
        -24    2    1    2    0    0 -0.28838466412E+02 -0.51941876398E+02 -0.61095662819E+02  0.11563206838E+03  0.78156762686E+02 0.  0.
         23    2    1    2    0    0  0.19624888308E+02  0.23776920262E+02 -0.15690645810E+02  0.64680572035E+02  0.54652555792E+02 0.  0.
         13    1    3    3    0    0  0.60126544199E+01 -0.57898962320E+02 -0.54347536257E+02  0.79637281145E+02  0.00000000000E+00 0. -1.
        -14    1    3    3    0    0 -0.34851120832E+02  0.59570859225E+01 -0.67481265623E+01  0.35994787235E+02  0.00000000000E+00 0.  1.
        -11    1    4    4    0    0 -0.12376886051E+02  0.24566911659E+02 -0.17524799910E+02  0.32616545934E+02  0.00000000000E+00 0. -1.
         11    1    4    4    0    0  0.32001774359E+02 -0.78999139693E+00  0.18341541000E+01  0.32064026101E+02  0.00000000000E+00 0.  1.
          2    1    1    2  501    0  0.92135781042E+01  0.28164956136E+02  0.75495430558E+02  0.81103112214E+02  0.00000000000E+00 0. -1.
<scales pt_clust_5="13000.00000" pt_clust_6="13000.00000" pt_clust_7="13000.00000" pt_clust_8="13000.00000" pt_clust_9="29.63368"></scales>
<clustering>
<clus scale="   29.634">  1  9  2 -1</clus>
<clus scale="   54.653">  7  8 -1 -1</clus>
<clus scale="   70.278">  1  7  2 -1</clus>
<clus scale="   78.157">  5  6 -1 -1</clus>
<clus scale="   29.634">  1  5  2 -1</clus>
</clustering>
</event>
<event>
 9    1  0.5892282E-005  0.9703553E+02  0.7546771E-02  0.1294477E+00
         21   -1    0    0  501  502  0.00000000000E+00  0.00000000000E+00  0.26534039594E+03  0.26534039594E+03  0.00000000000E+00 0. -1.
          1   -1    0    0  502    0 -0.00000000000E+00 -0.00000000000E+00 -0.32228415266E+03  0.32228415266E+03  0.00000000000E+00 0. -1.
        -24    2    1    2    0    0 -0.95008725973E+01  0.19997031689E+02 -0.26063623565E+03  0.27346982058E+03  0.79776861175E+02 0.  0.
         23    2    1    2    0    0  0.12585315107E+02 -0.57587497526E+02  0.37073685457E+01  0.11064403719E+03  0.93560933921E+02 0.  0.
         11    1    3    3    0    0 -0.40967325621E+02  0.13922393036E+02 -0.20264268095E+03  0.20721054736E+03  0.00000000000E+00 0. -1.
        -12    1    3    3    0    0  0.31466453024E+02  0.60746386534E+01 -0.57993554706E+02  0.66259273223E+02  0.00000000000E+00 0.  1.
        -11    1    4    4    0    0 -0.16115850221E+01 -0.76606484168E+02 -0.17745937694E+02  0.78651566593E+02  0.00000000000E+00 0. -1.
         11    1    4    4    0    0  0.14196900129E+02  0.19018986642E+02  0.21453306239E+02  0.31992470595E+02  0.00000000000E+00 0.  1.
          2    1    1    2  501    0 -0.30844425100E+01  0.37590465837E+02  0.19998511038E+03  0.20351069083E+03  0.00000000000E+00 0. -1.
<scales pt_clust_5="13000.00000" pt_clust_6="13000.00000" pt_clust_7="13000.00000" pt_clust_8="13000.00000" pt_clust_9="37.71680"></scales>
<clustering>
<clus scale="   37.717">  1  9  2 -1</clus>
<clus scale="   79.777">  5  6 -1 -1</clus>
<clus scale="   83.825">  2  5  1 -1</clus>
<clus scale="   93.561">  7  8 -1 -1</clus>
<clus scale="   37.717">  1  5  2 -1</clus>
</clustering>
</event>
<event>
 9    1  0.4731329E-005  0.9519487E+02  0.7546771E-02  0.1295348E+00
          1   -1    0    0  502    0 -0.00000000000E+00  0.00000000000E+00  0.46295680378E+02  0.46295680378E+02  0.00000000000E+00 0. -1.
         21   -1    0    0  501  502  0.00000000000E+00 -0.00000000000E+00 -0.28716933895E+03  0.28716933895E+03  0.00000000000E+00 0.  1.
         23    2    1    2    0    0 -0.33510638307E+02  0.31943367768E+02 -0.75319560656E+02  0.12647031563E+03  0.90434301531E+02 0.  0.
        -24    2    1    2    0    0 -0.89189718211E+00 -0.10878038004E+02 -0.12347755790E+03  0.14870475786E+03  0.82141770825E+02 0.  0.
         11    1    4    4    0    0 -0.31133024209E+02  0.38083101639E+01 -0.14305104740E+02  0.34473242440E+02  0.00000000000E+00 0. -1.
        -12    1    4    4    0    0  0.30241127027E+02 -0.14686348168E+02 -0.10917245316E+03  0.11423151542E+03  0.00000000000E+00 0.  1.
        -13    1    3    3    0    0 -0.33607388498E+02 -0.35472426022E+00  0.10144477435E+02  0.35106877010E+02  0.00000000000E+00 0.  1.
         13    1    3    3    0    0  0.96750190943E-01  0.32298092028E+02 -0.85464038090E+02  0.91363438617E+02  0.00000000000E+00 0. -1.
          2    1    1    2  501    0  0.34402535489E+02 -0.21065329764E+02 -0.42076540011E+02  0.58289945835E+02  0.00000000000E+00 0. -1.
<scales pt_clust_5="13000.00000" pt_clust_6="13000.00000" pt_clust_7="13000.00000" pt_clust_8="13000.00000" pt_clust_9="40.33961"></scales>
<clustering>
<clus scale="   40.340">  2  9  1 -1</clus>
<clus scale="   82.142">  5  6 -1 -1</clus>
<clus scale="   87.355">  2  5  1 -1</clus>
<clus scale="   90.434">  7  8 -1 -1</clus>
<clus scale="   40.340">  2  5  1 -1</clus>
</clustering>
</event>
<event>
 9    1  0.4731329E-005  0.9292814E+02  0.7546771E-02  0.1301468E+00
         21   -1    0    0  501  502  0.00000000000E+00  0.00000000000E+00  0.10846165195E+03  0.10846165195E+03  0.00000000000E+00 0.  1.
          1   -1    0    0  502    0 -0.00000000000E+00 -0.00000000000E+00 -0.19383990181E+03  0.19383990181E+03  0.00000000000E+00 0. -1.
        -24    2    1    2    0    0 -0.47479587156E+01 -0.35469383719E+02 -0.76669345595E+02  0.11632178258E+03  0.79824484057E+02 0.  0.
         23    2    1    2    0    0 -0.48205682058E+02 -0.11961282549E+02  0.28029152413E+02  0.10595826793E+03  0.89300957976E+02 0.  0.
         11    1    3    3    0    0  0.25769591642E+02 -0.25024778397E+02 -0.75997833296E+02  0.84059395982E+02  0.00000000000E+00 0. -1.
        -12    1    3    3    0    0 -0.30517550358E+02 -0.10444605322E+02 -0.67151229937E+00  0.32262386597E+02  0.00000000000E+00 0.  1.
        -11    1    4    4    0    0 -0.19771320365E+02 -0.41911387064E+02  0.41817487029E+02  0.62419321496E+02  0.00000000000E+00 0.  1.
         11    1    4    4    0    0 -0.28434361693E+02  0.29950104515E+02 -0.13788334616E+02  0.43538946437E+02  0.00000000000E+00 0. -1.
          2    1    1    2  501    0  0.52953640773E+02  0.47430666268E+02 -0.36738056676E+02  0.80021503248E+02  0.00000000000E+00 0. -1.
<scales pt_clust_5="13000.00000" pt_clust_6="13000.00000" pt_clust_7="13000.00000" pt_clust_8="13000.00000" pt_clust_9="71.08981"></scales>
<clustering>
<clus scale="   71.090">  1  9  2 -1</clus>
<clus scale="   79.824">  5  6 -1 -1</clus>
<clus scale="   83.863">  2  5  1 -1</clus>
<clus scale="   89.301">  7  8 -1 -1</clus>
<clus scale="   71.090">  1  5  2 -1</clus>
</clustering>
</event>
<event>
 9    1  0.4731329E-005  0.2846143E+03  0.7546771E-02  0.1103329E+00
          1   -1    0    0  502    0 -0.00000000000E+00  0.00000000000E+00  0.36388803391E+03  0.36388803391E+03  0.00000000000E+00 0. -1.
         21   -1    0    0  501  502  0.00000000000E+00 -0.00000000000E+00 -0.67573614046E+03  0.67573614046E+03  0.00000000000E+00 0. -1.
        -24    2    1    2    0    0  0.11296999529E+02 -0.20313125933E+03  0.64542455213E+02  0.22794997714E+03  0.80034572746E+02 0.  0.
         23    2    1    2    0    0  0.76251386217E+02 -0.21496943144E+03 -0.28236685012E+03  0.37428036345E+03  0.91261284589E+02 0.  0.
         13    1    3    3    0    0 -0.26077639474E+02 -0.11927035690E+03  0.13311749086E+02  0.12281149775E+03  0.00000000000E+00 0. -1.
        -14    1    3    3    0    0  0.37374639003E+02 -0.83860902432E+02  0.51230706126E+02  0.10513847939E+03  0.00000000000E+00 0.  1.
        -13    1    4    4    0    0  0.96141189910E+02 -0.18233693412E+03 -0.25132906332E+03  0.32504797186E+03  0.00000000000E+00 0. -1.
         13    1    4    4    0    0 -0.19889803693E+02 -0.32632497326E+02 -0.31037786804E+02  0.49232391597E+02  0.00000000000E+00 0.  1.
          2    1    1    2  501    0 -0.87548385746E+02  0.41810069078E+03 -0.94023711650E+02  0.43739383378E+03  0.00000000000E+00 0. -1.
<scales pt_clust_5="13000.00000" pt_clust_6="13000.00000" pt_clust_7="13000.00000" pt_clust_8="13000.00000" pt_clust_9="269.58621"></scales>
<clustering>
<clus scale="   80.035">  5  6 -1 -1</clus>
<clus scale="   91.261">  7  8 -1 -1</clus>
<clus scale="  218.622">  1  5  2 -1</clus>
<clus scale="  269.586">  2  9  1 -1</clus>
<clus scale="  269.586">  2  5  1 -1</clus>
</clustering>
</event>
<event>
 9    1  0.4731329E-005  0.1496320E+03  0.7546771E-02  0.1201109E+00
         21   -1    0    0  501  502  0.00000000000E+00  0.00000000000E+00  0.19512108269E+03  0.19512108269E+03  0.00000000000E+00 0. -1.
          1   -1    0    0  502    0 -0.00000000000E+00 -0.00000000000E+00 -0.95768090481E+03  0.95768090481E+03  0.00000000000E+00 0. -1.
         23    2    1    2    0    0  0.70919611862E+00  0.12767310563E+03 -0.80290941557E+03  0.81709896106E+03  0.81769540162E+02 0.  0.
        -24    2    1    2    0    0  0.16025364633E+02 -0.11401655580E+03 -0.11328856239E+03  0.18055396971E+03  0.80677446035E+02 0.  0.
         11    1    4    4    0    0  0.21198400787E+02  0.47219167159E+00 -0.37737317036E+02  0.43286259460E+02  0.00000000000E+00 0. -1.
        -12    1    4    4    0    0 -0.51730361539E+01 -0.11448874748E+03 -0.75551245357E+02  0.13726771025E+03  0.00000000000E+00 0.  1.
        -13    1    3    3    0    0 -0.39452177753E+02  0.72557066422E+02 -0.39686598716E+03  0.40536849160E+03  0.00000000000E+00 0.  1.
         13    1    3    3    0    0  0.40161373872E+02  0.55116039206E+02 -0.40604342841E+03  0.41173046946E+03  0.00000000000E+00 0. -1.
          2    1    1    2  501    0 -0.16734560752E+02 -0.13656549824E+02  0.15363815584E+03  0.15514905674E+03  0.00000000000E+00 0. -1.
<scales pt_clust_5="13000.00000" pt_clust_6="13000.00000" pt_clust_7="13000.00000" pt_clust_8="13000.00000" pt_clust_9="21.59970"></scales>
<clustering>
<clus scale="   21.600">  1  9  2 -1</clus>
<clus scale="   80.677">  5  6 -1 -1</clus>
<clus scale="   81.770">  7  8 -1 -1</clus>
<clus scale="  149.038">  1  5  2 -1</clus>
<clus scale="   21.600">  1  5  2 -1</clus>
</clustering>
</event>
<event>
 9    1  0.4731329E-005  0.1062777E+03  0.7546771E-02  0.1270746E+00
         21   -1    0    0  501  502  0.00000000000E+00  0.00000000000E+00  0.20339199843E+02  0.20339199843E+02  0.00000000000E+00 0.  1.
          1   -1    0    0  502    0 -0.00000000000E+00 -0.00000000000E+00 -0.68133037242E+03  0.68133037242E+03  0.00000000000E+00 0. -1.
        -24    2    1    2    0    0 -0.41773324463E+02  0.34674373559E+02 -0.29587407032E+03  0.31240232091E+03  0.84299595532E+02 0.  0.
         23    2    1    2    0    0  0.22105670902E+02 -0.52371101149E+02 -0.27622478557E+03  0.29652117472E+03  0.91614856722E+02 0.  0.
         11    1    3    3    0    0 -0.28649707447E+02  0.59816302445E+02 -0.15325516066E+03  0.16699083820E+03  0.00000000000E+00 0. -1.
        -12    1    3    3    0    0 -0.13123617016E+02 -0.25141928886E+02 -0.14261890966E+03  0.14541148271E+03  0.00000000000E+00 0.  1.
        -13    1    4    4    0    0  0.55224345185E+02 -0.50098744113E+02 -0.18656581987E+03  0.20091395572E+03  0.00000000000E+00 0.  1.
         13    1    4    4    0    0 -0.33118674283E+02 -0.22723570362E+01 -0.89658965700E+02  0.95607218991E+02  0.00000000000E+00 0. -1.
          2    1    1    2  501    0  0.19667653561E+02  0.17696727590E+02 -0.88892316696E+02  0.92746076637E+02  0.00000000000E+00 0. -1.
<scales pt_clust_5="13000.00000" pt_clust_6="13000.00000" pt_clust_7="13000.00000" pt_clust_8="13000.00000" pt_clust_9="26.45735"></scales>
<clustering>
<clus scale="   26.457">  1  9  2 -1</clus>
<clus scale="   84.300">  5  6 -1 -1</clus>
<clus scale="   91.615">  7  8 -1 -1</clus>
<clus scale="  100.040">  2  5  1 -1</clus>
<clus scale="   26.457">  1  5  2 -1</clus>
</clustering>
</event>
<event>
 9    1  0.4731329E-005  0.4232291E+03  0.7546771E-02  0.1036288E+00
          1   -1    0    0  502    0 -0.00000000000E+00  0.00000000000E+00  0.99935903952E+03  0.99935903952E+03  0.00000000000E+00 0. -1.
         21   -1    0    0  501  502  0.00000000000E+00 -0.00000000000E+00 -0.21755561948E+03  0.21755561948E+03  0.00000000000E+00 0. -1.
         23    2    1    2    0    0  0.50954668177E+02  0.42532220346E+03  0.48489880196E+03  0.65428942842E+03  0.97326527879E+02 0.  0.
        -24    2    1    2    0    0 -0.24774753217E+02 -0.39264740878E+03  0.32101291686E+03  0.51431125512E+03  0.81737374197E+02 0.  0.
         11    1    4    4    0    0  0.26942045524E+02 -0.21378822434E+03  0.17953101235E+03  0.28046864901E+03  0.00000000000E+00 0. -1.
        -12    1    4    4    0    0 -0.51716798741E+02 -0.17885918444E+03  0.14148190451E+03  0.23384260611E+03  0.00000000000E+00 0.  1.
        -13    1    3    3    0    0 -0.23133116793E+02  0.47421464497E+02  0.76829526515E+02  0.93202535009E+02  0.00000000000E+00 0.  1.
         13    1    3    3    0    0  0.74087784969E+02  0.37790073896E+03  0.40806927545E+03  0.56108689341E+03  0.00000000000E+00 0. -1.
          2    1    1    2  501    0 -0.26179914960E+02 -0.32674794675E+02 -0.24108298788E+02  0.48313975461E+02  0.00000000000E+00 0. -1.
<scales pt_clust_5="13000.00000" pt_clust_6="13000.00000" pt_clust_7="13000.00000" pt_clust_8="13000.00000" pt_clust_9="41.86920"></scales>
<clustering>
<clus scale="   41.869">  2  9  1 -1</clus>
<clus scale="   81.737">  5  6 -1 -1</clus>
<clus scale="   97.327">  7  8 -1 -1</clus>
<clus scale="  419.918">  2  5  1 -1</clus>
<clus scale="   41.869">  2  5  1 -1</clus>
</clustering>
</event>
<event>
 9    1  0.4731329E-005  0.1184917E+03  0.7546771E-02  0.1249530E+00
          1   -1    0    0  502    0 -0.00000000000E+00  0.00000000000E+00  0.14730835236E+03  0.14730835236E+03  0.00000000000E+00 0. -1.
         21   -1    0    0  501  502  0.00000000000E+00 -0.00000000000E+00 -0.21407462932E+03  0.21407462932E+03  0.00000000000E+00 0.  1.
        -24    2    1    2    0    0  0.35316249931E+02 -0.69146703493E+02  0.75772958822E+02  0.13453028396E+03  0.79550939026E+02 0.  0.
         23    2    1    2    0    0  0.53349066594E+01  0.75962253067E+02 -0.57189078828E+02  0.13207075039E+03  0.91506104994E+02 0.  0.
         11    1    3    3    0    0  0.87995691156E+01 -0.78211565451E+02  0.37733155150E+02  0.87282715267E+02  0.00000000000E+00 0. -1.
        -12    1    3    3    0    0  0.26516680815E+02  0.90648619572E+01  0.38039803671E+02  0.47247568690E+02  0.00000000000E+00 0.  1.
        -13    1    4    4    0    0  0.37332219885E+02  0.68046239110E+02 -0.61234087828E+02  0.98861513294E+02  0.00000000000E+00 0.  1.
         13    1    4    4    0    0 -0.31997313226E+02  0.79160139573E+01  0.40450090005E+01  0.33209237095E+02  0.00000000000E+00 0. -1.
          2    1    1    2  501    0 -0.40651156590E+02 -0.68155495735E+01 -0.85350156950E+02  0.94781947329E+02  0.00000000000E+00 0. -1.
<scales pt_clust_5="13000.00000" pt_clust_6="13000.00000" pt_clust_7="13000.00000" pt_clust_8="13000.00000" pt_clust_9="41.21854"></scales>
<clustering>
<clus scale="   41.219">  2  9  1 -1</clus>
<clus scale="   79.551">  5  6 -1 -1</clus>
<clus scale="   91.506">  7  8 -1 -1</clus>
<clus scale="  109.523">  1  5  2 -1</clus>
<clus scale="   41.219">  2  5  1 -1</clus>
</clustering>
</event>
<event>
 9    1  0.4731329E-005  0.1939411E+03  0.7546771E-02  0.1155032E+00
         21   -1    0    0  501  502  0.00000000000E+00  0.00000000000E+00  0.72638953298E+02  0.72638953298E+02  0.00000000000E+00 0. -1.
         -4   -1    0    0    0  501 -0.00000000000E+00 -0.00000000000E+00 -0.77346866010E+03  0.77346866010E+03  0.00000000000E+00 0.  1.
         23    2    1    2    0    0  0.10817417068E+03 -0.10944618677E+03 -0.32506187561E+03  0.37088843857E+03  0.90625006960E+02 0.  0.
        -24    2    1    2    0    0 -0.14508219305E+03  0.14485831296E+03 -0.23284633867E+03  0.32342071034E+03  0.91382519510E+02 0.  0.
         11    1    4    4    0    0 -0.13445190392E+03  0.13532048262E+03 -0.15937642325E+03  0.24857552529E+03  0.00000000000E+00 0. -1.
        -12    1    4    4    0    0 -0.10630289138E+02  0.95378303385E+01 -0.73469915413E+02  0.74845185052E+02  0.00000000000E+00 0.  1.
        -11    1    3    3    0    0  0.66661280103E+02 -0.10508032307E+02 -0.89942590409E+02  0.11244471787E+03  0.00000000000E+00 0.  1.
         11    1    3    3    0    0  0.41512890573E+02 -0.98938154463E+02 -0.23511928520E+03  0.25844372069E+03  0.00000000000E+00 0. -1.
         -3    1    1    2    0  502  0.36908022378E+02 -0.35412126187E+02 -0.14292149253E+03  0.15179846449E+03  0.00000000000E+00 0.  1.
<scales pt_clust_5="13000.00000" pt_clust_6="13000.00000" pt_clust_7="13000.00000" pt_clust_8="13000.00000" pt_clust_9="51.14903"></scales>
<clustering>
<clus scale="   51.149">  1  9  2 -1</clus>
<clus scale="   90.625">  7  8 -1 -1</clus>
<clus scale="   91.383">  5  6 -1 -1</clus>
<clus scale="  193.585">  2  7  1 -1</clus>
<clus scale="   51.149">  1  5  2 -1</clus>
</clustering>
</event>
<event>
 9    1  0.4731329E-005  0.1598877E+03  0.7546771E-02  0.1190678E+00
         21   -1    0    0  501  502  0.00000000000E+00  0.00000000000E+00  0.38744342301E+03  0.38744342301E+03  0.00000000000E+00 0. -1.
          3   -1    0    0  502    0 -0.00000000000E+00 -0.00000000000E+00 -0.91346177370E+02  0.91346177370E+02  0.00000000000E+00 0. -1.
         23    2    1    2    0    0  0.86652092225E+02  0.10813548843E+03  0.47147308151E+02  0.17260061645E+03  0.91467126263E+02 0.  0.
        -24    2    1    2    0    0 -0.84970628612E+02 -0.83040122357E+02  0.16421149719E+03  0.21779663142E+03  0.79713783002E+02 0.  0.
         13    1    4    4    0    0 -0.85489435677E+02 -0.36089962440E+02  0.85691165274E+02  0.12630876774E+03  0.00000000000E+00 0. -1.
        -14    1    4    4    0    0  0.51880706503E+00 -0.46950159917E+02  0.78520331911E+02  0.91487863679E+02  0.00000000000E+00 0.  1.
        -11    1    3    3    0    0  0.36190855221E+02  0.98061599511E+02  0.58673676471E+02  0.11986849299E+03  0.00000000000E+00 0.  1.
         11    1    3    3    0    0  0.50461237005E+02  0.10073888920E+02 -0.11526368320E+02  0.52732123461E+02  0.00000000000E+00 0. -1.
          4    1    1    2  501    0 -0.16814636138E+01 -0.25095366074E+02  0.84738440305E+02  0.88392352518E+02  0.00000000000E+00 0. -1.
<scales pt_clust_5="13000.00000" pt_clust_6="13000.00000" pt_clust_7="13000.00000" pt_clust_8="13000.00000" pt_clust_9="25.15163"></scales>
<clustering>
<clus scale="   25.152">  1  9  2 -1</clus>
<clus scale="   79.714">  5  6 -1 -1</clus>
<clus scale="   91.467">  7  8 -1 -1</clus>
<clus scale="  153.467">  1  5  2 -1</clus>
<clus scale="   25.152">  1  5  2 -1</clus>
</clustering>
</event>
<event>
 9    1  0.4731329E-005  0.9856359E+02  0.7546771E-02  0.1288829E+00
         21   -1    0    0  501  502  0.00000000000E+00  0.00000000000E+00  0.71833020263E+02  0.71833020263E+02  0.00000000000E+00 0. -1.
         -2   -1    0    0    0  501 -0.00000000000E+00 -0.00000000000E+00 -0.23123231459E+03  0.23123231459E+03  0.00000000000E+00 0.  1.
        -24    2    1    2    0    0  0.41137180593E+02 -0.64252382623E+01 -0.15718910975E+03  0.18177261704E+03  0.81236178946E+02 0.  0.
         23    2    1    2    0    0 -0.17979026486E+02 -0.46468987185E+01 -0.10842467781E+02  0.94211199526E+02  0.91724325822E+02 0.  0.
         11    1    3    3    0    0 -0.23994331081E+01 -0.37050396481E+02 -0.77592626858E+02  0.86018049858E+02  0.00000000000E+00 0. -1.
        -12    1    3    3    0    0  0.43536613702E+02  0.30625158219E+02 -0.79596482891E+02  0.95754567187E+02  0.00000000000E+00 0.  1.
        -11    1    4    4    0    0  0.36544388988E+02  0.79406543131E+01 -0.75871391564E+01  0.38159023023E+02  0.00000000000E+00 0.  1.
         11    1    4    4    0    0 -0.54523415475E+02 -0.12587553032E+02 -0.32553286243E+01  0.56052176504E+02  0.00000000000E+00 0. -1.
         -1    1    1    2    0  502 -0.23158154107E+02  0.11072136981E+02  0.86322832057E+01  0.27081518279E+02  0.00000000000E+00 0.  1.
<scales pt_clust_5="13000.00000" pt_clust_6="13000.00000" pt_clust_7="13000.00000" pt_clust_8="13000.00000" pt_clust_9="25.66890"></scales>
<clustering>
<clus scale="   25.669">  1  9  2 -1</clus>
<clus scale="   81.236">  5  6 -1 -1</clus>
<clus scale="   88.886">  2  5  1 -1</clus>
<clus scale="   91.724">  7  8 -1 -1</clus>
<clus scale="   25.669">  1  5  2 -1</clus>
</clustering>
</event>
<event>
 9    1  0.4731329E-005  0.8937899E+02  0.7546771E-02  0.1308640E+00
          3   -1    0    0  502    0 -0.00000000000E+00  0.00000000000E+00  0.22334716079E+03  0.22334716079E+03  0.00000000000E+00 0. -1.
         21   -1    0    0  501  502  0.00000000000E+00 -0.00000000000E+00 -0.23146520644E+03  0.23146520644E+03  0.00000000000E+00 0. -1.
         23    2    1    2    0    0 -0.28390023115E+01  0.12577284011E+02  0.14568444334E+03  0.17080566739E+03  0.88229082359E+02 0.  0.
        -24    2    1    2    0    0 -0.48069558028E+02 -0.25014158016E+01  0.24991944822E+02  0.97832979372E+02  0.81423307823E+02 0.  0.
         13    1    4    4    0    0 -0.54590480197E+02  0.24344013395E+01 -0.15278519437E+02  0.56740461702E+02  0.00000000000E+00 0. -1.
        -14    1    4    4    0    0  0.65209221687E+01 -0.49358171411E+01  0.40270464260E+02  0.41092517670E+02  0.00000000000E+00 0.  1.
        -13    1    3    3    0    0 -0.34750379398E+02 -0.75747810055E+01  0.22778411466E+02  0.42235319396E+02  0.00000000000E+00 0. -1.
         13    1    3    3    0    0  0.31911377087E+02  0.20152065017E+02  0.12290603187E+03  0.12857034799E+03  0.00000000000E+00 0.  1.
          4    1    1    2  501    0  0.50908560339E+02 -0.10075868210E+02 -0.17879443380E+03  0.18617372047E+03  0.00000000000E+00 0. -1.
<scales pt_clust_5="13000.00000" pt_clust_6="13000.00000" pt_clust_7="13000.00000" pt_clust_8="13000.00000" pt_clust_9="51.89609"></scales>
<clustering>
<clus scale="   51.896">  2  9  1 -1</clus>
<clus scale="   81.423">  5  6 -1 -1</clus>
<clus scale="   82.668">  2  5  1 -1</clus>
<clus scale="   88.229">  7  8 -1 -1</clus>
<clus scale="   51.896">  2  5  1 -1</clus>
</clustering>
</event>
<event>
 9    1  0.4731329E-005  0.9670419E+02  0.7546771E-02  0.1292206E+00
          1   -1    0    0  502    0 -0.00000000000E+00  0.00000000000E+00  0.11494368489E+03  0.11494368489E+03  0.00000000000E+00 0. -1.
         21   -1    0    0  501  502  0.00000000000E+00 -0.00000000000E+00 -0.20734588205E+03  0.20734588205E+03  0.00000000000E+00 0.  1.
        -24    2    1    2    0    0 -0.26915636374E+02  0.35315830510E+02  0.27794528719E+02  0.97511107131E+02  0.82244883252E+02 0.  0.
         23    2    1    2    0    0 -0.18314612756E+02  0.93823408581E+01 -0.13034276798E+03  0.16038401804E+03  0.91161081158E+02 0.  0.
         11    1    3    3    0    0 -0.44447816697E+02  0.38862899511E+02 -0.59275874624E+01  0.59338601775E+02  0.00000000000E+00 0. -1.
        -12    1    3    3    0    0  0.17532180323E+02 -0.35470690009E+01  0.33722116182E+02  0.38172505356E+02  0.00000000000E+00 0.  1.
        -11    1    4    4    0    0 -0.25238864220E+01  0.22959469393E+02 -0.13667850282E+03  0.13861645058E+03  0.00000000000E+00 0.  1.
         11    1    4    4    0    0 -0.15790726334E+02 -0.13577128535E+02  0.63357348386E+01  0.21767567465E+02  0.00000000000E+00 0. -1.
          2    1    1    2  501    0  0.45230249130E+02 -0.44698171368E+02  0.10146042103E+02  0.64394441766E+02  0.00000000000E+00 0. -1.
<scales pt_clust_5="13000.00000" pt_clust_6="13000.00000" pt_clust_7="13000.00000" pt_clust_8="13000.00000" pt_clust_9="63.59014"></scales>
<clustering>
<clus scale="   63.590">  2  9  1 -1</clus>
<clus scale="   82.245">  5  6 -1 -1</clus>
<clus scale="   88.349">  1  5  2 -1</clus>
<clus scale="   91.161">  7  8 -1 -1</clus>
<clus scale="   63.590">  2  5  1 -1</clus>
</clustering>
</event>
<event>
 9    1  0.4731329E-005  0.1039500E+03  0.7546771E-02  0.1276755E+00
          1   -1    0    0  502    0 -0.00000000000E+00  0.00000000000E+00  0.27035904102E+03  0.27035904102E+03  0.00000000000E+00 0. -1.
         21   -1    0    0  501  502  0.00000000000E+00 -0.00000000000E+00 -0.95192355129E+02  0.95192355129E+02  0.00000000000E+00 0.  1.
         23    2    1    2    0    0  0.58147981225E+02  0.27671081539E+02  0.17933133631E+03  0.21014410159E+03  0.88622450758E+02 0.  0.
        -24    2    1    2    0    0 -0.15248709005E+02  0.56067171701E+01 -0.40988392665E+02  0.89804341598E+02  0.78235625088E+02 0.  0.
         13    1    4    4    0    0  0.16901997169E+02 -0.22710784007E+02  0.29160815116E+01  0.28459809379E+02  0.00000000000E+00 0. -1.
        -14    1    4    4    0    0 -0.32150706174E+02  0.28317501177E+02 -0.43904474176E+02  0.61344532218E+02  0.00000000000E+00 0.  1.
        -11    1    3    3    0    0  0.81617549568E+02  0.18032686854E+02  0.12782641981E+03  0.15272915830E+03  0.00000000000E+00 0. -1.
         11    1    3    3    0    0 -0.23469568343E+02  0.96383946853E+01  0.51504916495E+02  0.57414943294E+02  0.00000000000E+00 0.  1.
          2    1    1    2  501    0 -0.42899272220E+02 -0.33277798709E+02  0.36823742251E+02  0.65602952962E+02  0.00000000000E+00 0. -1.
<scales pt_clust_5="13000.00000" pt_clust_6="13000.00000" pt_clust_7="13000.00000" pt_clust_8="13000.00000" pt_clust_9="54.29330"></scales>
<clustering>
<clus scale="   54.293">  2  9  1 -1</clus>
<clus scale="   78.236">  5  6 -1 -1</clus>
<clus scale="   88.622">  7  8 -1 -1</clus>
<clus scale="   95.250">  2  5  1 -1</clus>
<clus scale="   54.293">  2  5  1 -1</clus>
</clustering>
</event>
<event>
 9    1  0.4731329E-005  0.9624969E+02  0.7546771E-02  0.1291518E+00
         21   -1    0    0  501  502  0.00000000000E+00  0.00000000000E+00  0.37187738929E+03  0.37187738929E+03  0.00000000000E+00 0. -1.
          3   -1    0    0  502    0 -0.00000000000E+00 -0.00000000000E+00 -0.34588234705E+03  0.34588234705E+03  0.00000000000E+00 0. -1.
         23    2    1    2    0    0  0.29003335659E+02 -0.17276464333E+02 -0.29520842571E+03  0.31112038645E+03  0.92239961822E+02 0.  0.
        -24    2    1    2    0    0  0.19578650731E+01 -0.48810795843E+02  0.26194408627E+02  0.10273728179E+03  0.86501300562E+02 0.  0.
         11    1    4    4    0    0  0.14917071427E+02 -0.42879448101E+02 -0.23442244939E+02  0.51095057854E+02  0.00000000000E+00 0. -1.
        -12    1    4    4    0    0 -0.12959206353E+02 -0.59313477419E+01  0.49636653566E+02  0.51642223931E+02  0.00000000000E+00 0.  1.
        -13    1    3    3    0    0  0.25391467430E+02 -0.49988498960E+02 -0.11509817561E+03  0.12802799176E+03  0.00000000000E+00 0. -1.
         13    1    3    3    0    0  0.36118682284E+01  0.32712034626E+02 -0.18011025010E+03  0.18309239469E+03  0.00000000000E+00 0.  1.
          4    1    1    2  501    0 -0.30961200732E+02  0.66087260176E+02  0.29500905933E+03  0.30390206810E+03  0.00000000000E+00 0. -1.
<scales pt_clust_5="13000.00000" pt_clust_6="13000.00000" pt_clust_7="13000.00000" pt_clust_8="13000.00000" pt_clust_9="72.98028"></scales>
<clustering>
<clus scale="   72.980">  1  9  2 -1</clus>
<clus scale="   86.501">  5  6 -1 -1</clus>
<clus scale="   90.765">  1  5  2 -1</clus>
<clus scale="   92.240">  7  8 -1 -1</clus>
<clus scale="   72.980">  1  5  2 -1</clus>
</clustering>
</event>
<event>
 9    1  0.4731329E-005  0.2201199E+03  0.7546771E-02  0.1135349E+00
         -4   -1    0    0    0  501 -0.00000000000E+00  0.00000000000E+00  0.30321621552E+03  0.30321621552E+03  0.00000000000E+00 0.  1.
         21   -1    0    0  501  502  0.00000000000E+00 -0.00000000000E+00 -0.37074351949E+03  0.37074351949E+03  0.00000000000E+00 0.  1.
         23    2    1    2    0    0  0.19028879077E+03 -0.60471976588E+02  0.20228400421E+03  0.30101827597E+03  0.99128705545E+02 0.  0.
        -24    2    1    2    0    0 -0.17941334826E+03  0.42411067167E+02 -0.14811962456E+03  0.24943705604E+03  0.79319440199E+02 0.  0.
         13    1    4    4    0    0 -0.81050693869E+02  0.15039838723E+01 -0.21309285558E+02  0.83818629165E+02  0.00000000000E+00 0. -1.
        -14    1    4    4    0    0 -0.98362654394E+02  0.40907083295E+02 -0.12681033900E+03  0.16561842688E+03  0.00000000000E+00 0.  1.
        -13    1    3    3    0    0  0.60224119563E+02 -0.52907896001E+02  0.12803980985E+03  0.15106416830E+03  0.00000000000E+00 0.  1.
         13    1    3    3    0    0  0.13006467121E+03 -0.75640805869E+01  0.74244194352E+02  0.14995410767E+03  0.00000000000E+00 0. -1.
         -3    1    1    2    0  502 -0.10875442509E+02  0.18060909421E+02 -0.12169168362E+03  0.12350440300E+03  0.00000000000E+00 0.  1.
<scales pt_clust_5="13000.00000" pt_clust_6="13000.00000" pt_clust_7="13000.00000" pt_clust_8="13000.00000" pt_clust_9="21.08250"></scales>
<clustering>
<clus scale="   21.082">  2  9  1 -1</clus>
<clus scale="   79.319">  5  6 -1 -1</clus>
<clus scale="   99.129">  7  8 -1 -1</clus>
<clus scale="  211.938">  2  5  1 -1</clus>
<clus scale="   21.082">  2  5  1 -1</clus>
</clustering>
</event>
<event>
 9    1  0.4731329E-005  0.9276290E+02  0.7546771E-02  0.1301536E+00
         21   -1    0    0  501  502  0.00000000000E+00  0.00000000000E+00  0.36963191921E+02  0.36963191921E+02  0.00000000000E+00 0.  1.
          3   -1    0    0  502    0 -0.00000000000E+00 -0.00000000000E+00 -0.49756928132E+03  0.49756928132E+03  0.00000000000E+00 0. -1.
         23    2    1    2    0    0 -0.18941476222E+02 -0.24060720397E+02 -0.19294992602E+03  0.21519288942E+03  0.90225317494E+02 0.  0.
        -24    2    1    2    0    0  0.18167328700E+02 -0.50421248392E+02 -0.17650667395E+03  0.20162640528E+03  0.81401764337E+02 0.  0.
         13    1    4    4    0    0  0.39590334000E+02 -0.16580145424E+02 -0.14332802133E+03  0.14961690235E+03  0.00000000000E+00 0. -1.
        -14    1    4    4    0    0 -0.21423005300E+02 -0.33841102968E+02 -0.33178652614E+02  0.52009502935E+02  0.00000000000E+00 0.  1.
        -13    1    3    3    0    0 -0.21407398625E+02  0.18005871797E+02 -0.13871621108E+02  0.31223548921E+02  0.00000000000E+00 0.  1.
         13    1    3    3    0    0  0.24659224030E+01 -0.42066592194E+02 -0.17907830491E+03  0.18396934050E+03  0.00000000000E+00 0. -1.
          4    1    1    2  501    0  0.77414752198E+00  0.74481968789E+02 -0.91149489433E+02  0.11771317854E+03  0.00000000000E+00 0. -1.
<scales pt_clust_5="13000.00000" pt_clust_6="13000.00000" pt_clust_7="13000.00000" pt_clust_8="13000.00000" pt_clust_9="74.48599"></scales>
<clustering>
<clus scale="   74.486">  1  9  2 -1</clus>
<clus scale="   81.402">  5  6 -1 -1</clus>
<clus scale="   84.206">  1  5  2 -1</clus>
<clus scale="   90.225">  7  8 -1 -1</clus>
<clus scale="   74.486">  1  5  2 -1</clus>
</clustering>
</event>
<event>
 9    1  0.4731329E-005  0.3694267E+03  0.7546771E-02  0.1054912E+00
         21   -1    0    0  501  502  0.00000000000E+00  0.00000000000E+00  0.11347629738E+04  0.11347629738E+04  0.00000000000E+00 0.  1.
          1   -1    0    0  502    0 -0.00000000000E+00 -0.00000000000E+00 -0.13711315672E+03  0.13711315672E+03  0.00000000000E+00 0. -1.
        -24    2    1    2    0    0  0.11649585581E+03 -0.26557585503E+02  0.24662780145E+03  0.28581038696E+03  0.81152418794E+02 0.  0.
         23    2    1    2    0    0  0.19381035964E+03  0.32256497291E+02  0.60617484267E+03  0.64357030060E+03  0.90176797495E+02 0.  0.
         11    1    3    3    0    0  0.90019772703E+00 -0.23553231457E+02  0.18191047203E+02  0.29773801678E+02  0.00000000000E+00 0. -1.
        -12    1    3    3    0    0  0.11559565809E+03 -0.30043540465E+01  0.22843675424E+03  0.25603658528E+03  0.00000000000E+00 0.  1.
        -11    1    4    4    0    0  0.14334417804E+03  0.19819970109E+02  0.30073034064E+03  0.33373510809E+03  0.00000000000E+00 0. -1.
         11    1    4    4    0    0  0.50466181594E+02  0.12436527182E+02  0.30544450203E+03  0.30983519251E+03  0.00000000000E+00 0.  1.
          2    1    1    2  501    0 -0.31030621545E+03 -0.56989117877E+01  0.14484717296E+03  0.34249544297E+03  0.00000000000E+00 0. -1.
<scales pt_clust_5="13000.00000" pt_clust_6="13000.00000" pt_clust_7="13000.00000" pt_clust_8="13000.00000" pt_clust_9="310.35870"></scales>
<clustering>
<clus scale="   81.152">  5  6 -1 -1</clus>
<clus scale="   90.177">  7  8 -1 -1</clus>
<clus scale="  115.437">  5  7 -1 -1</clus>
<clus scale="  310.359">  1  9  2 -1</clus>
<clus scale="  310.359">  1  5  2 -1</clus>
</clustering>
</event>
<event>
 9    1  0.4731329E-005  0.1122719E+03  0.7546771E-02  0.1259836E+00
         -2   -1    0    0    0  501 -0.00000000000E+00  0.00000000000E+00  0.15972990170E+03  0.15972990170E+03  0.00000000000E+00 0.  1.
         21   -1    0    0  501  502  0.00000000000E+00 -0.00000000000E+00 -0.17469676735E+03  0.17469676735E+03  0.00000000000E+00 0. -1.
         23    2    1    2    0    0 -0.64192693905E+02  0.47782757867E+01  0.68908948629E+02  0.13091010830E+03  0.90804622043E+02 0.  0.
        -24    2    1    2    0    0  0.61708904834E+02 -0.43965935305E+02 -0.48786852887E+00  0.11134611340E+03  0.81588764856E+02 0.  0.
         11    1    4    4    0    0  0.77882813221E+01 -0.55535750623E+02 -0.28073444691E+01  0.56149426589E+02  0.00000000000E+00 0. -1.
        -12    1    4    4    0    0  0.53920623512E+02  0.11569815318E+02  0.23194759403E+01  0.55196686812E+02  0.00000000000E+00 0.  1.
        -13    1    3    3    0    0 -0.23617164685E+01  0.33664894047E+02 -0.24928321298E+00  0.33748554606E+02  0.00000000000E+00 0. -1.
         13    1    3    3    0    0 -0.61830977437E+02 -0.28886618260E+02  0.69158231842E+02  0.97161553697E+02  0.00000000000E+00 0.  1.
         -1    1    1    2    0  502  0.24837890716E+01  0.39187659519E+02 -0.83387945750E+02  0.92170447341E+02  0.00000000000E+00 0.  1.
<scales pt_clust_5="13000.00000" pt_clust_6="13000.00000" pt_clust_7="13000.00000" pt_clust_8="13000.00000" pt_clust_9="39.26629"></scales>
<clustering>
<clus scale="   39.266">  2  9  1 -1</clus>
<clus scale="   81.589">  5  6 -1 -1</clus>
<clus scale="   90.805">  7  8 -1 -1</clus>
<clus scale="  104.958">  2  5  1 -1</clus>
<clus scale="   39.266">  2  5  1 -1</clus>
</clustering>
</event>
<event>
 9    1  0.5759533E-005  0.9442016E+02  0.7546771E-02  0.1299195E+00
         -2   -1    0    0    0  501 -0.00000000000E+00  0.00000000000E+00  0.27201365046E+03  0.27201365046E+03  0.00000000000E+00 0.  1.
         21   -1    0    0  501  502  0.00000000000E+00 -0.00000000000E+00 -0.22633356843E+03  0.22633356843E+03  0.00000000000E+00 0.  1.
        -24    2    1    2    0    0 -0.20792650533E+02 -0.44803396619E+01  0.20979614316E+03  0.22536766951E+03  0.79522053639E+02 0.  0.
         23    2    1    2    0    0  0.48861426950E+02  0.77171266061E+01  0.28388017523E+01  0.10365069999E+03  0.91040736636E+02 0.  0.
         11    1    3    3    0    0  0.15978213400E+01 -0.39728673593E+02  0.86728331998E+02  0.95408197288E+02  0.00000000000E+00 0. -1.
        -12    1    3    3    0    0 -0.22390471873E+02  0.35248333931E+02  0.12306781116E+03  0.12995947222E+03  0.00000000000E+00 0.  1.
        -11    1    4    4    0    0  0.66858055134E+02  0.30884165827E+02  0.71782451032E+01  0.73995664994E+02  0.00000000000E+00 0. -1.
         11    1    4    4    0    0 -0.17996628184E+02 -0.23167039221E+02 -0.43394433509E+01  0.29655035000E+02  0.00000000000E+00 0.  1.
         -1    1    1    2    0  502 -0.28068776416E+02 -0.32367869441E+01 -0.16695486287E+03  0.16932884939E+03  0.00000000000E+00 0.  1.
<scales pt_clust_5="13000.00000" pt_clust_6="13000.00000" pt_clust_7="13000.00000" pt_clust_8="13000.00000" pt_clust_9="28.25479"></scales>
<clustering>
<clus scale="   28.255">  2  9  1 -1</clus>
<clus scale="   79.522">  5  6 -1 -1</clus>
<clus scale="   83.370">  1  5  2 -1</clus>
<clus scale="   91.041">  7  8 -1 -1</clus>
<clus scale="   28.255">  2  5  1 -1</clus>
</clustering>
</event>
<event>
 9    1  0.4731329E-005  0.2079632E+03  0.7546771E-02  0.1144692E+00
          1   -1    0    0  502    0 -0.00000000000E+00  0.00000000000E+00  0.51561352249E+03  0.51561352249E+03  0.00000000000E+00 0. -1.
         21   -1    0    0  501  502  0.00000000000E+00 -0.00000000000E+00 -0.13957008411E+03  0.13957008411E+03  0.00000000000E+00 0.  1.
        -24    2    1    2    0    0 -0.17603697120E+03  0.11517760815E+02  0.24115225768E+03  0.30766802259E+03  0.73372520041E+02 0.  0.
         23    2    1    2    0    0  0.21800513988E+03  0.28469010252E+02  0.47832110592E+02  0.24292327678E+03  0.91581013527E+02 0.  0.
         13    1    3    3    0    0 -0.89949973873E+02  0.39071647612E+02  0.15065221038E+03  0.17976006213E+03  0.00000000000E+00 0. -1.
        -14    1    3    3    0    0 -0.86086997327E+02 -0.27553886797E+02  0.90500047303E+02  0.12790796046E+03  0.00000000000E+00 0.  1.
        -13    1    4    4    0    0  0.38456648053E+02 -0.16122338050E+02  0.39956901468E+02  0.57752900694E+02  0.00000000000E+00 0. -1.
         13    1    4    4    0    0  0.17954849183E+03  0.44591348301E+02  0.78752091240E+01  0.18517037609E+03  0.00000000000E+00 0.  1.
          2    1    1    2  501    0 -0.41968168682E+02 -0.39986771067E+02  0.87059070113E+02  0.10459230723E+03  0.00000000000E+00 0. -1.
<scales pt_clust_5="13000.00000" pt_clust_6="13000.00000" pt_clust_7="13000.00000" pt_clust_8="13000.00000" pt_clust_9="57.96786"></scales>
<clustering>
<clus scale="   57.968">  2  9  1 -1</clus>
<clus scale="   73.373">  5  6 -1 -1</clus>
<clus scale="   91.581">  7  8 -1 -1</clus>
<clus scale="  200.612">  1  5  2 -1</clus>
<clus scale="   57.968">  2  5  1 -1</clus>
</clustering>
</event>
<event>
 9    1  0.4731329E-005  0.1726126E+03  0.7546771E-02  0.1176609E+00
         21   -1    0    0  501  502  0.00000000000E+00  0.00000000000E+00  0.11262813272E+04  0.11262813272E+04  0.00000000000E+00 0.  1.
         -4   -1    0    0    0  501 -0.00000000000E+00 -0.00000000000E+00 -0.84450506685E+02  0.84450506685E+02  0.00000000000E+00 0.  1.
         23    2    1    2    0    0 -0.99856413102E+02 -0.99457337108E+02  0.18331044690E+03  0.24918651981E+03  0.92887763304E+02 0.  0.
        -24    2    1    2    0    0  0.29678068679E+02  0.18819905854E+03  0.81392043567E+03  0.83993426353E+03  0.81996451511E+02 0.  0.
         11    1    4    4    0    0 -0.21660077295E+02  0.15839413389E+02  0.13181782305E+03  0.13452131592E+03  0.00000000000E+00 0. -1.
        -12    1    4    4    0    0  0.51338145974E+02  0.17235964515E+03  0.68210261262E+03  0.70541294761E+03  0.00000000000E+00 0.  1.
        -13    1    3    3    0    0 -0.54232354795E+02 -0.96109221354E+02  0.16788964626E+03  0.20091058722E+03  0.00000000000E+00 0.  1.
         13    1    3    3    0    0 -0.45624058306E+02 -0.33481157533E+01  0.15420800643E+02  0.48275932595E+02  0.00000000000E+00 0. -1.
         -3    1    1    2    0  502  0.70178344423E+02 -0.88741721429E+02  0.44599937943E+02  0.12161105054E+03  0.00000000000E+00 0.  1.
<scales pt_clust_5="13000.00000" pt_clust_6="13000.00000" pt_clust_7="13000.00000" pt_clust_8="13000.00000" pt_clust_9="113.13755"></scales>
<clustering>
<clus scale="   81.996">  5  6 -1 -1</clus>
<clus scale="   92.888">  7  8 -1 -1</clus>
<clus scale="  113.138">  1  9  2 -1</clus>
<clus scale="  167.004">  1  5  2 -1</clus>
<clus scale="  113.138">  1  5  2 -1</clus>
</clustering>
</event>
<event>
 9    1  0.4731329E-005  0.9679139E+02  0.7546771E-02  0.1292622E+00
         21   -1    0    0  501  502  0.00000000000E+00  0.00000000000E+00  0.10066180355E+03  0.10066180355E+03  0.00000000000E+00 0.  1.
         -4   -1    0    0    0  501 -0.00000000000E+00 -0.00000000000E+00 -0.23973821925E+03  0.23973821925E+03  0.00000000000E+00 0.  1.
        -24    2    1    2    0    0 -0.37633664292E+02  0.65707693807E+01 -0.15152195931E+03  0.17626079189E+03  0.81544435161E+02 0.  0.
         23    2    1    2    0    0  0.11987971430E+02  0.34800630113E+02 -0.26123387393E+02  0.10203563441E+03  0.91509802781E+02 0.  0.
         13    1    3    3    0    0  0.13043068048E+02  0.23177196095E+02 -0.17026378771E+02  0.31578499284E+02  0.00000000000E+00 0. -1.
        -14    1    3    3    0    0 -0.50676732340E+02 -0.16606426714E+02 -0.13449558054E+03  0.14468229261E+03  0.00000000000E+00 0.  1.
        -11    1    4    4    0    0  0.40931973427E+02 -0.59239359649E+01 -0.31212789212E+02  0.51814647315E+02  0.00000000000E+00 0. -1.
         11    1    4    4    0    0 -0.28944001997E+02  0.40724566078E+02  0.50894018189E+01  0.50220987094E+02  0.00000000000E+00 0.  1.
         -3    1    1    2    0  502  0.25645692861E+02 -0.41371399494E+02  0.38568931006E+02  0.62103596493E+02  0.00000000000E+00 0.  1.
<scales pt_clust_5="13000.00000" pt_clust_6="13000.00000" pt_clust_7="13000.00000" pt_clust_8="13000.00000" pt_clust_9="48.67540"></scales>
<clustering>
<clus scale="   48.675">  1  9  2 -1</clus>
<clus scale="   81.544">  5  6 -1 -1</clus>
<clus scale="   87.430">  2  5  1 -1</clus>
<clus scale="   91.510">  7  8 -1 -1</clus>
<clus scale="   48.675">  1  5  2 -1</clus>
</clustering>
</event>
<event>
 9    1  0.4731329E-005  0.1060494E+03  0.7546771E-02  0.1271814E+00
         21   -1    0    0  501  502  0.00000000000E+00  0.00000000000E+00  0.46586937602E+03  0.46586937602E+03  0.00000000000E+00 0. -1.
          3   -1    0    0  502    0 -0.00000000000E+00 -0.00000000000E+00 -0.29085677902E+02  0.29085677902E+02  0.00000000000E+00 0. -1.
        -24    2    1    2    0    0  0.40565281209E+02  0.52342719372E+02  0.18289743643E+03  0.21111440091E+03  0.82051908611E+02 0.  0.
         23    2    1    2    0    0 -0.19984655508E+02 -0.36795284061E+02  0.21568348322E+03  0.23774578149E+03  0.90831780201E+02 0.  0.
         13    1    3    3    0    0  0.50487004143E+02  0.61594464399E+02  0.10364870636E+03  0.13071292959E+03  0.00000000000E+00 0. -1.
        -14    1    3    3    0    0 -0.99217229345E+01 -0.92517450268E+01  0.79248730075E+02  0.80401471321E+02  0.00000000000E+00 0.  1.
        -11    1    4    4    0    0  0.47077649810E+01 -0.57843970795E+02  0.18177412322E+03  0.19081383566E+03  0.00000000000E+00 0. -1.
         11    1    4    4    0    0 -0.24692420489E+02  0.21048686734E+02  0.33909360002E+02  0.46931945822E+02  0.00000000000E+00 0.  1.
          4    1    1    2  501    0 -0.20580625700E+02 -0.15547435311E+02  0.38202778466E+02  0.46094871532E+02  0.00000000000E+00 0. -1.
<scales pt_clust_5="13000.00000" pt_clust_6="13000.00000" pt_clust_7="13000.00000" pt_clust_8="13000.00000" pt_clust_9="25.79313"></scales>
<clustering>
<clus scale="   25.793">  1  9  2 -1</clus>
<clus scale="   82.052">  5  6 -1 -1</clus>
<clus scale="   90.832">  7  8 -1 -1</clus>
<clus scale="   98.634">  2  5  1 -1</clus>
<clus scale="   25.793">  1  5  2 -1</clus>
</clustering>
</event>
<event>
 9    1  0.4731329E-005  0.1071650E+03  0.7546771E-02  0.1271943E+00
          1   -1    0    0  502    0 -0.00000000000E+00  0.00000000000E+00  0.33356154513E+03  0.33356154513E+03  0.00000000000E+00 0. -1.
         21   -1    0    0  501  502  0.00000000000E+00 -0.00000000000E+00 -0.57948888632E+02  0.57948888632E+02  0.00000000000E+00 0. -1.
         23    2    1    2    0    0  0.21209078902E+02  0.59379999714E+02  0.20860269846E+03  0.23749913142E+03  0.94418971753E+02 0.  0.
        -24    2    1    2    0    0 -0.28470129635E+02 -0.23417385899E+02  0.75289061372E+02  0.11640045281E+03  0.80757045569E+02 0.  0.
         11    1    4    4    0    0 -0.33371296905E+02 -0.42986468782E+02  0.78959050297E+02  0.95895837132E+02  0.00000000000E+00 0. -1.
        -12    1    4    4    0    0  0.49011672700E+01  0.19569082883E+02 -0.36699889256E+01  0.20504615681E+02  0.00000000000E+00 0.  1.
        -13    1    3    3    0    0 -0.22659982571E+02 -0.11812127152E+02  0.24996544744E+02  0.35746725823E+02  0.00000000000E+00 0. -1.
         13    1    3    3    0    0  0.43869061472E+02  0.71192126866E+02  0.18360615371E+03  0.20175240559E+03  0.00000000000E+00 0.  1.
          2    1    1    2  501    0  0.72610507337E+01 -0.35962613815E+02 -0.82791033331E+01  0.37610849528E+02  0.00000000000E+00 0. -1.
<scales pt_clust_5="13000.00000" pt_clust_6="13000.00000" pt_clust_7="13000.00000" pt_clust_8="13000.00000" pt_clust_9="36.68831"></scales>
<clustering>
<clus scale="   36.688">  2  9  1 -1</clus>
<clus scale="   80.757">  5  6 -1 -1</clus>
<clus scale="   94.419">  7  8 -1 -1</clus>
<clus scale="   95.347">  2  5  1 -1</clus>
<clus scale="   36.688">  2  5  1 -1</clus>
</clustering>
</event>
<event>
 9    1  0.4731329E-005  0.1137179E+03  0.7546771E-02  0.1258674E+00
          3   -1    0    0  502    0 -0.00000000000E+00  0.00000000000E+00  0.65453120167E+03  0.65453120167E+03  0.00000000000E+00 0. -1.
         21   -1    0    0  501  502  0.00000000000E+00 -0.00000000000E+00 -0.27160286310E+02  0.27160286310E+02  0.00000000000E+00 0.  1.
        -24    2    1    2    0    0  0.47916248418E+02 -0.28268988332E+02  0.23359073017E+03  0.25270898481E+03  0.78753407667E+02 0.  0.
         23    2    1    2    0    0 -0.49121140095E+02  0.71625530743E+02  0.28118180745E+03  0.30831918561E+03  0.91947856515E+02 0.  0.
         11    1    3    3    0    0 -0.17777867348E+02 -0.17673366140E+02  0.10464465661E+03  0.10760531862E+03  0.00000000000E+00 0. -1.
        -12    1    3    3    0    0  0.65694115765E+02 -0.10595622192E+02  0.12894607356E+03  0.14510366619E+03  0.00000000000E+00 0.  1.
        -13    1    4    4    0    0 -0.34543660896E+02  0.40532034477E+02  0.26510516018E+03  0.27040128750E+03  0.00000000000E+00 0.  1.
         13    1    4    4    0    0 -0.14577479200E+02  0.31093496266E+02  0.16076647268E+02  0.37917898113E+02  0.00000000000E+00 0. -1.
          4    1    1    2  501    0  0.12048916777E+01 -0.43356542411E+02  0.11259837774E+03  0.12066331755E+03  0.00000000000E+00 0. -1.
<scales pt_clust_5="13000.00000" pt_clust_6="13000.00000" pt_clust_7="13000.00000" pt_clust_8="13000.00000" pt_clust_9="43.37330"></scales>
<clustering>
<clus scale="   43.373">  2  9  1 -1</clus>
<clus scale="   78.753">  5  6 -1 -1</clus>
<clus scale="   91.948">  7  8 -1 -1</clus>
<clus scale="  103.341">  1  5  2 -1</clus>
<clus scale="   43.373">  2  5  1 -1</clus>
</clustering>
</event>
<event>
 9    1  0.4731329E-005  0.9380412E+02  0.7546771E-02  0.1297097E+00
          1   -1    0    0  502    0 -0.00000000000E+00  0.00000000000E+00  0.74257901654E+03  0.74257901654E+03  0.00000000000E+00 0. -1.
         21   -1    0    0  501  502  0.00000000000E+00 -0.00000000000E+00 -0.29318770763E+02  0.29318770763E+02  0.00000000000E+00 0. -1.
        -24    2    1    2    0    0 -0.31901922953E+02  0.28057699750E+02  0.59109617193E+03  0.59766989450E+03  0.77521939564E+02 0.  0.
         23    2    1    2    0    0  0.14549481755E+02 -0.45789079548E+02  0.11089393124E+03  0.14697857796E+03  0.83647541318E+02 0.  0.
         11    1    3    3    0    0 -0.40942153542E+02  0.41438857905E+02  0.27212667521E+03  0.27829187239E+03  0.00000000000E+00 0. -1.
        -12    1    3    3    0    0  0.90402305893E+01 -0.13381158154E+02  0.31896949672E+03  0.31937802210E+03  0.00000000000E+00 0.  1.
        -11    1    4    4    0    0  0.15163682932E+02 -0.13083247824E+02 -0.95381626265E+01  0.22182993485E+02  0.00000000000E+00 0.  1.
         11    1    4    4    0    0 -0.61420117693E+00 -0.32705831724E+02  0.12043209386E+03  0.12479558447E+03  0.00000000000E+00 0. -1.
          2    1    1    2  501    0  0.17352441198E+02  0.17731379797E+02  0.11270142607E+02  0.27249314843E+02  0.00000000000E+00 0. -1.
<scales pt_clust_5="13000.00000" pt_clust_6="13000.00000" pt_clust_7="13000.00000" pt_clust_8="13000.00000" pt_clust_9="24.80945"></scales>
<clustering>
<clus scale="   24.809">  2  9  1 -1</clus>
<clus scale="   77.522">  5  6 -1 -1</clus>
<clus scale="   83.648">  7  8 -1 -1</clus>
<clus scale="   88.385">  1  5  2 -1</clus>
<clus scale="   24.809">  2  5  1 -1</clus>
</clustering>
</event>
<event>
 9    1  0.4731329E-005  0.9380247E+02  0.7546771E-02  0.1297663E+00
         -2   -1    0    0    0  501 -0.00000000000E+00  0.00000000000E+00  0.40959905386E+03  0.40959905386E+03  0.00000000000E+00 0.  1.
         21   -1    0    0  501  502  0.00000000000E+00 -0.00000000000E+00 -0.51738149116E+02  0.51738149116E+02  0.00000000000E+00 0.  1.
        -24    2    1    2    0    0 -0.15062186577E+02  0.65839087755E+01  0.61133020426E+02  0.10235207734E+03  0.80426887485E+02 0.  0.
         23    2    1    2    0    0  0.47493743106E+02  0.49098774616E+02  0.90998087604E+02  0.14339960584E+03  0.87272273403E+02 0.  0.
         13    1    3    3    0    0 -0.36202439878E+02  0.32485558041E+02  0.35260681180E+02  0.60076982045E+02  0.00000000000E+00 0. -1.
        -14    1    3    3    0    0  0.21140253301E+02 -0.25901649265E+02  0.25872339246E+02  0.42275095297E+02  0.00000000000E+00 0.  1.
        -13    1    4    4    0    0  0.52669735071E+01  0.62071053440E+02  0.33001859341E+02  0.70495953111E+02  0.00000000000E+00 0.  1.
         13    1    4    4    0    0  0.42226769599E+02 -0.12972278824E+02  0.57996228263E+02  0.72903652730E+02  0.00000000000E+00 0. -1.
         -1    1    1    2    0  502 -0.32431556529E+02 -0.55682683391E+02  0.20572979672E+03  0.21558551979E+03  0.00000000000E+00 0.  1.
<scales pt_clust_5="13000.00000" pt_clust_6="13000.00000" pt_clust_7="13000.00000" pt_clust_8="13000.00000" pt_clust_9="64.43890"></scales>
<clustering>
<clus scale="   64.439">  2  9  1 -1</clus>
<clus scale="   80.427">  5  6 -1 -1</clus>
<clus scale="   87.272">  7  8 -1 -1</clus>
<clus scale="   87.470">  1  5  2 -1</clus>
<clus scale="   64.439">  2  5  1 -1</clus>
</clustering>
</event>
<event>
 9    1  0.4731329E-005  0.1963012E+03  0.7546771E-02  0.1175936E+00
         21   -1    0    0  501  502  0.00000000000E+00  0.00000000000E+00  0.22185931741E+03  0.22185931741E+03  0.00000000000E+00 0.  1.
          1   -1    0    0  502    0 -0.00000000000E+00 -0.00000000000E+00 -0.42790022207E+03  0.42790022207E+03  0.00000000000E+00 0. -1.
        -24    2    1    2    0    0 -0.42001921502E+02  0.67248985141E+02  0.82977314323E+02  0.14204581479E+03  0.83697021429E+02 0.  0.
         23    2    1    2    0    0  0.18490884351E+03  0.63163579461E+01 -0.37934197513E+02  0.20959053891E+03  0.90873614851E+02 0.  0.
         13    1    3    3    0    0 -0.42975255594E+02  0.63369269751E+02  0.20261649929E+02  0.79202723438E+02  0.00000000000E+00 0. -1.
        -14    1    3    3    0    0  0.97333409258E+00  0.38797153893E+01  0.62715664394E+02  0.62843091356E+02  0.00000000000E+00 0.  1.
        -13    1    4    4    0    0  0.46824720486E+02  0.36730808714E+02 -0.33135545569E+02  0.68115131487E+02  0.00000000000E+00 0. -1.
         13    1    4    4    0    0  0.13808412302E+03 -0.30414450767E+02 -0.47986519446E+01  0.14147540743E+03  0.00000000000E+00 0.  1.
          2    1    1    2  501    0 -0.14290692200E+03 -0.73565343087E+02 -0.25108402146E+03  0.29812318577E+03  0.00000000000E+00 0. -1.
<scales pt_clust_5="13000.00000" pt_clust_6="13000.00000" pt_clust_7="13000.00000" pt_clust_8="13000.00000" pt_clust_9="174.00052"></scales>
<clustering>
<clus scale="   83.697">  5  6 -1 -1</clus>
<clus scale="   90.874">  7  8 -1 -1</clus>
<clus scale="  115.290">  2  5  1 -1</clus>
<clus scale="  174.001">  1  9  2 -1</clus>
<clus scale="  174.001">  1  5  2 -1</clus>
</clustering>
</event>
<event>
 9    1  0.4731329E-005  0.1260630E+03  0.7546771E-02  0.1235782E+00
         21   -1    0    0  501  502  0.00000000000E+00  0.00000000000E+00  0.39607970071E+03  0.39607970071E+03  0.00000000000E+00 0. -1.
         -4   -1    0    0    0  501 -0.00000000000E+00 -0.00000000000E+00 -0.97445850547E+02  0.97445850547E+02  0.00000000000E+00 0.  1.
         23    2    1    2    0    0 -0.49814509553E+02  0.65540426360E+02 -0.25964846116E+02  0.12577986330E+03  0.91484249618E+02 0.  0.
        -24    2    1    2    0    0  0.78136916157E+02 -0.76205733733E+02  0.22368480309E+03  0.26239142210E+03  0.83076324759E+02 0.  0.
         13    1    4    4    0    0  0.82809153674E+02 -0.83414705330E+02  0.16220499857E+03  0.20031432939E+03  0.00000000000E+00 0. -1.
        -14    1    4    4    0    0 -0.46722375171E+01  0.72089715969E+01  0.61479804527E+02  0.62077092712E+02  0.00000000000E+00 0.  1.
        -13    1    3    3    0    0 -0.36145595451E+02  0.87769044030E+02 -0.29609493427E+02  0.99431540576E+02  0.00000000000E+00 0.  1.
         13    1    3    3    0    0 -0.13668914102E+02 -0.22228617670E+02  0.36446473113E+01  0.26348322722E+02  0.00000000000E+00 0. -1.
         -3    1    1    2    0  502 -0.28322406605E+02  0.10665307373E+02  0.10091389318E+03  0.10535426586E+03  0.00000000000E+00 0.  1.
<scales pt_clust_5="13000.00000" pt_clust_6="13000.00000" pt_clust_7="13000.00000" pt_clust_8="13000.00000" pt_clust_9="30.26396"></scales>
<clustering>
<clus scale="   30.264">  1  9  2 -1</clus>
<clus scale="   83.076">  5  6 -1 -1</clus>
<clus scale="   91.484">  7  8 -1 -1</clus>
<clus scale="  120.101">  1  5  2 -1</clus>
<clus scale="   30.264">  1  5  2 -1</clus>
</clustering>
</event>
<event>
 9    1  0.4731329E-005  0.1026263E+03  0.7546771E-02  0.1280233E+00
         21   -1    0    0  501  502  0.00000000000E+00  0.00000000000E+00  0.55911974665E+03  0.55911974665E+03  0.00000000000E+00 0.  1.
          3   -1    0    0  502    0 -0.00000000000E+00 -0.00000000000E+00 -0.49993556564E+02  0.49993556564E+02  0.00000000000E+00 0. -1.
         23    2    1    2    0    0 -0.50227579694E+01 -0.41570698187E+02  0.52644063877E+02  0.11329899203E+03  0.91169693918E+02 0.  0.
        -24    2    1    2    0    0 -0.44033919300E+02  0.73132145723E+02  0.39118796671E+03  0.40825855854E+03  0.79747906160E+02 0.  0.
         11    1    4    4    0    0 -0.15806305230E+02  0.44745124648E+02  0.69902422760E+02  0.84488544623E+02  0.00000000000E+00 0. -1.
        -12    1    4    4    0    0 -0.28227614070E+02  0.28387021074E+02  0.32128554395E+03  0.32377001392E+03  0.00000000000E+00 0.  1.
        -11    1    3    3    0    0  0.25828613829E+02 -0.59093403698E+02  0.38458435764E+02  0.75087941338E+02  0.00000000000E+00 0. -1.
         11    1    3    3    0    0 -0.30851371799E+02  0.17522705512E+02  0.14185628113E+02  0.38211050696E+02  0.00000000000E+00 0.  1.
          4    1    1    2  501    0  0.49056677269E+02 -0.31561447536E+02  0.65294159493E+02  0.87555752634E+02  0.00000000000E+00 0. -1.
<scales pt_clust_5="13000.00000" pt_clust_6="13000.00000" pt_clust_7="13000.00000" pt_clust_8="13000.00000" pt_clust_9="58.33255"></scales>
<clustering>
<clus scale="   58.333">  1  9  2 -1</clus>
<clus scale="   79.748">  5  6 -1 -1</clus>
<clus scale="   91.170">  7  8 -1 -1</clus>
<clus scale="   92.628">  1  5  2 -1</clus>
<clus scale="   58.333">  1  5  2 -1</clus>
</clustering>
</event>
<event>
 9    1  0.4731329E-005  0.1454019E+03  0.7546771E-02  0.1208478E+00
         21   -1    0    0  501  502  0.00000000000E+00  0.00000000000E+00  0.45759543565E+03  0.45759543565E+03  0.00000000000E+00 0. -1.
          1   -1    0    0  502    0 -0.00000000000E+00 -0.00000000000E+00 -0.75984194500E+02  0.75984194500E+02  0.00000000000E+00 0. -1.
         23    2    1    2    0    0 -0.55060752264E+02 -0.11266858529E+03  0.53757499751E+02  0.16463328084E+03  0.92132251842E+02 0.  0.
        -24    2    1    2    0    0  0.13304271565E+02  0.86953817416E+02  0.21752938571E+03  0.24821393268E+03  0.80951545521E+02 0.  0.
         11    1    4    4    0    0  0.62926515208E+01  0.75439442830E+02  0.22156594333E+03  0.23414135526E+03  0.00000000000E+00 0. -1.
        -12    1    4    4    0    0  0.70116200440E+01  0.11514374586E+02 -0.40365576218E+01  0.14072577418E+02  0.00000000000E+00 0.  1.
        -11    1    3    3    0    0 -0.28659202202E+02 -0.98065635975E+02  0.75844057049E+02  0.12724205209E+03  0.00000000000E+00 0.  1.
         11    1    3    3    0    0 -0.26401550062E+02 -0.14602949319E+02 -0.22086557297E+02  0.37391228755E+02  0.00000000000E+00 0. -1.
          2    1    1    2  501    0  0.41756480699E+02  0.25714767878E+02  0.11032435568E+03  0.12073241662E+03  0.00000000000E+00 0. -1.
<scales pt_clust_5="13000.00000" pt_clust_6="13000.00000" pt_clust_7="13000.00000" pt_clust_8="13000.00000" pt_clust_9="49.03930"></scales>
<clustering>
<clus scale="   49.039">  1  9  2 -1</clus>
<clus scale="   80.952">  5  6 -1 -1</clus>
<clus scale="   92.132">  7  8 -1 -1</clus>
<clus scale="  138.588">  1  5  2 -1</clus>
<clus scale="   49.039">  1  5  2 -1</clus>
</clustering>
</event>
<event>
 9    1  0.4731329E-005  0.9787451E+02  0.7546771E-02  0.1290509E+00
         21   -1    0    0  501  502  0.00000000000E+00  0.00000000000E+00  0.40894208617E+03  0.40894208617E+03  0.00000000000E+00 0. -1.
          3   -1    0    0  502    0 -0.00000000000E+00 -0.00000000000E+00 -0.78671461747E+02  0.78671461747E+02  0.00000000000E+00 0. -1.
         23    2    1    2    0    0 -0.86702098658E+01 -0.34590848582E+02 -0.33488490436E+02  0.10304629354E+03  0.90693771978E+02 0.  0.
        -24    2    1    2    0    0  0.36180714773E+02  0.36346344927E+02  0.24750318867E+03  0.26508775814E+03  0.79897372938E+02 0.  0.
         13    1    4    4    0    0  0.38966956862E+02 -0.16079164796E+02  0.10007192305E+03  0.10858799681E+03  0.00000000000E+00 0. -1.
        -14    1    4    4    0    0 -0.27862420885E+01  0.52425509723E+02  0.14743126562E+03  0.15649976133E+03  0.00000000000E+00 0.  1.
        -11    1    3    3    0    0 -0.37335689195E+02  0.14109461398E+02 -0.65618924005E+01  0.40448597262E+02  0.00000000000E+00 0.  1.
         11    1    3    3    0    0  0.28665479329E+02 -0.48700309980E+02 -0.26926598035E+02  0.62597696276E+02  0.00000000000E+00 0. -1.
          4    1    1    2  501    0 -0.27510504907E+02 -0.17554963453E+01  0.11625592619E+03  0.11947949624E+03  0.00000000000E+00 0. -1.
<scales pt_clust_5="13000.00000" pt_clust_6="13000.00000" pt_clust_7="13000.00000" pt_clust_8="13000.00000" pt_clust_9="27.56646"></scales>
<clustering>
<clus scale="   27.566">  1  9  2 -1</clus>
<clus scale="   79.897">  5  6 -1 -1</clus>
<clus scale="   87.964">  1  5  2 -1</clus>
<clus scale="   90.694">  7  8 -1 -1</clus>
<clus scale="   27.566">  1  5  2 -1</clus>
</clustering>
</event>
<event>
 9    1  0.4731329E-005  0.1192670E+03  0.7546771E-02  0.1252763E+00
          3   -1    0    0  502    0 -0.00000000000E+00  0.00000000000E+00  0.20271764950E+03  0.20271764950E+03  0.00000000000E+00 0. -1.
         21   -1    0    0  501  502  0.00000000000E+00 -0.00000000000E+00 -0.19388918027E+03  0.19388918027E+03  0.00000000000E+00 0. -1.
         23    2    1    2    0    0 -0.30285329597E+02 -0.29710837081E+02  0.39439509381E+02  0.10814429799E+03  0.91322391879E+02 0.  0.
        -24    2    1    2    0    0 -0.14420081248E+02 -0.83902989014E+02 -0.96946607935E+02  0.14951260270E+03  0.75549475618E+02 0.  0.
         13    1    4    4    0    0 -0.40171347413E+02 -0.77474370777E+02 -0.75184798524E+02  0.11519014372E+03  0.00000000000E+00 0. -1.
        -14    1    4    4    0    0  0.25751266165E+02 -0.64286182367E+01 -0.21761809412E+02  0.34322458980E+02  0.00000000000E+00 0.  1.
        -11    1    3    3    0    0  0.30013467312E+02 -0.24996144594E+02  0.75958275260E+01  0.39790853980E+02  0.00000000000E+00 0. -1.
         11    1    3    3    0    0 -0.60298796909E+02 -0.47146924871E+01  0.31843681855E+02  0.68353444009E+02  0.00000000000E+00 0.  1.
          4    1    1    2  501    0  0.44705410845E+02  0.11361382610E+03  0.66335567788E+02  0.13894992908E+03  0.00000000000E+00 0. -1.
<scales pt_clust_5="13000.00000" pt_clust_6="13000.00000" pt_clust_7="13000.00000" pt_clust_8="13000.00000" pt_clust_9="92.28709"></scales>
<clustering>
<clus scale="   75.549">  5  6 -1 -1</clus>
<clus scale="   91.322">  7  8 -1 -1</clus>
<clus scale="  100.696">  1  7  2 -1</clus>
<clus scale="   92.287">  2  9  1 -1</clus>
<clus scale="   92.287">  2  5  1 -1</clus>
</clustering>
</event>
<event>
 9    1  0.4731329E-005  0.8832613E+02  0.7546771E-02  0.1314878E+00
         -2   -1    0    0    0  501 -0.00000000000E+00  0.00000000000E+00  0.10779288018E+03  0.10779288018E+03  0.00000000000E+00 0.  1.
         21   -1    0    0  501  502  0.00000000000E+00 -0.00000000000E+00 -0.11429027666E+03  0.11429027666E+03  0.00000000000E+00 0. -1.
         23    2    1    2    0    0 -0.36898995073E+02 -0.17638305158E+02  0.18612332049E+02  0.77785632903E+02  0.63494410270E+02 0.  0.
        -24    2    1    2    0    0  0.24373149929E+02  0.49461518444E+02 -0.44614773679E+02  0.10492671639E+03  0.77321701592E+02 0.  0.
         11    1    4    4    0    0  0.24968424564E+01  0.63909330965E+02 -0.45828182407E+02  0.78682012616E+02  0.00000000000E+00 0. -1.
        -12    1    4    4    0    0  0.21876307472E+02 -0.14447812521E+02  0.12134087272E+01  0.26244703771E+02  0.00000000000E+00 0.  1.
        -13    1    3    3    0    0  0.16601673031E+02 -0.13621668737E+02  0.17455708494E+01  0.21545589437E+02  0.00000000000E+00 0. -1.
         13    1    3    3    0    0 -0.53500668104E+02 -0.40166364210E+01  0.16866761199E+02  0.56240043466E+02  0.00000000000E+00 0.  1.
         -1    1    1    2    0  502  0.12525845144E+02 -0.31823213287E+02  0.19505045153E+02  0.39370807547E+02  0.00000000000E+00 0.  1.
<scales pt_clust_5="13000.00000" pt_clust_6="13000.00000" pt_clust_7="13000.00000" pt_clust_8="13000.00000" pt_clust_9="34.19963"></scales>
<clustering>
<clus scale="   34.200">  2  9  1 -1</clus>
<clus scale="   63.494">  7  8 -1 -1</clus>
<clus scale="   76.514">  1  7  2 -1</clus>
<clus scale="   77.322">  5  6 -1 -1</clus>
<clus scale="   34.200">  2  5  1 -1</clus>
</clustering>
</event>
<event>
 9    1  0.4731329E-005  0.1105232E+03  0.7546771E-02  0.1264485E+00
          1   -1    0    0  502    0 -0.00000000000E+00  0.00000000000E+00  0.79739819636E+03  0.79739819636E+03  0.00000000000E+00 0. -1.
         21   -1    0    0  501  502  0.00000000000E+00 -0.00000000000E+00 -0.19575710424E+02  0.19575710424E+02  0.00000000000E+00 0. -1.
        -24    2    1    2    0    0  0.59229418766E+02 -0.44899891040E+02  0.44836711914E+03  0.46136359153E+03  0.79367284178E+02 0.  0.
         23    2    1    2    0    0 -0.32949627079E+02  0.25216113757E+02  0.23800339565E+03  0.25844272001E+03  0.91790483540E+02 0.  0.
         13    1    3    3    0    0  0.73520159303E+01 -0.46151687852E+02  0.11751434579E+03  0.12646601083E+03  0.00000000000E+00 0. -1.
        -14    1    3    3    0    0  0.51877402835E+02  0.12517968121E+01  0.33085277335E+03  0.33489758070E+03  0.00000000000E+00 0.  1.
        -13    1    4    4    0    0 -0.49451846958E+02 -0.19428015959E+02  0.12678750302E+03  0.13747001089E+03  0.00000000000E+00 0.  1.
         13    1    4    4    0    0  0.16502219880E+02  0.44644129716E+02  0.11121589262E+03  0.12097270912E+03  0.00000000000E+00 0. -1.
          2    1    1    2  501    0 -0.26279791687E+02  0.19683777283E+02  0.91451971152E+02  0.97167595251E+02  0.00000000000E+00 0. -1.
<scales pt_clust_5="13000.00000" pt_clust_6="13000.00000" pt_clust_7="13000.00000" pt_clust_8="13000.00000" pt_clust_9="32.83411"></scales>
<clustering>
<clus scale="   32.834">  2  9  1 -1</clus>
<clus scale="   79.367">  5  6 -1 -1</clus>
<clus scale="   91.790">  7  8 -1 -1</clus>
<clus scale="  100.444">  1  5  2 -1</clus>
<clus scale="   32.834">  2  5  1 -1</clus>
</clustering>
</event>
<event>
 9    1  0.4731329E-005  0.1457216E+03  0.7546771E-02  0.1207144E+00
         -4   -1    0    0    0  501 -0.00000000000E+00  0.00000000000E+00  0.17657556099E+03  0.17657556099E+03  0.00000000000E+00 0.  1.
         21   -1    0    0  501  502  0.00000000000E+00 -0.00000000000E+00 -0.50175014746E+03  0.50175014746E+03  0.00000000000E+00 0. -1.
         23    2    1    2    0    0  0.10680454672E+03  0.46886308965E+02  0.12899322700E+03  0.19557847556E+03  0.89477093834E+02 0.  0.
        -24    2    1    2    0    0 -0.98058284390E+02 -0.23329215710E+02 -0.30842023107E+03  0.33484932379E+03  0.82712461346E+02 0.  0.
         13    1    4    4    0    0 -0.42482759858E+02 -0.10918379707E+01 -0.24088283338E+03  0.24460277270E+03  0.00000000000E+00 0. -1.
        -14    1    4    4    0    0 -0.55575524531E+02 -0.22237377739E+02 -0.67537397689E+02  0.90246551083E+02  0.00000000000E+00 0.  1.
        -11    1    3    3    0    0  0.52984846510E+02  0.44256783050E+02  0.12340815504E+03  0.14140590347E+03  0.00000000000E+00 0.  1.
         11    1    3    3    0    0  0.53819700210E+02  0.26295259152E+01  0.55850719522E+01  0.54172572082E+02  0.00000000000E+00 0. -1.
         -3    1    1    2    0  502 -0.87462623305E+01 -0.23557093255E+02 -0.14574758239E+03  0.14789790911E+03  0.00000000000E+00 0.  1.
<scales pt_clust_5="13000.00000" pt_clust_6="13000.00000" pt_clust_7="13000.00000" pt_clust_8="13000.00000" pt_clust_9="25.12835"></scales>
<clustering>
<clus scale="   25.128">  2  9  1 -1</clus>
<clus scale="   82.712">  5  6 -1 -1</clus>
<clus scale="   89.477">  7  8 -1 -1</clus>
<clus scale="  141.669">  2  5  1 -1</clus>
<clus scale="   25.128">  2  5  1 -1</clus>
</clustering>
</event>
<event>
 9    1  0.4731329E-005  0.2316851E+03  0.7546771E-02  0.1168641E+00
         21   -1    0    0  501  502  0.00000000000E+00  0.00000000000E+00  0.20476271649E+03  0.20476271649E+03  0.00000000000E+00 0.  1.
         -2   -1    0    0    0  501 -0.00000000000E+00 -0.00000000000E+00 -0.49130295322E+03  0.49130295322E+03  0.00000000000E+00 0.  1.
        -24    2    1    2    0    0 -0.74383198394E+01 -0.18689236929E+02 -0.23173812097E+03  0.24608723717E+03  0.80322819975E+02 0.  0.
         23    2    1    2    0    0 -0.19332424760E+03 -0.70746899775E+02 -0.12293719996E+02  0.22612268715E+03  0.92741282914E+02 0.  0.
         11    1    3    3    0    0 -0.42926853963E+02 -0.13571808957E+02 -0.10217192183E+03  0.11165128929E+03  0.00000000000E+00 0. -1.
        -12    1    3    3    0    0  0.35488534123E+02 -0.51174279715E+01 -0.12956619914E+03  0.13443594788E+03  0.00000000000E+00 0.  1.
        -11    1    4    4    0    0 -0.14902990953E+03 -0.13967403951E+02  0.11896842445E+02  0.15015504376E+03  0.00000000000E+00 0.  1.
         11    1    4    4    0    0 -0.44294338072E+02 -0.56779495825E+02 -0.24190562441E+02  0.75967643392E+02  0.00000000000E+00 0. -1.
         -1    1    1    2    0  502  0.20076256744E+03  0.89436136704E+02 -0.42508395773E+02  0.22385574539E+03  0.00000000000E+00 0.  1.
<scales pt_clust_5="13000.00000" pt_clust_6="13000.00000" pt_clust_7="13000.00000" pt_clust_8="13000.00000" pt_clust_9="212.31365"></scales>
<clustering>
<clus scale="   80.323">  5  6 -1 -1</clus>
<clus scale="   82.803">  2  5  1 -1</clus>
<clus scale="   92.741">  7  8 -1 -1</clus>
<clus scale="  212.314">  1  9  2 -1</clus>
<clus scale="  212.314">  1  5  2 -1</clus>
</clustering>
</event>
<event>
 9    1  0.4731329E-005  0.1005071E+03  0.7546771E-02  0.1284331E+00
          1   -1    0    0  502    0 -0.00000000000E+00  0.00000000000E+00  0.39265888030E+02  0.39265888030E+02  0.00000000000E+00 0. -1.
         21   -1    0    0  501  502  0.00000000000E+00 -0.00000000000E+00 -0.32491314741E+03  0.32491314741E+03  0.00000000000E+00 0.  1.
        -24    2    1    2    0    0  0.22910057556E+02 -0.38931766781E+02 -0.83382712391E+02  0.12443280862E+03  0.80562360526E+02 0.  0.
         23    2    1    2    0    0 -0.37354716376E+02  0.21218816779E+02 -0.13255106685E+03  0.16638161628E+03  0.90925485385E+02 0.  0.
         13    1    3    3    0    0  0.46417877422E+02 -0.17420379065E+02 -0.19942285458E+02  0.53439533123E+02  0.00000000000E+00 0. -1.
        -14    1    3    3    0    0 -0.23507819867E+02 -0.21511387716E+02 -0.63440426933E+02  0.70993275497E+02  0.00000000000E+00 0.  1.
        -13    1    4    4    0    0 -0.31258884367E+01  0.33818118441E+02 -0.12447384820E+03  0.12902393266E+03  0.00000000000E+00 0.  1.
         13    1    4    4    0    0 -0.34228827940E+02 -0.12599301662E+02 -0.80772186511E+01  0.37357683623E+02  0.00000000000E+00 0. -1.
          2    1    1    2  501    0  0.14444658821E+02  0.17712950002E+02 -0.69713480138E+02  0.73364610537E+02  0.00000000000E+00 0. -1.
<scales pt_clust_5="13000.00000" pt_clust_6="13000.00000" pt_clust_7="13000.00000" pt_clust_8="13000.00000" pt_clust_9="22.85600"></scales>
<clustering>
<clus scale="   22.856">  2  9  1 -1</clus>
<clus scale="   80.562">  5  6 -1 -1</clus>
<clus scale="   90.925">  7  8 -1 -1</clus>
<clus scale="   91.239">  1  5  2 -1</clus>
<clus scale="   22.856">  2  5  1 -1</clus>
</clustering>
</event>
<event>
 9    1  0.4731329E-005  0.9379192E+02  0.7546771E-02  0.1300478E+00
         21   -1    0    0  501  502  0.00000000000E+00  0.00000000000E+00  0.20963188862E+03  0.20963188862E+03  0.00000000000E+00 0.  1.
         -2   -1    0    0    0  501 -0.00000000000E+00 -0.00000000000E+00 -0.10268015507E+03  0.10268015507E+03  0.00000000000E+00 0.  1.
        -24    2    1    2    0    0  0.10790969913E+01  0.27247032351E+02 -0.28750943368E+02  0.89824142004E+02  0.80611379593E+02 0.  0.
         23    2    1    2    0    0 -0.49673862287E+02  0.22571498712E+02  0.78871387301E+02  0.13263728827E+03  0.91624174523E+02 0.  0.
         13    1    3    3    0    0  0.21660373498E+02  0.18926844960E+02  0.20820439095E+02  0.35508983713E+02  0.00000000000E+00 0. -1.
        -14    1    3    3    0    0 -0.20581276506E+02  0.83201873914E+01 -0.49571382464E+02  0.54315158291E+02  0.00000000000E+00 0.  1.
        -11    1    4    4    0    0  0.11111050729E+02 -0.26351820028E+02  0.20229653195E+02  0.35030168933E+02  0.00000000000E+00 0. -1.
         11    1    4    4    0    0 -0.60784913016E+02  0.48923318740E+02  0.58641734107E+02  0.97607119340E+02  0.00000000000E+00 0.  1.
         -1    1    1    2    0  502  0.48594765296E+02 -0.49818531063E+02  0.56831289613E+02  0.89850613412E+02  0.00000000000E+00 0.  1.
<scales pt_clust_5="13000.00000" pt_clust_6="13000.00000" pt_clust_7="13000.00000" pt_clust_8="13000.00000" pt_clust_9="69.59409"></scales>
<clustering>
<clus scale="   69.594">  1  9  2 -1</clus>
<clus scale="   80.611">  5  6 -1 -1</clus>
<clus scale="   83.067">  2  5  1 -1</clus>
<clus scale="   91.624">  7  8 -1 -1</clus>
<clus scale="   69.594">  1  5  2 -1</clus>
</clustering>
</event>
<event>
 9    1  0.4731329E-005  0.9126663E+02  0.7546771E-02  0.1305672E+00
         -2   -1    0    0    0  501 -0.00000000000E+00  0.00000000000E+00  0.18415926757E+03  0.18415926757E+03  0.00000000000E+00 0.  1.
         21   -1    0    0  501  502  0.00000000000E+00 -0.00000000000E+00 -0.61085286441E+02  0.61085286441E+02  0.00000000000E+00 0. -1.
         23    2    1    2    0    0 -0.87572641925E+01  0.11532169140E+02  0.99635899710E+02  0.13449444615E+03  0.89172657988E+02 0.  0.
        -24    2    1    2    0    0  0.76489566251E+00 -0.32337443136E+02  0.17916313140E+02  0.87788677033E+02  0.79621368016E+02 0.  0.
         11    1    4    4    0    0  0.18872971554E+02  0.19532186619E+02 -0.60871376747E+01  0.27834306430E+02  0.00000000000E+00 0. -1.
        -12    1    4    4    0    0 -0.18108075891E+02 -0.51869629755E+02  0.24003450815E+02  0.59954370603E+02  0.00000000000E+00 0.  1.
        -11    1    3    3    0    0 -0.11668132486E+02  0.49173189861E+02  0.42611608894E+02  0.66105197446E+02  0.00000000000E+00 0.  1.
         11    1    3    3    0    0  0.29108682934E+01 -0.37641020721E+02  0.57024290816E+02  0.68389248703E+02  0.00000000000E+00 0. -1.
         -1    1    1    2    0  502  0.79923685300E+01  0.20805273997E+02  0.55217682802E+01  0.22961430829E+02  0.00000000000E+00 0.  1.
<scales pt_clust_5="13000.00000" pt_clust_6="13000.00000" pt_clust_7="13000.00000" pt_clust_8="13000.00000" pt_clust_9="22.28761"></scales>
<clustering>
<clus scale="   22.288">  2  9  1 -1</clus>
<clus scale="   79.621">  5  6 -1 -1</clus>
<clus scale="   81.960">  2  5  1 -1</clus>
<clus scale="   89.173">  7  8 -1 -1</clus>
<clus scale="   22.288">  2  5  1 -1</clus>
</clustering>
</event>
<event>
 9    1  0.4731329E-005  0.1032814E+03  0.7546771E-02  0.1282846E+00
         21   -1    0    0  501  502  0.00000000000E+00  0.00000000000E+00  0.97659972768E+02  0.97659972768E+02  0.00000000000E+00 0.  1.
          3   -1    0    0  502    0 -0.00000000000E+00 -0.00000000000E+00 -0.37680641510E+03  0.37680641510E+03  0.00000000000E+00 0. -1.
         23    2    1    2    0    0  0.11258467308E+02  0.22074991590E+02 -0.26277798373E+03  0.28126627656E+03  0.97182257914E+02 0.  0.
        -24    2    1    2    0    0 -0.40205184965E+02 -0.84937154176E+02 -0.16939729169E+02  0.12399107796E+03  0.79095233302E+02 0.  0.
         13    1    4    4    0    0  0.16543712688E+02 -0.11967793247E+02 -0.23727017204E+02  0.31303256222E+02  0.00000000000E+00 0. -1.
        -14    1    4    4    0    0 -0.56748897653E+02 -0.72969360928E+02  0.67872880352E+01  0.92687821735E+02  0.00000000000E+00 0.  1.
        -11    1    3    3    0    0 -0.35302240099E+02 -0.93360826751E+01 -0.54904210076E+02  0.65938477991E+02  0.00000000000E+00 0.  1.
         11    1    3    3    0    0  0.46560707407E+02  0.31411074265E+02 -0.20787377366E+03  0.21532779856E+03  0.00000000000E+00 0. -1.
          4    1    1    2  501    0  0.28946717657E+02  0.62862162586E+02  0.57127056699E+00  0.69209033356E+02  0.00000000000E+00 0. -1.
<scales pt_clust_5="13000.00000" pt_clust_6="13000.00000" pt_clust_7="13000.00000" pt_clust_8="13000.00000" pt_clust_9="69.20668"></scales>
<clustering>
<clus scale="   69.207">  1  9  2 -1</clus>
<clus scale="   79.095">  5  6 -1 -1</clus>
<clus scale="   86.480">  1  5  2 -1</clus>
<clus scale="   97.182">  7  8 -1 -1</clus>
<clus scale="   69.207">  1  5  2 -1</clus>
</clustering>
</event>
<event>
 9    1  0.4731329E-005  0.1292762E+03  0.7546771E-02  0.1243693E+00
         21   -1    0    0  501  502  0.00000000000E+00  0.00000000000E+00  0.35553328171E+03  0.35553328171E+03  0.00000000000E+00 0. -1.
          1   -1    0    0  502    0 -0.00000000000E+00 -0.00000000000E+00 -0.47924826291E+03  0.47924826291E+03  0.00000000000E+00 0. -1.
         23    2    1    2    0    0 -0.10205059751E+02 -0.20799998647E+02 -0.22571677716E+03  0.24482797627E+03  0.91955920342E+02 0.  0.
        -24    2    1    2    0    0  0.58197788530E+02  0.10974110668E+03 -0.21300688504E+03  0.25912991167E+03  0.79663573615E+02 0.  0.
         13    1    4    4    0    0  0.63328359040E+02  0.86005640576E+02 -0.11008632896E+03  0.15338334686E+03  0.00000000000E+00 0. -1.
        -14    1    4    4    0    0 -0.51305705101E+01  0.23735466105E+02 -0.10292055608E+03  0.10574656481E+03  0.00000000000E+00 0.  1.
        -13    1    3    3    0    0 -0.23365327472E+02  0.27436063315E+02 -0.14870257966E+03  0.15300697139E+03  0.00000000000E+00 0. -1.
         13    1    3    3    0    0  0.13160267721E+02 -0.48236061962E+02 -0.77014197503E+02  0.91821004880E+02  0.00000000000E+00 0.  1.
          2    1    1    2  501    0 -0.47992728779E+02 -0.88941108033E+02  0.31500868100E+03  0.33082365668E+03  0.00000000000E+00 0. -1.
<scales pt_clust_5="13000.00000" pt_clust_6="13000.00000" pt_clust_7="13000.00000" pt_clust_8="13000.00000" pt_clust_9="101.81382"></scales>
<clustering>
<clus scale="   79.664">  5  6 -1 -1</clus>
<clus scale="   91.956">  7  8 -1 -1</clus>
<clus scale="   94.830">  2  7  1 -1</clus>
<clus scale="  101.814">  1  9  2 -1</clus>
<clus scale="  101.814">  1  5  2 -1</clus>
</clustering>
</event>
<event>
 9    1  0.4731329E-005  0.1583839E+03  0.7546771E-02  0.1191666E+00
         21   -1    0    0  501  502  0.00000000000E+00  0.00000000000E+00  0.15249026636E+03  0.15249026636E+03  0.00000000000E+00 0. -1.
          1   -1    0    0  502    0 -0.00000000000E+00 -0.00000000000E+00 -0.37389953896E+03  0.37389953896E+03  0.00000000000E+00 0. -1.
         23    2    1    2    0    0 -0.12217010955E+03  0.74607367422E+02 -0.25054534787E+03  0.30219754498E+03  0.89769649164E+02 0.  0.
        -24    2    1    2    0    0  0.59651755381E+02 -0.92899938649E+02 -0.24156285296E+02  0.14003028280E+03  0.82681457777E+02 0.  0.
         13    1    4    4    0    0  0.26164702127E+02 -0.10000295541E+03 -0.13931105526E+02  0.10430368369E+03  0.00000000000E+00 0. -1.
        -14    1    4    4    0    0  0.33487053255E+02  0.71030167657E+01 -0.10225179770E+02  0.35726599113E+02  0.00000000000E+00 0.  1.
        -13    1    3    3    0    0 -0.91161992826E+02  0.52066666014E+01 -0.11555664256E+03  0.14727849793E+03  0.00000000000E+00 0.  1.
         13    1    3    3    0    0 -0.31008116723E+02  0.69400700821E+02 -0.13498870530E+03  0.15491904704E+03  0.00000000000E+00 0. -1.
          2    1    1    2  501    0  0.62518354168E+02  0.18292571227E+02  0.53292360564E+02  0.84161977546E+02  0.00000000000E+00 0. -1.
<scales pt_clust_5="13000.00000" pt_clust_6="13000.00000" pt_clust_7="13000.00000" pt_clust_8="13000.00000" pt_clust_9="65.13956"></scales>
<clustering>
<clus scale="   65.140">  1  9  2 -1</clus>
<clus scale="   82.681">  5  6 -1 -1</clus>
<clus scale="   89.770">  7  8 -1 -1</clus>
<clus scale="  154.477">  1  5  2 -1</clus>
<clus scale="   65.140">  1  5  2 -1</clus>
</clustering>
</event>
<event>
 9    1  0.4731329E-005  0.3503065E+03  0.7546771E-02  0.1062788E+00
          1   -1    0    0  502    0 -0.00000000000E+00  0.00000000000E+00  0.36346111178E+03  0.36346111178E+03  0.00000000000E+00 0. -1.
         21   -1    0    0  501  502  0.00000000000E+00 -0.00000000000E+00 -0.54571496075E+03  0.54571496075E+03  0.00000000000E+00 0.  1.
        -24    2    1    2    0    0 -0.80696506875E+02  0.34293759674E+03 -0.66170485363E+01  0.36211230848E+03  0.83447091863E+02 0.  0.
         23    2    1    2    0    0  0.57024340831E+02 -0.30298485477E+03 -0.28362465029E+03  0.42951390759E+03  0.94803253572E+02 0.  0.
         13    1    3    3    0    0 -0.96208753265E+02  0.31549889771E+03  0.30093119698E+00  0.32984203677E+03  0.00000000000E+00 0. -1.
        -14    1    3    3    0    0  0.15512246390E+02  0.27438699030E+02 -0.69179797333E+01  0.32270271708E+02  0.00000000000E+00 0.  1.
        -13    1    4    4    0    0  0.28427614435E+02 -0.28466624122E+03 -0.26846926809E+03  0.39232479664E+03  0.00000000000E+00 0.  1.
         13    1    4    4    0    0  0.28596726396E+02 -0.18318613555E+02 -0.15155382203E+02  0.37189110945E+02  0.00000000000E+00 0. -1.
          2    1    1    2  501    0  0.23672166044E+02 -0.39952741963E+02  0.10798784987E+03  0.11754985646E+03  0.00000000000E+00 0. -1.
<scales pt_clust_5="13000.00000" pt_clust_6="13000.00000" pt_clust_7="13000.00000" pt_clust_8="13000.00000" pt_clust_9="46.43916"></scales>
<clustering>
<clus scale="   46.439">  2  9  1 -1</clus>
<clus scale="   83.447">  5  6 -1 -1</clus>
<clus scale="   94.803">  7  8 -1 -1</clus>
<clus scale="  347.405">  1  5  2 -1</clus>
<clus scale="   46.439">  2  5  1 -1</clus>
</clustering>
</event>
<event>
 9    1  0.4731329E-005  0.1487928E+03  0.7546771E-02  0.1226658E+00
         -2   -1    0    0    0  501 -0.00000000000E+00  0.00000000000E+00  0.82800679640E+03  0.82800679640E+03  0.00000000000E+00 0.  1.
         21   -1    0    0  501  502  0.00000000000E+00 -0.00000000000E+00 -0.92606546990E+02  0.92606546990E+02  0.00000000000E+00 0.  1.
        -24    2    1    2    0    0 -0.18142074124E+02  0.33548711514E+02  0.35874672149E+02  0.95169617987E+02  0.79470832311E+02 0.  0.
         23    2    1    2    0    0 -0.91441047971E+02 -0.75960864179E+02  0.69155564238E+03  0.70766948712E+03  0.91735371325E+02 0.  0.
         11    1    3    3    0    0 -0.25723869303E+01  0.51699646571E+02  0.45953653471E+02  0.69218558909E+02  0.00000000000E+00 0. -1.
        -12    1    3    3    0    0 -0.15569687194E+02 -0.18150935057E+02 -0.10078981323E+02  0.25951059078E+02  0.00000000000E+00 0.  1.
        -11    1    4    4    0    0 -0.75490103133E+02 -0.92773481063E+02  0.64088641553E+03  0.65195174060E+03  0.00000000000E+00 0.  1.
         11    1    4    4    0    0 -0.15950944838E+02  0.16812616885E+02  0.50669226848E+02  0.55717746518E+02  0.00000000000E+00 0. -1.
         -1    1    1    2    0  502  0.10958312209E+03  0.42412152664E+02  0.79699348828E+01  0.11777423829E+03  0.00000000000E+00 0.  1.
<scales pt_clust_5="13000.00000" pt_clust_6="13000.00000" pt_clust_7="13000.00000" pt_clust_8="13000.00000" pt_clust_9="117.14919"></scales>
<clustering>
<clus scale="   79.471">  5  6 -1 -1</clus>
<clus scale="   88.149">  1  5  2 -1</clus>
<clus scale="   91.735">  7  8 -1 -1</clus>
<clus scale="  117.149">  2  9  1 -1</clus>
<clus scale="  117.149">  2  5  1 -1</clus>
</clustering>
</event>
<event>
 9    1  0.4731329E-005  0.1389487E+03  0.7546771E-02  0.1227247E+00
         21   -1    0    0  501  502  0.00000000000E+00  0.00000000000E+00  0.16126357120E+03  0.16126357120E+03  0.00000000000E+00 0. -1.
          1   -1    0    0  502    0 -0.00000000000E+00 -0.00000000000E+00 -0.45598620697E+03  0.45598620697E+03  0.00000000000E+00 0. -1.
        -24    2    1    2    0    0 -0.67449901376E+02  0.27789857533E+02 -0.31293764608E+03  0.33070128647E+03  0.78176755913E+02 0.  0.
         23    2    1    2    0    0  0.33243410478E+02  0.80420082342E+02 -0.68415089530E+02  0.14377507223E+03  0.91750383838E+02 0.  0.
         13    1    3    3    0    0 -0.65856047602E+02  0.28841421715E+02 -0.31761439631E+03  0.32564973723E+03  0.00000000000E+00 0. -1.
        -14    1    3    3    0    0 -0.15938537746E+01 -0.10515641819E+01  0.46767502310E+01  0.50515492481E+01  0.00000000000E+00 0.  1.
        -13    1    4    4    0    0  0.30371050993E+02  0.51755131262E+01  0.12495763955E+02  0.33246515477E+02  0.00000000000E+00 0.  1.
         13    1    4    4    0    0  0.28723594848E+01  0.75244569215E+02 -0.80910853486E+02  0.11052855675E+03  0.00000000000E+00 0. -1.
          2    1    1    2  501    0  0.34206490899E+02 -0.10820993987E+03  0.86630099841E+02  0.14277341946E+03  0.00000000000E+00 0. -1.
<scales pt_clust_5="13000.00000" pt_clust_6="13000.00000" pt_clust_7="13000.00000" pt_clust_8="13000.00000" pt_clust_9="104.34846"></scales>
<clustering>
<clus scale="   78.177">  5  6 -1 -1</clus>
<clus scale="   91.750">  7  8 -1 -1</clus>
<clus scale="  106.927">  2  5  1 -1</clus>
<clus scale="  104.348">  1  9  2 -1</clus>
<clus scale="  104.348">  1  5  2 -1</clus>
</clustering>
</event>
<event>
 9    1  0.4731329E-005  0.1278747E+03  0.7546771E-02  0.1247341E+00
         21   -1    0    0  501  502  0.00000000000E+00  0.00000000000E+00  0.46028740882E+03  0.46028740882E+03  0.00000000000E+00 0. -1.
          3   -1    0    0  502    0 -0.00000000000E+00 -0.00000000000E+00 -0.13295792352E+03  0.13295792352E+03  0.00000000000E+00 0. -1.
        -24    2    1    2    0    0 -0.38320496518E+02 -0.17760939089E+02 -0.87273830179E+02  0.12611926078E+03  0.80656277467E+02 0.  0.
         23    2    1    2    0    0 -0.42355445538E+02 -0.40160838296E+02  0.18496126426E+03  0.21692812670E+03  0.97161032198E+02 0.  0.
         13    1    3    3    0    0 -0.42623067577E+02 -0.22764797317E+01 -0.97935704093E+02  0.10683309593E+03  0.00000000000E+00 0. -1.
        -14    1    3    3    0    0  0.43025710599E+01 -0.15484459357E+02  0.10661873913E+02  0.19286164851E+02  0.00000000000E+00 0.  1.
        -11    1    4    4    0    0  0.25042092664E+02  0.11743795060E+02  0.36138932125E+02  0.45508741386E+02  0.00000000000E+00 0.  1.
         11    1    4    4    0    0 -0.67397538202E+02 -0.51904633356E+02  0.14882233214E+03  0.17141938532E+03  0.00000000000E+00 0. -1.
          4    1    1    2  501    0  0.80675942056E+02  0.57921777385E+02  0.22964205121E+03  0.25019794485E+03  0.00000000000E+00 0. -1.
<scales pt_clust_5="13000.00000" pt_clust_6="13000.00000" pt_clust_7="13000.00000" pt_clust_8="13000.00000" pt_clust_9="83.13640"></scales>
<clustering>
<clus scale="   80.656">  5  6 -1 -1</clus>
<clus scale="   91.046">  2  5  1 -1</clus>
<clus scale="   83.136">  1  9  2 -1</clus>
<clus scale="   97.161">  7  8 -1 -1</clus>
<clus scale="   83.136">  1  5  2 -1</clus>
</clustering>
</event>
<event>
 9    1  0.4731329E-005  0.1408697E+03  0.7546771E-02  0.1214041E+00
         21   -1    0    0  501  502  0.00000000000E+00  0.00000000000E+00  0.19999148474E+03  0.19999148474E+03  0.00000000000E+00 0. -1.
          1   -1    0    0  502    0 -0.00000000000E+00 -0.00000000000E+00 -0.27273668978E+03  0.27273668978E+03  0.00000000000E+00 0. -1.
        -24    2    1    2    0    0  0.18110737974E+02  0.10223081201E+03 -0.16655475541E+03  0.21257302121E+03  0.81655771655E+02 0.  0.
         23    2    1    2    0    0 -0.84441319139E+01 -0.12062609840E+03 -0.12766720751E+02  0.15157186086E+03  0.90493540473E+02 0.  0.
         11    1    3    3    0    0  0.34152419011E+02  0.75652681619E+02 -0.16085733748E+03  0.18101049412E+03  0.00000000000E+00 0. -1.
        -12    1    3    3    0    0 -0.16041681036E+02  0.26578130387E+02 -0.56974179272E+01  0.31562527091E+02  0.00000000000E+00 0.  1.
        -13    1    4    4    0    0 -0.39230313109E+02 -0.28910147311E+02  0.14881484394E+02  0.50953632470E+02  0.00000000000E+00 0.  1.
         13    1    4    4    0    0  0.30786181195E+02 -0.91715951091E+02 -0.27648205145E+02  0.10061822839E+03  0.00000000000E+00 0. -1.
          2    1    1    2  501    0 -0.96666060606E+01  0.18395286396E+02  0.10657627111E+03  0.10858329244E+03  0.00000000000E+00 0. -1.
<scales pt_clust_5="13000.00000" pt_clust_6="13000.00000" pt_clust_7="13000.00000" pt_clust_8="13000.00000" pt_clust_9="20.78052"></scales>
<clustering>
<clus scale="   20.781">  1  9  2 -1</clus>
<clus scale="   81.656">  5  6 -1 -1</clus>
<clus scale="   90.494">  7  8 -1 -1</clus>
<clus scale="  135.362">  2  5  1 -1</clus>
<clus scale="   20.781">  1  5  2 -1</clus>
</clustering>
</event>
<event>
 9    1  0.4731329E-005  0.3310920E+03  0.7546771E-02  0.1070964E+00
          1   -1    0    0  502    0 -0.00000000000E+00  0.00000000000E+00  0.26178941948E+04  0.26178941948E+04  0.00000000000E+00 0. -1.
         21   -1    0    0  501  502  0.00000000000E+00 -0.00000000000E+00 -0.57643656842E+02  0.57643656842E+02  0.00000000000E+00 0.  1.
         23    2    1    2    0    0  0.48836557673E+02  0.33432618974E+03  0.17201629554E+04  0.17554554821E+04  0.92219012119E+02 0.  0.
        -24    2    1    2    0    0 -0.64635982457E+02 -0.28042690564E+03  0.79033221467E+03  0.84504670275E+03  0.81620222098E+02 0.  0.
         11    1    4    4    0    0 -0.46669168555E+02 -0.26807335008E+03  0.76309215460E+03  0.81015490416E+03  0.00000000000E+00 0. -1.
        -12    1    4    4    0    0 -0.17966813902E+02 -0.12353555559E+02  0.27240060070E+02  0.34891798597E+02  0.00000000000E+00 0.  1.
        -11    1    3    3    0    0 -0.87459637562E+01  0.23425348024E+03  0.11893215041E+04  0.12122032935E+04  0.00000000000E+00 0.  1.
         11    1    3    3    0    0  0.57582521429E+02  0.10007270950E+03  0.53084145134E+03  0.54325218860E+03  0.00000000000E+00 0. -1.
          2    1    1    2  501    0  0.15799424784E+02 -0.53899284096E+02  0.49755367916E+02  0.75035666760E+02  0.00000000000E+00 0. -1.
<scales pt_clust_5="13000.00000" pt_clust_6="13000.00000" pt_clust_7="13000.00000" pt_clust_8="13000.00000" pt_clust_9="56.16720"></scales>
<clustering>
<clus scale="   56.167">  2  9  1 -1</clus>
<clus scale="   81.620">  5  6 -1 -1</clus>
<clus scale="   92.219">  7  8 -1 -1</clus>
<clus scale="  328.298">  2  5  1 -1</clus>
<clus scale="   56.167">  2  5  1 -1</clus>
</clustering>
</event>
<event>
 9    1  0.4731329E-005  0.1847567E+03  0.7546771E-02  0.1194413E+00
          3   -1    0    0  502    0 -0.00000000000E+00  0.00000000000E+00  0.37785973343E+03  0.37785973343E+03  0.00000000000E+00 0. -1.
         21   -1    0    0  501  502  0.00000000000E+00 -0.00000000000E+00 -0.17055745917E+03  0.17055745917E+03  0.00000000000E+00 0.  1.
         23    2    1    2    0    0  0.88104020830E+01  0.24937322046E+02  0.16592647791E+03  0.18954002001E+03  0.87717329524E+02 0.  0.
        -24    2    1    2    0    0  0.65515866979E+02 -0.15983938694E+03 -0.19541163461E+02  0.19324554100E+03  0.84386157658E+02 0.  0.
         13    1    4    4    0    0  0.46737849783E+02 -0.12470235573E+03  0.22796570179E+02  0.13511027991E+03  0.00000000000E+00 0. -1.
        -14    1    4    4    0    0  0.18778017196E+02 -0.35137031218E+02 -0.42337733640E+02  0.58135261093E+02  0.00000000000E+00 0.  1.
        -13    1    3    3    0    0 -0.12945566809E+02 -0.29306895724E+02  0.45110566531E+02  0.55330326672E+02  0.00000000000E+00 0.  1.
         13    1    3    3    0    0  0.21755968892E+02  0.54244217770E+02  0.12081591138E+03  0.13420969334E+03  0.00000000000E+00 0. -1.
          4    1    1    2  501    0 -0.74326269062E+02  0.13490206490E+03  0.60916959812E+02  0.16563163158E+03  0.00000000000E+00 0. -1.
<scales pt_clust_5="13000.00000" pt_clust_6="13000.00000" pt_clust_7="13000.00000" pt_clust_8="13000.00000" pt_clust_9="164.35946"></scales>
<clustering>
<clus scale="   84.386">  5  6 -1 -1</clus>
<clus scale="   87.717">  7  8 -1 -1</clus>
<clus scale="   91.618">  1  7  2 -1</clus>
<clus scale="  164.359">  2  9  1 -1</clus>
<clus scale="  164.359">  2  5  1 -1</clus>
</clustering>
</event>
<event>
 9    1  0.4731329E-005  0.1003004E+03  0.7546771E-02  0.1285223E+00
          3   -1    0    0  502    0 -0.00000000000E+00  0.00000000000E+00  0.64714580199E+03  0.64714580199E+03  0.00000000000E+00 0. -1.
         21   -1    0    0  501  502  0.00000000000E+00 -0.00000000000E+00 -0.25505492883E+02  0.25505492883E+02  0.00000000000E+00 0. -1.
        -24    2    1    2    0    0  0.19555102267E+02 -0.41920297649E+02  0.46615783019E+03  0.47523616918E+03  0.80041117389E+02 0.  0.
         23    2    1    2    0    0 -0.43058867545E+00  0.25883854719E+02  0.10752638866E+03  0.14335311394E+03  0.91203243776E+02 0.  0.
         11    1    3    3    0    0  0.42526959187E+02 -0.51990617869E+02  0.32520224388E+03  0.33206635787E+03  0.00000000000E+00 0. -1.
        -12    1    3    3    0    0 -0.22971856919E+02  0.10070320220E+02  0.14095558631E+03  0.14316981132E+03  0.00000000000E+00 0.  1.
        -13    1    4    4    0    0 -0.20570418414E+02  0.52563670842E+02  0.44000724400E+02  0.71569164826E+02  0.00000000000E+00 0. -1.
         13    1    4    4    0    0  0.20139829739E+02 -0.26679816123E+02  0.63525664260E+02  0.71783949111E+02  0.00000000000E+00 0.  1.
          4    1    1    2  501    0 -0.19124513592E+02  0.16036442930E+02  0.47956090254E+02  0.54062011750E+02  0.00000000000E+00 0. -1.
<scales pt_clust_5="13000.00000" pt_clust_6="13000.00000" pt_clust_7="13000.00000" pt_clust_8="13000.00000" pt_clust_9="24.95826"></scales>
<clustering>
<clus scale="   24.958">  2  9  1 -1</clus>
<clus scale="   80.041">  5  6 -1 -1</clus>
<clus scale="   90.270">  1  5  2 -1</clus>
<clus scale="   91.203">  7  8 -1 -1</clus>
<clus scale="   24.958">  2  5  1 -1</clus>
</clustering>
</event>
<event>
 9    1  0.4731329E-005  0.2789191E+03  0.7546771E-02  0.1131932E+00
          1   -1    0    0  502    0 -0.00000000000E+00  0.00000000000E+00  0.28364453165E+03  0.28364453165E+03  0.00000000000E+00 0. -1.
         21   -1    0    0  501  502  0.00000000000E+00 -0.00000000000E+00 -0.11186548828E+04  0.11186548828E+04  0.00000000000E+00 0. -1.
         23    2    1    2    0    0 -0.52215508962E+02 -0.36448435039E+02  0.20021724659E+03  0.23001711171E+03  0.93626802000E+02 0.  0.
        -24    2    1    2    0    0  0.22124378640E+03 -0.16485905939E+03 -0.55263848906E+03  0.62274839687E+03  0.79239786309E+02 0.  0.
         11    1    4    4    0    0  0.16207172755E+03 -0.15533583792E+03 -0.39873976990E+03  0.45759138051E+03  0.00000000000E+00 0. -1.
        -12    1    4    4    0    0  0.59172058850E+02 -0.95232214628E+01 -0.15389871916E+03  0.16515701636E+03  0.00000000000E+00 0.  1.
        -11    1    3    3    0    0 -0.15946363748E+00  0.21475238377E+02  0.10418693375E+03  0.10637729296E+03  0.00000000000E+00 0.  1.
         11    1    3    3    0    0 -0.52056045325E+02 -0.57923673416E+02  0.96030312839E+02  0.12363981875E+03  0.00000000000E+00 0. -1.
          2    1    1    2  501    0 -0.16902827744E+03  0.20130749443E+03 -0.48258910873E+03  0.54953390591E+03  0.00000000000E+00 0. -1.
<scales pt_clust_5="13000.00000" pt_clust_6="13000.00000" pt_clust_7="13000.00000" pt_clust_8="13000.00000" pt_clust_9="267.42644"></scales>
<clustering>
<clus scale="   79.240">  5  6 -1 -1</clus>
<clus scale="   93.627">  7  8 -1 -1</clus>
<clus scale="  113.230">  1  7  2 -1</clus>
<clus scale="  267.426">  2  9  1 -1</clus>
<clus scale="  267.426">  2  5  1 -1</clus>
</clustering>
</event>
<event>
 9    1  0.4731329E-005  0.1369985E+03  0.7546771E-02  0.1233234E+00
         21   -1    0    0  501  502  0.00000000000E+00  0.00000000000E+00  0.42776932624E+02  0.42776932624E+02  0.00000000000E+00 0. -1.
          1   -1    0    0  502    0 -0.00000000000E+00 -0.00000000000E+00 -0.80326419170E+03  0.80326419170E+03  0.00000000000E+00 0. -1.
        -24    2    1    2    0    0  0.53857483337E+02  0.17275496006E+02 -0.23917402213E+03  0.25869771266E+03  0.80754085961E+02 0.  0.
         23    2    1    2    0    0  0.55809154620E+02  0.18035358566E+02 -0.42051108617E+03  0.43425944277E+03  0.91168822215E+02 0.  0.
         11    1    3    3    0    0  0.67504895766E+02 -0.71483700589E+01 -0.19429505686E+03  0.20581199981E+03  0.00000000000E+00 0. -1.
        -12    1    3    3    0    0 -0.13647412428E+02  0.24423866065E+02 -0.44878965272E+02  0.52885712848E+02  0.00000000000E+00 0.  1.
        -13    1    4    4    0    0  0.63586349411E+02  0.40039778849E+02 -0.38125734788E+03  0.38859178200E+03  0.00000000000E+00 0.  1.
         13    1    4    4    0    0 -0.77771947911E+01 -0.22004420283E+02 -0.39253738292E+02  0.45667660776E+02  0.00000000000E+00 0. -1.
          2    1    1    2  501    0 -0.10966663796E+03 -0.35310854572E+02 -0.10080215077E+03  0.15308396889E+03  0.00000000000E+00 0. -1.
<scales pt_clust_5="13000.00000" pt_clust_6="13000.00000" pt_clust_7="13000.00000" pt_clust_8="13000.00000" pt_clust_9="102.25873"></scales>
<clustering>
<clus scale="   80.754">  5  6 -1 -1</clus>
<clus scale="   91.169">  7  8 -1 -1</clus>
<clus scale="   98.592">  2  5  1 -1</clus>
<clus scale="  102.259">  1  9  2 -1</clus>
<clus scale="  102.259">  1  5  2 -1</clus>
</clustering>
</event>
<event>
 9    1  0.4731329E-005  0.1105965E+03  0.7546771E-02  0.1266840E+00
         -4   -1    0    0    0  501 -0.00000000000E+00  0.00000000000E+00  0.33207657888E+02  0.33207657888E+02  0.00000000000E+00 0.  1.
         21   -1    0    0  501  502  0.00000000000E+00 -0.00000000000E+00 -0.69154407005E+03  0.69154407005E+03  0.00000000000E+00 0. -1.
         23    2    1    2    0    0  0.24434750489E+02 -0.46763650195E+02 -0.23661938945E+03  0.26102216350E+03  0.96746774430E+02 0.  0.
        -24    2    1    2    0    0 -0.44538533379E+02  0.36882897373E+02 -0.42906366846E+03  0.44015490503E+03  0.79351620999E+02 0.  0.
         11    1    4    4    0    0 -0.42484376217E+02 -0.13992883509E+02 -0.25100107312E+03  0.25495541124E+03  0.00000000000E+00 0. -1.
        -12    1    4    4    0    0 -0.20541571621E+01  0.50875780881E+02 -0.17806259534E+03  0.18519949379E+03  0.00000000000E+00 0.  1.
        -13    1    3    3    0    0 -0.16635547182E+02 -0.41517687680E+02 -0.20247250701E+03  0.20735374584E+03  0.00000000000E+00 0.  1.
         13    1    3    3    0    0  0.41070297671E+02 -0.52459625147E+01 -0.34146882448E+02  0.53668417662E+02  0.00000000000E+00 0. -1.
         -3    1    1    2    0  502  0.20103782890E+02  0.98807528219E+01  0.73466457438E+01  0.23574659414E+02  0.00000000000E+00 0.  1.
<scales pt_clust_5="13000.00000" pt_clust_6="13000.00000" pt_clust_7="13000.00000" pt_clust_8="13000.00000" pt_clust_9="22.40071"></scales>
<clustering>
<clus scale="   22.401">  2  9  1 -1</clus>
<clus scale="   79.352">  5  6 -1 -1</clus>
<clus scale="   95.751">  2  5  1 -1</clus>
<clus scale="   96.747">  7  8 -1 -1</clus>
<clus scale="   22.401">  2  5  1 -1</clus>
</clustering>
</event>
<event>
 9    1  0.4731329E-005  0.1893459E+03  0.7546771E-02  0.1159814E+00
         21   -1    0    0  501  502  0.00000000000E+00  0.00000000000E+00  0.44732507409E+03  0.44732507409E+03  0.00000000000E+00 0.  1.
          1   -1    0    0  502    0 -0.00000000000E+00 -0.00000000000E+00 -0.19924677231E+03  0.19924677231E+03  0.00000000000E+00 0. -1.
        -24    2    1    2    0    0  0.79678005950E+02 -0.15108173169E+03 -0.12081915731E+02  0.18923908850E+03  0.80567894633E+02 0.  0.
         23    2    1    2    0    0 -0.19556864981E+03  0.57079982906E+02  0.19130330084E+03  0.29299090357E+03  0.87985768329E+02 0.  0.
         11    1    3    3    0    0  0.72605240427E+02 -0.11283361957E+03 -0.41526895014E+02  0.14045436858E+03  0.00000000000E+00 0. -1.
        -12    1    3    3    0    0  0.70727655225E+01 -0.38248112120E+02  0.29444979284E+02  0.48784719922E+02  0.00000000000E+00 0.  1.
        -11    1    4    4    0    0 -0.56377442852E+02  0.40684332934E+01  0.10908762620E+03  0.12286202994E+03  0.00000000000E+00 0. -1.
         11    1    4    4    0    0 -0.13919120696E+03  0.53011549612E+02  0.82215674639E+02  0.17012887363E+03  0.00000000000E+00 0.  1.
          2    1    1    2  501    0  0.11589064386E+03  0.94001748788E+02  0.68856916679E+02  0.16434185433E+03  0.00000000000E+00 0. -1.
<scales pt_clust_5="13000.00000" pt_clust_6="13000.00000" pt_clust_7="13000.00000" pt_clust_8="13000.00000" pt_clust_9="149.22121"></scales>
<clustering>
<clus scale="   80.568">  5  6 -1 -1</clus>
<clus scale="   87.986">  7  8 -1 -1</clus>
<clus scale="  149.221">  1  9  2 -1</clus>
<clus scale="  186.015">  2  5  1 -1</clus>
<clus scale="  149.221">  1  5  2 -1</clus>
</clustering>
</event>
<event>
 9    1  0.4731329E-005  0.1520978E+03  0.7546771E-02  0.1222814E+00
         21   -1    0    0  501  502  0.00000000000E+00  0.00000000000E+00  0.35842018110E+02  0.35842018110E+02  0.00000000000E+00 0.  1.
         -2   -1    0    0    0  501 -0.00000000000E+00 -0.00000000000E+00 -0.16035038003E+04  0.16035038003E+04  0.00000000000E+00 0.  1.
        -24    2    1    2    0    0  0.17218197623E+02  0.32023991072E+02 -0.94342070800E+03  0.94764768997E+03  0.81679309990E+02 0.  0.
         23    2    1    2    0    0  0.10489291975E+03 -0.68274386746E+02 -0.45674629806E+03  0.48127066777E+03  0.85675891401E+02 0.  0.
         11    1    3    3    0    0 -0.21199702210E+02  0.15488947130E+02 -0.10671804349E+03  0.10990029874E+03  0.00000000000E+00 0. -1.
        -12    1    3    3    0    0  0.38417899834E+02  0.16535043941E+02 -0.83670266451E+03  0.83774739123E+03  0.00000000000E+00 0.  1.
        -13    1    4    4    0    0  0.46680661273E+02 -0.76906749364E+02 -0.31984452779E+03  0.33225630798E+03  0.00000000000E+00 0. -1.
         13    1    4    4    0    0  0.58212258481E+02  0.86323626182E+01 -0.13690177027E+03  0.14901435979E+03  0.00000000000E+00 0.  1.
         -1    1    1    2    0  502 -0.12211111738E+03  0.36250395674E+02 -0.16749477613E+03  0.21042746067E+03  0.00000000000E+00 0.  1.
<scales pt_clust_5="13000.00000" pt_clust_6="13000.00000" pt_clust_7="13000.00000" pt_clust_8="13000.00000" pt_clust_9="125.67175"></scales>
<clustering>
<clus scale="   81.679">  5  6 -1 -1</clus>
<clus scale="   85.676">  7  8 -1 -1</clus>
<clus scale="   89.406">  2  5  1 -1</clus>
<clus scale="  125.672">  1  9  2 -1</clus>
<clus scale="  125.672">  1  5  2 -1</clus>
</clustering>
</event>
<event>
 9    1  0.4731329E-005  0.9769172E+02  0.7546771E-02  0.1290873E+00
          1   -1    0    0  502    0 -0.00000000000E+00  0.00000000000E+00  0.64884154994E+03  0.64884154994E+03  0.00000000000E+00 0. -1.
         21   -1    0    0  501  502  0.00000000000E+00 -0.00000000000E+00 -0.59899031049E+02  0.59899031049E+02  0.00000000000E+00 0.  1.
        -24    2    1    2    0    0 -0.43869900312E+02 -0.40560634355E+01  0.51215732857E+03  0.52031600075E+03  0.80514542931E+02 0.  0.
         23    2    1    2    0    0 -0.31201138168E+02 -0.45779219939E+01  0.45487413479E+02  0.10663364334E+03  0.91143626845E+02 0.  0.
         13    1    3    3    0    0 -0.49794676958E+02  0.28158089720E+01  0.15057579134E+03  0.15862064043E+03  0.00000000000E+00 0. -1.
        -14    1    3    3    0    0  0.59247766457E+01 -0.68718724075E+01  0.36158153724E+03  0.36169536032E+03  0.00000000000E+00 0.  1.
        -13    1    4    4    0    0 -0.20158398835E+02  0.14648027186E+02 -0.23450720288E+02  0.34217861214E+02  0.00000000000E+00 0.  1.
         13    1    4    4    0    0 -0.11042739333E+02 -0.19225949180E+02  0.68938133767E+02  0.72415782127E+02  0.00000000000E+00 0. -1.
          2    1    1    2  501    0  0.75071038480E+02  0.86339854294E+01  0.31297776836E+02  0.81790936892E+02  0.00000000000E+00 0. -1.
<scales pt_clust_5="13000.00000" pt_clust_6="13000.00000" pt_clust_7="13000.00000" pt_clust_8="13000.00000" pt_clust_9="75.56591"></scales>
<clustering>
<clus scale="   75.566">  2  9  1 -1</clus>
<clus scale="   80.515">  5  6 -1 -1</clus>
<clus scale="   87.858">  1  5  2 -1</clus>
<clus scale="   91.144">  7  8 -1 -1</clus>
<clus scale="   75.566">  2  5  1 -1</clus>
</clustering>
</event>
<event>
 9    1  0.4731329E-005  0.1192809E+03  0.7546771E-02  0.1250205E+00
         21   -1    0    0  501  502  0.00000000000E+00  0.00000000000E+00  0.91442584038E+03  0.91442584038E+03  0.00000000000E+00 0.  1.
          1   -1    0    0  502    0 -0.00000000000E+00 -0.00000000000E+00 -0.33425636657E+03  0.33425636657E+03  0.00000000000E+00 0. -1.
         23    2    1    2    0    0  0.67666950671E+02  0.14291649699E+02 -0.31893175824E+03  0.34052043888E+03  0.97229807255E+02 0.  0.
        -24    2    1    2    0    0 -0.58656885154E+02 -0.34918235848E+02  0.75203757093E+03  0.75938556783E+03  0.80287104671E+02 0.  0.
         13    1    4    4    0    0  0.16078202631E+01 -0.31656916059E+02  0.10881471577E+03  0.11333749507E+03  0.00000000000E+00 0. -1.
        -14    1    4    4    0    0 -0.60264705418E+02 -0.32613197886E+01  0.64322285516E+03  0.64604807277E+03  0.00000000000E+00 0.  1.
        -11    1    3    3    0    0  0.68735575498E+01  0.48030736590E+02 -0.15607060182E+03  0.16343876591E+03  0.00000000000E+00 0. -1.
         11    1    3    3    0    0  0.60793393121E+02 -0.33739086890E+02 -0.16286115642E+03  0.17708167297E+03  0.00000000000E+00 0.  1.
          2    1    1    2  501    0 -0.90100655160E+01  0.20626586148E+02  0.14706366111E+03  0.14877620024E+03  0.00000000000E+00 0. -1.
<scales pt_clust_5="13000.00000" pt_clust_6="13000.00000" pt_clust_7="13000.00000" pt_clust_8="13000.00000" pt_clust_9="22.50861"></scales>
<clustering>
<clus scale="   22.509">  1  9  2 -1</clus>
<clus scale="   80.287">  5  6 -1 -1</clus>
<clus scale="   97.230">  7  8 -1 -1</clus>
<clus scale="  105.926">  1  5  2 -1</clus>
<clus scale="   22.509">  1  5  2 -1</clus>
</clustering>
</event>
<event>
 9    1  0.4731329E-005  0.2943369E+03  0.7546771E-02  0.1132958E+00
         21   -1    0    0  501  502  0.00000000000E+00  0.00000000000E+00  0.33426040587E+03  0.33426040587E+03  0.00000000000E+00 0.  1.
         -4   -1    0    0    0  501 -0.00000000000E+00 -0.00000000000E+00 -0.58536822666E+03  0.58536822666E+03  0.00000000000E+00 0.  1.
         23    2    1    2    0    0  0.91288983877E+01 -0.29500497147E+02 -0.17518293649E+02  0.95583789095E+02  0.88745444996E+02 0.  0.
        -24    2    1    2    0    0  0.26965873492E+03  0.62174501992E+02 -0.40217605038E+03  0.49661309346E+03  0.91090543302E+02 0.  0.
         11    1    4    4    0    0  0.87549878683E+02 -0.17372766487E+02 -0.91562367832E+02  0.12786892303E+03  0.00000000000E+00 0. -1.
        -12    1    4    4    0    0  0.18210885624E+03  0.79547268478E+02 -0.31061368255E+03  0.36874417043E+03  0.00000000000E+00 0.  1.
        -11    1    3    3    0    0  0.21287547811E+02  0.19203185780E+02  0.18214763825E+02  0.33966154582E+02  0.00000000000E+00 0.  1.
         11    1    3    3    0    0 -0.12158649423E+02 -0.48703682927E+02 -0.35733057474E+02  0.61617634512E+02  0.00000000000E+00 0. -1.
         -3    1    1    2    0  502 -0.27878763331E+03 -0.32674004845E+02  0.16858652324E+03  0.32743174998E+03  0.00000000000E+00 0.  1.
<scales pt_clust_5="13000.00000" pt_clust_6="13000.00000" pt_clust_7="13000.00000" pt_clust_8="13000.00000" pt_clust_9="279.88696"></scales>
<clustering>
<clus scale="   88.745">  7  8 -1 -1</clus>
<clus scale="   91.091">  5  6 -1 -1</clus>
<clus scale="   93.965">  2  7  1 -1</clus>
<clus scale="  279.887">  1  9  2 -1</clus>
<clus scale="  279.887">  1  5  2 -1</clus>
</clustering>
</event>
<event>
 9    1  0.4731329E-005  0.9850920E+02  0.7546771E-02  0.1291714E+00
         21   -1    0    0  501  502  0.00000000000E+00  0.00000000000E+00  0.84968084570E+02  0.84968084570E+02  0.00000000000E+00 0. -1.
         -2   -1    0    0    0  501 -0.00000000000E+00 -0.00000000000E+00 -0.40233963158E+03  0.40233963158E+03  0.00000000000E+00 0.  1.
        -24    2    1    2    0    0  0.58391510995E+01  0.22676496230E+02 -0.33693256823E+03  0.34742568909E+03  0.81441603255E+02 0.  0.
         23    2    1    2    0    0 -0.95791453194E+01  0.11759741969E+01  0.43517947364E+02  0.10586934982E+03  0.96027936294E+02 0.  0.
         13    1    3    3    0    0 -0.83441264251E+01  0.49790859315E+02 -0.25535759762E+03  0.26030032036E+03  0.00000000000E+00 0. -1.
        -14    1    3    3    0    0  0.14183277525E+02 -0.27114363086E+02 -0.81574970613E+02  0.87125368736E+02  0.00000000000E+00 0.  1.
        -11    1    4    4    0    0  0.38041097228E+02  0.20195755560E+02  0.31056134017E+02  0.53098748394E+02  0.00000000000E+00 0. -1.
         11    1    4    4    0    0 -0.47620242547E+02 -0.19019781363E+02  0.12461813348E+02  0.52770601430E+02  0.00000000000E+00 0.  1.
         -1    1    1    2    0  502  0.37399942199E+01 -0.23852470427E+02 -0.23956926139E+02  0.34012677229E+02  0.00000000000E+00 0.  1.
<scales pt_clust_5="13000.00000" pt_clust_6="13000.00000" pt_clust_7="13000.00000" pt_clust_8="13000.00000" pt_clust_9="24.14391"></scales>
<clustering>
<clus scale="   24.144">  1  9  2 -1</clus>
<clus scale="   81.442">  5  6 -1 -1</clus>
<clus scale="   84.353">  2  5  1 -1</clus>
<clus scale="   96.028">  7  8 -1 -1</clus>
<clus scale="   24.144">  1  5  2 -1</clus>
</clustering>
</event>
<event>
 9    1  0.4731329E-005  0.9794198E+02  0.7546771E-02  0.1292833E+00
          1   -1    0    0  502    0 -0.00000000000E+00  0.00000000000E+00  0.19433751515E+03  0.19433751515E+03  0.00000000000E+00 0. -1.
         21   -1    0    0  501  502  0.00000000000E+00 -0.00000000000E+00 -0.21418954061E+03  0.21418954061E+03  0.00000000000E+00 0. -1.
        -24    2    1    2    0    0  0.18926464644E+02  0.14621718950E+02  0.95091329993E+02  0.12668875858E+03  0.80222657527E+02 0.  0.
         23    2    1    2    0    0 -0.36475356341E+02  0.16324983799E+02  0.49164110406E+02  0.11391890474E+03  0.94675500464E+02 0.  0.
         13    1    3    3    0    0  0.34787426784E+02  0.74723373883E+01  0.10195552980E+03  0.10798579048E+03  0.00000000000E+00 0. -1.
        -14    1    3    3    0    0 -0.15860962140E+02  0.71493815618E+01 -0.68641998064E+01  0.18702968099E+02  0.00000000000E+00 0.  1.
        -11    1    4    4    0    0  0.10140770333E+02  0.46173396929E+02  0.25579321085E+02  0.53750529989E+02  0.00000000000E+00 0. -1.
         11    1    4    4    0    0 -0.46616126674E+02 -0.29848413130E+02  0.23584789320E+02  0.60168374747E+02  0.00000000000E+00 0.  1.
          2    1    1    2  501    0  0.17548891697E+02 -0.30946702749E+02 -0.16410746585E+03  0.16791939245E+03  0.00000000000E+00 0. -1.
<scales pt_clust_5="13000.00000" pt_clust_6="13000.00000" pt_clust_7="13000.00000" pt_clust_8="13000.00000" pt_clust_9="35.57614"></scales>
<clustering>
<clus scale="   35.576">  2  9  1 -1</clus>
<clus scale="   80.223">  5  6 -1 -1</clus>
<clus scale="   84.053">  1  5  2 -1</clus>
<clus scale="   94.676">  7  8 -1 -1</clus>
<clus scale="   35.576">  2  5  1 -1</clus>
</clustering>
</event>
<event>
 9    1  0.4731329E-005  0.8963675E+02  0.7546771E-02  0.1307802E+00
          1   -1    0    0  502    0 -0.00000000000E+00  0.00000000000E+00  0.54713174028E+03  0.54713174028E+03  0.00000000000E+00 0. -1.
         21   -1    0    0  501  502  0.00000000000E+00 -0.00000000000E+00 -0.15006572263E+03  0.15006572263E+03  0.00000000000E+00 0. -1.
        -24    2    1    2    0    0  0.41758491196E+02  0.12369059289E+02  0.37355912531E+03  0.38456569784E+03  0.80296890593E+02 0.  0.
         23    2    1    2    0    0  0.30479327803E+02  0.97321428811E+01  0.14352196426E+03  0.17082068258E+03  0.86933580067E+02 0.  0.
         11    1    3    3    0    0  0.11875324507E+02  0.45311360603E+02  0.19644139369E+03  0.20194891406E+03  0.00000000000E+00 0. -1.
        -12    1    3    3    0    0  0.29883166689E+02 -0.32942301314E+02  0.17711773161E+03  0.18261678378E+03  0.00000000000E+00 0.  1.
        -11    1    4    4    0    0  0.64865539121E+01  0.47423403472E+02  0.70469555961E+02  0.85188103018E+02  0.00000000000E+00 0. -1.
         11    1    4    4    0    0  0.23992773891E+02 -0.37691260591E+02  0.73052408298E+02  0.85632579560E+02  0.00000000000E+00 0.  1.
          2    1    1    2  501    0 -0.72237818999E+02 -0.22101202170E+02 -0.12001507191E+03  0.14181108249E+03  0.00000000000E+00 0. -1.
<scales pt_clust_5="13000.00000" pt_clust_6="13000.00000" pt_clust_7="13000.00000" pt_clust_8="13000.00000" pt_clust_9="75.54314"></scales>
<clustering>
<clus scale="   75.543">  2  9  1 -1</clus>
<clus scale="   80.297">  5  6 -1 -1</clus>
<clus scale="   83.216">  1  5  2 -1</clus>
<clus scale="   86.934">  7  8 -1 -1</clus>
<clus scale="   75.543">  2  5  1 -1</clus>
</clustering>
</event>
<event>
 9    1  0.4731329E-005  0.1298564E+03  0.7546771E-02  0.1230559E+00
          1   -1    0    0  502    0 -0.00000000000E+00  0.00000000000E+00  0.51003005407E+03  0.51003005407E+03  0.00000000000E+00 0. -1.
         21   -1    0    0  501  502  0.00000000000E+00 -0.00000000000E+00 -0.51606638612E+02  0.51606638612E+02  0.00000000000E+00 0. -1.
         23    2    1    2    0    0  0.93252371723E+02  0.24317207035E+02  0.27973764683E+03  0.30973436561E+03  0.91623658463E+02 0.  0.
        -24    2    1    2    0    0 -0.69592658357E+02 -0.52012216324E+02  0.70825545486E+02  0.13805759373E+03  0.80593005579E+02 0.  0.
         13    1    4    4    0    0 -0.78954919285E+02 -0.45364238876E+02  0.81629551387E+02  0.12229136154E+03  0.00000000000E+00 0. -1.
        -14    1    4    4    0    0  0.93622609277E+01 -0.66479774478E+01 -0.10804005901E+02  0.15766232186E+02  0.00000000000E+00 0.  1.
        -11    1    3    3    0    0  0.81645807861E+02  0.53024007115E+02  0.24245543982E+03  0.26127040316E+03  0.00000000000E+00 0. -1.
         11    1    3    3    0    0  0.11606563862E+02 -0.28706800080E+02  0.37282207017E+02  0.48463962442E+02  0.00000000000E+00 0.  1.
          2    1    1    2  501    0 -0.23659713366E+02  0.27695009289E+02  0.10786022314E+03  0.11384473335E+03  0.00000000000E+00 0. -1.
<scales pt_clust_5="13000.00000" pt_clust_6="13000.00000" pt_clust_7="13000.00000" pt_clust_8="13000.00000" pt_clust_9="36.42522"></scales>
<clustering>
<clus scale="   36.425">  2  9  1 -1</clus>
<clus scale="   80.593">  5  6 -1 -1</clus>
<clus scale="   91.624">  7  8 -1 -1</clus>
<clus scale="  122.323">  2  5  1 -1</clus>
<clus scale="   36.425">  2  5  1 -1</clus>
</clustering>
</event>
<event>
 9    1  0.4731329E-005  0.2355349E+03  0.7546771E-02  0.1122993E+00
          3   -1    0    0  502    0 -0.00000000000E+00  0.00000000000E+00  0.10272875504E+04  0.10272875504E+04  0.00000000000E+00 0. -1.
         21   -1    0    0  501  502  0.00000000000E+00 -0.00000000000E+00 -0.82880819069E+02  0.82880819069E+02  0.00000000000E+00 0. -1.
        -24    2    1    2    0    0 -0.17897534076E+03  0.75126948090E+02  0.41959021459E+03  0.46958508558E+03  0.82328448820E+02 0.  0.
         23    2    1    2    0    0  0.22273307046E+03 -0.13188429642E+03  0.49248169449E+03  0.56195964732E+03  0.79100805900E+02 0.  0.
         13    1    3    3    0    0 -0.15037478994E+03  0.41839217269E+02  0.25268538490E+03  0.29700673611E+03  0.00000000000E+00 0. -1.
        -14    1    3    3    0    0 -0.28600550817E+02  0.33287730821E+02  0.16690482969E+03  0.17257834947E+03  0.00000000000E+00 0.  1.
        -11    1    4    4    0    0  0.92759715988E+02 -0.87478740421E+02  0.29536361766E+03  0.32170881488E+03  0.00000000000E+00 0.  1.
         11    1    4    4    0    0  0.12997335447E+03 -0.44405556003E+02  0.19711807683E+03  0.24025083244E+03  0.00000000000E+00 0. -1.
          4    1    1    2  501    0 -0.43757729694E+02  0.56757348333E+02  0.32334822251E+02  0.78623636572E+02  0.00000000000E+00 0. -1.
<scales pt_clust_5="13000.00000" pt_clust_6="13000.00000" pt_clust_7="13000.00000" pt_clust_8="13000.00000" pt_clust_9="71.66684"></scales>
<clustering>
<clus scale="   71.667">  2  9  1 -1</clus>
<clus scale="   79.101">  7  8 -1 -1</clus>
<clus scale="   82.328">  5  6 -1 -1</clus>
<clus scale="  234.426">  2  7  1 -1</clus>
<clus scale="   71.667">  2  5  1 -1</clus>
</clustering>
</event>
<event>
 9    1  0.4731329E-005  0.2249690E+03  0.7546771E-02  0.1163831E+00
          1   -1    0    0  502    0 -0.00000000000E+00  0.00000000000E+00  0.55793465737E+03  0.55793465737E+03  0.00000000000E+00 0. -1.
         21   -1    0    0  501  502  0.00000000000E+00 -0.00000000000E+00 -0.17017845337E+03  0.17017845337E+03  0.00000000000E+00 0. -1.
         23    2    1    2    0    0  0.14930845577E+02  0.22749842055E+02  0.10125163900E+02  0.10153976602E+03  0.97300152499E+02 0.  0.
        -24    2    1    2    0    0 -0.21093448172E+03 -0.77399827449E+02  0.34521688610E+03  0.42052790395E+03  0.84763970403E+02 0.  0.
         11    1    4    4    0    0 -0.58004584915E+02 -0.13551862938E+02  0.16632885039E+03  0.17667334641E+03  0.00000000000E+00 0. -1.
        -12    1    4    4    0    0 -0.15292989681E+03 -0.63847964510E+02  0.17888803572E+03  0.24385455754E+03  0.00000000000E+00 0.  1.
        -11    1    3    3    0    0 -0.23164972288E+02 -0.12509090580E+02 -0.27008416597E+02  0.37716678741E+02  0.00000000000E+00 0. -1.
         11    1    3    3    0    0  0.38095817865E+02  0.35258932635E+02  0.37133580496E+02  0.63823087279E+02  0.00000000000E+00 0.  1.
          2    1    1    2  501    0  0.19600363614E+03  0.54649985393E+02  0.32414153999E+02  0.20604544078E+03  0.00000000000E+00 0. -1.
<scales pt_clust_5="13000.00000" pt_clust_6="13000.00000" pt_clust_7="13000.00000" pt_clust_8="13000.00000" pt_clust_9="208.38935"></scales>
<clustering>
<clus scale="   84.764">  5  6 -1 -1</clus>
<clus scale="   97.300">  7  8 -1 -1</clus>
<clus scale="  101.034">  1  7  2 -1</clus>
<clus scale="  208.389">  2  9  1 -1</clus>
<clus scale="  208.389">  2  5  1 -1</clus>
</clustering>
</event>
<event>
 9    1  0.4731329E-005  0.1170681E+03  0.7546771E-02  0.1252250E+00
          1   -1    0    0  502    0 -0.00000000000E+00  0.00000000000E+00  0.31675044044E+02  0.31675044044E+02  0.00000000000E+00 0. -1.
         21   -1    0    0  501  502  0.00000000000E+00 -0.00000000000E+00 -0.89393114533E+03  0.89393114533E+03  0.00000000000E+00 0.  1.
         23    2    1    2    0    0  0.12993106606E+02  0.70661199220E+02 -0.13076998030E+03  0.17589908302E+03  0.93155105961E+02 0.  0.
        -24    2    1    2    0    0  0.17889829493E+02 -0.69860303739E+02 -0.68730455195E+03  0.69579599230E+03  0.80895041443E+02 0.  0.
         11    1    4    4    0    0 -0.34119464135E+01 -0.54376463799E+02 -0.18639303019E+03  0.19419269527E+03  0.00000000000E+00 0. -1.
        -12    1    4    4    0    0  0.21301775907E+02 -0.15483839940E+02 -0.50091152176E+03  0.50160329703E+03  0.00000000000E+00 0.  1.
        -11    1    3    3    0    0 -0.31225889390E+01  0.34897021787E+02 -0.13208176337E+03  0.13664971608E+03  0.00000000000E+00 0.  1.
         11    1    3    3    0    0  0.16115695545E+02  0.35764177432E+02  0.13117830697E+01  0.39249366940E+02  0.00000000000E+00 0. -1.
          2    1    1    2  501    0 -0.30882936100E+02 -0.80089548042E+00 -0.44181569035E+02  0.53911114050E+02  0.00000000000E+00 0. -1.
<scales pt_clust_5="13000.00000" pt_clust_6="13000.00000" pt_clust_7="13000.00000" pt_clust_8="13000.00000" pt_clust_9="30.89333"></scales>
<clustering>
<clus scale="   30.893">  2  9  1 -1</clus>
<clus scale="   80.895">  5  6 -1 -1</clus>
<clus scale="   93.155">  7  8 -1 -1</clus>
<clus scale="  107.569">  2  5  1 -1</clus>
<clus scale="   30.893">  2  5  1 -1</clus>
</clustering>
</event>
<event>
 9    1  0.4731329E-005  0.1228573E+03  0.7546771E-02  0.1256232E+00
          1   -1    0    0  502    0 -0.00000000000E+00  0.00000000000E+00  0.54275397835E+03  0.54275397835E+03  0.00000000000E+00 0. -1.
         21   -1    0    0  501  502  0.00000000000E+00 -0.00000000000E+00 -0.49136853604E+02  0.49136853604E+02  0.00000000000E+00 0. -1.
        -24    2    1    2    0    0 -0.31147134950E+02 -0.52353498169E+01  0.24487775560E+03  0.26000119384E+03  0.81473631991E+02 0.  0.
         23    2    1    2    0    0  0.20992580519E+02 -0.15199970658E+02  0.27260703172E+03  0.29886869605E+03  0.11973377213E+03 0.  0.
         11    1    3    3    0    0 -0.15017050091E+01 -0.36463767772E+02  0.60437022822E+02  0.70600957541E+02  0.00000000000E+00 0. -1.
        -12    1    3    3    0    0 -0.29645429940E+02  0.31228417955E+02  0.18444073277E+03  0.18940023630E+03  0.00000000000E+00 0.  1.
        -11    1    4    4    0    0  0.67787734317E+02 -0.19695802938E+02  0.12041040357E+03  0.13957710007E+03  0.00000000000E+00 0.  1.
         11    1    4    4    0    0 -0.46795153798E+02  0.44958322799E+01  0.15219662815E+03  0.15929159598E+03  0.00000000000E+00 0. -1.
          2    1    1    2  501    0  0.10154554430E+02  0.20435320475E+02 -0.23867662569E+02  0.33020942068E+02  0.00000000000E+00 0. -1.
<scales pt_clust_5="13000.00000" pt_clust_6="13000.00000" pt_clust_7="13000.00000" pt_clust_8="13000.00000" pt_clust_9="22.81923"></scales>
<clustering>
<clus scale="   22.819">  2  9  1 -1</clus>
<clus scale="   81.474">  5  6 -1 -1</clus>
<clus scale="   85.998">  1  5  2 -1</clus>
<clus scale="  119.734">  7  8 -1 -1</clus>
<clus scale="   22.819">  2  5  1 -1</clus>
</clustering>
</event>
<event>
 9    1  0.4731329E-005  0.1037923E+03  0.7546771E-02  0.1279275E+00
          1   -1    0    0  502    0 -0.00000000000E+00  0.00000000000E+00  0.20698179318E+03  0.20698179318E+03  0.00000000000E+00 0. -1.
         21   -1    0    0  501  502  0.00000000000E+00 -0.00000000000E+00 -0.68373261933E+02  0.68373261933E+02  0.00000000000E+00 0. -1.
        -24    2    1    2    0    0  0.39920013176E+02  0.25766373273E+02  0.91796572636E+02  0.13168081095E+03  0.81582545815E+02 0.  0.
         23    2    1    2    0    0 -0.26767402484E+02 -0.49491919853E+01  0.10528161199E+02  0.99823814751E+02  0.95461843038E+02 0.  0.
         11    1    3    3    0    0  0.55333801748E+02 -0.13893007373E+01  0.82041018718E+02  0.98967108298E+02  0.00000000000E+00 0. -1.
        -12    1    3    3    0    0 -0.15413788572E+02  0.27155674011E+02  0.97555539172E+01  0.32713702654E+02  0.00000000000E+00 0.  1.
        -11    1    4    4    0    0 -0.61944077873E+02  0.39584454457E+01  0.10863570764E+00  0.62070523404E+02  0.00000000000E+00 0. -1.
         11    1    4    4    0    0  0.35176675390E+02 -0.89076374310E+01  0.10419525492E+02  0.37753291347E+02  0.00000000000E+00 0.  1.
          2    1    1    2  501    0 -0.13152610692E+02 -0.20817181288E+02  0.36283797416E+02  0.43850429413E+02  0.00000000000E+00 0. -1.
<scales pt_clust_5="13000.00000" pt_clust_6="13000.00000" pt_clust_7="13000.00000" pt_clust_8="13000.00000" pt_clust_9="24.62411"></scales>
<clustering>
<clus scale="   24.624">  2  9  1 -1</clus>
<clus scale="   81.583">  5  6 -1 -1</clus>
<clus scale="   91.190">  1  5  2 -1</clus>
<clus scale="   95.462">  7  8 -1 -1</clus>
<clus scale="   24.624">  2  5  1 -1</clus>
</clustering>
</event>
<event>
 9    1  0.4731329E-005  0.2383209E+03  0.7546771E-02  0.1156503E+00
          1   -1    0    0  502    0 -0.00000000000E+00  0.00000000000E+00  0.56257843730E+03  0.56257843730E+03  0.00000000000E+00 0. -1.
         21   -1    0    0  501  502  0.00000000000E+00 -0.00000000000E+00 -0.16873480347E+03  0.16873480347E+03  0.00000000000E+00 0. -1.
         23    2    1    2    0    0  0.21709966926E+02 -0.36321926932E+02  0.20196574828E+03  0.22571827609E+03  0.91476618006E+02 0.  0.
        -24    2    1    2    0    0 -0.56276770674E+02  0.24088685313E+03  0.11497827651E+03  0.28433669292E+03  0.80210971472E+02 0.  0.
         11    1    4    4    0    0 -0.56333283151E+02  0.18072163811E+03  0.50018030042E+02  0.19579466949E+03  0.00000000000E+00 0. -1.
        -12    1    4    4    0    0  0.56512476935E-01  0.60165215020E+02  0.64960246471E+02  0.88542023434E+02  0.00000000000E+00 0.  1.
        -13    1    3    3    0    0 -0.25279522363E+02  0.93997233731E+01  0.24157274592E+02  0.36207498755E+02  0.00000000000E+00 0.  1.
         13    1    3    3    0    0  0.46989489289E+02 -0.45721650305E+02  0.17780847369E+03  0.18951077733E+03  0.00000000000E+00 0. -1.
          2    1    1    2  501    0  0.34566803748E+02 -0.20456492619E+03  0.76899609036E+02  0.22125827176E+03  0.00000000000E+00 0. -1.
<scales pt_clust_5="13000.00000" pt_clust_6="13000.00000" pt_clust_7="13000.00000" pt_clust_8="13000.00000" pt_clust_9="224.41716"></scales>
<clustering>
<clus scale="   80.211">  5  6 -1 -1</clus>
<clus scale="   91.477">  7  8 -1 -1</clus>
<clus scale="  100.790">  1  7  2 -1</clus>
<clus scale="  224.417">  2  9  1 -1</clus>
<clus scale="  224.417">  2  5  1 -1</clus>
</clustering>
</event>
<event>
 9    1  0.4731329E-005  0.8803246E+02  0.7546771E-02  0.1312569E+00
          1   -1    0    0  502    0 -0.00000000000E+00  0.00000000000E+00  0.59744013205E+02  0.59744013205E+02  0.00000000000E+00 0. -1.
         21   -1    0    0  501  502  0.00000000000E+00 -0.00000000000E+00 -0.51483021002E+03  0.51483021002E+03  0.00000000000E+00 0. -1.
         23    2    1    2    0    0 -0.18700597219E+02  0.15962078589E+02 -0.45961137714E+00  0.90263196297E+02  0.86848909457E+02 0.  0.
        -24    2    1    2    0    0 -0.66744387313E+01  0.44237085845E+02 -0.17621486891E+03  0.19833739921E+03  0.79275317758E+02 0.  0.
         13    1    4    4    0    0 -0.33724285694E+01  0.59146667808E+02 -0.73072439828E+02  0.94070627986E+02  0.00000000000E+00 0. -1.
        -14    1    4    4    0    0 -0.33020101618E+01 -0.14909581964E+02 -0.10314242908E+03  0.10426677123E+03  0.00000000000E+00 0.  1.
        -11    1    3    3    0    0 -0.39340089284E+02  0.29945760272E+02  0.24332268611E+02  0.55103996941E+02  0.00000000000E+00 0. -1.
         11    1    3    3    0    0  0.20639492065E+02 -0.13983681682E+02 -0.24791879988E+02  0.35159199357E+02  0.00000000000E+00 0.  1.
          2    1    1    2  501    0  0.25375035950E+02 -0.60199164434E+02 -0.27841171653E+03  0.28597362772E+03  0.00000000000E+00 0. -1.
<scales pt_clust_5="13000.00000" pt_clust_6="13000.00000" pt_clust_7="13000.00000" pt_clust_8="13000.00000" pt_clust_9="65.32864"></scales>
<clustering>
<clus scale="   65.329">  2  9  1 -1</clus>
<clus scale="   79.275">  5  6 -1 -1</clus>
<clus scale="   80.570">  2  5  1 -1</clus>
<clus scale="   86.849">  7  8 -1 -1</clus>
<clus scale="   65.329">  2  5  1 -1</clus>
</clustering>
</event>
<event>
 9    1  0.4731329E-005  0.1002092E+03  0.7546771E-02  0.1284246E+00
          1   -1    0    0  502    0 -0.00000000000E+00  0.00000000000E+00  0.65641584841E+03  0.65641584841E+03  0.00000000000E+00 0. -1.
         21   -1    0    0  501  502  0.00000000000E+00 -0.00000000000E+00 -0.51633284042E+02  0.51633284042E+02  0.00000000000E+00 0. -1.
        -24    2    1    2    0    0 -0.45776917638E+02 -0.21635950279E+02  0.35969084766E+03  0.37190743646E+03  0.79837302518E+02 0.  0.
         23    2    1    2    0    0 -0.17560894635E+02  0.74875688138E+02  0.22037342852E+03  0.24978695135E+03  0.88962460453E+02 0.  0.
         13    1    3    3    0    0 -0.45434266859E+02 -0.48517170061E+02  0.28087326873E+03  0.28863122057E+03  0.00000000000E+00 0. -1.
        -14    1    3    3    0    0 -0.34265077912E+00  0.26881219782E+02  0.78817578927E+02  0.83276215899E+02  0.00000000000E+00 0.  1.
        -13    1    4    4    0    0 -0.50562915555E+02  0.58580855551E+02  0.17511941741E+03  0.19145530920E+03  0.00000000000E+00 0. -1.
         13    1    4    4    0    0  0.33002020920E+02  0.16294832587E+02  0.45254011111E+02  0.58331642146E+02  0.00000000000E+00 0.  1.
          2    1    1    2  501    0  0.63337812273E+02 -0.53239737859E+02  0.24718288182E+02  0.86354744638E+02  0.00000000000E+00 0. -1.
<scales pt_clust_5="13000.00000" pt_clust_6="13000.00000" pt_clust_7="13000.00000" pt_clust_8="13000.00000" pt_clust_9="82.74145"></scales>
<clustering>
<clus scale="   79.837">  5  6 -1 -1</clus>
<clus scale="   82.741">  2  9  1 -1</clus>
<clus scale="   88.962">  7  8 -1 -1</clus>
<clus scale="   92.204">  1  5  2 -1</clus>
<clus scale="   82.741">  2  5  1 -1</clus>
</clustering>
</event>
<event>
 9    1  0.4731329E-005  0.9787061E+02  0.7546771E-02  0.1289605E+00
         21   -1    0    0  501  502  0.00000000000E+00  0.00000000000E+00  0.65043763385E+02  0.65043763385E+02  0.00000000000E+00 0.  1.
          1   -1    0    0  502    0 -0.00000000000E+00 -0.00000000000E+00 -0.19311176821E+03  0.19311176821E+03  0.00000000000E+00 0. -1.
        -24    2    1    2    0    0  0.10857528842E+02  0.42077442604E+02 -0.66769465655E+02  0.11364143795E+03  0.81042074060E+02 0.  0.
         23    2    1    2    0    0 -0.33442926376E+02 -0.18204729973E+02 -0.43734815994E+02  0.10725163315E+03  0.90223817062E+02 0.  0.
         11    1    3    3    0    0  0.22697236644E+01  0.52957807252E+02 -0.79013895604E+02  0.95146606313E+02  0.00000000000E+00 0. -1.
        -12    1    3    3    0    0  0.85878051775E+01 -0.10880364648E+02  0.12244429949E+02  0.18494831641E+02  0.00000000000E+00 0.  1.
        -13    1    4    4    0    0 -0.47483181352E+02 -0.42226112491E+02 -0.47280219286E+02  0.79203006403E+02  0.00000000000E+00 0. -1.
         13    1    4    4    0    0  0.14040254976E+02  0.24021382518E+02  0.35454032923E+01  0.28048626747E+02  0.00000000000E+00 0.  1.
          2    1    1    2  501    0  0.22585397534E+02 -0.23872712631E+02 -0.17563723178E+02  0.37262460493E+02  0.00000000000E+00 0. -1.
<scales pt_clust_5="13000.00000" pt_clust_6="13000.00000" pt_clust_7="13000.00000" pt_clust_8="13000.00000" pt_clust_9="32.86345"></scales>
<clustering>
<clus scale="   32.863">  1  9  2 -1</clus>
<clus scale="   81.042">  5  6 -1 -1</clus>
<clus scale="   89.477">  2  5  1 -1</clus>
<clus scale="   90.224">  7  8 -1 -1</clus>
<clus scale="   32.863">  1  5  2 -1</clus>
</clustering>
</event>
<event>
 9    1  0.4731329E-005  0.1227887E+03  0.7546771E-02  0.1242689E+00
         21   -1    0    0  501  502  0.00000000000E+00  0.00000000000E+00  0.32473352544E+03  0.32473352544E+03  0.00000000000E+00 0.  1.
          3   -1    0    0  502    0 -0.00000000000E+00 -0.00000000000E+00 -0.14804275534E+03  0.14804275534E+03  0.00000000000E+00 0. -1.
         23    2    1    2    0    0  0.83454430380E+02  0.31779440841E+01 -0.10302651466E+03  0.16144597956E+03  0.92063023596E+02 0.  0.
        -24    2    1    2    0    0 -0.59802773733E+02 -0.15720050559E+02  0.25864428635E+03  0.27726013011E+03  0.78439920648E+02 0.  0.
         11    1    4    4    0    0 -0.13462666846E+01  0.24830427285E+02  0.37858556960E+02  0.45294954335E+02  0.00000000000E+00 0. -1.
        -12    1    4    4    0    0 -0.58456507048E+02 -0.40550477845E+02  0.22078572939E+03  0.23196517578E+03  0.00000000000E+00 0.  1.
        -13    1    3    3    0    0  0.81447139614E+02 -0.33002524645E+02 -0.68892402711E+02  0.11166452586E+03  0.00000000000E+00 0.  1.
         13    1    3    3    0    0  0.20072907665E+01  0.36180468729E+02 -0.34134111951E+02  0.49781453699E+02  0.00000000000E+00 0. -1.
          4    1    1    2  501    0 -0.23651656647E+02  0.12542106475E+02  0.21072998420E+02  0.34070171109E+02  0.00000000000E+00 0. -1.
<scales pt_clust_5="13000.00000" pt_clust_6="13000.00000" pt_clust_7="13000.00000" pt_clust_8="13000.00000" pt_clust_9="26.77135"></scales>
<clustering>
<clus scale="   26.771">  1  9  2 -1</clus>
<clus scale="   78.440">  5  6 -1 -1</clus>
<clus scale="   92.063">  7  8 -1 -1</clus>
<clus scale="  112.935">  1  5  2 -1</clus>
<clus scale="   26.771">  1  5  2 -1</clus>
</clustering>
</event>
<event>
 9    1  0.4731329E-005  0.1203356E+03  0.7546771E-02  0.1247230E+00
          1   -1    0    0  502    0 -0.00000000000E+00  0.00000000000E+00  0.16838462873E+03  0.16838462873E+03  0.00000000000E+00 0. -1.
         21   -1    0    0  501  502  0.00000000000E+00 -0.00000000000E+00 -0.14677085985E+03  0.14677085985E+03  0.00000000000E+00 0.  1.
         23    2    1    2    0    0  0.38778822794E+02  0.74136024522E+02  0.95488298174E+02  0.15707700693E+03  0.92494452752E+02 0.  0.
        -24    2    1    2    0    0 -0.22635145804E+02 -0.49196053358E+02 -0.83992285852E+02  0.12669393981E+03  0.77872002730E+02 0.  0.
         11    1    4    4    0    0 -0.46087896518E+02 -0.26772860336E+02 -0.23925532973E+02  0.58423551621E+02  0.00000000000E+00 0. -1.
        -12    1    4    4    0    0  0.23452750714E+02 -0.22423193022E+02 -0.60066752879E+02  0.68270388184E+02  0.00000000000E+00 0.  1.
        -13    1    3    3    0    0  0.63463695663E+02  0.74512125196E+02  0.87052126968E+02  0.13098767224E+03  0.00000000000E+00 0.  1.
         13    1    3    3    0    0 -0.24684872869E+02 -0.37610067418E+00  0.84361712062E+01  0.26089334696E+02  0.00000000000E+00 0. -1.
          2    1    1    2  501    0 -0.16143676990E+02 -0.24939971164E+02  0.10117756556E+02  0.31384541834E+02  0.00000000000E+00 0. -1.
<scales pt_clust_5="13000.00000" pt_clust_6="13000.00000" pt_clust_7="13000.00000" pt_clust_8="13000.00000" pt_clust_9="29.70894"></scales>
<clustering>
<clus scale="   29.709">  2  9  1 -1</clus>
<clus scale="   77.872">  5  6 -1 -1</clus>
<clus scale="   92.494">  7  8 -1 -1</clus>
<clus scale="  109.496">  2  5  1 -1</clus>
<clus scale="   29.709">  2  5  1 -1</clus>
</clustering>
</event>
<event>
 9    1  0.4731329E-005  0.2800567E+03  0.7546771E-02  0.1117055E+00
         21   -1    0    0  501  502  0.00000000000E+00  0.00000000000E+00  0.10622727788E+03  0.10622727788E+03  0.00000000000E+00 0. -1.
          1   -1    0    0  502    0 -0.00000000000E+00 -0.00000000000E+00 -0.12601956806E+04  0.12601956806E+04  0.00000000000E+00 0. -1.
        -24    2    1    2    0    0 -0.94505991181E+02  0.10423573838E+03 -0.34138509489E+03  0.37777836546E+03  0.79851354873E+02 0.  0.
         23    2    1    2    0    0  0.17559503931E+03  0.17979431331E+03 -0.40373510597E+03  0.48425847489E+03  0.91348901342E+02 0.  0.
         11    1    3    3    0    0 -0.10001241952E+03  0.10128428616E+03 -0.26218272156E+03  0.29832996860E+03  0.00000000000E+00 0. -1.
        -12    1    3    3    0    0  0.55064283356E+01  0.29514522201E+01 -0.79202373324E+02  0.79448396858E+02  0.00000000000E+00 0.  1.
        -13    1    4    4    0    0  0.92289427310E+02  0.91555922490E+02 -0.29059306765E+03  0.31834596951E+03  0.00000000000E+00 0.  1.
         13    1    4    4    0    0  0.83305612001E+02  0.88238390823E+02 -0.11314203833E+03  0.16591250538E+03  0.00000000000E+00 0. -1.
          2    1    1    2  501    0 -0.81089048130E+02 -0.28403005170E+03 -0.40884820188E+03  0.50438611814E+03  0.00000000000E+00 0. -1.
<scales pt_clust_5="13000.00000" pt_clust_6="13000.00000" pt_clust_7="13000.00000" pt_clust_8="13000.00000" pt_clust_9="264.73988"></scales>
<clustering>
<clus scale="   79.851">  5  6 -1 -1</clus>
<clus scale="   91.349">  7  8 -1 -1</clus>
<clus scale="  161.780">  2  5  1 -1</clus>
<clus scale="  264.740">  1  9  2 -1</clus>
<clus scale="  264.740">  1  5  2 -1</clus>
</clustering>
</event>
<event>
 9    1  0.4731329E-005  0.1099670E+03  0.7546771E-02  0.1268855E+00
          1   -1    0    0  502    0 -0.00000000000E+00  0.00000000000E+00  0.49003981978E+03  0.49003981978E+03  0.00000000000E+00 0. -1.
         21   -1    0    0  501  502  0.00000000000E+00 -0.00000000000E+00 -0.31254898381E+02  0.31254898381E+02  0.00000000000E+00 0.  1.
         23    2    1    2    0    0  0.89442154188E+01 -0.57837254812E+02  0.19607157532E+03  0.22814498671E+03  0.10090057124E+03 0.  0.
        -24    2    1    2    0    0 -0.36281046235E+01  0.30765225794E+02  0.12763311950E+03  0.15528086839E+03  0.82838835307E+02 0.  0.
         11    1    4    4    0    0 -0.23560880527E+02  0.48928858948E+02  0.52824309471E+02  0.75759857446E+02  0.00000000000E+00 0. -1.
        -12    1    4    4    0    0  0.19932775904E+02 -0.18163633153E+02  0.74808810027E+02  0.79521010948E+02  0.00000000000E+00 0.  1.
        -11    1    3    3    0    0 -0.42695794289E+01 -0.84847124885E+02  0.16024968827E+03  0.18137592591E+03  0.00000000000E+00 0. -1.
         11    1    3    3    0    0  0.13213794848E+02  0.27009870073E+02  0.35821887057E+02  0.46769060799E+02  0.00000000000E+00 0.  1.
          2    1    1    2  501    0 -0.53161107953E+01  0.27072029018E+02  0.13508022657E+03  0.13786886306E+03  0.00000000000E+00 0. -1.
<scales pt_clust_5="13000.00000" pt_clust_6="13000.00000" pt_clust_7="13000.00000" pt_clust_8="13000.00000" pt_clust_9="27.58907"></scales>
<clustering>
<clus scale="   27.589">  2  9  1 -1</clus>
<clus scale="   82.839">  5  6 -1 -1</clus>
<clus scale="   93.670">  2  5  1 -1</clus>
<clus scale="  100.901">  7  8 -1 -1</clus>
<clus scale="   27.589">  2  5  1 -1</clus>
</clustering>
</event>
<event>
 9    1  0.4731329E-005  0.1246539E+03  0.7546771E-02  0.1238161E+00
         -2   -1    0    0    0  501 -0.00000000000E+00  0.00000000000E+00  0.26008244266E+03  0.26008244266E+03  0.00000000000E+00 0.  1.
         21   -1    0    0  501  502  0.00000000000E+00 -0.00000000000E+00 -0.23266813393E+03  0.23266813393E+03  0.00000000000E+00 0. -1.
        -24    2    1    2    0    0 -0.54853284341E+02  0.54324149649E+02  0.96157036336E+02  0.14729707891E+03  0.80562136143E+02 0.  0.
         23    2    1    2    0    0 -0.73722137169E+01 -0.13024402280E+03  0.71996623442E+02  0.17386269175E+03  0.89592783121E+02 0.  0.
         11    1    3    3    0    0 -0.59277298468E+02  0.10953616820E+02  0.28182010628E+02  0.66543260801E+02  0.00000000000E+00 0. -1.
        -12    1    3    3    0    0  0.44240141266E+01  0.43370532828E+02  0.67975025708E+02  0.80753818106E+02  0.00000000000E+00 0.  1.
        -11    1    4    4    0    0  0.27416542192E+02 -0.79232527723E+02  0.74368882209E+02  0.11207225739E+03  0.00000000000E+00 0.  1.
         11    1    4    4    0    0 -0.34788755909E+02 -0.51011495074E+02 -0.23722587675E+01  0.61790434365E+02  0.00000000000E+00 0. -1.
         -1    1    1    2    0  502  0.62225498058E+02  0.75919873148E+02 -0.14073935105E+03  0.17159080593E+03  0.00000000000E+00 0.  1.
<scales pt_clust_5="13000.00000" pt_clust_6="13000.00000" pt_clust_7="13000.00000" pt_clust_8="13000.00000" pt_clust_9="98.16231"></scales>
<clustering>
<clus scale="   80.562">  5  6 -1 -1</clus>
<clus scale="   89.593">  7  8 -1 -1</clus>
<clus scale="   98.162">  2  9  1 -1</clus>
<clus scale="  118.330">  1  5  2 -1</clus>
<clus scale="   98.162">  2  5  1 -1</clus>
</clustering>
</event>
<event>
 9    1  0.4731329E-005  0.1416501E+03  0.7546771E-02  0.1236205E+00
          3   -1    0    0  502    0 -0.00000000000E+00  0.00000000000E+00  0.30235752151E+03  0.30235752151E+03  0.00000000000E+00 0. -1.
         21   -1    0    0  501  502  0.00000000000E+00 -0.00000000000E+00 -0.13157324476E+03  0.13157324476E+03  0.00000000000E+00 0. -1.
        -24    2    1    2    0    0  0.23517114450E+02 -0.49466735690E+01  0.22314123380E+01  0.83956870188E+02  0.80413012624E+02 0.  0.
         23    2    1    2    0    0  0.66015337797E+02 -0.45838114896E+02  0.20387973271E+03  0.24114769350E+03  0.10062855991E+03 0.  0.
         13    1    3    3    0    0  0.53002228182E+02  0.32553533757E+01 -0.15153113150E+01  0.53123720561E+02  0.00000000000E+00 0. -1.
        -14    1    3    3    0    0 -0.29485113732E+02 -0.82020269447E+01  0.37467236530E+01  0.30833149627E+02  0.00000000000E+00 0.  1.
        -13    1    4    4    0    0  0.37017731938E+02  0.12972688421E+02  0.16370486122E+02  0.42504069671E+02  0.00000000000E+00 0. -1.
         13    1    4    4    0    0  0.28997605858E+02 -0.58810803317E+02  0.18750924659E+03  0.19864362383E+03  0.00000000000E+00 0.  1.
          4    1    1    2  501    0 -0.89532452247E+02  0.50784788465E+02 -0.35326868299E+02  0.10882620258E+03  0.00000000000E+00 0. -1.
<scales pt_clust_5="13000.00000" pt_clust_6="13000.00000" pt_clust_7="13000.00000" pt_clust_8="13000.00000" pt_clust_9="99.69269"></scales>
<clustering>
<clus scale="   80.413">  5  6 -1 -1</clus>
<clus scale="   83.927">  1  5  2 -1</clus>
<clus scale="   99.693">  2  9  1 -1</clus>
<clus scale="  100.629">  7  8 -1 -1</clus>
<clus scale="   99.693">  2  5  1 -1</clus>
</clustering>
</event>
<event>
 9    1  0.4731329E-005  0.8012791E+02  0.7546771E-02  0.1331546E+00
          1   -1    0    0  502    0 -0.00000000000E+00  0.00000000000E+00  0.45654204650E+03  0.45654204650E+03  0.00000000000E+00 0. -1.
         21   -1    0    0  501  502  0.00000000000E+00 -0.00000000000E+00 -0.68954535623E+02  0.68954535623E+02  0.00000000000E+00 0. -1.
         23    2    1    2    0    0 -0.53405113569E+01  0.62650494703E+01  0.40812693926E+03  0.41514822334E+03  0.75582252479E+02 0.  0.
        -24    2    1    2    0    0  0.20319210778E+02 -0.19520165272E+02 -0.41423718863E+01  0.84484813138E+02  0.79540035374E+02 0.  0.
         11    1    4    4    0    0 -0.11168966019E+02 -0.41751604212E+02  0.82425582603E+01  0.43998659331E+02  0.00000000000E+00 0. -1.
        -12    1    4    4    0    0  0.31488176797E+02  0.22231438940E+02 -0.12384930147E+02  0.40486153807E+02  0.00000000000E+00 0.  1.
        -11    1    3    3    0    0 -0.34700491727E+02  0.23390135306E+02  0.21042722775E+03  0.21454799168E+03  0.00000000000E+00 0.  1.
         11    1    3    3    0    0  0.29359980371E+02 -0.17125085836E+02  0.19769971151E+03  0.20060023166E+03  0.00000000000E+00 0. -1.
          2    1    1    2  501    0 -0.14978699421E+02  0.13255115802E+02 -0.16397056498E+02  0.25863545640E+02  0.00000000000E+00 0. -1.
<scales pt_clust_5="13000.00000" pt_clust_6="13000.00000" pt_clust_7="13000.00000" pt_clust_8="13000.00000" pt_clust_9="20.00149"></scales>
<clustering>
<clus scale="   20.001">  2  9  1 -1</clus>
<clus scale="   75.582">  7  8 -1 -1</clus>
<clus scale="   76.201">  1  7  2 -1</clus>
<clus scale="   79.540">  5  6 -1 -1</clus>
<clus scale="   20.001">  2  5  1 -1</clus>
</clustering>
</event>
<event>
 9    1  0.4731329E-005  0.1064783E+03  0.7546771E-02  0.1271277E+00
         21   -1    0    0  501  502  0.00000000000E+00  0.00000000000E+00  0.25643882691E+03  0.25643882691E+03  0.00000000000E+00 0.  1.
          3   -1    0    0  502    0 -0.00000000000E+00 -0.00000000000E+00 -0.14552084616E+03  0.14552084616E+03  0.00000000000E+00 0. -1.
         23    2    1    2    0    0 -0.35931387107E+02 -0.48975431755E+02 -0.99033626313E+02  0.14678325983E+03  0.89710694626E+02 0.  0.
        -24    2    1    2    0    0  0.35737258253E+02  0.27522120230E+02  0.75180552619E+02  0.11870839729E+03  0.80030927555E+02 0.  0.
         11    1    4    4    0    0  0.49614977571E+02  0.14537515244E+02  0.12473107578E+02  0.53184243545E+02  0.00000000000E+00 0. -1.
        -12    1    4    4    0    0 -0.13877719318E+02  0.12984604987E+02  0.62707445042E+02  0.65524153743E+02  0.00000000000E+00 0.  1.
        -13    1    3    3    0    0 -0.35268092928E+02 -0.20553915333E+02  0.29349616595E+01  0.40925735354E+02  0.00000000000E+00 0.  1.
         13    1    3    3    0    0 -0.66329417905E+00 -0.28421516421E+02 -0.10196858797E+03  0.10585752448E+03  0.00000000000E+00 0. -1.
          4    1    1    2  501    0  0.19412885378E+00  0.21453311525E+02  0.13477105444E+03  0.13646801595E+03  0.00000000000E+00 0. -1.
<scales pt_clust_5="13000.00000" pt_clust_6="13000.00000" pt_clust_7="13000.00000" pt_clust_8="13000.00000" pt_clust_9="21.45419"></scales>
<clustering>
<clus scale="   21.454">  1  9  2 -1</clus>
<clus scale="   80.031">  5  6 -1 -1</clus>
<clus scale="   89.711">  7  8 -1 -1</clus>
<clus scale="   98.461">  1  5  2 -1</clus>
<clus scale="   21.454">  1  5  2 -1</clus>
</clustering>
</event>
<event>
 9    1  0.4731329E-005  0.9210572E+02  0.7546771E-02  0.1299640E+00
          1   -1    0    0  502    0 -0.00000000000E+00  0.00000000000E+00  0.21921831170E+03  0.21921831170E+03  0.00000000000E+00 0. -1.
         21   -1    0    0  501  502  0.00000000000E+00 -0.00000000000E+00 -0.16821814890E+03  0.16821814890E+03  0.00000000000E+00 0.  1.
         23    2    1    2    0    0  0.23393069388E+02 -0.34332701172E+02  0.16967959274E+03  0.19167414805E+03  0.78878671211E+02 0.  0.
        -24    2    1    2    0    0  0.70517135857E+00  0.47306367068E+02 -0.13414417451E+03  0.16432667134E+03  0.82281259887E+02 0.  0.
         11    1    4    4    0    0  0.20021188614E+02 -0.14063854031E+02 -0.14393495416E+02  0.28386840155E+02  0.00000000000E+00 0. -1.
        -12    1    4    4    0    0 -0.19316017256E+02  0.61370221100E+02 -0.11975067909E+03  0.13593983119E+03  0.00000000000E+00 0.  1.
        -13    1    3    3    0    0  0.15198122777E+02 -0.54442641891E+02  0.15620578274E+03  0.16611812290E+03  0.00000000000E+00 0. -1.
         13    1    3    3    0    0  0.81949466111E+01  0.20109940719E+02  0.13473809995E+02  0.25556025150E+02  0.00000000000E+00 0.  1.
          2    1    1    2  501    0 -0.24098240747E+02 -0.12973665896E+02  0.15464744560E+02  0.31435641209E+02  0.00000000000E+00 0. -1.
<scales pt_clust_5="13000.00000" pt_clust_6="13000.00000" pt_clust_7="13000.00000" pt_clust_8="13000.00000" pt_clust_9="27.36863"></scales>
<clustering>
<clus scale="   27.369">  2  9  1 -1</clus>
<clus scale="   78.879">  7  8 -1 -1</clus>
<clus scale="   82.281">  5  6 -1 -1</clus>
<clus scale="   89.079">  1  7  2 -1</clus>
<clus scale="   27.369">  2  5  1 -1</clus>
</clustering>
</event>
<event>
 9    1  0.4731329E-005  0.9710031E+02  0.7546771E-02  0.1291994E+00
         21   -1    0    0  501  502  0.00000000000E+00  0.00000000000E+00  0.23090664019E+02  0.23090664019E+02  0.00000000000E+00 0. -1.
          1   -1    0    0  502    0 -0.00000000000E+00 -0.00000000000E+00 -0.59703978321E+03  0.59703978321E+03  0.00000000000E+00 0. -1.
        -24    2    1    2    0    0  0.27659171392E+02 -0.27680836653E+02 -0.32809934872E+03  0.34019886094E+03  0.80961866797E+02 0.  0.
         23    2    1    2    0    0 -0.29787023155E+00  0.24925499543E+02 -0.12907465680E+03  0.15996217412E+03  0.91138690282E+02 0.  0.
         11    1    3    3    0    0  0.25219974126E+02 -0.20518869493E+02 -0.38041071164E+02  0.50041924378E+02  0.00000000000E+00 0. -1.
        -12    1    3    3    0    0  0.24391972666E+01 -0.71619671601E+01 -0.29005827756E+03  0.29015693656E+03  0.00000000000E+00 0.  1.
        -11    1    4    4    0    0  0.39742631600E+02  0.31151642498E+02 -0.92450368383E+02  0.10534216730E+03  0.00000000000E+00 0.  1.
         11    1    4    4    0    0 -0.40040501832E+02 -0.62261429545E+01 -0.36624288421E+02  0.54620006823E+02  0.00000000000E+00 0. -1.
          2    1    1    2  501    0 -0.27361301161E+02  0.27553371096E+01 -0.11677511367E+03  0.11996941217E+03  0.00000000000E+00 0. -1.
<scales pt_clust_5="13000.00000" pt_clust_6="13000.00000" pt_clust_7="13000.00000" pt_clust_8="13000.00000" pt_clust_9="27.49970"></scales>
<clustering>
<clus scale="   27.500">  1  9  2 -1</clus>
<clus scale="   80.962">  5  6 -1 -1</clus>
<clus scale="   87.619">  2  5  1 -1</clus>
<clus scale="   91.139">  7  8 -1 -1</clus>
<clus scale="   27.500">  1  5  2 -1</clus>
</clustering>
</event>
<event>
 9    1  0.4731329E-005  0.1138891E+03  0.7546771E-02  0.1260976E+00
          1   -1    0    0  502    0 -0.00000000000E+00  0.00000000000E+00  0.42518209074E+03  0.42518209074E+03  0.00000000000E+00 0. -1.
         21   -1    0    0  501  502  0.00000000000E+00 -0.00000000000E+00 -0.26234489555E+03  0.26234489555E+03  0.00000000000E+00 0. -1.
        -24    2    1    2    0    0 -0.15193885821E+02 -0.59250403342E+02  0.32495703562E+03  0.33890394080E+03  0.74278810128E+02 0.  0.
         23    2    1    2    0    0 -0.54680609758E+01  0.89211126007E+02  0.45831307715E+02  0.13751112976E+03  0.93916331632E+02 0.  0.
         11    1    3    3    0    0 -0.14574792071E+02 -0.73976624020E+02  0.21239516250E+03  0.22538116718E+03  0.00000000000E+00 0. -1.
        -12    1    3    3    0    0 -0.61909375040E+00  0.14726220677E+02  0.11256187311E+03  0.11352277362E+03  0.00000000000E+00 0.  1.
        -13    1    4    4    0    0 -0.41220733910E+02  0.61648485383E+02  0.14044453726E+01  0.74173156336E+02  0.00000000000E+00 0.  1.
         13    1    4    4    0    0  0.35752672934E+02  0.27562640624E+02  0.44426862342E+02  0.63337973425E+02  0.00000000000E+00 0. -1.
          2    1    1    2  501    0  0.20661946797E+02 -0.29960722664E+02 -0.20795114814E+03  0.21111191572E+03  0.00000000000E+00 0. -1.
<scales pt_clust_5="13000.00000" pt_clust_6="13000.00000" pt_clust_7="13000.00000" pt_clust_8="13000.00000" pt_clust_9="36.39452"></scales>
<clustering>
<clus scale="   36.395">  2  9  1 -1</clus>
<clus scale="   74.279">  5  6 -1 -1</clus>
<clus scale="   93.916">  7  8 -1 -1</clus>
<clus scale="   98.325">  1  5  2 -1</clus>
<clus scale="   36.395">  2  5  1 -1</clus>
</clustering>
</event>
<event>
 9    1  0.4731329E-005  0.9321044E+02  0.7546771E-02  0.1301391E+00
          1   -1    0    0  502    0 -0.00000000000E+00  0.00000000000E+00  0.52217952629E+03  0.52217952629E+03  0.00000000000E+00 0. -1.
         21   -1    0    0  501  502  0.00000000000E+00 -0.00000000000E+00 -0.34324259188E+02  0.34324259188E+02  0.00000000000E+00 0. -1.
        -24    2    1    2    0    0 -0.59961920486E+01  0.19219046098E+02  0.35528241229E+03  0.36518484345E+03  0.82030795134E+02 0.  0.
         23    2    1    2    0    0  0.14684298934E+02  0.13104450680E+02  0.12578896603E+03  0.15716762005E+03  0.92149018201E+02 0.  0.
         11    1    3    3    0    0 -0.38683795027E+02  0.30937670253E+02  0.19613362499E+03  0.20229180480E+03  0.00000000000E+00 0. -1.
        -12    1    3    3    0    0  0.32687602978E+02 -0.11718624155E+02  0.15914878731E+03  0.16289303865E+03  0.00000000000E+00 0.  1.
        -13    1    4    4    0    0 -0.11009267387E+02 -0.22980839014E+02  0.18486141353E+01  0.25548782836E+02  0.00000000000E+00 0.  1.
         13    1    4    4    0    0  0.25693566320E+02  0.36085289694E+02  0.12394035190E+03  0.13161883722E+03  0.00000000000E+00 0. -1.
          2    1    1    2  501    0 -0.86881068849E+01 -0.32323496777E+02  0.67838887723E+01  0.34151321966E+02  0.00000000000E+00 0. -1.
<scales pt_clust_5="13000.00000" pt_clust_6="13000.00000" pt_clust_7="13000.00000" pt_clust_8="13000.00000" pt_clust_9="33.47076"></scales>
<clustering>
<clus scale="   33.471">  2  9  1 -1</clus>
<clus scale="   82.031">  5  6 -1 -1</clus>
<clus scale="   83.221">  1  5  2 -1</clus>
<clus scale="   92.149">  7  8 -1 -1</clus>
<clus scale="   33.471">  2  5  1 -1</clus>
</clustering>
</event>
<event>
 9    1  0.4731329E-005  0.9373698E+02  0.7546771E-02  0.1298808E+00
          1   -1    0    0  502    0 -0.00000000000E+00  0.00000000000E+00  0.70951417737E+03  0.70951417737E+03  0.00000000000E+00 0. -1.
         21   -1    0    0  501  502  0.00000000000E+00 -0.00000000000E+00 -0.24615526579E+02  0.24615526579E+02  0.00000000000E+00 0. -1.
        -24    2    1    2    0    0 -0.37035806265E+02  0.12892416180E+02  0.21565153295E+03  0.23416678426E+03  0.82405302312E+02 0.  0.
         23    2    1    2    0    0  0.42230576575E+01  0.16275635217E+02  0.13882682285E+03  0.16663871859E+03  0.90624749780E+02 0.  0.
         13    1    3    3    0    0 -0.61066329893E+02  0.12323600846E+02  0.18504143066E+03  0.19524676398E+03  0.00000000000E+00 0. -1.
        -14    1    3    3    0    0  0.24030523628E+02  0.56881533431E+00  0.30610102283E+02  0.38920020278E+02  0.00000000000E+00 0.  1.
        -11    1    4    4    0    0  0.32904864615E+02 -0.23952592177E+02  0.80466499484E+02  0.90173800666E+02  0.00000000000E+00 0.  1.
         11    1    4    4    0    0 -0.28681806957E+02  0.40228227394E+02  0.58360323366E+02  0.76464917923E+02  0.00000000000E+00 0. -1.
          2    1    1    2  501    0  0.32812748608E+02 -0.29168051397E+02  0.33042029500E+03  0.33332420110E+03  0.00000000000E+00 0. -1.
<scales pt_clust_5="13000.00000" pt_clust_6="13000.00000" pt_clust_7="13000.00000" pt_clust_8="13000.00000" pt_clust_9="43.90277"></scales>
<clustering>
<clus scale="   43.903">  2  9  1 -1</clus>
<clus scale="   82.405">  5  6 -1 -1</clus>
<clus scale="   85.816">  1  5  2 -1</clus>
<clus scale="   90.625">  7  8 -1 -1</clus>
<clus scale="   43.903">  2  5  1 -1</clus>
</clustering>
</event>
<event>
 9    1  0.4731329E-005  0.3449440E+03  0.7546771E-02  0.1065031E+00
         21   -1    0    0  501  502  0.00000000000E+00  0.00000000000E+00  0.57230553507E+03  0.57230553507E+03  0.00000000000E+00 0. -1.
          1   -1    0    0  502    0 -0.00000000000E+00 -0.00000000000E+00 -0.44957388993E+03  0.44957388993E+03  0.00000000000E+00 0. -1.
         23    2    1    2    0    0 -0.83938594978E+02  0.25452066473E+03  0.99425733925E+02  0.30031842029E+03  0.92082682964E+02 0.  0.
        -24    2    1    2    0    0  0.22053100773E+03 -0.38351842078E+03  0.17264185666E+03  0.48156281119E+03  0.79857535703E+02 0.  0.
         13    1    4    4    0    0  0.22284886725E+03 -0.37065783677E+03  0.15461559800E+03  0.45929819588E+03  0.00000000000E+00 0. -1.
        -14    1    4    4    0    0 -0.23178595230E+01 -0.12860584004E+02  0.18026258658E+02  0.22264615310E+02  0.00000000000E+00 0.  1.
        -13    1    3    3    0    0 -0.50043680916E+02  0.41327629533E+02  0.62676997445E+01  0.65204501551E+02  0.00000000000E+00 0. -1.
         13    1    3    3    0    0 -0.33894914062E+02  0.21319303519E+03  0.93158034180E+02  0.23511391874E+03  0.00000000000E+00 0.  1.
          2    1    1    2  501    0 -0.13659241275E+03  0.12899775605E+03 -0.14933594545E+03  0.23999819351E+03  0.00000000000E+00 0. -1.
<scales pt_clust_5="13000.00000" pt_clust_6="13000.00000" pt_clust_7="13000.00000" pt_clust_8="13000.00000" pt_clust_9="187.87747"></scales>
<clustering>
<clus scale="   79.858">  5  6 -1 -1</clus>
<clus scale="   92.083">  7  8 -1 -1</clus>
<clus scale="  187.877">  1  9  2 -1</clus>
<clus scale="  341.884">  1  5  2 -1</clus>
<clus scale="  187.877">  1  5  2 -1</clus>
</clustering>
</event>
<event>
 9    1  0.4731329E-005  0.9762583E+02  0.7546771E-02  0.1286454E+00
          1   -1    0    0  502    0 -0.00000000000E+00  0.00000000000E+00  0.31487024964E+02  0.31487024964E+02  0.00000000000E+00 0. -1.
         21   -1    0    0  501  502  0.00000000000E+00 -0.00000000000E+00 -0.49219617681E+03  0.49219617681E+03  0.00000000000E+00 0. -1.
         23    2    1    2    0    0  0.50029627176E+02  0.13758097780E+02 -0.89603942395E+02  0.13198185800E+03  0.81841893291E+02 0.  0.
        -24    2    1    2    0    0 -0.60068894588E+02  0.92928056331E+01 -0.30391594150E+03  0.31996203261E+03  0.79474363692E+02 0.  0.
         13    1    4    4    0    0 -0.67379474983E+01  0.37663599441E+02 -0.14465499773E+03  0.14962959276E+03  0.00000000000E+00 0. -1.
        -14    1    4    4    0    0 -0.53330947090E+02 -0.28370793808E+02 -0.15926094376E+03  0.17033243986E+03  0.00000000000E+00 0.  1.
        -13    1    3    3    0    0  0.67579863939E+02 -0.87384271723E+01 -0.58935683876E+02  0.90093356877E+02  0.00000000000E+00 0. -1.
         13    1    3    3    0    0 -0.17550236763E+02  0.22496524953E+02 -0.30668258518E+02  0.41888501118E+02  0.00000000000E+00 0.  1.
          2    1    1    2  501    0  0.10039267412E+02 -0.23050903414E+02 -0.67189267957E+02  0.71739311169E+02  0.00000000000E+00 0. -1.
<scales pt_clust_5="13000.00000" pt_clust_6="13000.00000" pt_clust_7="13000.00000" pt_clust_8="13000.00000" pt_clust_9="25.14222"></scales>
<clustering>
<clus scale="   25.142">  2  9  1 -1</clus>
<clus scale="   79.474">  5  6 -1 -1</clus>
<clus scale="   81.842">  7  8 -1 -1</clus>
<clus scale="   95.650">  2  5  1 -1</clus>
<clus scale="   25.142">  2  5  1 -1</clus>
</clustering>
</event>
<event>
 9    1  0.4731329E-005  0.9524959E+02  0.7546771E-02  0.1297124E+00
          1   -1    0    0  502    0 -0.00000000000E+00  0.00000000000E+00  0.10072237084E+03  0.10072237084E+03  0.00000000000E+00 0. -1.
         21   -1    0    0  501  502  0.00000000000E+00 -0.00000000000E+00 -0.20886529565E+03  0.20886529565E+03  0.00000000000E+00 0. -1.
        -24    2    1    2    0    0 -0.17633049017E+02 -0.41497732221E+02 -0.38930273644E+02  0.99628538356E+02  0.79857956721E+02 0.  0.
         23    2    1    2    0    0  0.14808732013E+02 -0.14262592560E+02 -0.10731203802E+03  0.14236657037E+03  0.91266898516E+02 0.  0.
         11    1    3    3    0    0  0.15393593527E+02 -0.34124865352E+02  0.11262799625E+02  0.39093731114E+02  0.00000000000E+00 0. -1.
        -12    1    3    3    0    0 -0.33026642544E+02 -0.73728668686E+01 -0.50193073269E+02  0.60534807242E+02  0.00000000000E+00 0.  1.
        -11    1    4    4    0    0  0.15634927782E+02  0.16447284070E+02 -0.10925248442E+03  0.11158436034E+03  0.00000000000E+00 0. -1.
         11    1    4    4    0    0 -0.82619576811E+00 -0.30709876629E+02  0.19404464038E+01  0.30782210029E+02  0.00000000000E+00 0.  1.
          2    1    1    2  501    0  0.28243170038E+01  0.55760324780E+02  0.38099386861E+02  0.67592557766E+02  0.00000000000E+00 0. -1.
<scales pt_clust_5="13000.00000" pt_clust_6="13000.00000" pt_clust_7="13000.00000" pt_clust_8="13000.00000" pt_clust_9="55.83183"></scales>
<clustering>
<clus scale="   55.832">  2  9  1 -1</clus>
<clus scale="   79.858">  5  6 -1 -1</clus>
<clus scale="   84.381">  1  5  2 -1</clus>
<clus scale="   91.267">  7  8 -1 -1</clus>
<clus scale="   55.832">  2  5  1 -1</clus>
</clustering>
</event>
<event>
 9    1  0.4731329E-005  0.1429549E+03  0.7546771E-02  0.1212016E+00
         -4   -1    0    0    0  501 -0.00000000000E+00  0.00000000000E+00  0.59403601675E+03  0.59403601675E+03  0.00000000000E+00 0.  1.
         21   -1    0    0  501  502  0.00000000000E+00 -0.00000000000E+00 -0.96545501732E+02  0.96545501732E+02  0.00000000000E+00 0.  1.
         23    2    1    2    0    0  0.10181834762E+03  0.27838672620E+02  0.28565645024E+03  0.31811053592E+03  0.91938772528E+02 0.  0.
        -24    2    1    2    0    0 -0.11382082426E+03 -0.10703727660E+02  0.27375949512E+03  0.30710719512E+03  0.79377693990E+02 0.  0.
         11    1    4    4    0    0 -0.99418722496E+02 -0.44958331130E+01  0.13635450621E+03  0.16881008933E+03  0.00000000000E+00 0. -1.
        -12    1    4    4    0    0 -0.14402101769E+02 -0.62078945470E+01  0.13740498892E+03  0.13829710579E+03  0.00000000000E+00 0.  1.
        -13    1    3    3    0    0  0.71495174975E+02  0.42260628482E+02  0.26716800164E+03  0.27977895179E+03  0.00000000000E+00 0.  1.
         13    1    3    3    0    0  0.30323172645E+02 -0.14421955861E+02  0.18488448596E+02  0.38331584126E+02  0.00000000000E+00 0. -1.
         -3    1    1    2    0  502  0.12002476645E+02 -0.17134944960E+02 -0.61925430348E+02  0.65363787438E+02  0.00000000000E+00 0.  1.
<scales pt_clust_5="13000.00000" pt_clust_6="13000.00000" pt_clust_7="13000.00000" pt_clust_8="13000.00000" pt_clust_9="20.92046"></scales>
<clustering>
<clus scale="   20.920">  2  9  1 -1</clus>
<clus scale="   79.378">  5  6 -1 -1</clus>
<clus scale="   91.939">  7  8 -1 -1</clus>
<clus scale="  135.219">  2  5  1 -1</clus>
<clus scale="   20.920">  2  5  1 -1</clus>
</clustering>
</event>
<event>
 9    1  0.4731329E-005  0.1268522E+03  0.7546771E-02  0.1237154E+00
         21   -1    0    0  501  502  0.00000000000E+00  0.00000000000E+00  0.72804330940E+02  0.72804330940E+02  0.00000000000E+00 0. -1.
         -4   -1    0    0    0  501 -0.00000000000E+00 -0.00000000000E+00 -0.57374035845E+03  0.57374035845E+03  0.00000000000E+00 0.  1.
         23    2    1    2    0    0 -0.77209949803E+02 -0.12770863266E+02 -0.46050499201E+03  0.47719667472E+03  0.97608131809E+02 0.  0.
        -24    2    1    2    0    0  0.94140223809E+02  0.38862467876E+02 -0.18942540273E+02  0.13154376311E+03  0.81069529622E+02 0.  0.
         13    1    4    4    0    0  0.56126596385E+02  0.31523006201E+02  0.28422886595E+02  0.70368709126E+02  0.00000000000E+00 0. -1.
        -14    1    4    4    0    0  0.38013627425E+02  0.73394616743E+01 -0.47365426868E+02  0.61175053985E+02  0.00000000000E+00 0.  1.
        -13    1    3    3    0    0 -0.39665334545E+02  0.42564517691E+02 -0.20716224316E+03  0.21517730345E+03  0.00000000000E+00 0. -1.
         13    1    3    3    0    0 -0.37544615259E+02 -0.55335380957E+02 -0.25334274885E+03  0.26201937126E+03  0.00000000000E+00 0.  1.
         -3    1    1    2    0  502 -0.16930274006E+02 -0.26091604610E+02 -0.21488495222E+02  0.37804251559E+02  0.00000000000E+00 0.  1.
<scales pt_clust_5="13000.00000" pt_clust_6="13000.00000" pt_clust_7="13000.00000" pt_clust_8="13000.00000" pt_clust_9="31.10315"></scales>
<clustering>
<clus scale="   31.103">  1  9  2 -1</clus>
<clus scale="   81.070">  5  6 -1 -1</clus>
<clus scale="   97.608">  7  8 -1 -1</clus>
<clus scale="  114.614">  1  5  2 -1</clus>
<clus scale="   31.103">  1  5  2 -1</clus>
</clustering>
</event>
<event>
 9    1  0.4731329E-005  0.9255893E+02  0.7546771E-02  0.1303878E+00
         21   -1    0    0  501  502  0.00000000000E+00  0.00000000000E+00  0.14759996227E+03  0.14759996227E+03  0.00000000000E+00 0.  1.
          1   -1    0    0  502    0 -0.00000000000E+00 -0.00000000000E+00 -0.26992996730E+03  0.26992996730E+03  0.00000000000E+00 0. -1.
         23    2    1    2    0    0  0.13400605010E+02  0.12188148745E+02 -0.23888878434E+03  0.25620642772E+03  0.90806140437E+02 0.  0.
        -24    2    1    2    0    0 -0.28283642959E+02  0.10070520942E+02  0.90834562496E+02  0.12419280666E+03  0.79193153937E+02 0.  0.
         11    1    4    4    0    0 -0.41937381180E+01  0.43258371745E+02  0.42229636099E+02  0.60598814597E+02  0.00000000000E+00 0. -1.
        -12    1    4    4    0    0 -0.24089904841E+02 -0.33187850803E+02  0.48604926397E+02  0.63593992061E+02  0.00000000000E+00 0.  1.
        -13    1    3    3    0    0  0.36483195677E+02 -0.24860260367E+02 -0.16074688900E+03  0.16669918547E+03  0.00000000000E+00 0.  1.
         13    1    3    3    0    0 -0.23082590667E+02  0.37048409112E+02 -0.78141895336E+02  0.89507242257E+02  0.00000000000E+00 0. -1.
          2    1    1    2  501    0  0.14883037949E+02 -0.22258669688E+02  0.25724216804E+02  0.37130695187E+02  0.00000000000E+00 0. -1.
<scales pt_clust_5="13000.00000" pt_clust_6="13000.00000" pt_clust_7="13000.00000" pt_clust_8="13000.00000" pt_clust_9="26.77598"></scales>
<clustering>
<clus scale="   26.776">  1  9  2 -1</clus>
<clus scale="   79.193">  5  6 -1 -1</clus>
<clus scale="   81.197">  1  5  2 -1</clus>
<clus scale="   90.806">  7  8 -1 -1</clus>
<clus scale="   26.776">  1  5  2 -1</clus>
</clustering>
</event>
<event>
 9    1  0.4731329E-005  0.1025361E+03  0.7546771E-02  0.1278908E+00
          1   -1    0    0  502    0 -0.00000000000E+00  0.00000000000E+00  0.41761265795E+03  0.41761265795E+03  0.00000000000E+00 0. -1.
         21   -1    0    0  501  502  0.00000000000E+00 -0.00000000000E+00 -0.79395864636E+02  0.79395864636E+02  0.00000000000E+00 0.  1.
         23    2    1    2    0    0 -0.24974979743E+02  0.36971306378E+02  0.33933965358E+03  0.35413478651E+03  0.90936348182E+02 0.  0.
        -24    2    1    2    0    0  0.22533664807E+02 -0.68424856860E+02 -0.10059228223E+02  0.11008433948E+03  0.82629574856E+02 0.  0.
         11    1    4    4    0    0  0.86573631301E+01 -0.32982919488E+02  0.36497843121E+02  0.49949128790E+02  0.00000000000E+00 0. -1.
        -12    1    4    4    0    0  0.13876301676E+02 -0.35441937371E+02 -0.46557071344E+02  0.60135210692E+02  0.00000000000E+00 0.  1.
        -11    1    3    3    0    0 -0.53890361931E+02  0.31479068734E+02  0.29036501366E+03  0.29699653876E+03  0.00000000000E+00 0. -1.
         11    1    3    3    0    0  0.28915382188E+02  0.54922376437E+01  0.48974639920E+02  0.57138247757E+02  0.00000000000E+00 0.  1.
          2    1    1    2  501    0  0.24413149363E+01  0.31453550481E+02  0.89363679616E+01  0.32789396592E+02  0.00000000000E+00 0. -1.
<scales pt_clust_5="13000.00000" pt_clust_6="13000.00000" pt_clust_7="13000.00000" pt_clust_8="13000.00000" pt_clust_9="31.54815"></scales>
<clustering>
<clus scale="   31.548">  2  9  1 -1</clus>
<clus scale="   82.630">  5  6 -1 -1</clus>
<clus scale="   90.936">  7  8 -1 -1</clus>
<clus scale="   95.246">  2  5  1 -1</clus>
<clus scale="   31.548">  2  5  1 -1</clus>
</clustering>
</event>
<event>
 9    1  0.4731329E-005  0.9873660E+02  0.7546771E-02  0.1288620E+00
         21   -1    0    0  501  502  0.00000000000E+00  0.00000000000E+00  0.25244960629E+03  0.25244960629E+03  0.00000000000E+00 0.  1.
         -2   -1    0    0    0  501 -0.00000000000E+00 -0.00000000000E+00 -0.12820285500E+03  0.12820285500E+03  0.00000000000E+00 0.  1.
         23    2    1    2    0    0  0.32948166417E+02  0.16967519116E+02 -0.40035743130E+02  0.10574188160E+03  0.90581490497E+02 0.  0.
        -24    2    1    2    0    0 -0.46652469049E+02  0.12342730202E+02 -0.13633409202E+02  0.94076491681E+02  0.79597239797E+02 0.  0.
         13    1    4    4    0    0 -0.22945270065E+02  0.34130209784E+02  0.21511371629E+02  0.46412237046E+02  0.00000000000E+00 0. -1.
        -14    1    4    4    0    0 -0.23707198985E+02 -0.21787479582E+02 -0.35144780831E+02  0.47664254635E+02  0.00000000000E+00 0.  1.
        -11    1    3    3    0    0  0.45744292978E+01 -0.33836975990E+02  0.16119968722E+01  0.34182815587E+02  0.00000000000E+00 0. -1.
         11    1    3    3    0    0  0.28373737119E+02  0.50804495106E+02 -0.41647740002E+02  0.71559066011E+02  0.00000000000E+00 0.  1.
         -1    1    1    2    0  502  0.13704302633E+02 -0.29310249318E+02  0.17791590362E+03  0.18083408801E+03  0.00000000000E+00 0.  1.
<scales pt_clust_5="13000.00000" pt_clust_6="13000.00000" pt_clust_7="13000.00000" pt_clust_8="13000.00000" pt_clust_9="32.35581"></scales>
<clustering>
<clus scale="   32.356">  1  9  2 -1</clus>
<clus scale="   79.597">  5  6 -1 -1</clus>
<clus scale="   88.767">  1  5  2 -1</clus>
<clus scale="   90.581">  7  8 -1 -1</clus>
<clus scale="   32.356">  1  5  2 -1</clus>
</clustering>
</event>
<event>
 9    1  0.4731329E-005  0.1005277E+03  0.7546771E-02  0.1284278E+00
         21   -1    0    0  501  502  0.00000000000E+00  0.00000000000E+00  0.26871076382E+03  0.26871076382E+03  0.00000000000E+00 0.  1.
          1   -1    0    0  502    0 -0.00000000000E+00 -0.00000000000E+00 -0.21366029492E+03  0.21366029492E+03  0.00000000000E+00 0. -1.
         23    2    1    2    0    0 -0.40094653559E+02 -0.94613691855E+01 -0.15098316664E+03  0.18065911013E+03  0.90247984534E+02 0.  0.
        -24    2    1    2    0    0  0.93306261385E+02 -0.50690031785E+02  0.16405896709E+03  0.21109440595E+03  0.79812065521E+02 0.  0.
         11    1    4    4    0    0  0.61728873841E+01 -0.41929081129E+02  0.75292734975E+02  0.86401089825E+02  0.00000000000E+00 0. -1.
        -12    1    4    4    0    0  0.87133374001E+02 -0.87609506561E+01  0.88766232118E+02  0.12469331612E+03  0.00000000000E+00 0.  1.
        -11    1    3    3    0    0  0.13395045461E+02 -0.29792900348E+02 -0.95587446987E+02  0.10101487106E+03  0.00000000000E+00 0.  1.
         11    1    3    3    0    0 -0.53489699019E+02  0.20331531162E+02 -0.55395719656E+02  0.79644239068E+02  0.00000000000E+00 0. -1.
          2    1    1    2  501    0 -0.53211607826E+02  0.60151400971E+02  0.41974668453E+02  0.90617542661E+02  0.00000000000E+00 0. -1.
<scales pt_clust_5="13000.00000" pt_clust_6="13000.00000" pt_clust_7="13000.00000" pt_clust_8="13000.00000" pt_clust_9="80.30981"></scales>
<clustering>
<clus scale="   79.812">  5  6 -1 -1</clus>
<clus scale="   80.310">  1  9  2 -1</clus>
<clus scale="   90.248">  7  8 -1 -1</clus>
<clus scale="   91.275">  1  5  2 -1</clus>
<clus scale="   80.310">  1  5  2 -1</clus>
</clustering>
</event>
<event>
 9    1  0.4731329E-005  0.1006341E+03  0.7546771E-02  0.1283964E+00
         -2   -1    0    0    0  501 -0.00000000000E+00  0.00000000000E+00  0.25437402879E+03  0.25437402879E+03  0.00000000000E+00 0.  1.
         21   -1    0    0  501  502  0.00000000000E+00 -0.00000000000E+00 -0.52076986994E+02  0.52076986994E+02  0.00000000000E+00 0. -1.
        -24    2    1    2    0    0  0.16336473980E+00  0.46355439566E+02  0.11619927593E+03  0.14891122254E+03  0.80767734926E+02 0.  0.
         23    2    1    2    0    0  0.27992844630E+02 -0.34062825768E+02  0.63050886859E+02  0.11913355532E+03  0.90958860034E+02 0.  0.
         11    1    3    3    0    0 -0.31541579082E+02  0.22712773263E+02  0.17583869953E+02  0.42660681696E+02  0.00000000000E+00 0. -1.
        -12    1    3    3    0    0  0.31704943821E+02  0.23642666303E+02  0.98615405979E+02  0.10625054084E+03  0.00000000000E+00 0.  1.
        -13    1    4    4    0    0  0.35242246114E+02  0.37018186353E+01 -0.97915293164E+01  0.36764023430E+02  0.00000000000E+00 0. -1.
         13    1    4    4    0    0 -0.72494014841E+01 -0.37764644403E+02  0.72842416175E+02  0.82369531886E+02  0.00000000000E+00 0.  1.
         -1    1    1    2    0  502 -0.28156209370E+02 -0.12292613798E+02  0.23046879002E+02  0.38406237928E+02  0.00000000000E+00 0.  1.
<scales pt_clust_5="13000.00000" pt_clust_6="13000.00000" pt_clust_7="13000.00000" pt_clust_8="13000.00000" pt_clust_9="30.72264"></scales>
<clustering>
<clus scale="   30.723">  2  9  1 -1</clus>
<clus scale="   80.768">  5  6 -1 -1</clus>
<clus scale="   90.959">  7  8 -1 -1</clus>
<clus scale="   91.527">  1  5  2 -1</clus>
<clus scale="   30.723">  2  5  1 -1</clus>
</clustering>
</event>
<event>
 9    1  0.4731329E-005  0.1262365E+03  0.7546771E-02  0.1236466E+00
         21   -1    0    0  501  502  0.00000000000E+00  0.00000000000E+00  0.19542596803E+02  0.19542596803E+02  0.00000000000E+00 0. -1.
          1   -1    0    0  502    0 -0.00000000000E+00 -0.00000000000E+00 -0.15291505353E+04  0.15291505353E+04  0.00000000000E+00 0. -1.
        -24    2    1    2    0    0  0.72210517778E+02 -0.58498657985E+02 -0.11288820768E+04  0.11354822616E+04  0.79427773726E+02 0.  0.
         23    2    1    2    0    0 -0.54559924401E+02  0.30129544054E+02 -0.19195102473E+03  0.22150200492E+03  0.91287280110E+02 0.  0.
         13    1    3    3    0    0  0.45247627641E+02 -0.15827667772E+02 -0.21824795489E+03  0.22345029131E+03  0.00000000000E+00 0. -1.
        -14    1    3    3    0    0  0.26962890137E+02 -0.42670990212E+02 -0.91063412193E+03  0.91203197031E+03  0.00000000000E+00 0.  1.
        -13    1    4    4    0    0 -0.20722336554E+02  0.52665125184E+02 -0.56061660920E+02  0.79661411411E+02  0.00000000000E+00 0. -1.
         13    1    4    4    0    0 -0.33837587848E+02 -0.22535581129E+02 -0.13588936381E+03  0.14184059351E+03  0.00000000000E+00 0.  1.
          2    1    1    2  501    0 -0.17650593377E+02  0.28369113930E+02 -0.18877483698E+03  0.19170886560E+03  0.00000000000E+00 0. -1.
<scales pt_clust_5="13000.00000" pt_clust_6="13000.00000" pt_clust_7="13000.00000" pt_clust_8="13000.00000" pt_clust_9="33.41184"></scales>
<clustering>
<clus scale="   33.412">  1  9  2 -1</clus>
<clus scale="   79.428">  5  6 -1 -1</clus>
<clus scale="   91.287">  7  8 -1 -1</clus>
<clus scale="  117.945">  2  5  1 -1</clus>
<clus scale="   33.412">  1  5  2 -1</clus>
</clustering>
</event>
<event>
 9    1  0.4731329E-005  0.1319950E+03  0.7546771E-02  0.1235537E+00
          1   -1    0    0  502    0 -0.00000000000E+00  0.00000000000E+00  0.22454301379E+03  0.22454301379E+03  0.00000000000E+00 0. -1.
         21   -1    0    0  501  502  0.00000000000E+00 -0.00000000000E+00 -0.22215178232E+03  0.22215178232E+03  0.00000000000E+00 0. -1.
         23    2    1    2    0    0  0.47319925003E+02 -0.24004405567E+02  0.13450273144E+03  0.17072603953E+03  0.90780003429E+02 0.  0.
        -24    2    1    2    0    0  0.50187534661E+02  0.82738469431E+02 -0.51611552575E+02  0.13654983219E+03  0.81349009540E+02 0.  0.
         13    1    4    4    0    0  0.41202999548E+02 -0.19406583061E+01 -0.15787225679E+02  0.44166614326E+02  0.00000000000E+00 0. -1.
        -14    1    4    4    0    0  0.89845351130E+01  0.84679127738E+02 -0.35824326896E+02  0.92383217865E+02  0.00000000000E+00 0.  1.
        -11    1    3    3    0    0 -0.17422638396E+02 -0.32878305629E+02  0.67848699917E+02  0.77382022397E+02  0.00000000000E+00 0.  1.
         11    1    3    3    0    0  0.64742563399E+02  0.88739000624E+01  0.66654031519E+02  0.93344017138E+02  0.00000000000E+00 0. -1.
          2    1    1    2  501    0 -0.97507459664E+02 -0.58734063865E+02 -0.80499947390E+02  0.13941892439E+03  0.00000000000E+00 0. -1.
<scales pt_clust_5="13000.00000" pt_clust_6="13000.00000" pt_clust_7="13000.00000" pt_clust_8="13000.00000" pt_clust_9="103.94722"></scales>
<clustering>
<clus scale="   81.349">  5  6 -1 -1</clus>
<clus scale="   90.780">  7  8 -1 -1</clus>
<clus scale="  105.149">  1  7  2 -1</clus>
<clus scale="  103.947">  2  9  1 -1</clus>
<clus scale="  103.947">  2  5  1 -1</clus>
</clustering>
</event>
<event>
 9    1  0.4731329E-005  0.1046263E+03  0.7546771E-02  0.1277651E+00
          1   -1    0    0  502    0 -0.00000000000E+00  0.00000000000E+00  0.46324931004E+03  0.46324931004E+03  0.00000000000E+00 0. -1.
         21   -1    0    0  501  502  0.00000000000E+00 -0.00000000000E+00 -0.78446908614E+02  0.78446908614E+02  0.00000000000E+00 0.  1.
         23    2    1    2    0    0 -0.51058970093E+02  0.20309163242E+02  0.33407966366E+03  0.35051219441E+03  0.90719877754E+02 0.  0.
        -24    2    1    2    0    0  0.95676117298E+01 -0.52732223170E+02 -0.27700138632E+02  0.96722734944E+02  0.75602666753E+02 0.  0.
         13    1    4    4    0    0  0.32929124211E+01 -0.37350363705E+02  0.22580020874E+02  0.43769284707E+02  0.00000000000E+00 0. -1.
        -14    1    4    4    0    0  0.62746993087E+01 -0.15381859464E+02 -0.50280159506E+02  0.52953450236E+02  0.00000000000E+00 0.  1.
        -11    1    3    3    0    0 -0.57354416587E+02  0.41494398936E+02  0.30934782146E+03  0.31734427502E+03  0.00000000000E+00 0. -1.
         11    1    3    3    0    0  0.62954464932E+01 -0.21185235694E+02  0.24731842191E+02  0.33167919382E+02  0.00000000000E+00 0.  1.
          2    1    1    2  501    0  0.41491358364E+02  0.32423059928E+02  0.78422876404E+02  0.94461289306E+02  0.00000000000E+00 0. -1.
<scales pt_clust_5="13000.00000" pt_clust_6="13000.00000" pt_clust_7="13000.00000" pt_clust_8="13000.00000" pt_clust_9="52.65729"></scales>
<clustering>
<clus scale="   52.657">  2  9  1 -1</clus>
<clus scale="   75.603">  5  6 -1 -1</clus>
<clus scale="   90.720">  7  8 -1 -1</clus>
<clus scale="   91.828">  2  5  1 -1</clus>
<clus scale="   52.657">  2  5  1 -1</clus>
</clustering>
</event>
<event>
 9    1  0.4731329E-005  0.1024142E+03  0.7546771E-02  0.1281759E+00
         -2   -1    0    0    0  501 -0.00000000000E+00  0.00000000000E+00  0.39766246606E+02  0.39766246606E+02  0.00000000000E+00 0.  1.
         21   -1    0    0  501  502  0.00000000000E+00 -0.00000000000E+00 -0.46911795757E+03  0.46911795757E+03  0.00000000000E+00 0.  1.
         23    2    1    2    0    0  0.35186812215E+02  0.26639483163E+02 -0.82655944313E+02  0.13209900718E+03  0.93114814882E+02 0.  0.
        -24    2    1    2    0    0 -0.41305635333E+02 -0.62140298977E+01 -0.34361679249E+03  0.35524177064E+03  0.79871433257E+02 0.  0.
         13    1    4    4    0    0 -0.32575358043E+02  0.27720256954E+02 -0.95221266213E+02  0.10438704966E+03  0.00000000000E+00 0. -1.
        -14    1    4    4    0    0 -0.87302772894E+01 -0.33934286851E+02 -0.24839552627E+03  0.25085472098E+03  0.00000000000E+00 0.  1.
        -13    1    3    3    0    0  0.60229563618E+02  0.24635799332E+02 -0.25912323080E+02  0.70042640082E+02  0.00000000000E+00 0.  1.
         13    1    3    3    0    0 -0.25042751402E+02  0.20036838314E+01 -0.56743621233E+02  0.62056367098E+02  0.00000000000E+00 0. -1.
         -1    1    1    2    0  502  0.61188231175E+01 -0.20425453266E+02 -0.30789741691E+01  0.21543426361E+02  0.00000000000E+00 0.  1.
<scales pt_clust_5="13000.00000" pt_clust_6="13000.00000" pt_clust_7="13000.00000" pt_clust_8="13000.00000" pt_clust_9="21.32228"></scales>
<clustering>
<clus scale="   21.322">  2  9  1 -1</clus>
<clus scale="   79.871">  5  6 -1 -1</clus>
<clus scale="   90.541">  2  5  1 -1</clus>
<clus scale="   93.115">  7  8 -1 -1</clus>
<clus scale="   21.322">  2  5  1 -1</clus>
</clustering>
</event>
<event>
 9    1  0.4731329E-005  0.9857676E+02  0.7546771E-02  0.1288836E+00
          1   -1    0    0  502    0 -0.00000000000E+00  0.00000000000E+00  0.92931571908E+03  0.92931571908E+03  0.00000000000E+00 0. -1.
         21   -1    0    0  501  502  0.00000000000E+00 -0.00000000000E+00 -0.13982770956E+02  0.13982770956E+02  0.00000000000E+00 0. -1.
        -24    2    1    2    0    0 -0.42369614743E+02  0.15692448491E+02  0.50764165907E+03  0.51602952599E+03  0.80901053607E+02 0.  0.
         23    2    1    2    0    0  0.16636570160E+02 -0.21567607611E+02  0.36322648753E+03  0.37555991598E+03  0.91486786357E+02 0.  0.
         11    1    3    3    0    0 -0.65045039693E+02  0.21126924122E+02  0.34372309813E+03  0.35046079995E+03  0.00000000000E+00 0. -1.
        -12    1    3    3    0    0  0.22675424950E+02 -0.54344756311E+01  0.16391856094E+03  0.16556872604E+03  0.00000000000E+00 0.  1.
        -13    1    4    4    0    0  0.23225247493E+02  0.31749658923E+02  0.11360763240E+03  0.12022540124E+03  0.00000000000E+00 0.  1.
         13    1    4    4    0    0 -0.65886773339E+01 -0.53317266534E+02  0.24961885513E+03  0.25533451474E+03  0.00000000000E+00 0. -1.
          2    1    1    2  501    0  0.25733044583E+02  0.58751591202E+01  0.44464801519E+02  0.51709048070E+02  0.00000000000E+00 0. -1.
<scales pt_clust_5="13000.00000" pt_clust_6="13000.00000" pt_clust_7="13000.00000" pt_clust_8="13000.00000" pt_clust_9="26.39521"></scales>
<clustering>
<clus scale="   26.395">  2  9  1 -1</clus>
<clus scale="   80.901">  5  6 -1 -1</clus>
<clus scale="   88.840">  1  5  2 -1</clus>
<clus scale="   91.487">  7  8 -1 -1</clus>
<clus scale="   26.395">  2  5  1 -1</clus>
</clustering>
</event>
<event>
 9    1  0.4731329E-005  0.1238153E+03  0.7546771E-02  0.1240589E+00
         21   -1    0    0  501  502  0.00000000000E+00  0.00000000000E+00  0.69402595222E+02  0.69402595222E+02  0.00000000000E+00 0. -1.
          1   -1    0    0  502    0 -0.00000000000E+00 -0.00000000000E+00 -0.49842871283E+03  0.49842871283E+03  0.00000000000E+00 0. -1.
         23    2    1    2    0    0 -0.37319635528E+02  0.73237377041E+02 -0.26465026363E+03  0.29262060364E+03  0.93971203270E+02 0.  0.
        -24    2    1    2    0    0  0.80396470499E+02 -0.38116047094E+02 -0.18056045132E+03  0.21732234012E+03  0.81917625816E+02 0.  0.
         13    1    4    4    0    0  0.91429854395E+02 -0.14110874614E+02 -0.15531914863E+03  0.18078322098E+03  0.00000000000E+00 0. -1.
        -14    1    4    4    0    0 -0.11033383896E+02 -0.24005172480E+02 -0.25241302693E+02  0.36539119141E+02  0.00000000000E+00 0.  1.
        -11    1    3    3    0    0 -0.61703156789E+02  0.65060814964E+02 -0.24295624959E+03  0.25897476405E+03  0.00000000000E+00 0. -1.
         11    1    3    3    0    0  0.24383521260E+02  0.81765620772E+01 -0.21694014041E+02  0.33645839589E+02  0.00000000000E+00 0.  1.
          2    1    1    2  501    0 -0.43076834971E+02 -0.35121329947E+02  0.16184597348E+02  0.57888364285E+02  0.00000000000E+00 0. -1.
<scales pt_clust_5="13000.00000" pt_clust_6="13000.00000" pt_clust_7="13000.00000" pt_clust_8="13000.00000" pt_clust_9="55.57987"></scales>
<clustering>
<clus scale="   55.580">  1  9  2 -1</clus>
<clus scale="   81.918">  5  6 -1 -1</clus>
<clus scale="   93.971">  7  8 -1 -1</clus>
<clus scale="  114.935">  1  5  2 -1</clus>
<clus scale="   55.580">  1  5  2 -1</clus>
</clustering>
</event>
<event>
 9    1  0.4731329E-005  0.1048052E+03  0.7546771E-02  0.1277780E+00
         -2   -1    0    0    0  501 -0.00000000000E+00  0.00000000000E+00  0.46279189076E+03  0.46279189076E+03  0.00000000000E+00 0.  1.
         21   -1    0    0  501  502  0.00000000000E+00 -0.00000000000E+00 -0.32927190269E+02  0.32927190269E+02  0.00000000000E+00 0. -1.
         23    2    1    2    0    0  0.69927929091E+01  0.61315028160E+02  0.25998478402E+03  0.28389188198E+03  0.95885770068E+02 0.  0.
        -24    2    1    2    0    0  0.45798192613E+01 -0.19662021408E+02  0.10771935578E+03  0.13611172092E+03  0.80717848892E+02 0.  0.
         13    1    4    4    0    0 -0.34615214662E+02  0.21973593326E+00  0.25889311882E+02  0.43226355846E+02  0.00000000000E+00 0. -1.
        -14    1    4    4    0    0  0.39195033923E+02 -0.19881757341E+02  0.81830043903E+02  0.92885365071E+02  0.00000000000E+00 0.  1.
        -11    1    3    3    0    0  0.36805412849E+02  0.39047687577E+02  0.22978876606E+03  0.23597083999E+03  0.00000000000E+00 0.  1.
         11    1    3    3    0    0 -0.29812619940E+02  0.22267340583E+02  0.30196017956E+02  0.47921041983E+02  0.00000000000E+00 0. -1.
         -1    1    1    2    0  502 -0.11572612170E+02 -0.41653006752E+02  0.62160560690E+02  0.75715478135E+02  0.00000000000E+00 0.  1.
<scales pt_clust_5="13000.00000" pt_clust_6="13000.00000" pt_clust_7="13000.00000" pt_clust_8="13000.00000" pt_clust_9="43.23076"></scales>
<clustering>
<clus scale="   43.231">  2  9  1 -1</clus>
<clus scale="   80.718">  5  6 -1 -1</clus>
<clus scale="   91.134">  2  5  1 -1</clus>
<clus scale="   95.886">  7  8 -1 -1</clus>
<clus scale="   43.231">  2  5  1 -1</clus>
</clustering>
</event>
<event>
 9    1  0.4731329E-005  0.1335392E+03  0.7546771E-02  0.1224277E+00
          1   -1    0    0  502    0 -0.00000000000E+00  0.00000000000E+00  0.23770004212E+03  0.23770004212E+03  0.00000000000E+00 0. -1.
         21   -1    0    0  501  502  0.00000000000E+00 -0.00000000000E+00 -0.21820071466E+03  0.21820071466E+03  0.00000000000E+00 0. -1.
        -24    2    1    2    0    0 -0.34608975252E+02  0.10911269486E+03  0.14581716346E+03  0.20519992485E+03  0.87982967969E+02 0.  0.
         23    2    1    2    0    0  0.45406881300E+02 -0.35596302321E+02 -0.93506283888E+01  0.11212744918E+03  0.95688290822E+02 0.  0.
         11    1    3    3    0    0 -0.13788606302E+02  0.10618688555E+03  0.73470956376E+02  0.12986054735E+03  0.00000000000E+00 0. -1.
        -12    1    3    3    0    0 -0.20820368950E+02  0.29258093081E+01  0.72346207086E+02  0.75339377506E+02  0.00000000000E+00 0.  1.
        -11    1    4    4    0    0  0.74511498786E+02 -0.25885844892E+02 -0.16584333631E+02  0.80604469721E+02  0.00000000000E+00 0. -1.
         11    1    4    4    0    0 -0.29104617486E+02 -0.97104574295E+01  0.72337052425E+01  0.31522979460E+02  0.00000000000E+00 0.  1.
          2    1    1    2  501    0 -0.10797906047E+02 -0.73516392537E+02 -0.11696720761E+03  0.13857338274E+03  0.00000000000E+00 0. -1.
<scales pt_clust_5="13000.00000" pt_clust_6="13000.00000" pt_clust_7="13000.00000" pt_clust_8="13000.00000" pt_clust_9="74.30515"></scales>
<clustering>
<clus scale="   74.305">  2  9  1 -1</clus>
<clus scale="   87.983">  5  6 -1 -1</clus>
<clus scale="   95.688">  7  8 -1 -1</clus>
<clus scale="  128.131">  1  5  2 -1</clus>
<clus scale="   74.305">  2  5  1 -1</clus>
</clustering>
</event>
<event>
 9    1  0.4731329E-005  0.1140021E+03  0.7546771E-02  0.1255766E+00
         21   -1    0    0  501  502  0.00000000000E+00  0.00000000000E+00  0.15566433232E+03  0.15566433232E+03  0.00000000000E+00 0. -1.
          1   -1    0    0  502    0 -0.00000000000E+00 -0.00000000000E+00 -0.15139075792E+03  0.15139075792E+03  0.00000000000E+00 0. -1.
         23    2    1    2    0    0  0.39645059837E+00 -0.58081650107E+02 -0.74756660842E+01  0.10765849187E+03  0.90337312537E+02 0.  0.
        -24    2    1    2    0    0  0.68798554649E+02  0.67877360707E+02 -0.40053493036E+01  0.12775783932E+03  0.83459244346E+02 0.  0.
         11    1    4    4    0    0  0.83687644851E+02  0.72652260062E+02 -0.93887358384E+01  0.11122104636E+03  0.00000000000E+00 0. -1.
        -12    1    4    4    0    0 -0.14889090201E+02 -0.47748993551E+01  0.53833865348E+01  0.16536792962E+02  0.00000000000E+00 0.  1.
        -11    1    3    3    0    0  0.29756981722E+02  0.92288860937E+01 -0.13545968203E+02  0.33972688358E+02  0.00000000000E+00 0.  1.
         11    1    3    3    0    0 -0.29360531124E+02 -0.67310536201E+02  0.60703021190E+01  0.73685803513E+02  0.00000000000E+00 0. -1.
          2    1    1    2  501    0 -0.69195005247E+02 -0.97957105996E+01  0.15754589790E+02  0.71638759040E+02  0.00000000000E+00 0. -1.
<scales pt_clust_5="13000.00000" pt_clust_6="13000.00000" pt_clust_7="13000.00000" pt_clust_8="13000.00000" pt_clust_9="69.88494"></scales>
<clustering>
<clus scale="   69.885">  1  9  2 -1</clus>
<clus scale="   83.459">  5  6 -1 -1</clus>
<clus scale="   90.337">  7  8 -1 -1</clus>
<clus scale="  108.633">  1  5  2 -1</clus>
<clus scale="   69.885">  1  5  2 -1</clus>
</clustering>
</event>
<event>
 9    1  0.4731329E-005  0.1215234E+03  0.7546771E-02  0.1243646E+00
         21   -1    0    0  501  502  0.00000000000E+00  0.00000000000E+00  0.59474065271E+02  0.59474065271E+02  0.00000000000E+00 0. -1.
          1   -1    0    0  502    0 -0.00000000000E+00 -0.00000000000E+00 -0.53642819850E+03  0.53642819850E+03  0.00000000000E+00 0. -1.
         23    2    1    2    0    0 -0.44521627284E+01  0.78263522804E+02 -0.39270908537E+03  0.41010477193E+03  0.88433576615E+02 0.  0.
        -24    2    1    2    0    0  0.24521086977E+02 -0.10287849100E+03 -0.79530609574E+02  0.15369010471E+03  0.78168170051E+02 0.  0.
         13    1    4    4    0    0  0.84993333192E+01 -0.68327600600E+02 -0.90817343673E+02  0.11396793226E+03  0.00000000000E+00 0. -1.
        -14    1    4    4    0    0  0.16021753658E+02 -0.34550890404E+02  0.11286734099E+02  0.39722172456E+02  0.00000000000E+00 0.  1.
        -13    1    3    3    0    0 -0.45036922972E+02  0.50361280965E+02 -0.25710652808E+03  0.26583519299E+03  0.00000000000E+00 0.  1.
         13    1    3    3    0    0  0.40584760243E+02  0.27902241839E+02 -0.13560255729E+03  0.14426957894E+03  0.00000000000E+00 0. -1.
          2    1    1    2  501    0 -0.20068924249E+02  0.24614968200E+02 -0.47144382852E+01  0.32107387131E+02  0.00000000000E+00 0. -1.
<scales pt_clust_5="13000.00000" pt_clust_6="13000.00000" pt_clust_7="13000.00000" pt_clust_8="13000.00000" pt_clust_9="31.75938"></scales>
<clustering>
<clus scale="   31.759">  1  9  2 -1</clus>
<clus scale="   78.168">  5  6 -1 -1</clus>
<clus scale="   88.434">  7  8 -1 -1</clus>
<clus scale="  114.270">  1  5  2 -1</clus>
<clus scale="   31.759">  1  5  2 -1</clus>
</clustering>
</event>
<event>
 9    1  0.4731329E-005  0.1000666E+03  0.7546771E-02  0.1288227E+00
          1   -1    0    0  502    0 -0.00000000000E+00  0.00000000000E+00  0.11025757327E+03  0.11025757327E+03  0.00000000000E+00 0. -1.
         21   -1    0    0  501  502  0.00000000000E+00 -0.00000000000E+00 -0.11587475680E+03  0.11587475680E+03  0.00000000000E+00 0. -1.
         23    2    1    2    0    0  0.30486784686E+02  0.28234627274E+00 -0.10131564143E+02  0.10053127371E+03  0.95259459590E+02 0.  0.
        -24    2    1    2    0    0 -0.21689375832E+02  0.31504959484E+02 -0.10196581327E+02  0.89486798635E+02  0.80255375914E+02 0.  0.
         11    1    4    4    0    0 -0.30280864271E+01  0.56695961258E+02 -0.88732146183E+00  0.56783700741E+02  0.00000000000E+00 0. -1.
        -12    1    4    4    0    0 -0.18661289405E+02 -0.25191001775E+02 -0.93092598651E+01  0.32703097895E+02  0.00000000000E+00 0.  1.
        -11    1    3    3    0    0 -0.20754499254E+02  0.32766399213E+02  0.12319467844E+01  0.38805976982E+02  0.00000000000E+00 0.  1.
         11    1    3    3    0    0  0.51241283940E+02 -0.32484052941E+02 -0.11363510928E+02  0.61725296726E+02  0.00000000000E+00 0. -1.
          2    1    1    2  501    0 -0.87974088542E+01 -0.31787305756E+02  0.14710961942E+02  0.36114257725E+02  0.00000000000E+00 0. -1.
<scales pt_clust_5="13000.00000" pt_clust_6="13000.00000" pt_clust_7="13000.00000" pt_clust_8="13000.00000" pt_clust_9="32.98224"></scales>
<clustering>
<clus scale="   32.982">  2  9  1 -1</clus>
<clus scale="   80.255">  5  6 -1 -1</clus>
<clus scale="   85.906">  2  5  1 -1</clus>
<clus scale="   95.259">  7  8 -1 -1</clus>
<clus scale="   32.982">  2  5  1 -1</clus>
</clustering>
</event>
<event>
 9    1  0.4731329E-005  0.1598105E+03  0.7546771E-02  0.1209282E+00
         21   -1    0    0  501  502  0.00000000000E+00  0.00000000000E+00  0.23736811898E+03  0.23736811898E+03  0.00000000000E+00 0.  1.
          1   -1    0    0  502    0 -0.00000000000E+00 -0.00000000000E+00 -0.25279695105E+03  0.25279695105E+03  0.00000000000E+00 0. -1.
         23    2    1    2    0    0  0.30261772299E+02 -0.22208936305E+02 -0.13230163882E+03  0.16742213743E+03  0.95485269817E+02 0.  0.
        -24    2    1    2    0    0  0.85117899037E+01  0.14701978424E+03  0.84998387413E+02  0.18821741273E+03  0.80708122669E+02 0.  0.
         13    1    4    4    0    0  0.20303555397E+02  0.92213637209E+02  0.10532000592E+02  0.95007959064E+02  0.00000000000E+00 0. -1.
        -14    1    4    4    0    0 -0.11791765494E+02  0.54806147035E+02  0.74466386820E+02  0.93209453664E+02  0.00000000000E+00 0.  1.
        -13    1    3    3    0    0  0.17130621933E+02 -0.54206810638E+02 -0.11600883631E+03  0.12918934410E+03  0.00000000000E+00 0. -1.
         13    1    3    3    0    0  0.13131150366E+02  0.31997874334E+02 -0.16292802508E+02  0.38232793324E+02  0.00000000000E+00 0.  1.
          2    1    1    2  501    0 -0.38773562203E+02 -0.12481084794E+03  0.31874419343E+02  0.13452551988E+03  0.00000000000E+00 0. -1.
<scales pt_clust_5="13000.00000" pt_clust_6="13000.00000" pt_clust_7="13000.00000" pt_clust_8="13000.00000" pt_clust_9="137.93338"></scales>
<clustering>
<clus scale="   80.708">  5  6 -1 -1</clus>
<clus scale="   95.485">  7  8 -1 -1</clus>
<clus scale="  102.598">  2  7  1 -1</clus>
<clus scale="  137.933">  1  9  2 -1</clus>
<clus scale="  137.933">  1  5  2 -1</clus>
</clustering>
</event>
<event>
 9    1  0.4731329E-005  0.1212036E+03  0.7546771E-02  0.1243461E+00
         21   -1    0    0  501  502  0.00000000000E+00  0.00000000000E+00  0.49998841832E+03  0.49998841832E+03  0.00000000000E+00 0. -1.
          3   -1    0    0  502    0 -0.00000000000E+00 -0.00000000000E+00 -0.10434692542E+03  0.10434692542E+03  0.00000000000E+00 0. -1.
        -24    2    1    2    0    0 -0.83639994911E+02  0.71921896077E+02  0.13665103843E+03  0.19319210972E+03  0.80506379054E+02 0.  0.
         23    2    1    2    0    0 -0.15468852957E+02 -0.59427578436E+02  0.28773581105E+03  0.30719628975E+03  0.88355763719E+02 0.  0.
         13    1    3    3    0    0 -0.27357301147E+02  0.72641792212E+02  0.60073790291E+02  0.98153513343E+02  0.00000000000E+00 0. -1.
        -14    1    3    3    0    0 -0.56282693765E+02 -0.71989613436E+00  0.76577248141E+02  0.95038596373E+02  0.00000000000E+00 0.  1.
        -11    1    4    4    0    0  0.10758015566E+02  0.19735162920E+02  0.86328599812E+02  0.89206718917E+02  0.00000000000E+00 0.  1.
         11    1    4    4    0    0 -0.26226868524E+02 -0.79162741356E+02  0.20140721124E+03  0.21798957083E+03  0.00000000000E+00 0. -1.
          4    1    1    2  501    0  0.99108847869E+02 -0.12494317641E+02 -0.28745356585E+02  0.10394694428E+03  0.00000000000E+00 0. -1.
<scales pt_clust_5="13000.00000" pt_clust_6="13000.00000" pt_clust_7="13000.00000" pt_clust_8="13000.00000" pt_clust_9="99.89335"></scales>
<clustering>
<clus scale="   80.506">  5  6 -1 -1</clus>
<clus scale="   88.356">  7  8 -1 -1</clus>
<clus scale="   99.893">  1  9  2 -1</clus>
<clus scale="  115.606">  2  5  1 -1</clus>
<clus scale="   99.893">  1  5  2 -1</clus>
</clustering>
</event>
<event>
 9    1  0.4731329E-005  0.1047017E+04  0.7546771E-02  0.9841887E-01
          1   -1    0    0  502    0 -0.00000000000E+00  0.00000000000E+00  0.13470425298E+04  0.13470425298E+04  0.00000000000E+00 0. -1.
         21   -1    0    0  501  502  0.00000000000E+00 -0.00000000000E+00 -0.28751993458E+04  0.28751993458E+04  0.00000000000E+00 0. -1.
         23    2    1    2    0    0  0.10516802585E+03 -0.33091506523E+01 -0.20560759429E+03  0.24799735117E+03  0.90315775030E+02 0.  0.
        -24    2    1    2    0    0  0.88383893691E+03 -0.35538876440E+03  0.10249040894E+04  0.14018262042E+04  0.84946301131E+02 0.  0.
         13    1    4    4    0    0  0.65392321317E+03 -0.23114274302E+03  0.77848073094E+03  0.10426287857E+04  0.00000000000E+00 0. -1.
        -14    1    4    4    0    0  0.22991572374E+03 -0.12424602138E+03  0.24642335845E+03  0.35919741848E+03  0.00000000000E+00 0.  1.
        -13    1    3    3    0    0  0.11050086731E+03  0.21495752082E+02 -0.17694067098E+03  0.20971530722E+03  0.00000000000E+00 0.  1.
         13    1    3    3    0    0 -0.53328414521E+01 -0.24804902735E+02 -0.28666923308E+02  0.38282043958E+02  0.00000000000E+00 0. -1.
          2    1    1    2  501    0 -0.98900696277E+03  0.35869791505E+03 -0.23474533111E+04  0.25724183203E+04  0.00000000000E+00 0. -1.
<scales pt_clust_5="13000.00000" pt_clust_6="13000.00000" pt_clust_7="13000.00000" pt_clust_8="13000.00000" pt_clust_9="1043.56547"></scales>
<clustering>
<clus scale="   84.946">  5  6 -1 -1</clus>
<clus scale="   90.316">  7  8 -1 -1</clus>
<clus scale="  138.666">  1  7  2 -1</clus>
<clus scale=" 1043.565">  2  9  1 -1</clus>
<clus scale=" 1043.565">  2  5  1 -1</clus>
</clustering>
</event>
<event>
 9    1  0.4731329E-005  0.2171965E+03  0.7546771E-02  0.1169599E+00
          1   -1    0    0  502    0 -0.00000000000E+00  0.00000000000E+00  0.37152020035E+03  0.37152020035E+03  0.00000000000E+00 0. -1.
         21   -1    0    0  501  502  0.00000000000E+00 -0.00000000000E+00 -0.26211263898E+03  0.26211263898E+03  0.00000000000E+00 0. -1.
         23    2    1    2    0    0  0.32561134849E+02  0.21478082998E+02  0.12884723293E+03  0.16207643826E+03  0.90253126546E+02 0.  0.
        -24    2    1    2    0    0  0.63945753500E+02 -0.19819980431E+03  0.92629012346E+02  0.24111435587E+03  0.78636994214E+02 0.  0.
         13    1    4    4    0    0  0.78251101806E+02 -0.18607549994E+03  0.74898163914E+02  0.21530690089E+03  0.00000000000E+00 0. -1.
        -14    1    4    4    0    0 -0.14305348305E+02 -0.12124304371E+02  0.17730848432E+02  0.25807454984E+02  0.00000000000E+00 0.  1.
        -13    1    3    3    0    0 -0.11253900812E+01  0.50688069705E+02  0.88243626119E+02  0.10177172723E+03  0.00000000000E+00 0.  1.
         13    1    3    3    0    0  0.33686524930E+02 -0.29209986708E+02  0.40603606815E+02  0.60304711025E+02  0.00000000000E+00 0. -1.
          2    1    1    2  501    0 -0.96506888349E+02  0.17672172132E+03 -0.11206868391E+03  0.23044204520E+03  0.00000000000E+00 0. -1.
<scales pt_clust_5="13000.00000" pt_clust_6="13000.00000" pt_clust_7="13000.00000" pt_clust_8="13000.00000" pt_clust_9="202.46117"></scales>
<clustering>
<clus scale="   78.637">  5  6 -1 -1</clus>
<clus scale="   90.253">  7  8 -1 -1</clus>
<clus scale="   98.322">  1  7  2 -1</clus>
<clus scale="  202.461">  2  9  1 -1</clus>
<clus scale="  202.461">  2  5  1 -1</clus>
</clustering>
</event>
<event>
 9    1  0.4731329E-005  0.9657884E+02  0.7546771E-02  0.1291092E+00
         -2   -1    0    0    0  501 -0.00000000000E+00  0.00000000000E+00  0.11444202483E+03  0.11444202483E+03  0.00000000000E+00 0.  1.
         21   -1    0    0  501  502  0.00000000000E+00 -0.00000000000E+00 -0.16836231678E+03  0.16836231678E+03  0.00000000000E+00 0.  1.
        -24    2    1    2    0    0 -0.26636339055E+01 -0.25561585487E+02  0.39538934432E+02  0.95329769723E+02  0.82848947255E+02 0.  0.
         23    2    1    2    0    0 -0.22597075325E+01  0.70620071979E+02 -0.49156219406E+02  0.12409269022E+03  0.89388819294E+02 0.  0.
         13    1    3    3    0    0  0.29398329413E+02 -0.40882927269E+02  0.16542653262E+02  0.53003159258E+02  0.00000000000E+00 0. -1.
        -14    1    3    3    0    0 -0.32061963318E+02  0.15321341782E+02  0.22996281170E+02  0.42326610465E+02  0.00000000000E+00 0.  1.
        -11    1    4    4    0    0  0.32300273592E+02  0.83747305320E+01  0.61611705483E+01  0.33932341625E+02  0.00000000000E+00 0. -1.
         11    1    4    4    0    0 -0.34559981124E+02  0.62245341447E+02 -0.55317389954E+02  0.90160348593E+02  0.00000000000E+00 0.  1.
         -1    1    1    2    0  502  0.49233414379E+01 -0.45058486492E+02 -0.44303006981E+02  0.63381881665E+02  0.00000000000E+00 0.  1.
<scales pt_clust_5="13000.00000" pt_clust_6="13000.00000" pt_clust_7="13000.00000" pt_clust_8="13000.00000" pt_clust_9="45.32666"></scales>
<clustering>
<clus scale="   45.327">  2  9  1 -1</clus>
<clus scale="   82.849">  5  6 -1 -1</clus>
<clus scale="   89.389">  7  8 -1 -1</clus>
<clus scale="   90.560">  1  5  2 -1</clus>
<clus scale="   45.327">  2  5  1 -1</clus>
</clustering>
</event>
<event>
 9    1  0.4731329E-005  0.1551295E+03  0.7546771E-02  0.1196480E+00
          1   -1    0    0  502    0 -0.00000000000E+00  0.00000000000E+00  0.15846213695E+03  0.15846213695E+03  0.00000000000E+00 0. -1.
         21   -1    0    0  501  502  0.00000000000E+00 -0.00000000000E+00 -0.19887416904E+03  0.19887416904E+03  0.00000000000E+00 0. -1.
         23    2    1    2    0    0  0.50036418926E+01  0.13009086179E+03  0.58560549905E+02  0.16989592077E+03  0.92122837209E+02 0.  0.
        -24    2    1    2    0    0  0.48857647743E+01 -0.11243481343E+03 -0.93535278509E+02  0.16648565599E+03  0.79392489296E+02 0.  0.
         11    1    4    4    0    0  0.42046205711E+01 -0.10023995654E+03 -0.10809610646E+03  0.14748049347E+03  0.00000000000E+00 0. -1.
        -12    1    4    4    0    0  0.68114420322E+00 -0.12194856892E+02  0.14560827951E+02  0.19005162526E+02  0.00000000000E+00 0.  1.
        -13    1    3    3    0    0  0.28796799689E+02  0.13239140599E+03  0.51829641351E+02  0.14506223414E+03  0.00000000000E+00 0. -1.
         13    1    3    3    0    0 -0.23793157796E+02 -0.23005441977E+01  0.67309085533E+01  0.24833686627E+02  0.00000000000E+00 0.  1.
          2    1    1    2  501    0 -0.98894066669E+01 -0.17656048360E+02 -0.54373034827E+01  0.20954729230E+02  0.00000000000E+00 0. -1.
<scales pt_clust_5="13000.00000" pt_clust_6="13000.00000" pt_clust_7="13000.00000" pt_clust_8="13000.00000" pt_clust_9="20.23701"></scales>
<clustering>
<clus scale="   20.237">  2  9  1 -1</clus>
<clus scale="   79.392">  5  6 -1 -1</clus>
<clus scale="   92.123">  7  8 -1 -1</clus>
<clus scale="  147.925">  2  5  1 -1</clus>
<clus scale="   20.237">  2  5  1 -1</clus>
</clustering>
</event>
<event>
 9    1  0.4731329E-005  0.1372036E+03  0.7546771E-02  0.1218690E+00
         21   -1    0    0  501  502  0.00000000000E+00  0.00000000000E+00  0.71954542224E+03  0.71954542224E+03  0.00000000000E+00 0.  1.
         -4   -1    0    0    0  501 -0.00000000000E+00 -0.00000000000E+00 -0.43817848423E+02  0.43817848423E+02  0.00000000000E+00 0.  1.
         23    2    1    2    0    0  0.70854410596E+02 -0.87603567430E+02  0.21168211550E+03  0.25521820139E+03  0.87362919889E+02 0.  0.
        -24    2    1    2    0    0 -0.55618053045E+01  0.10922576758E+03  0.26792134603E+03  0.30031025201E+03  0.80269532351E+02 0.  0.
         13    1    4    4    0    0 -0.18067244591E+02  0.26468750282E+02  0.18020961574E+02  0.36766494593E+02  0.00000000000E+00 0. -1.
        -14    1    4    4    0    0  0.12505439286E+02  0.82757017293E+02  0.24990038445E+03  0.26354375742E+03  0.00000000000E+00 0.  1.
        -11    1    3    3    0    0 -0.15588885022E+02 -0.14890619882E+02  0.93670455945E+01  0.23505008825E+02  0.00000000000E+00 0. -1.
         11    1    3    3    0    0  0.86443295619E+02 -0.72712947548E+02  0.20231506990E+03  0.23171319257E+03  0.00000000000E+00 0.  1.
         -3    1    1    2    0  502 -0.65292605292E+02 -0.21622200145E+02  0.19612411230E+03  0.20783481727E+03  0.00000000000E+00 0.  1.
<scales pt_clust_5="13000.00000" pt_clust_6="13000.00000" pt_clust_7="13000.00000" pt_clust_8="13000.00000" pt_clust_9="68.77968"></scales>
<clustering>
<clus scale="   68.780">  1  9  2 -1</clus>
<clus scale="   80.270">  5  6 -1 -1</clus>
<clus scale="   87.363">  7  8 -1 -1</clus>
<clus scale="  132.800">  1  5  2 -1</clus>
<clus scale="   68.780">  1  5  2 -1</clus>
</clustering>
</event>
<event>
 9    1  0.4731329E-005  0.1379409E+03  0.7546771E-02  0.1220779E+00
          1   -1    0    0  502    0 -0.00000000000E+00  0.00000000000E+00  0.66559907480E+03  0.66559907480E+03  0.00000000000E+00 0. -1.
         21   -1    0    0  501  502  0.00000000000E+00 -0.00000000000E+00 -0.61448209983E+03  0.61448209983E+03  0.00000000000E+00 0. -1.
        -24    2    1    2    0    0  0.39641918000E+02 -0.84034661201E+02  0.61451663810E+03  0.62683854411E+03  0.81624481175E+02 0.  0.
         23    2    1    2    0    0 -0.78568216110E+02  0.13534169842E+03 -0.16148630326E+03  0.24620207039E+03  0.10023618813E+03 0.  0.
         13    1    3    3    0    0  0.62498581666E+02 -0.60028591016E+02  0.50618771207E+03  0.51355185162E+03  0.00000000000E+00 0. -1.
        -14    1    3    3    0    0 -0.22856663666E+02 -0.24006070186E+02  0.10832892603E+03  0.11328669249E+03  0.00000000000E+00 0.  1.
        -11    1    4    4    0    0  0.11267565471E+02  0.37973691835E+02 -0.83635076205E+02  0.92540722253E+02  0.00000000000E+00 0.  1.
         11    1    4    4    0    0 -0.89835781581E+02  0.97368006585E+02 -0.77851227055E+02  0.15366134814E+03  0.00000000000E+00 0. -1.
          2    1    1    2  501    0  0.38926298110E+02 -0.51307037218E+02 -0.40191335987E+03  0.40704056013E+03  0.00000000000E+00 0. -1.
<scales pt_clust_5="13000.00000" pt_clust_6="13000.00000" pt_clust_7="13000.00000" pt_clust_8="13000.00000" pt_clust_9="64.40240"></scales>
<clustering>
<clus scale="   64.402">  2  9  1 -1</clus>
<clus scale="   81.624">  5  6 -1 -1</clus>
<clus scale="  100.236">  7  8 -1 -1</clus>
<clus scale="  125.072">  1  5  2 -1</clus>
<clus scale="   64.402">  2  5  1 -1</clus>
</clustering>
</event>
<event>
 9    1  0.4731329E-005  0.9231277E+02  0.7546771E-02  0.1300700E+00
         21   -1    0    0  501  502  0.00000000000E+00  0.00000000000E+00  0.64165202089E+02  0.64165202089E+02  0.00000000000E+00 0.  1.
          1   -1    0    0  502    0 -0.00000000000E+00 -0.00000000000E+00 -0.21714170559E+03  0.21714170559E+03  0.00000000000E+00 0. -1.
         23    2    1    2    0    0 -0.11815050534E+02  0.11031583809E+02 -0.12542756025E+03  0.15610272667E+03  0.91513371388E+02 0.  0.
        -24    2    1    2    0    0  0.12273924403E+02  0.15167372525E+02 -0.39317470783E+02  0.96479729441E+02  0.85917264125E+02 0.  0.
         11    1    4    4    0    0  0.14827200876E+02 -0.31492339853E+02 -0.35304153560E+02  0.49578186875E+02  0.00000000000E+00 0. -1.
        -12    1    4    4    0    0 -0.25532764732E+01  0.46659712378E+02 -0.40133172236E+01  0.46901542566E+02  0.00000000000E+00 0.  1.
        -11    1    3    3    0    0 -0.29688354795E+02 -0.18256467489E+02 -0.10856362615E+02  0.36504213796E+02  0.00000000000E+00 0. -1.
         11    1    3    3    0    0  0.17873304262E+02  0.29288051298E+02 -0.11457119763E+03  0.11959851287E+03  0.00000000000E+00 0.  1.
          2    1    1    2  501    0 -0.45887386965E+00 -0.26198956333E+02  0.11768527525E+02  0.28724451575E+02  0.00000000000E+00 0. -1.
<scales pt_clust_5="13000.00000" pt_clust_6="13000.00000" pt_clust_7="13000.00000" pt_clust_8="13000.00000" pt_clust_9="26.20297"></scales>
<clustering>
<clus scale="   26.203">  1  9  2 -1</clus>
<clus scale="   85.917">  5  6 -1 -1</clus>
<clus scale="   86.768">  1  5  2 -1</clus>
<clus scale="   91.513">  7  8 -1 -1</clus>
<clus scale="   26.203">  1  5  2 -1</clus>
</clustering>
</event>
<event>
 9    1  0.4731329E-005  0.1025241E+03  0.7546771E-02  0.1278869E+00
         21   -1    0    0  501  502  0.00000000000E+00  0.00000000000E+00  0.28453017672E+03  0.28453017672E+03  0.00000000000E+00 0.  1.
         -4   -1    0    0    0  501 -0.00000000000E+00 -0.00000000000E+00 -0.17304777215E+03  0.17304777215E+03  0.00000000000E+00 0.  1.
        -24    2    1    2    0    0 -0.50584339098E+01 -0.55934555590E+02 -0.13267012733E+03  0.16529791518E+03  0.81041815224E+02 0.  0.
         23    2    1    2    0    0 -0.29360136438E+02  0.70922774344E-01  0.12760505498E+03  0.15853139693E+03  0.89370750898E+02 0.  0.
         13    1    3    3    0    0 -0.41929735194E+02 -0.19686459218E+02 -0.53842067644E+02  0.71025542012E+02  0.00000000000E+00 0. -1.
        -14    1    3    3    0    0  0.36871301284E+02 -0.36248096372E+02 -0.78828059691E+02  0.94272373172E+02  0.00000000000E+00 0.  1.
        -13    1    4    4    0    0 -0.41172500161E+02  0.36827651173E+02  0.69701373803E+02  0.88936675058E+02  0.00000000000E+00 0. -1.
         13    1    4    4    0    0  0.11812363722E+02 -0.36756728399E+02  0.57903681175E+02  0.69594721876E+02  0.00000000000E+00 0.  1.
         -3    1    1    2    0  502  0.34418570348E+02  0.55863632815E+02  0.11654747693E+03  0.13374863675E+03  0.00000000000E+00 0.  1.
<scales pt_clust_5="13000.00000" pt_clust_6="13000.00000" pt_clust_7="13000.00000" pt_clust_8="13000.00000" pt_clust_9="65.61542"></scales>
<clustering>
<clus scale="   65.615">  1  9  2 -1</clus>
<clus scale="   81.042">  5  6 -1 -1</clus>
<clus scale="   89.371">  7  8 -1 -1</clus>
<clus scale="   95.351">  2  5  1 -1</clus>
<clus scale="   65.615">  1  5  2 -1</clus>
</clustering>
</event>
<event>
 9    1  0.4731329E-005  0.8277369E+02  0.7546771E-02  0.1324209E+00
         21   -1    0    0  501  502  0.00000000000E+00  0.00000000000E+00  0.29843876328E+03  0.29843876328E+03  0.00000000000E+00 0. -1.
          3   -1    0    0  502    0 -0.00000000000E+00 -0.00000000000E+00 -0.32511282726E+03  0.32511282726E+03  0.00000000000E+00 0. -1.
         23    2    1    2    0    0 -0.22602890875E+01  0.26347496077E+02 -0.30134850769E+03  0.31154873750E+03  0.74514383122E+02 0.  0.
        -24    2    1    2    0    0  0.13851777220E+02 -0.31860510996E+01  0.72056862616E+02  0.10773660693E+03  0.78822346890E+02 0.  0.
         11    1    4    4    0    0  0.46049531874E+02 -0.97294669563E+01  0.45874655675E+02  0.65724469921E+02  0.00000000000E+00 0. -1.
        -12    1    4    4    0    0 -0.32197754655E+02  0.65434158567E+01  0.26182206942E+02  0.42012137011E+02  0.00000000000E+00 0.  1.
        -11    1    3    3    0    0  0.27168398459E+02 -0.12807951961E+02 -0.10921722986E+03  0.11327210074E+03  0.00000000000E+00 0. -1.
         11    1    3    3    0    0 -0.29428687547E+02  0.39155448038E+02 -0.19213127783E+03  0.19827663676E+03  0.00000000000E+00 0.  1.
          4    1    1    2  501    0 -0.11591488132E+02 -0.23161444977E+02  0.20261758110E+03  0.20426624611E+03  0.00000000000E+00 0. -1.
<scales pt_clust_5="13000.00000" pt_clust_6="13000.00000" pt_clust_7="13000.00000" pt_clust_8="13000.00000" pt_clust_9="25.90010"></scales>
<clustering>
<clus scale="   25.900">  1  9  2 -1</clus>
<clus scale="   74.514">  7  8 -1 -1</clus>
<clus scale="   78.682">  2  7  1 -1</clus>
<clus scale="   78.822">  5  6 -1 -1</clus>
<clus scale="   25.900">  1  5  2 -1</clus>
</clustering>
</event>
<event>
 9    1  0.4731329E-005  0.1720275E+03  0.7546771E-02  0.1190998E+00
          1   -1    0    0  502    0 -0.00000000000E+00  0.00000000000E+00  0.57266536482E+03  0.57266536482E+03  0.00000000000E+00 0. -1.
         21   -1    0    0  501  502  0.00000000000E+00 -0.00000000000E+00 -0.95678998254E+02  0.95678998254E+02  0.00000000000E+00 0. -1.
        -24    2    1    2    0    0 -0.79378788403E+02 -0.46056748795E+02  0.59283779667E+02  0.13595372916E+03  0.80911271045E+02 0.  0.
         23    2    1    2    0    0  0.14780974854E+03 -0.73357692395E+02  0.20691727204E+03  0.28065058142E+03  0.93385858608E+02 0.  0.
         11    1    3    3    0    0 -0.68637986828E+02 -0.74184433381E+01  0.65743760129E+02  0.95333354778E+02  0.00000000000E+00 0. -1.
        -12    1    3    3    0    0 -0.10740801574E+02 -0.38638305457E+02 -0.64599804621E+01  0.40620374378E+02  0.00000000000E+00 0.  1.
        -13    1    4    4    0    0  0.13523398270E+03 -0.48911419170E+02  0.11329244914E+03  0.18307303470E+03  0.00000000000E+00 0. -1.
         13    1    4    4    0    0  0.12575765836E+02 -0.24446273225E+02  0.93624822901E+02  0.97577546722E+02  0.00000000000E+00 0.  1.
          2    1    1    2  501    0 -0.68430960136E+02  0.11941444119E+03  0.21078531486E+03  0.25174005249E+03  0.00000000000E+00 0. -1.
<scales pt_clust_5="13000.00000" pt_clust_6="13000.00000" pt_clust_7="13000.00000" pt_clust_8="13000.00000" pt_clust_9="144.47339"></scales>
<clustering>
<clus scale="   80.911">  5  6 -1 -1</clus>
<clus scale="   93.386">  7  8 -1 -1</clus>
<clus scale="  122.347">  1  5  2 -1</clus>
<clus scale="  144.473">  2  9  1 -1</clus>
<clus scale="  144.473">  2  5  1 -1</clus>
</clustering>
</event>
<event>
 9    1  0.4731329E-005  0.1100420E+03  0.7546771E-02  0.1263433E+00
         -4   -1    0    0    0  501 -0.00000000000E+00  0.00000000000E+00  0.84223115921E+02  0.84223115921E+02  0.00000000000E+00 0.  1.
         21   -1    0    0  501  502  0.00000000000E+00 -0.00000000000E+00 -0.34738111107E+03  0.34738111107E+03  0.00000000000E+00 0. -1.
         23    2    1    2    0    0  0.94847541922E+00  0.69118024322E+02  0.23545632147E+02  0.11648678930E+03  0.90755575019E+02 0.  0.
        -24    2    1    2    0    0  0.13426853309E+02 -0.30731265238E+02 -0.20222849503E+03  0.22122259587E+03  0.83176809677E+02 0.  0.
         13    1    4    4    0    0 -0.35124908092E+02 -0.78281239709E+01 -0.83073427207E+02  0.90533049221E+02  0.00000000000E+00 0. -1.
        -14    1    4    4    0    0  0.48551761401E+02 -0.22903141268E+02 -0.11915506782E+03  0.13068954665E+03  0.00000000000E+00 0.  1.
        -11    1    3    3    0    0  0.19017955182E+02  0.27159142124E+02 -0.30963114743E+02  0.45365362280E+02  0.00000000000E+00 0. -1.
         11    1    3    3    0    0 -0.18069479763E+02  0.41958882198E+02  0.54508746890E+02  0.71121427023E+02  0.00000000000E+00 0.  1.
         -3    1    1    2    0  502 -0.14375328728E+02 -0.38386759083E+02 -0.84475132270E+02  0.93894841823E+02  0.00000000000E+00 0.  1.
<scales pt_clust_5="13000.00000" pt_clust_6="13000.00000" pt_clust_7="13000.00000" pt_clust_8="13000.00000" pt_clust_9="40.99016"></scales>
<clustering>
<clus scale="   40.990">  2  9  1 -1</clus>
<clus scale="   83.177">  5  6 -1 -1</clus>
<clus scale="   90.756">  7  8 -1 -1</clus>
<clus scale="  103.880">  2  5  1 -1</clus>
<clus scale="   40.990">  2  5  1 -1</clus>
</clustering>
</event>
<event>
 9    1  0.4731329E-005  0.1053451E+03  0.7546771E-02  0.1283763E+00
         21   -1    0    0  501  502  0.00000000000E+00  0.00000000000E+00  0.15152925678E+03  0.15152925678E+03  0.00000000000E+00 0. -1.
          1   -1    0    0  502    0 -0.00000000000E+00 -0.00000000000E+00 -0.51942605262E+03  0.51942605262E+03  0.00000000000E+00 0. -1.
         23    2    1    2    0    0 -0.12830626749E+02 -0.19997020094E+02 -0.49489935766E+03  0.50602845259E+03  0.10283440490E+03 0.  0.
        -24    2    1    2    0    0  0.18099249353E+02 -0.55919477722E+01  0.93705535899E+02  0.12260374733E+03  0.76760007123E+02 0.  0.
         11    1    4    4    0    0 -0.22991515078E+02 -0.10968437489E+02  0.68661172381E+01  0.26382948138E+02  0.00000000000E+00 0. -1.
        -12    1    4    4    0    0  0.41090764432E+02  0.53764897164E+01  0.86839418660E+02  0.96220799189E+02  0.00000000000E+00 0.  1.
        -13    1    3    3    0    0 -0.18425910968E+02 -0.60926776179E+02 -0.32545144796E+03  0.33161759789E+03  0.00000000000E+00 0. -1.
         13    1    3    3    0    0  0.55952842195E+01  0.40929756085E+02 -0.16944790970E+03  0.17441085471E+03  0.00000000000E+00 0.  1.
          2    1    1    2  501    0 -0.52686226043E+01  0.25588967866E+02  0.33297025923E+02  0.42323109479E+02  0.00000000000E+00 0. -1.
<scales pt_clust_5="13000.00000" pt_clust_6="13000.00000" pt_clust_7="13000.00000" pt_clust_8="13000.00000" pt_clust_9="26.12573"></scales>
<clustering>
<clus scale="   26.126">  1  9  2 -1</clus>
<clus scale="   76.760">  5  6 -1 -1</clus>
<clus scale="   80.092">  1  5  2 -1</clus>
<clus scale="  102.834">  7  8 -1 -1</clus>
<clus scale="   26.126">  1  5  2 -1</clus>
</clustering>
</event>
<event>
 9    1  0.4731329E-005  0.9906581E+02  0.7546771E-02  0.1290115E+00
         -4   -1    0    0    0  501 -0.00000000000E+00  0.00000000000E+00  0.44331925211E+03  0.44331925211E+03  0.00000000000E+00 0.  1.
         21   -1    0    0  501  502  0.00000000000E+00 -0.00000000000E+00 -0.57437185642E+02  0.57437185642E+02  0.00000000000E+00 0.  1.
        -24    2    1    2    0    0  0.27940657052E+02 -0.43856188481E+02  0.27196624191E+03  0.28761934547E+03  0.77815201390E+02 0.  0.
         23    2    1    2    0    0  0.79505576422E+01  0.83598430431E+01  0.13014223564E+03  0.16011383090E+03  0.92554519104E+02 0.  0.
         11    1    3    3    0    0  0.41394819739E+02 -0.40735664270E+02  0.26651783229E+03  0.27277221335E+03  0.00000000000E+00 0. -1.
        -12    1    3    3    0    0 -0.13454162687E+02 -0.31205242113E+01  0.54484096156E+01  0.14847132124E+02  0.00000000000E+00 0.  1.
        -13    1    4    4    0    0 -0.10295881265E+02 -0.38818968223E+02  0.76383173167E+02  0.86297778697E+02  0.00000000000E+00 0.  1.
         13    1    4    4    0    0  0.18246438907E+02  0.47178811266E+02  0.53759062469E+02  0.73816052203E+02  0.00000000000E+00 0. -1.
         -3    1    1    2    0  502 -0.35891214694E+02  0.35496345438E+02 -0.16226411072E+02  0.53023261385E+02  0.00000000000E+00 0.  1.
<scales pt_clust_5="13000.00000" pt_clust_6="13000.00000" pt_clust_7="13000.00000" pt_clust_8="13000.00000" pt_clust_9="50.47940"></scales>
<clustering>
<clus scale="   50.479">  2  9  1 -1</clus>
<clus scale="   77.815">  5  6 -1 -1</clus>
<clus scale="   85.457">  1  5  2 -1</clus>
<clus scale="   92.555">  7  8 -1 -1</clus>
<clus scale="   50.479">  2  5  1 -1</clus>
</clustering>
</event>
<event>
 9    1  0.4731329E-005  0.1219060E+03  0.7546771E-02  0.1244837E+00
         -4   -1    0    0    0  501 -0.00000000000E+00  0.00000000000E+00  0.19787263241E+03  0.19787263241E+03  0.00000000000E+00 0.  1.
         21   -1    0    0  501  502  0.00000000000E+00 -0.00000000000E+00 -0.23084592581E+03  0.23084592581E+03  0.00000000000E+00 0. -1.
        -24    2    1    2    0    0  0.26274441817E+01  0.76647785979E+02  0.13021600397E+03  0.17094823369E+03  0.79908099421E+02 0.  0.
         23    2    1    2    0    0 -0.36628445357E+02 -0.72157925869E+02 -0.41818053434E+02  0.13164655286E+03  0.95045547035E+02 0.  0.
         13    1    3    3    0    0  0.14056506933E+02  0.42240419921E+02  0.10330990618E+02  0.45700851517E+02  0.00000000000E+00 0. -1.
        -14    1    3    3    0    0 -0.11429062752E+02  0.34407366058E+02  0.11988501335E+03  0.12524738217E+03  0.00000000000E+00 0.  1.
        -11    1    4    4    0    0  0.19877894939E+02 -0.34622571177E+02 -0.49255328275E+02  0.63403000761E+02  0.00000000000E+00 0.  1.
         11    1    4    4    0    0 -0.56506340296E+02 -0.37535354693E+02  0.74372748406E+01  0.68243552096E+02  0.00000000000E+00 0. -1.
         -3    1    1    2    0  502  0.34001001175E+02 -0.44898601097E+01 -0.12137124394E+03  0.12612377167E+03  0.00000000000E+00 0.  1.
<scales pt_clust_5="13000.00000" pt_clust_6="13000.00000" pt_clust_7="13000.00000" pt_clust_8="13000.00000" pt_clust_9="34.29616"></scales>
<clustering>
<clus scale="   34.296">  2  9  1 -1</clus>
<clus scale="   79.908">  5  6 -1 -1</clus>
<clus scale="   95.046">  7  8 -1 -1</clus>
<clus scale="  110.511">  1  5  2 -1</clus>
<clus scale="   34.296">  2  5  1 -1</clus>
</clustering>
</event>
<event>
 9    1  0.4731329E-005  0.1337317E+03  0.7546771E-02  0.1224165E+00
         21   -1    0    0  501  502  0.00000000000E+00  0.00000000000E+00  0.34789822028E+03  0.34789822028E+03  0.00000000000E+00 0. -1.
          1   -1    0    0  502    0 -0.00000000000E+00 -0.00000000000E+00 -0.17788316576E+03  0.17788316576E+03  0.00000000000E+00 0. -1.
        -24    2    1    2    0    0  0.37813226318E+02  0.10580467526E+03 -0.83658939049E+02  0.16134580627E+03  0.80057365219E+02 0.  0.
         23    2    1    2    0    0  0.72927810042E+02 -0.76439314999E+02  0.91053457997E+02  0.16551011608E+03  0.89114712340E+02 0.  0.
         13    1    3    3    0    0  0.49260091599E+02  0.10656183493E+03 -0.90283803495E+02  0.14809843504E+03  0.00000000000E+00 0. -1.
        -14    1    3    3    0    0 -0.11446865280E+02 -0.75715966828E+00  0.66248644463E+01  0.13247371228E+02  0.00000000000E+00 0.  1.
        -11    1    4    4    0    0 -0.12089455670E+02 -0.45512384593E+02  0.38945062369E+02  0.61108509822E+02  0.00000000000E+00 0.  1.
         11    1    4    4    0    0  0.85017265712E+02 -0.30926930405E+02  0.52108395628E+02  0.10440160625E+03  0.00000000000E+00 0. -1.
          2    1    1    2  501    0 -0.11074103636E+03 -0.29365360262E+02  0.16262053557E+03  0.19892546370E+03  0.00000000000E+00 0. -1.
<scales pt_clust_5="13000.00000" pt_clust_6="13000.00000" pt_clust_7="13000.00000" pt_clust_8="13000.00000" pt_clust_9="114.56833"></scales>
<clustering>
<clus scale="   80.057">  5  6 -1 -1</clus>
<clus scale="   89.115">  7  8 -1 -1</clus>
<clus scale="  114.568">  1  9  2 -1</clus>
<clus scale="  127.875">  2  5  1 -1</clus>
<clus scale="  114.568">  1  5  2 -1</clus>
</clustering>
</event>
<event>
 9    1  0.4731329E-005  0.9141049E+02  0.7546771E-02  0.1303870E+00
         21   -1    0    0  501  502  0.00000000000E+00  0.00000000000E+00  0.15333277823E+03  0.15333277823E+03  0.00000000000E+00 0.  1.
          3   -1    0    0  502    0 -0.00000000000E+00 -0.00000000000E+00 -0.20058631047E+03  0.20058631047E+03  0.00000000000E+00 0. -1.
         23    2    1    2    0    0  0.99257423207E+01  0.50136004217E+01 -0.13433322386E+03  0.16270528245E+03  0.91125942266E+02 0.  0.
        -24    2    1    2    0    0  0.14695070410E+02  0.50671752241E+02  0.84444797818E+02  0.13027132857E+03  0.84000735712E+02 0.  0.
         11    1    4    4    0    0  0.15181928596E+02 -0.15010451254E+02 -0.22898481576E+01  0.21472028486E+02  0.00000000000E+00 0. -1.
        -12    1    4    4    0    0 -0.48685818585E+00  0.65682203494E+02  0.86734645976E+02  0.10879930009E+03  0.00000000000E+00 0.  1.
        -11    1    3    3    0    0 -0.30649700087E+02 -0.11310336260E+02 -0.15660013288E+02  0.36229322902E+02  0.00000000000E+00 0.  1.
         11    1    3    3    0    0  0.40575442408E+02  0.16323936682E+02 -0.11867321057E+03  0.12647595954E+03  0.00000000000E+00 0. -1.
          4    1    1    2  501    0 -0.24620812731E+02 -0.55685352663E+02  0.26348938063E+01  0.60942477682E+02  0.00000000000E+00 0. -1.
<scales pt_clust_5="13000.00000" pt_clust_6="13000.00000" pt_clust_7="13000.00000" pt_clust_8="13000.00000" pt_clust_9="60.88549"></scales>
<clustering>
<clus scale="   60.885">  1  9  2 -1</clus>
<clus scale="   84.001">  5  6 -1 -1</clus>
<clus scale="   84.309">  1  5  2 -1</clus>
<clus scale="   91.126">  7  8 -1 -1</clus>
<clus scale="   60.885">  1  5  2 -1</clus>
</clustering>
</event>
<event>
 9    1  0.4731329E-005  0.1474673E+03  0.7546771E-02  0.1225239E+00
         21   -1    0    0  501  502  0.00000000000E+00  0.00000000000E+00  0.20058154216E+03  0.20058154216E+03  0.00000000000E+00 0. -1.
         -2   -1    0    0    0  501 -0.00000000000E+00 -0.00000000000E+00 -0.20873780988E+03  0.20873780988E+03  0.00000000000E+00 0.  1.
         23    2    1    2    0    0  0.25657418832E+01 -0.18699268335E+02 -0.74513948872E+02  0.11937023803E+03  0.91327320577E+02 0.  0.
        -24    2    1    2    0    0 -0.10180541688E+03  0.86383954471E+02  0.56210330069E+01  0.15534350396E+03  0.79205288421E+02 0.  0.
         11    1    4    4    0    0 -0.88440422375E+02  0.24431015285E+02  0.62083217148E+01  0.91962634131E+02  0.00000000000E+00 0. -1.
        -12    1    4    4    0    0 -0.13364994502E+02  0.61952939186E+02 -0.58728870788E+00  0.63380869825E+02  0.00000000000E+00 0.  1.
        -13    1    3    3    0    0  0.39021047740E+02 -0.31607983777E+02 -0.23740246357E+02  0.55545531794E+02  0.00000000000E+00 0.  1.
         13    1    3    3    0    0 -0.36455305857E+02  0.12908715442E+02 -0.50773702514E+02  0.63824706239E+02  0.00000000000E+00 0. -1.
         -1    1    1    2    0  502  0.99239674994E+02 -0.67684686136E+02  0.60736648148E+02  0.13460561006E+03  0.00000000000E+00 0.  1.
<scales pt_clust_5="13000.00000" pt_clust_6="13000.00000" pt_clust_7="13000.00000" pt_clust_8="13000.00000" pt_clust_9="124.39106"></scales>
<clustering>
<clus scale="   79.205">  5  6 -1 -1</clus>
<clus scale="   91.327">  7  8 -1 -1</clus>
<clus scale="   93.257">  2  7  1 -1</clus>
<clus scale="  124.391">  1  9  2 -1</clus>
<clus scale="  124.391">  1  5  2 -1</clus>
</clustering>
</event>
<event>
 9    1  0.4731329E-005  0.4341171E+03  0.7546771E-02  0.1032567E+00
         21   -1    0    0  501  502  0.00000000000E+00  0.00000000000E+00  0.60881865030E+03  0.60881865030E+03  0.00000000000E+00 0. -1.
          1   -1    0    0  502    0 -0.00000000000E+00 -0.00000000000E+00 -0.40579253339E+03  0.40579253339E+03  0.00000000000E+00 0. -1.
        -24    2    1    2    0    0  0.61343104008E+01  0.10858238589E+03 -0.69575964666E+02  0.15227190969E+03  0.80735093544E+02 0.  0.
         23    2    1    2    0    0 -0.28562369853E+02  0.28129848202E+03 -0.10824576460E+03  0.31685307717E+03  0.93456310639E+02 0.  0.
         13    1    3    3    0    0  0.14992015816E+02  0.79288721475E+02 -0.85674235681E+02  0.11769255096E+03  0.00000000000E+00 0. -1.
        -14    1    3    3    0    0 -0.88577054151E+01  0.29293664419E+02  0.16098271016E+02  0.34579358728E+02  0.00000000000E+00 0.  1.
        -13    1    4    4    0    0  0.16554881676E+02  0.15960646340E+02  0.70487585233E+01  0.24051846823E+02  0.00000000000E+00 0.  1.
         13    1    4    4    0    0 -0.45117251528E+02  0.26533783568E+03 -0.11529452312E+03  0.29280123034E+03  0.00000000000E+00 0. -1.
          2    1    1    2  501    0  0.22428059452E+02 -0.38988086791E+03  0.38084784617E+03  0.54548619684E+03  0.00000000000E+00 0. -1.
<scales pt_clust_5="13000.00000" pt_clust_6="13000.00000" pt_clust_7="13000.00000" pt_clust_8="13000.00000" pt_clust_9="390.52543"></scales>
<clustering>
<clus scale="   80.735">  5  6 -1 -1</clus>
<clus scale="   93.456">  7  8 -1 -1</clus>
<clus scale="   98.904">  5  7 -1 -1</clus>
<clus scale="  390.525">  1  9  2 -1</clus>
<clus scale="  390.525">  1  5  2 -1</clus>
</clustering>
</event>
<event>
 9    1  0.4731329E-005  0.9743190E+02  0.7546771E-02  0.1293675E+00
         21   -1    0    0  501  502  0.00000000000E+00  0.00000000000E+00  0.82066878276E+02  0.82066878276E+02  0.00000000000E+00 0. -1.
         -4   -1    0    0    0  501 -0.00000000000E+00 -0.00000000000E+00 -0.37128184233E+03  0.37128184233E+03  0.00000000000E+00 0.  1.
         23    2    1    2    0    0 -0.34799576104E+02 -0.48478106873E+01 -0.26081467237E+03  0.27929926885E+03  0.93537567265E+02 0.  0.
        -24    2    1    2    0    0 -0.67733806504E+01 -0.54776376752E+02 -0.30057582457E+02  0.10134387375E+03  0.79503410923E+02 0.  0.
         13    1    4    4    0    0 -0.27044832263E+02 -0.56563740914E+02  0.27279906941E+01  0.62756048885E+02  0.00000000000E+00 0. -1.
        -14    1    4    4    0    0  0.20271451613E+02  0.17873641621E+01 -0.32785573151E+02  0.38587824867E+02  0.00000000000E+00 0.  1.
        -13    1    3    3    0    0 -0.58764335680E+02  0.12532646903E+00 -0.24024675599E+03  0.24732926761E+03  0.00000000000E+00 0.  1.
         13    1    3    3    0    0  0.23964759576E+02 -0.49731371563E+01 -0.20567916381E+02  0.31970001235E+02  0.00000000000E+00 0. -1.
         -3    1    1    2    0  502  0.41572956755E+02  0.59624187439E+02  0.16572907694E+01  0.72705578010E+02  0.00000000000E+00 0.  1.
<scales pt_clust_5="13000.00000" pt_clust_6="13000.00000" pt_clust_7="13000.00000" pt_clust_8="13000.00000" pt_clust_9="72.68669"></scales>
<clustering>
<clus scale="   72.687">  1  9  2 -1</clus>
<clus scale="   79.503">  5  6 -1 -1</clus>
<clus scale="   84.051">  1  5  2 -1</clus>
<clus scale="   93.538">  7  8 -1 -1</clus>
<clus scale="   72.687">  1  5  2 -1</clus>
</clustering>
</event>
<event>
 9    1  0.4731329E-005  0.9542619E+02  0.7546771E-02  0.1294693E+00
          3   -1    0    0  502    0 -0.00000000000E+00  0.00000000000E+00  0.31484392040E+03  0.31484392040E+03  0.00000000000E+00 0. -1.
         21   -1    0    0  501  502  0.00000000000E+00 -0.00000000000E+00 -0.46609364518E+02  0.46609364518E+02  0.00000000000E+00 0.  1.
         23    2    1    2    0    0 -0.18561028911E+02 -0.20375614058E+02  0.17780650469E+03  0.20075032202E+03  0.89027306130E+02 0.  0.
        -24    2    1    2    0    0  0.10309520870E+02  0.48766150744E+02  0.90480518542E+02  0.13113756571E+03  0.80783124630E+02 0.  0.
         13    1    4    4    0    0 -0.10383387697E+02  0.21058931670E+02  0.93520220663E+02  0.96422637466E+02  0.00000000000E+00 0. -1.
        -14    1    4    4    0    0  0.20692908567E+02  0.27707219075E+02 -0.30397021204E+01  0.34714928241E+02  0.00000000000E+00 0.  1.
        -11    1    3    3    0    0 -0.31893954059E+02  0.28041847702E+02  0.91980069641E+02  0.10131092113E+03  0.00000000000E+00 0. -1.
         11    1    3    3    0    0  0.13332925148E+02 -0.48417461760E+02  0.85826435049E+02  0.99439400891E+02  0.00000000000E+00 0.  1.
          4    1    1    2  501    0  0.82515080408E+01 -0.28390536687E+02 -0.52467353757E-01  0.29565397192E+02  0.00000000000E+00 0. -1.
<scales pt_clust_5="13000.00000" pt_clust_6="13000.00000" pt_clust_7="13000.00000" pt_clust_8="13000.00000" pt_clust_9="29.56535"></scales>
<clustering>
<clus scale="   29.565">  2  9  1 -1</clus>
<clus scale="   80.783">  5  6 -1 -1</clus>
<clus scale="   87.785">  2  5  1 -1</clus>
<clus scale="   89.027">  7  8 -1 -1</clus>
<clus scale="   29.565">  2  5  1 -1</clus>
</clustering>
</event>
<event>
 9    1  0.4731329E-005  0.1496150E+03  0.7546771E-02  0.1221168E+00
         21   -1    0    0  501  502  0.00000000000E+00  0.00000000000E+00  0.20283934521E+03  0.20283934521E+03  0.00000000000E+00 0. -1.
          3   -1    0    0  502    0 -0.00000000000E+00 -0.00000000000E+00 -0.28162974209E+03  0.28162974209E+03  0.00000000000E+00 0. -1.
         23    2    1    2    0    0 -0.23591858924E+02  0.28243812955E+02 -0.19681298852E+02  0.99196128394E+02  0.89990163830E+02 0.  0.
        -24    2    1    2    0    0  0.13950117383E+03 -0.67008960842E+02 -0.15247388878E+03  0.23147214576E+03  0.79876712327E+02 0.  0.
         11    1    4    4    0    0  0.12804722132E+03 -0.51813951187E+02 -0.15966987890E+03  0.21112850744E+03  0.00000000000E+00 0. -1.
        -12    1    4    4    0    0  0.11453952512E+02 -0.15195009656E+02  0.71959901203E+01  0.20343638328E+02  0.00000000000E+00 0.  1.
        -13    1    3    3    0    0  0.11024352443E+02 -0.28601495552E+02 -0.53792794916E+01  0.31121030550E+02  0.00000000000E+00 0.  1.
         13    1    3    3    0    0 -0.34616211368E+02  0.56845308508E+02 -0.14302019360E+02  0.68075097845E+02  0.00000000000E+00 0. -1.
          4    1    1    2  501    0 -0.11590931491E+03  0.38765147887E+02  0.93364790747E+02  0.15380081314E+03  0.00000000000E+00 0. -1.
<scales pt_clust_5="13000.00000" pt_clust_6="13000.00000" pt_clust_7="13000.00000" pt_clust_8="13000.00000" pt_clust_9="126.50830"></scales>
<clustering>
<clus scale="   79.877">  5  6 -1 -1</clus>
<clus scale="   89.990">  7  8 -1 -1</clus>
<clus scale="   97.224">  2  7  1 -1</clus>
<clus scale="  126.508">  1  9  2 -1</clus>
<clus scale="  126.508">  1  5  2 -1</clus>
</clustering>
</event>
<event>
 9    1  0.4731329E-005  0.1006047E+03  0.7546771E-02  0.1283166E+00
         21   -1    0    0  501  502  0.00000000000E+00  0.00000000000E+00  0.76051419127E+02  0.76051419127E+02  0.00000000000E+00 0. -1.
          1   -1    0    0  502    0 -0.00000000000E+00 -0.00000000000E+00 -0.30249938686E+03  0.30249938686E+03  0.00000000000E+00 0. -1.
         23    2    1    2    0    0  0.36697967822E+02  0.37277748472E+02 -0.23481987386E+03  0.25658075740E+03  0.89201684592E+02 0.  0.
        -24    2    1    2    0    0 -0.17075810101E+02 -0.22194407205E+02 -0.16546415698E+02  0.86849413348E+02  0.80528639158E+02 0.  0.
         11    1    4    4    0    0  0.12108011119E+02  0.24623393799E+02 -0.15825429671E+02  0.31675853260E+02  0.00000000000E+00 0. -1.
        -12    1    4    4    0    0 -0.29183821220E+02 -0.46817801004E+02 -0.72098602629E+00  0.55173560088E+02  0.00000000000E+00 0.  1.
        -11    1    3    3    0    0  0.64150091169E+02  0.29554593943E+02 -0.12997160469E+03  0.14792337965E+03  0.00000000000E+00 0. -1.
         11    1    3    3    0    0 -0.27452123347E+02  0.77231545294E+01 -0.10484826917E+03  0.10865737775E+03  0.00000000000E+00 0.  1.
          2    1    1    2  501    0 -0.19622157721E+02 -0.15083341267E+02  0.24918321822E+02  0.35120635242E+02  0.00000000000E+00 0. -1.
<scales pt_clust_5="13000.00000" pt_clust_6="13000.00000" pt_clust_7="13000.00000" pt_clust_8="13000.00000" pt_clust_9="24.74947"></scales>
<clustering>
<clus scale="   24.749">  1  9  2 -1</clus>
<clus scale="   80.529">  5  6 -1 -1</clus>
<clus scale="   89.202">  7  8 -1 -1</clus>
<clus scale="   93.001">  1  5  2 -1</clus>
<clus scale="   24.749">  1  5  2 -1</clus>
</clustering>
</event>
<event>
 9    1  0.4731329E-005  0.1085157E+03  0.7546771E-02  0.1268348E+00
         21   -1    0    0  501  502  0.00000000000E+00  0.00000000000E+00  0.60839302304E+03  0.60839302304E+03  0.00000000000E+00 0.  1.
          1   -1    0    0  502    0 -0.00000000000E+00 -0.00000000000E+00 -0.38063130451E+02  0.38063130451E+02  0.00000000000E+00 0. -1.
         23    2    1    2    0    0  0.41480801834E+02 -0.36477547225E+02  0.10453502307E+03  0.15191363589E+03  0.95388224375E+02 0.  0.
        -24    2    1    2    0    0 -0.59248171201E+02 -0.10330206351E+02  0.21062776339E+03  0.23451002490E+03  0.83748660374E+02 0.  0.
         11    1    4    4    0    0 -0.42916632308E+02  0.16065274900E+02  0.39227285793E+02  0.60321723591E+02  0.00000000000E+00 0. -1.
        -12    1    4    4    0    0 -0.16331538893E+02 -0.26395481251E+02  0.17140047760E+03  0.17418830131E+03  0.00000000000E+00 0.  1.
        -11    1    3    3    0    0  0.28103976882E+01 -0.63164112163E+02  0.61265471507E+02  0.88040112446E+02  0.00000000000E+00 0.  1.
         11    1    3    3    0    0  0.38670404146E+02  0.26686564938E+02  0.43269551567E+02  0.63873523449E+02  0.00000000000E+00 0. -1.
          2    1    1    2  501    0  0.17767369367E+02  0.46807753576E+02  0.25516710613E+03  0.26003249270E+03  0.00000000000E+00 0. -1.
<scales pt_clust_5="13000.00000" pt_clust_6="13000.00000" pt_clust_7="13000.00000" pt_clust_8="13000.00000" pt_clust_9="50.06641"></scales>
<clustering>
<clus scale="   50.066">  1  9  2 -1</clus>
<clus scale="   83.749">  5  6 -1 -1</clus>
<clus scale="   95.388">  7  8 -1 -1</clus>
<clus scale="   98.441">  1  5  2 -1</clus>
<clus scale="   50.066">  1  5  2 -1</clus>
</clustering>
</event>
<event>
 9    1  0.4731329E-005  0.9646091E+02  0.7546771E-02  0.1291356E+00
          1   -1    0    0  502    0 -0.00000000000E+00  0.00000000000E+00  0.14053133883E+03  0.14053133883E+03  0.00000000000E+00 0. -1.
         21   -1    0    0  501  502  0.00000000000E+00 -0.00000000000E+00 -0.10219993941E+03  0.10219993941E+03  0.00000000000E+00 0. -1.
        -24    2    1    2    0    0 -0.42954240726E+02  0.15927245756E+02  0.16142080546E+02  0.97484141173E+02  0.84521281712E+02 0.  0.
         23    2    1    2    0    0  0.16417630991E+02  0.71959799840E+01 -0.15175856134E+02  0.93914578896E+02  0.90930307294E+02 0.  0.
         13    1    3    3    0    0 -0.25088974049E+02 -0.31278331936E+02  0.23502004818E+02  0.46477251403E+02  0.00000000000E+00 0. -1.
        -14    1    3    3    0    0 -0.17865266677E+02  0.47205577692E+02 -0.73599242719E+01  0.51006889770E+02  0.00000000000E+00 0.  1.
        -11    1    4    4    0    0 -0.17864901396E+02  0.40555174334E+02 -0.22890968168E+01  0.44374731902E+02  0.00000000000E+00 0. -1.
         11    1    4    4    0    0  0.34282532387E+02 -0.33359194350E+02 -0.12886759317E+02  0.49539846995E+02  0.00000000000E+00 0.  1.
          2    1    1    2  501    0  0.26536609734E+02 -0.23123225740E+02  0.37365175010E+02  0.51332558170E+02  0.00000000000E+00 0. -1.
<scales pt_clust_5="13000.00000" pt_clust_6="13000.00000" pt_clust_7="13000.00000" pt_clust_8="13000.00000" pt_clust_9="35.19768"></scales>
<clustering>
<clus scale="   35.198">  2  9  1 -1</clus>
<clus scale="   84.521">  5  6 -1 -1</clus>
<clus scale="   90.445">  1  5  2 -1</clus>
<clus scale="   90.930">  7  8 -1 -1</clus>
<clus scale="   35.198">  2  5  1 -1</clus>
</clustering>
</event>
<event>
 9    1  0.4731329E-005  0.1270692E+03  0.7546771E-02  0.1232281E+00
         21   -1    0    0  501  502  0.00000000000E+00  0.00000000000E+00  0.69729839921E+02  0.69729839921E+02  0.00000000000E+00 0. -1.
          1   -1    0    0  502    0 -0.00000000000E+00 -0.00000000000E+00 -0.53841255447E+03  0.53841255447E+03  0.00000000000E+00 0. -1.
        -24    2    1    2    0    0 -0.19643919187E+02  0.85875724848E+02 -0.32648928429E+03  0.35011666571E+03  0.90696764962E+02 0.  0.
         23    2    1    2    0    0  0.41393450644E+02 -0.77996340847E+02 -0.17578381902E+03  0.21724042460E+03  0.92177025922E+02 0.  0.
         13    1    3    3    0    0  0.34266981169E+02  0.49542593232E+02 -0.13322226462E+03  0.14620829775E+03  0.00000000000E+00 0. -1.
        -14    1    3    3    0    0 -0.53910900356E+02  0.36333131616E+02 -0.19326701967E+03  0.20390836796E+03  0.00000000000E+00 0.  1.
        -13    1    4    4    0    0  0.39119198380E+02  0.93271883566E+01 -0.58957730125E+02  0.71367514081E+02  0.00000000000E+00 0. -1.
         13    1    4    4    0    0  0.22742522640E+01 -0.87323529203E+02 -0.11682608890E+03  0.14587291052E+03  0.00000000000E+00 0.  1.
          2    1    1    2  501    0 -0.21749531457E+02 -0.78793840011E+01  0.33590388769E+02  0.40785304075E+02  0.00000000000E+00 0. -1.
<scales pt_clust_5="13000.00000" pt_clust_6="13000.00000" pt_clust_7="13000.00000" pt_clust_8="13000.00000" pt_clust_9="23.13281"></scales>
<clustering>
<clus scale="   23.133">  1  9  2 -1</clus>
<clus scale="   90.697">  5  6 -1 -1</clus>
<clus scale="   92.177">  7  8 -1 -1</clus>
<clus scale="  125.999">  2  5  1 -1</clus>
<clus scale="   23.133">  1  5  2 -1</clus>
</clustering>
</event>
<event>
 9    1  0.4731329E-005  0.1040138E+03  0.7546771E-02  0.1280916E+00
         21   -1    0    0  501  502  0.00000000000E+00  0.00000000000E+00  0.21120989560E+03  0.21120989560E+03  0.00000000000E+00 0. -1.
          3   -1    0    0  502    0 -0.00000000000E+00 -0.00000000000E+00 -0.21533308881E+03  0.21533308881E+03  0.00000000000E+00 0. -1.
        -24    2    1    2    0    0 -0.22038975825E+02 -0.41663870929E+02 -0.14202206414E+03  0.16580744247E+03  0.71416011362E+02 0.  0.
         23    2    1    2    0    0  0.68999325982E+02  0.42871267858E+02  0.72433853795E+01  0.12189178731E+03  0.90588567651E+02 0.  0.
         13    1    3    3    0    0 -0.45865561809E+02 -0.33510167110E+02 -0.74098744573E+02  0.93365973497E+02  0.00000000000E+00 0. -1.
        -14    1    3    3    0    0  0.23826585983E+02 -0.81537038187E+01 -0.67923319566E+02  0.72441468970E+02  0.00000000000E+00 0.  1.
        -11    1    4    4    0    0  0.89036233525E+02  0.41473183274E+02  0.16801002948E+02  0.99648128488E+02  0.00000000000E+00 0. -1.
         11    1    4    4    0    0 -0.20036907542E+02  0.13980845836E+01 -0.95576175687E+01  0.22243658826E+02  0.00000000000E+00 0.  1.
          4    1    1    2  501    0 -0.46960350157E+02 -0.12073969289E+01  0.13065548556E+03  0.13884375463E+03  0.00000000000E+00 0. -1.
<scales pt_clust_5="13000.00000" pt_clust_6="13000.00000" pt_clust_7="13000.00000" pt_clust_8="13000.00000" pt_clust_9="46.97587"></scales>
<clustering>
<clus scale="   46.976">  1  9  2 -1</clus>
<clus scale="   71.416">  5  6 -1 -1</clus>
<clus scale="   87.823">  2  5  1 -1</clus>
<clus scale="   90.589">  7  8 -1 -1</clus>
<clus scale="   46.976">  1  5  2 -1</clus>
</clustering>
</event>
<event>
 9    1  0.4731329E-005  0.9438393E+02  0.7546771E-02  0.1296087E+00
          1   -1    0    0  502    0 -0.00000000000E+00  0.00000000000E+00  0.62212147777E+03  0.62212147777E+03  0.00000000000E+00 0. -1.
         21   -1    0    0  501  502  0.00000000000E+00 -0.00000000000E+00 -0.47248984209E+02  0.47248984209E+02  0.00000000000E+00 0.  1.
        -24    2    1    2    0    0 -0.44104738961E+02  0.40548636023E+01  0.21958811718E+03  0.23803596711E+03  0.80501618071E+02 0.  0.
         23    2    1    2    0    0  0.88964261476E+00 -0.30287506912E+02  0.22663818711E+02  0.94894111577E+02  0.87023670311E+02 0.  0.
         13    1    3    3    0    0 -0.46123517507E+02 -0.31462016025E+02  0.12208848717E+03  0.13424915649E+03  0.00000000000E+00 0. -1.
        -14    1    3    3    0    0  0.20187785460E+01  0.35516879627E+02  0.97499630010E+02  0.10378681061E+03  0.00000000000E+00 0.  1.
        -13    1    4    4    0    0  0.22479558501E+02  0.13791296739E+02  0.35440232376E+02  0.44176243469E+02  0.00000000000E+00 0. -1.
         13    1    4    4    0    0 -0.21589915886E+02 -0.44078803651E+02 -0.12776413665E+02  0.50717868108E+02  0.00000000000E+00 0.  1.
          2    1    1    2  501    0  0.43215096347E+02  0.26232643309E+02  0.33262055767E+03  0.33644038330E+03  0.00000000000E+00 0. -1.
<scales pt_clust_5="13000.00000" pt_clust_6="13000.00000" pt_clust_7="13000.00000" pt_clust_8="13000.00000" pt_clust_9="50.55392"></scales>
<clustering>
<clus scale="   50.554">  2  9  1 -1</clus>
<clus scale="   80.502">  5  6 -1 -1</clus>
<clus scale="   87.024">  7  8 -1 -1</clus>
<clus scale="   88.407">  1  5  2 -1</clus>
<clus scale="   50.554">  2  5  1 -1</clus>
</clustering>
</event>
<event>
 9    1  0.4731329E-005  0.9805101E+02  0.7546771E-02  0.1287958E+00
         21   -1    0    0  501  502  0.00000000000E+00  0.00000000000E+00  0.67125791000E+02  0.67125791000E+02  0.00000000000E+00 0.  1.
          3   -1    0    0  502    0 -0.00000000000E+00 -0.00000000000E+00 -0.31716203835E+03  0.31716203835E+03  0.00000000000E+00 0. -1.
         23    2    1    2    0    0  0.19870791649E+02 -0.11611419048E+02 -0.16121185101E+03  0.18636228262E+03  0.90619898826E+02 0.  0.
        -24    2    1    2    0    0  0.16886736689E+02 -0.89837479014E+01  0.85559473546E+00  0.98840847659E+02  0.96968611010E+02 0.  0.
         13    1    4    4    0    0  0.25594965080E+01  0.34727783275E+02 -0.27876095323E+02  0.44605455316E+02  0.00000000000E+00 0. -1.
        -14    1    4    4    0    0  0.14327240181E+02 -0.43711531176E+02  0.28731690058E+02  0.54235392343E+02  0.00000000000E+00 0.  1.
        -13    1    3    3    0    0 -0.27106575804E+02 -0.28111090139E+02 -0.42965320608E+02  0.58060473780E+02  0.00000000000E+00 0.  1.
         13    1    3    3    0    0  0.46977367453E+02  0.16499671091E+02 -0.11824653040E+03  0.12830180884E+03  0.00000000000E+00 0. -1.
          4    1    1    2  501    0 -0.36757528338E+02  0.20595166949E+02 -0.89679991070E+02  0.99084699068E+02  0.00000000000E+00 0. -1.
<scales pt_clust_5="13000.00000" pt_clust_6="13000.00000" pt_clust_7="13000.00000" pt_clust_8="13000.00000" pt_clust_9="42.13405"></scales>
<clustering>
<clus scale="   42.134">  1  9  2 -1</clus>
<clus scale="   90.620">  7  8 -1 -1</clus>
<clus scale="   91.777">  2  7  1 -1</clus>
<clus scale="   96.969">  5  6 -1 -1</clus>
<clus scale="   42.134">  1  5  2 -1</clus>
</clustering>
</event>
<event>
 9    1  0.4731329E-005  0.2176663E+03  0.7546771E-02  0.1156015E+00
         21   -1    0    0  501  502  0.00000000000E+00  0.00000000000E+00  0.27968992867E+03  0.27968992867E+03  0.00000000000E+00 0.  1.
         -2   -1    0    0    0  501 -0.00000000000E+00 -0.00000000000E+00 -0.33614446278E+03  0.33614446278E+03  0.00000000000E+00 0.  1.
        -24    2    1    2    0    0  0.84397804128E+02  0.64030211489E+02  0.90368772272E+02  0.16146910830E+03  0.81749009825E+02 0.  0.
         23    2    1    2    0    0 -0.23106695398E+03  0.37605043579E+02 -0.71699481718E+02  0.26075445281E+03  0.89699456272E+02 0.  0.
         13    1    3    3    0    0  0.18314681194E+02  0.15678315079E+02 -0.14718535698E+02  0.28246635269E+02  0.00000000000E+00 0. -1.
        -14    1    3    3    0    0  0.66083122935E+02  0.48351896410E+02  0.10508730797E+03  0.13322247303E+03  0.00000000000E+00 0.  1.
        -11    1    4    4    0    0 -0.17507958873E+03  0.64661479199E+02 -0.67355613913E+02  0.19842063403E+03  0.00000000000E+00 0. -1.
         11    1    4    4    0    0 -0.55987365251E+02 -0.27056435620E+02 -0.43438678051E+01  0.62333818780E+02  0.00000000000E+00 0.  1.
         -1    1    1    2    0  502  0.14666914986E+03 -0.10163525507E+03 -0.75123824667E+02  0.19361083034E+03  0.00000000000E+00 0.  1.
<scales pt_clust_5="13000.00000" pt_clust_6="13000.00000" pt_clust_7="13000.00000" pt_clust_8="13000.00000" pt_clust_9="198.32457"></scales>
<clustering>
<clus scale="   81.749">  5  6 -1 -1</clus>
<clus scale="   89.699">  7  8 -1 -1</clus>
<clus scale="  133.812">  2  5  1 -1</clus>
<clus scale="  198.325">  1  9  2 -1</clus>
<clus scale="  198.325">  1  5  2 -1</clus>
</clustering>
</event>
<event>
 9    1  0.4731329E-005  0.9975259E+02  0.7546771E-02  0.1287909E+00
         21   -1    0    0  501  502  0.00000000000E+00  0.00000000000E+00  0.17269944647E+03  0.17269944647E+03  0.00000000000E+00 0.  1.
         -4   -1    0    0    0  501 -0.00000000000E+00 -0.00000000000E+00 -0.36586710717E+03  0.36586710717E+03  0.00000000000E+00 0.  1.
         23    2    1    2    0    0 -0.17938259593E+02 -0.27507761723E+02 -0.23909326555E+03  0.25842333182E+03  0.92404386718E+02 0.  0.
        -24    2    1    2    0    0 -0.19855627691E+02  0.58934203416E+02 -0.90510052551E+02  0.13512361016E+03  0.78732675091E+02 0.  0.
         11    1    4    4    0    0  0.13075426999E+02  0.50883109335E+02 -0.18790760435E+02  0.55795611696E+02  0.00000000000E+00 0. -1.
        -12    1    4    4    0    0 -0.32931054691E+02  0.80510940810E+01 -0.71719292116E+02  0.79327998466E+02  0.00000000000E+00 0.  1.
        -11    1    3    3    0    0 -0.10621915013E+02  0.18439041779E+02 -0.80647883007E+01  0.22756628718E+02  0.00000000000E+00 0. -1.
         11    1    3    3    0    0 -0.73163445803E+01 -0.45946803502E+02 -0.23102847725E+03  0.23566670310E+03  0.00000000000E+00 0.  1.
         -3    1    1    2    0  502  0.37793887285E+02 -0.31426441693E+02  0.13643565741E+03  0.14501961166E+03  0.00000000000E+00 0.  1.
<scales pt_clust_5="13000.00000" pt_clust_6="13000.00000" pt_clust_7="13000.00000" pt_clust_8="13000.00000" pt_clust_9="49.15281"></scales>
<clustering>
<clus scale="   49.153">  1  9  2 -1</clus>
<clus scale="   78.733">  5  6 -1 -1</clus>
<clus scale="   87.240">  1  5  2 -1</clus>
<clus scale="   92.404">  7  8 -1 -1</clus>
<clus scale="   49.153">  1  5  2 -1</clus>
</clustering>
</event>
<event>
 9    1  0.4731329E-005  0.2196463E+03  0.7546771E-02  0.1134147E+00
          1   -1    0    0  502    0 -0.00000000000E+00  0.00000000000E+00  0.15052896959E+03  0.15052896959E+03  0.00000000000E+00 0. -1.
         21   -1    0    0  501  502  0.00000000000E+00 -0.00000000000E+00 -0.21366701196E+03  0.21366701196E+03  0.00000000000E+00 0. -1.
        -24    2    1    2    0    0 -0.62447517289E+02  0.38037028126E+02  0.19072338287E+02  0.10991582358E+03  0.79819961549E+02 0.  0.
         23    2    1    2    0    0 -0.58931345222E+02 -0.58005919776E+01 -0.10942401539E+02  0.10988091654E+03  0.91910442011E+02 0.  0.
         11    1    3    3    0    0 -0.36249975608E+02  0.28056877256E+02  0.50230286863E+02  0.68002432392E+02  0.00000000000E+00 0. -1.
        -12    1    3    3    0    0 -0.26197541681E+02  0.99801508698E+01 -0.31157948576E+02  0.41913391189E+02  0.00000000000E+00 0.  1.
        -13    1    4    4    0    0 -0.36077728571E+02  0.34454543564E+02 -0.31745546834E+02  0.59131191556E+02  0.00000000000E+00 0.  1.
         13    1    4    4    0    0 -0.22853616651E+02 -0.40255135542E+02  0.20803145295E+02  0.50749724982E+02  0.00000000000E+00 0. -1.
          2    1    1    2  501    0  0.12137886251E+03 -0.32236436148E+02 -0.71267979113E+02  0.14439924143E+03  0.00000000000E+00 0. -1.
<scales pt_clust_5="13000.00000" pt_clust_6="13000.00000" pt_clust_7="13000.00000" pt_clust_8="13000.00000" pt_clust_9="125.58669"></scales>
<clustering>
<clus scale="   79.820">  5  6 -1 -1</clus>
<clus scale="   91.910">  7  8 -1 -1</clus>
<clus scale="  101.685">  5  7 -1 -1</clus>
<clus scale="  125.587">  2  9  1 -1</clus>
<clus scale="  125.587">  2  5  1 -1</clus>
</clustering>
</event>
<event>
 9    1  0.4731329E-005  0.2561002E+03  0.7546771E-02  0.1109944E+00
         21   -1    0    0  501  502  0.00000000000E+00  0.00000000000E+00  0.33789250512E+03  0.33789250512E+03  0.00000000000E+00 0.  1.
          1   -1    0    0  502    0 -0.00000000000E+00 -0.00000000000E+00 -0.67639918957E+03  0.67639918957E+03  0.00000000000E+00 0. -1.
         23    2    1    2    0    0 -0.61415509738E+02  0.23448978438E+03 -0.58859363202E+03  0.64274155004E+03  0.88977034573E+02 0.  0.
        -24    2    1    2    0    0  0.24386904972E+02 -0.21900408300E+03  0.21112631828E+03  0.31561397430E+03  0.80500614881E+02 0.  0.
         11    1    4    4    0    0 -0.18872738896E+02 -0.35442056180E+02  0.13302765333E+02  0.42299919447E+02  0.00000000000E+00 0. -1.
        -12    1    4    4    0    0  0.43259643868E+02 -0.18356202682E+03  0.19782355295E+03  0.27331405485E+03  0.00000000000E+00 0.  1.
        -11    1    3    3    0    0 -0.34850487085E+02  0.57378561181E+02 -0.85403012145E+02  0.10863024540E+03  0.00000000000E+00 0.  1.
         11    1    3    3    0    0 -0.26565022653E+02  0.17711122320E+03 -0.50319061988E+03  0.53411130464E+03  0.00000000000E+00 0. -1.
          2    1    1    2  501    0  0.37028604765E+02 -0.15485701380E+02  0.38960629292E+02  0.55936170345E+02  0.00000000000E+00 0. -1.
<scales pt_clust_5="13000.00000" pt_clust_6="13000.00000" pt_clust_7="13000.00000" pt_clust_8="13000.00000" pt_clust_9="40.13632"></scales>
<clustering>
<clus scale="   40.136">  1  9  2 -1</clus>
<clus scale="   80.501">  5  6 -1 -1</clus>
<clus scale="   88.977">  7  8 -1 -1</clus>
<clus scale="  253.280">  1  5  2 -1</clus>
<clus scale="   40.136">  1  5  2 -1</clus>
</clustering>
</event>
<event>
 9    1  0.4731329E-005  0.9692118E+02  0.7546771E-02  0.1296924E+00
          1   -1    0    0  502    0 -0.00000000000E+00  0.00000000000E+00  0.62099035973E+02  0.62099035973E+02  0.00000000000E+00 0. -1.
         21   -1    0    0  501  502  0.00000000000E+00 -0.00000000000E+00 -0.21217431092E+03  0.21217431092E+03  0.00000000000E+00 0.  1.
         23    2    1    2    0    0  0.27333141779E+02  0.10331477430E+01 -0.55793586059E+02  0.11169515872E+03  0.92815495485E+02 0.  0.
        -24    2    1    2    0    0 -0.24641057531E+02  0.24706153340E+02 -0.10557852237E+03  0.13434031671E+03  0.75385148271E+02 0.  0.
         11    1    4    4    0    0 -0.33016000256E+02 -0.93447270725E+01 -0.15450361009E+02  0.37631022471E+02  0.00000000000E+00 0. -1.
        -12    1    4    4    0    0  0.83749427246E+01  0.34050880413E+02 -0.90128161361E+02  0.96709294243E+02  0.00000000000E+00 0.  1.
        -11    1    3    3    0    0  0.36011336457E+02 -0.36972757073E+02 -0.11856219791E+02  0.52956312813E+02  0.00000000000E+00 0. -1.
         11    1    3    3    0    0 -0.86781946779E+01  0.38005904816E+02 -0.43937366268E+02  0.58738845906E+02  0.00000000000E+00 0.  1.
          2    1    1    2  501    0 -0.26920842478E+01 -0.25739301083E+02  0.11296833483E+02  0.28237871460E+02  0.00000000000E+00 0. -1.
<scales pt_clust_5="13000.00000" pt_clust_6="13000.00000" pt_clust_7="13000.00000" pt_clust_8="13000.00000" pt_clust_9="25.87971"></scales>
<clustering>
<clus scale="   25.880">  2  9  1 -1</clus>
<clus scale="   75.385">  5  6 -1 -1</clus>
<clus scale="   80.386">  2  5  1 -1</clus>
<clus scale="   92.815">  7  8 -1 -1</clus>
<clus scale="   25.880">  2  5  1 -1</clus>
</clustering>
</event>
<event>
 9    1  0.4731329E-005  0.9753012E+02  0.7546771E-02  0.1293819E+00
          1   -1    0    0  502    0 -0.00000000000E+00  0.00000000000E+00  0.53051269304E+03  0.53051269304E+03  0.00000000000E+00 0. -1.
         21   -1    0    0  501  502  0.00000000000E+00 -0.00000000000E+00 -0.29934058563E+02  0.29934058563E+02  0.00000000000E+00 0. -1.
         23    2    1    2    0    0  0.43617970618E+01  0.14790468614E+02  0.33552382884E+03  0.34886659212E+03  0.94307349366E+02 0.  0.
        -24    2    1    2    0    0 -0.33053938627E+02 -0.31971234636E+02  0.14729390558E+03  0.17371371946E+03  0.79788714777E+02 0.  0.
         11    1    4    4    0    0 -0.19316370779E+02 -0.57284205950E+02  0.78085696019E+02  0.98752105568E+02  0.00000000000E+00 0. -1.
        -12    1    4    4    0    0 -0.13737567848E+02  0.25312971314E+02  0.69208209561E+02  0.74961613895E+02  0.00000000000E+00 0.  1.
        -11    1    3    3    0    0 -0.25568456637E+02 -0.22545283283E+02  0.58229591127E+02  0.67473854610E+02  0.00000000000E+00 0. -1.
         11    1    3    3    0    0  0.29930253699E+02  0.37335751897E+02  0.27729423771E+03  0.28139273751E+03  0.00000000000E+00 0.  1.
          2    1    1    2  501    0  0.28692141565E+02  0.17180766022E+02  0.17760900056E+02  0.37866440016E+02  0.00000000000E+00 0. -1.
<scales pt_clust_5="13000.00000" pt_clust_6="13000.00000" pt_clust_7="13000.00000" pt_clust_8="13000.00000" pt_clust_9="33.44275"></scales>
<clustering>
<clus scale="   33.443">  2  9  1 -1</clus>
<clus scale="   79.789">  5  6 -1 -1</clus>
<clus scale="   83.573">  2  5  1 -1</clus>
<clus scale="   94.307">  7  8 -1 -1</clus>
<clus scale="   33.443">  2  5  1 -1</clus>
</clustering>
</event>
<event>
 9    1  0.4731329E-005  0.2772912E+03  0.7546771E-02  0.1134513E+00
         21   -1    0    0  501  502  0.00000000000E+00  0.00000000000E+00  0.27161367309E+03  0.27161367309E+03  0.00000000000E+00 0.  1.
          3   -1    0    0  502    0 -0.00000000000E+00 -0.00000000000E+00 -0.41914519138E+03  0.41914519138E+03  0.00000000000E+00 0. -1.
         23    2    1    2    0    0 -0.35091160356E+02 -0.45111304081E+02 -0.61771969208E+02  0.12458921260E+03  0.91870977059E+02 0.  0.
        -24    2    1    2    0    0 -0.27271686604E+02 -0.24368007422E+03 -0.32385758692E+00  0.25861666091E+03  0.82211610815E+02 0.  0.
         11    1    4    4    0    0  0.27408348420E+02 -0.84132869686E+02 -0.13221521553E+02  0.89467122212E+02  0.00000000000E+00 0. -1.
        -12    1    4    4    0    0 -0.54680035024E+02 -0.15954720454E+03  0.12897663966E+02  0.16914953870E+03  0.00000000000E+00 0.  1.
        -13    1    3    3    0    0  0.26022710766E+02  0.68372674912E+01 -0.23469834143E+02  0.35703820762E+02  0.00000000000E+00 0.  1.
         13    1    3    3    0    0 -0.61113871122E+02 -0.51948571572E+02 -0.38302135066E+02  0.88885391839E+02  0.00000000000E+00 0. -1.
          4    1    1    2  501    0  0.62362846960E+02  0.28879137830E+03 -0.85435691493E+02  0.30755299095E+03  0.00000000000E+00 0. -1.
<scales pt_clust_5="13000.00000" pt_clust_6="13000.00000" pt_clust_7="13000.00000" pt_clust_8="13000.00000" pt_clust_9="264.82401"></scales>
<clustering>
<clus scale="   82.212">  5  6 -1 -1</clus>
<clus scale="   91.871">  7  8 -1 -1</clus>
<clus scale="  108.197">  2  7  1 -1</clus>
<clus scale="  264.824">  1  9  2 -1</clus>
<clus scale="  264.824">  1  5  2 -1</clus>
</clustering>
</event>
<event>
 9    1  0.4731329E-005  0.1015352E+03  0.7546771E-02  0.1283968E+00
          1   -1    0    0  502    0 -0.00000000000E+00  0.00000000000E+00  0.15843058458E+03  0.15843058458E+03  0.00000000000E+00 0. -1.
         21   -1    0    0  501  502  0.00000000000E+00 -0.00000000000E+00 -0.89471432023E+02  0.89471432023E+02  0.00000000000E+00 0.  1.
         23    2    1    2    0    0 -0.35034441889E+02 -0.26113463711E+02  0.78078993845E+02  0.12792522878E+03  0.91428714158E+02 0.  0.
        -24    2    1    2    0    0  0.49415281036E+02  0.56272644171E+01 -0.17372632071E+02  0.93621495153E+02  0.77392763905E+02 0.  0.
         13    1    4    4    0    0  0.66530495877E+02  0.19762967395E+02 -0.16838141315E+02  0.71417118150E+02  0.00000000000E+00 0. -1.
        -14    1    4    4    0    0 -0.17115214841E+02 -0.14135702978E+02 -0.53449075588E+00  0.22204377003E+02  0.00000000000E+00 0.  1.
        -13    1    3    3    0    0 -0.37517735407E+02 -0.51201927587E+02  0.80593439080E+02  0.10258908461E+03  0.00000000000E+00 0.  1.
         13    1    3    3    0    0  0.24832935182E+01  0.25088463876E+02 -0.25144452354E+01  0.25336144166E+02  0.00000000000E+00 0. -1.
          2    1    1    2  501    0 -0.14380839147E+02  0.20486199294E+02  0.82527907830E+01  0.26355292671E+02  0.00000000000E+00 0. -1.
<scales pt_clust_5="13000.00000" pt_clust_6="13000.00000" pt_clust_7="13000.00000" pt_clust_8="13000.00000" pt_clust_9="25.02985"></scales>
<clustering>
<clus scale="   25.030">  2  9  1 -1</clus>
<clus scale="   77.393">  5  6 -1 -1</clus>
<clus scale="   89.106">  2  5  1 -1</clus>
<clus scale="   91.429">  7  8 -1 -1</clus>
<clus scale="   25.030">  2  5  1 -1</clus>
</clustering>
</event>
<event>
 9    1  0.4731329E-005  0.1402051E+03  0.7546771E-02  0.1215565E+00
         21   -1    0    0  501  502  0.00000000000E+00  0.00000000000E+00  0.63103690064E+02  0.63103690064E+02  0.00000000000E+00 0. -1.
          1   -1    0    0  502    0 -0.00000000000E+00 -0.00000000000E+00 -0.47120876174E+03  0.47120876174E+03  0.00000000000E+00 0. -1.
        -24    2    1    2    0    0  0.36513183946E+02 -0.11869328975E+03 -0.19501079026E+03  0.24469283790E+03  0.80150277411E+02 0.  0.
         23    2    1    2    0    0  0.14215901993E+02  0.88285859684E+02 -0.10191020916E+03  0.16368332093E+03  0.91706346189E+02 0.  0.
         11    1    3    3    0    0  0.26070393235E+02 -0.11800249962E+03 -0.19954579462E+03  0.23328690377E+03  0.00000000000E+00 0. -1.
        -12    1    3    3    0    0  0.10442790711E+02 -0.69079013037E+00  0.45350043612E+01  0.11405934131E+02  0.00000000000E+00 0.  1.
        -11    1    4    4    0    0 -0.18639173570E+02  0.39530586592E+02 -0.94892975161E+02  0.10447374217E+03  0.00000000000E+00 0.  1.
         11    1    4    4    0    0  0.32855075563E+02  0.48755273092E+02 -0.70172339965E+01  0.59209578765E+02  0.00000000000E+00 0. -1.
          2    1    1    2  501    0 -0.50729085939E+02  0.30407430065E+02 -0.11118407226E+03  0.12593629297E+03  0.00000000000E+00 0. -1.
<scales pt_clust_5="13000.00000" pt_clust_6="13000.00000" pt_clust_7="13000.00000" pt_clust_8="13000.00000" pt_clust_9="59.14436"></scales>
<clustering>
<clus scale="   59.144">  1  9  2 -1</clus>
<clus scale="   80.150">  5  6 -1 -1</clus>
<clus scale="   91.706">  7  8 -1 -1</clus>
<clus scale="  132.934">  2  5  1 -1</clus>
<clus scale="   59.144">  1  5  2 -1</clus>
</clustering>
</event>
<event>
 9    1  0.4731329E-005  0.1115078E+03  0.7546771E-02  0.1261113E+00
         21   -1    0    0  501  502  0.00000000000E+00  0.00000000000E+00  0.49878447058E+02  0.49878447058E+02  0.00000000000E+00 0. -1.
          1   -1    0    0  502    0 -0.00000000000E+00 -0.00000000000E+00 -0.59314439893E+03  0.59314439893E+03  0.00000000000E+00 0. -1.
        -24    2    1    2    0    0  0.68346043961E+02 -0.12294958778E+02 -0.44355648910E+03  0.45612065318E+03  0.80506791630E+02 0.  0.
         23    2    1    2    0    0 -0.58686689213E+02 -0.56238125592E+01 -0.11811625766E+03  0.15945778357E+03  0.89440369292E+02 0.  0.
         11    1    3    3    0    0  0.61066146498E+02 -0.43026446957E+02 -0.31705181631E+03  0.32573333205E+03  0.00000000000E+00 0. -1.
        -12    1    3    3    0    0  0.72798974627E+01  0.30731488178E+02 -0.12650467279E+03  0.13038732113E+03  0.00000000000E+00 0.  1.
        -13    1    4    4    0    0 -0.39094793137E+02 -0.41495271157E+02 -0.99209460743E+02  0.11442367535E+03  0.00000000000E+00 0. -1.
         13    1    4    4    0    0 -0.19591896076E+02  0.35871458598E+02 -0.18906796914E+02  0.45034108222E+02  0.00000000000E+00 0.  1.
          2    1    1    2  501    0 -0.96593547479E+01  0.17918771338E+02  0.18406794887E+02  0.27444409238E+02  0.00000000000E+00 0. -1.
<scales pt_clust_5="13000.00000" pt_clust_6="13000.00000" pt_clust_7="13000.00000" pt_clust_8="13000.00000" pt_clust_9="20.35646"></scales>
<clustering>
<clus scale="   20.356">  1  9  2 -1</clus>
<clus scale="   80.507">  5  6 -1 -1</clus>
<clus scale="   89.440">  7  8 -1 -1</clus>
<clus scale="  104.479">  2  5  1 -1</clus>
<clus scale="   20.356">  1  5  2 -1</clus>
</clustering>
</event>
<event>
 9    1  0.4731329E-005  0.1083121E+03  0.7546771E-02  0.1266643E+00
         21   -1    0    0  501  502  0.00000000000E+00  0.00000000000E+00  0.24970897502E+03  0.24970897502E+03  0.00000000000E+00 0. -1.
          1   -1    0    0  502    0 -0.00000000000E+00 -0.00000000000E+00 -0.56306846933E+02  0.56306846933E+02  0.00000000000E+00 0. -1.
         23    2    1    2    0    0  0.62080927652E+02  0.27963018241E+02  0.64494963122E+02  0.13069834584E+03  0.91030134403E+02 0.  0.
        -24    2    1    2    0    0 -0.41426221494E+02 -0.23741826559E+02  0.95010101597E+02  0.13539948204E+03  0.83822993126E+02 0.  0.
         11    1    4    4    0    0  0.20535928213E+02 -0.27278260842E+02  0.29030874393E+02  0.44817625218E+02  0.00000000000E+00 0. -1.
        -12    1    4    4    0    0 -0.61962149706E+02  0.35364342828E+01  0.65979227203E+02  0.90581856826E+02  0.00000000000E+00 0.  1.
        -13    1    3    3    0    0  0.36993042818E+02  0.58040841247E+01  0.83992235625E+02  0.91961232346E+02  0.00000000000E+00 0.  1.
         13    1    3    3    0    0  0.25087884834E+02  0.22158934116E+02 -0.19497272503E+02  0.38737113492E+02  0.00000000000E+00 0. -1.
          2    1    1    2  501    0 -0.20654706158E+02 -0.42211916815E+01  0.33897063372E+02  0.39917994075E+02  0.00000000000E+00 0. -1.
<scales pt_clust_5="13000.00000" pt_clust_6="13000.00000" pt_clust_7="13000.00000" pt_clust_8="13000.00000" pt_clust_9="21.08164"></scales>
<clustering>
<clus scale="   21.082">  1  9  2 -1</clus>
<clus scale="   83.823">  5  6 -1 -1</clus>
<clus scale="   91.030">  7  8 -1 -1</clus>
<clus scale="  102.329">  1  5  2 -1</clus>
<clus scale="   21.082">  1  5  2 -1</clus>
</clustering>
</event>
<event>
 9    1  0.4731329E-005  0.8963122E+02  0.7546771E-02  0.1306010E+00
          1   -1    0    0  502    0 -0.00000000000E+00  0.00000000000E+00  0.30649563678E+03  0.30649563678E+03  0.00000000000E+00 0. -1.
         21   -1    0    0  501  502  0.00000000000E+00 -0.00000000000E+00 -0.38713340019E+03  0.38713340019E+03  0.00000000000E+00 0.  1.
         23    2    1    2    0    0 -0.27526929151E+02 -0.11747801123E+02  0.26176149865E+03  0.27629845817E+03  0.83222672102E+02 0.  0.
        -24    2    1    2    0    0  0.11105222385E+03  0.78729582754E+01 -0.12822746002E+03  0.18741526820E+03  0.79294522860E+02 0.  0.
         13    1    4    4    0    0  0.62328782368E+02  0.56438636566E+01 -0.12344994551E+03  0.13840743966E+03  0.00000000000E+00 0. -1.
        -14    1    4    4    0    0  0.48723441483E+02  0.22290946188E+01 -0.47775145162E+01  0.49007828535E+02  0.00000000000E+00 0.  1.
        -13    1    3    3    0    0 -0.26056682164E+02 -0.32872826178E+02  0.24687515898E+03  0.25041349306E+03  0.00000000000E+00 0. -1.
         13    1    3    3    0    0 -0.14702469869E+01  0.21125025055E+02  0.14886339668E+02  0.25884965105E+02  0.00000000000E+00 0.  1.
          2    1    1    2  501    0 -0.83525294700E+02  0.38748428473E+01 -0.21417180204E+03  0.22991531060E+03  0.00000000000E+00 0. -1.
<scales pt_clust_5="13000.00000" pt_clust_6="13000.00000" pt_clust_7="13000.00000" pt_clust_8="13000.00000" pt_clust_9="83.61513"></scales>
<clustering>
<clus scale="   79.295">  5  6 -1 -1</clus>
<clus scale="   83.223">  7  8 -1 -1</clus>
<clus scale="   83.615">  2  9  1 -1</clus>
<clus scale="   85.996">  2  5  1 -1</clus>
<clus scale="   83.615">  2  5  1 -1</clus>
</clustering>
</event>
<event>
 9    1  0.4731329E-005  0.1965083E+03  0.7546771E-02  0.1154094E+00
          1   -1    0    0  502    0 -0.00000000000E+00  0.00000000000E+00  0.38978628971E+03  0.38978628971E+03  0.00000000000E+00 0. -1.
         21   -1    0    0  501  502  0.00000000000E+00 -0.00000000000E+00 -0.19948072318E+03  0.19948072318E+03  0.00000000000E+00 0. -1.
        -24    2    1    2    0    0  0.14951936744E+03 -0.10842609723E+03  0.27928233995E+03  0.34404385773E+03  0.79090396581E+02 0.  0.
         23    2    1    2    0    0 -0.11454923603E+03  0.53742760497E+02 -0.88460511309E+02  0.18031210883E+03  0.93152470451E+02 0.  0.
         13    1    3    3    0    0  0.14896653758E+03 -0.11748365144E+03  0.25294874800E+03  0.31619061781E+03  0.00000000000E+00 0. -1.
        -14    1    3    3    0    0  0.55282985921E+00  0.90575542077E+01  0.26333591948E+02  0.27853239919E+02  0.00000000000E+00 0.  1.
        -13    1    4    4    0    0 -0.99621167843E+02  0.25053590893E+02 -0.10244633499E+03  0.14507691426E+03  0.00000000000E+00 0. -1.
         13    1    4    4    0    0 -0.14928068183E+02  0.28689169604E+02  0.13985823684E+02  0.35235194569E+02  0.00000000000E+00 0.  1.
          2    1    1    2  501    0 -0.34970131415E+02  0.54683336737E+02 -0.51626211063E+00  0.64911046320E+02  0.00000000000E+00 0. -1.
<scales pt_clust_5="13000.00000" pt_clust_6="13000.00000" pt_clust_7="13000.00000" pt_clust_8="13000.00000" pt_clust_9="64.90899"></scales>
<clustering>
<clus scale="   64.909">  2  9  1 -1</clus>
<clus scale="   79.090">  5  6 -1 -1</clus>
<clus scale="   93.152">  7  8 -1 -1</clus>
<clus scale="  190.246">  1  5  2 -1</clus>
<clus scale="   64.909">  2  5  1 -1</clus>
</clustering>
</event>
<event>
 9    1  0.4731329E-005  0.1268598E+03  0.7546771E-02  0.1236052E+00
          1   -1    0    0  502    0 -0.00000000000E+00  0.00000000000E+00  0.17255419930E+03  0.17255419930E+03  0.00000000000E+00 0. -1.
         21   -1    0    0  501  502  0.00000000000E+00 -0.00000000000E+00 -0.23943266265E+03  0.23943266265E+03  0.00000000000E+00 0. -1.
         23    2    1    2    0    0 -0.53298974316E+02  0.88946929339E+02  0.80622318134E+02  0.16136554131E+03  0.93736560848E+02 0.  0.
        -24    2    1    2    0    0  0.35307500738E+02 -0.50672796709E+02 -0.42960021557E+01  0.10130216188E+03  0.80183043296E+02 0.  0.
         11    1    4    4    0    0  0.72219648622E+01 -0.32284224621E+02  0.35975404556E+02  0.48873895577E+02  0.00000000000E+00 0. -1.
        -12    1    4    4    0    0  0.28085535876E+02 -0.18388572087E+02 -0.40271406712E+02  0.52428266302E+02  0.00000000000E+00 0.  1.
        -11    1    3    3    0    0 -0.17551837247E+02  0.92666447277E+02  0.82600006666E+02  0.12537104348E+03  0.00000000000E+00 0. -1.
         11    1    3    3    0    0 -0.35747137069E+02 -0.37195179383E+01 -0.19776885319E+01  0.35994497833E+02  0.00000000000E+00 0.  1.
          2    1    1    2  501    0  0.17991473578E+02 -0.38274132630E+02 -0.14320477933E+03  0.14931915876E+03  0.00000000000E+00 0. -1.
<scales pt_clust_5="13000.00000" pt_clust_6="13000.00000" pt_clust_7="13000.00000" pt_clust_8="13000.00000" pt_clust_9="42.29187"></scales>
<clustering>
<clus scale="   42.292">  2  9  1 -1</clus>
<clus scale="   80.183">  5  6 -1 -1</clus>
<clus scale="   93.737">  7  8 -1 -1</clus>
<clus scale="  117.201">  2  5  1 -1</clus>
<clus scale="   42.292">  2  5  1 -1</clus>
</clustering>
</event>
<event>
 9    1  0.4731329E-005  0.9683170E+02  0.7546771E-02  0.1294278E+00
         -4   -1    0    0    0  501 -0.00000000000E+00  0.00000000000E+00  0.59432085358E+02  0.59432085358E+02  0.00000000000E+00 0.  1.
         21   -1    0    0  501  502  0.00000000000E+00 -0.00000000000E+00 -0.35106818237E+03  0.35106818237E+03  0.00000000000E+00 0.  1.
        -24    2    1    2    0    0 -0.30209796340E+02 -0.25730980936E+00 -0.14731916928E+01  0.85068766515E+02  0.79509915982E+02 0.  0.
         23    2    1    2    0    0  0.22695736463E+02  0.25069943705E+02 -0.12910134118E+03  0.16229672460E+03  0.92355140578E+02 0.  0.
         13    1    3    3    0    0  0.15923846548E+02 -0.26164237142E+02 -0.82649029608E+01  0.31724514418E+02  0.00000000000E+00 0. -1.
        -14    1    3    3    0    0 -0.46133642887E+02  0.25906927333E+02  0.67917112680E+01  0.53344252097E+02  0.00000000000E+00 0.  1.
        -13    1    4    4    0    0 -0.21040526511E+01  0.39436244798E+02 -0.11326048258E+02  0.41084349946E+02  0.00000000000E+00 0.  1.
         13    1    4    4    0    0  0.24799789114E+02 -0.14366301093E+02 -0.11777529292E+03  0.12121237466E+03  0.00000000000E+00 0. -1.
         -3    1    1    2    0  502  0.75140598769E+01 -0.24812633895E+02 -0.16106156414E+03  0.16313477661E+03  0.00000000000E+00 0.  1.
<scales pt_clust_5="13000.00000" pt_clust_6="13000.00000" pt_clust_7="13000.00000" pt_clust_8="13000.00000" pt_clust_9="25.92543"></scales>
<clustering>
<clus scale="   25.925">  2  9  1 -1</clus>
<clus scale="   79.510">  5  6 -1 -1</clus>
<clus scale="   84.668">  1  5  2 -1</clus>
<clus scale="   92.355">  7  8 -1 -1</clus>
<clus scale="   25.925">  2  5  1 -1</clus>
</clustering>
</event>
<event>
 9    1  0.4731329E-005  0.1644656E+03  0.7546771E-02  0.1207712E+00
         21   -1    0    0  501  502  0.00000000000E+00  0.00000000000E+00  0.59688588157E+02  0.59688588157E+02  0.00000000000E+00 0.  1.
         -4   -1    0    0    0  501 -0.00000000000E+00 -0.00000000000E+00 -0.96851855135E+03  0.96851855135E+03  0.00000000000E+00 0.  1.
        -24    2    1    2    0    0  0.37101425003E+02 -0.38470703135E+02 -0.52957442975E+03  0.53844777335E+03  0.81365946465E+02 0.  0.
         23    2    1    2    0    0  0.45786864884E+02 -0.94619238691E+02 -0.25222289305E+03  0.28796567710E+03  0.90876873226E+02 0.  0.
         11    1    3    3    0    0  0.63085133273E+02 -0.28431780270E+02 -0.39593985400E+03  0.40194087644E+03  0.00000000000E+00 0. -1.
        -12    1    3    3    0    0 -0.25983708270E+02 -0.10038922865E+02 -0.13363457575E+03  0.13650689691E+03  0.00000000000E+00 0.  1.
        -13    1    4    4    0    0 -0.21344834772E+02 -0.47274365280E+01 -0.75810428400E+02  0.78899757172E+02  0.00000000000E+00 0. -1.
         13    1    4    4    0    0  0.67131699656E+02 -0.89891802163E+02 -0.17641246465E+03  0.20906591993E+03  0.00000000000E+00 0.  1.
         -3    1    1    2    0  502 -0.82888289887E+02  0.13308994183E+03 -0.12703264040E+03  0.20179368906E+03  0.00000000000E+00 0.  1.
<scales pt_clust_5="13000.00000" pt_clust_6="13000.00000" pt_clust_7="13000.00000" pt_clust_8="13000.00000" pt_clust_9="137.07782"></scales>
<clustering>
<clus scale="   81.366">  5  6 -1 -1</clus>
<clus scale="   90.877">  7  8 -1 -1</clus>
<clus scale="   97.350">  2  5  1 -1</clus>
<clus scale="  137.078">  1  9  2 -1</clus>
<clus scale="  137.078">  1  5  2 -1</clus>
</clustering>
</event>
<event>
 9    1  0.4731329E-005  0.1166958E+03  0.7546771E-02  0.1261519E+00
         21   -1    0    0  501  502  0.00000000000E+00  0.00000000000E+00  0.67696055869E+02  0.67696055869E+02  0.00000000000E+00 0. -1.
         -4   -1    0    0    0  501 -0.00000000000E+00 -0.00000000000E+00 -0.25098857757E+03  0.25098857757E+03  0.00000000000E+00 0.  1.
         23    2    1    2    0    0  0.91814557021E+02  0.31004872047E+02 -0.11108913298E+03  0.17437013612E+03  0.93128588162E+02 0.  0.
        -24    2    1    2    0    0 -0.46016027891E+02 -0.17630001879E+02 -0.31381304053E+02  0.81522499267E+02  0.56858067621E+02 0.  0.
         13    1    4    4    0    0 -0.49566478136E+02  0.32063564421E+01 -0.85344689640E+01  0.50397952706E+02  0.00000000000E+00 0. -1.
        -14    1    4    4    0    0  0.35504502452E+01 -0.20836358321E+02 -0.22846835089E+02  0.31124546561E+02  0.00000000000E+00 0.  1.
        -11    1    3    3    0    0 -0.15402841143E+02  0.15371528495E+02 -0.41875773487E+01  0.22160036272E+02  0.00000000000E+00 0.  1.
         11    1    3    3    0    0  0.10721739816E+03  0.15633343552E+02 -0.10690155563E+03  0.15221009985E+03  0.00000000000E+00 0. -1.
         -3    1    1    2    0  502 -0.45798529130E+02 -0.13374870167E+02 -0.40822084662E+02  0.62791998046E+02  0.00000000000E+00 0.  1.
<scales pt_clust_5="13000.00000" pt_clust_6="13000.00000" pt_clust_7="13000.00000" pt_clust_8="13000.00000" pt_clust_9="47.71158"></scales>
<clustering>
<clus scale="   47.712">  1  9  2 -1</clus>
<clus scale="   56.858">  5  6 -1 -1</clus>
<clus scale="   90.431">  1  5  2 -1</clus>
<clus scale="   93.129">  7  8 -1 -1</clus>
<clus scale="   47.712">  1  5  2 -1</clus>
</clustering>
</event>
<event>
 9    1  0.4731329E-005  0.9063220E+02  0.7546771E-02  0.1307179E+00
          1   -1    0    0  502    0 -0.00000000000E+00  0.00000000000E+00  0.23935063564E+03  0.23935063564E+03  0.00000000000E+00 0. -1.
         21   -1    0    0  501  502  0.00000000000E+00 -0.00000000000E+00 -0.12318165435E+03  0.12318165435E+03  0.00000000000E+00 0.  1.
         23    2    1    2    0    0  0.59582920159E+01 -0.10017350985E+02  0.19242312773E+03  0.21247934042E+03  0.89358611547E+02 0.  0.
        -24    2    1    2    0    0 -0.40197922518E+02  0.22893717099E+02 -0.50465131051E+02  0.10529553213E+03  0.80002652307E+02 0.  0.
         13    1    4    4    0    0 -0.99246570118E+01 -0.19275119958E+02  0.11434175183E+02  0.24510598286E+02  0.00000000000E+00 0. -1.
        -14    1    4    4    0    0 -0.30273265506E+02  0.42168837057E+02 -0.61899306234E+02  0.80784933840E+02  0.00000000000E+00 0.  1.
        -11    1    3    3    0    0 -0.27600634706E+02  0.25865738172E+02  0.56904151928E+02  0.68329451586E+02  0.00000000000E+00 0.  1.
         11    1    3    3    0    0  0.33558926722E+02 -0.35883089157E+02  0.13551897580E+03  0.14414988883E+03  0.00000000000E+00 0. -1.
          2    1    1    2  501    0  0.34239630502E+02 -0.12876366114E+02 -0.25789015383E+02  0.44757417437E+02  0.00000000000E+00 0. -1.
<scales pt_clust_5="13000.00000" pt_clust_6="13000.00000" pt_clust_7="13000.00000" pt_clust_8="13000.00000" pt_clust_9="36.58078"></scales>
<clustering>
<clus scale="   36.581">  2  9  1 -1</clus>
<clus scale="   80.003">  5  6 -1 -1</clus>
<clus scale="   81.423">  2  5  1 -1</clus>
<clus scale="   89.359">  7  8 -1 -1</clus>
<clus scale="   36.581">  2  5  1 -1</clus>
</clustering>
</event>
<event>
 9    1  0.4731329E-005  0.8340772E+02  0.7546771E-02  0.1320791E+00
         21   -1    0    0  501  502  0.00000000000E+00  0.00000000000E+00  0.27108745879E+02  0.27108745879E+02  0.00000000000E+00 0.  1.
         -2   -1    0    0    0  501 -0.00000000000E+00 -0.00000000000E+00 -0.42441196367E+03  0.42441196367E+03  0.00000000000E+00 0.  1.
        -24    2    1    2    0    0 -0.19982857578E+02 -0.13238303622E+02 -0.28994745896E+03  0.30207009067E+03  0.81254190294E+02 0.  0.
         23    2    1    2    0    0  0.81626524329E+01 -0.62469406942E+01 -0.74427288386E+02  0.10940469322E+03  0.79525546083E+02 0.  0.
         13    1    3    3    0    0 -0.35363114651E+02 -0.39902038422E+01 -0.49560015483E+02  0.61013660267E+02  0.00000000000E+00 0. -1.
        -14    1    3    3    0    0  0.15380257073E+02 -0.92480997795E+01 -0.24038744348E+03  0.24105643041E+03  0.00000000000E+00 0.  1.
        -13    1    4    4    0    0  0.76870730058E+01 -0.38095455388E+02 -0.14391124833E+02  0.41442240366E+02  0.00000000000E+00 0.  1.
         13    1    4    4    0    0  0.47557942710E+00  0.31848514694E+02 -0.60036163553E+02  0.67962452856E+02  0.00000000000E+00 0. -1.
         -1    1    1    2    0  502  0.11820205145E+02  0.19485244316E+02 -0.32928470440E+02  0.40045925651E+02  0.00000000000E+00 0.  1.
<scales pt_clust_5="13000.00000" pt_clust_6="13000.00000" pt_clust_7="13000.00000" pt_clust_8="13000.00000" pt_clust_9="22.79017"></scales>
<clustering>
<clus scale="   22.790">  1  9  2 -1</clus>
<clus scale="   79.526">  7  8 -1 -1</clus>
<clus scale="   81.254">  5  6 -1 -1</clus>
<clus scale="   81.725">  1  7  2 -1</clus>
<clus scale="   22.790">  1  5  2 -1</clus>
</clustering>
</event>
<event>
 9    1  0.4731329E-005  0.9433141E+02  0.7546771E-02  0.1300329E+00
         21   -1    0    0  501  502  0.00000000000E+00  0.00000000000E+00  0.29070483108E+03  0.29070483108E+03  0.00000000000E+00 0.  1.
         -2   -1    0    0    0  501 -0.00000000000E+00 -0.00000000000E+00 -0.12499470937E+03  0.12499470937E+03  0.00000000000E+00 0.  1.
         23    2    1    2    0    0  0.13924744291E+01  0.22812995078E+02 -0.78854341627E+02  0.12332393091E+03  0.92023980635E+02 0.  0.
        -24    2    1    2    0    0 -0.33911082050E+02 -0.47996812321E+01  0.62486011326E+02  0.10654100027E+03  0.79205332529E+02 0.  0.
         11    1    4    4    0    0  0.10387530579E+02 -0.28672411991E+02  0.42693998016E+02  0.52466994077E+02  0.00000000000E+00 0. -1.
        -12    1    4    4    0    0 -0.44298612629E+02  0.23872730758E+02  0.19792013310E+02  0.54074006191E+02  0.00000000000E+00 0.  1.
        -11    1    3    3    0    0  0.19501199803E+02  0.42570232562E+02 -0.83872167692E+02  0.96057597344E+02  0.00000000000E+00 0.  1.
         11    1    3    3    0    0 -0.18108725374E+02 -0.19757237483E+02  0.50178260657E+01  0.27266333565E+02  0.00000000000E+00 0. -1.
         -1    1    1    2    0  502  0.32518607621E+02 -0.18013313846E+02  0.18207845201E+03  0.18583460928E+03  0.00000000000E+00 0.  1.
<scales pt_clust_5="13000.00000" pt_clust_6="13000.00000" pt_clust_7="13000.00000" pt_clust_8="13000.00000" pt_clust_9="37.17444"></scales>
<clustering>
<clus scale="   37.174">  1  9  2 -1</clus>
<clus scale="   79.205">  5  6 -1 -1</clus>
<clus scale="   81.875">  1  5  2 -1</clus>
<clus scale="   92.024">  7  8 -1 -1</clus>
<clus scale="   37.174">  1  5  2 -1</clus>
</clustering>
</event>
<event>
 9    1  0.4731329E-005  0.1977760E+03  0.7546771E-02  0.1167786E+00
         21   -1    0    0  501  502  0.00000000000E+00  0.00000000000E+00  0.18145834420E+03  0.18145834420E+03  0.00000000000E+00 0.  1.
          1   -1    0    0  502    0 -0.00000000000E+00 -0.00000000000E+00 -0.45017747754E+03  0.45017747754E+03  0.00000000000E+00 0. -1.
         23    2    1    2    0    0  0.24463348057E+02 -0.96466443154E+02 -0.18578340461E+03  0.23009500727E+03  0.92325559237E+02 0.  0.
        -24    2    1    2    0    0 -0.12533841154E+03 -0.94527560132E+02 -0.49274588926E+02  0.18293715473E+03  0.79955240192E+02 0.  0.
         11    1    4    4    0    0 -0.74516039810E+02 -0.96612364004E+01 -0.35356788335E+02  0.83042652650E+02  0.00000000000E+00 0. -1.
        -12    1    4    4    0    0 -0.50822371726E+02 -0.84866323731E+02 -0.13917800591E+02  0.99894502075E+02  0.00000000000E+00 0.  1.
        -13    1    3    3    0    0 -0.33714152209E+02 -0.29448864235E+02 -0.43604541022E+02  0.62491884767E+02  0.00000000000E+00 0.  1.
         13    1    3    3    0    0  0.58177500266E+02 -0.67017578918E+02 -0.14217886359E+03  0.16760312250E+03  0.00000000000E+00 0. -1.
          2    1    1    2  501    0  0.10087506348E+03  0.19099400329E+03 -0.33661139811E+02  0.21860365975E+03  0.00000000000E+00 0. -1.
<scales pt_clust_5="13000.00000" pt_clust_6="13000.00000" pt_clust_7="13000.00000" pt_clust_8="13000.00000" pt_clust_9="180.89376"></scales>
<clustering>
<clus scale="   79.955">  5  6 -1 -1</clus>
<clus scale="   92.326">  7  8 -1 -1</clus>
<clus scale="  135.751">  2  7  1 -1</clus>
<clus scale="  180.894">  1  9  2 -1</clus>
<clus scale="  180.894">  1  5  2 -1</clus>
</clustering>
</event>
<event>
 9    1  0.4731329E-005  0.2251852E+03  0.7546771E-02  0.1130605E+00
          1   -1    0    0  502    0 -0.00000000000E+00  0.00000000000E+00  0.34633473935E+03  0.34633473935E+03  0.00000000000E+00 0. -1.
         21   -1    0    0  501  502  0.00000000000E+00 -0.00000000000E+00 -0.26212628410E+03  0.26212628410E+03  0.00000000000E+00 0. -1.
         23    2    1    2    0    0 -0.41471206097E+02  0.19442595082E+03  0.83889123238E+02  0.23484150680E+03  0.92692162720E+02 0.  0.
        -24    2    1    2    0    0  0.12653988977E+03 -0.19204456408E+03 -0.78549126774E+02  0.25759113334E+03  0.85380140322E+02 0.  0.
         11    1    4    4    0    0  0.13108732665E+03 -0.13973824344E+03 -0.71994600256E+02  0.20467996080E+03  0.00000000000E+00 0. -1.
        -12    1    4    4    0    0 -0.45474368805E+01 -0.52306320643E+02 -0.65545265181E+01  0.52911172537E+02  0.00000000000E+00 0.  1.
        -11    1    3    3    0    0  0.26480919520E+02  0.24483895008E+02  0.96500057872E+01  0.37333936640E+02  0.00000000000E+00 0.  1.
         11    1    3    3    0    0 -0.67952125617E+02  0.16994205582E+03  0.74239117450E+02  0.19750757016E+03  0.00000000000E+00 0. -1.
          2    1    1    2  501    0 -0.85068683672E+02 -0.23813867443E+01  0.78868458777E+02  0.11602838331E+03  0.00000000000E+00 0. -1.
<scales pt_clust_5="13000.00000" pt_clust_6="13000.00000" pt_clust_7="13000.00000" pt_clust_8="13000.00000" pt_clust_9="85.10205"></scales>
<clustering>
<clus scale="   85.102">  2  9  1 -1</clus>
<clus scale="   85.380">  5  6 -1 -1</clus>
<clus scale="   92.692">  7  8 -1 -1</clus>
<clus scale="  222.275">  2  5  1 -1</clus>
<clus scale="   85.102">  2  5  1 -1</clus>
</clustering>
</event>
<event>
 9    1  0.4731329E-005  0.1022151E+03  0.7546771E-02  0.1281096E+00
         21   -1    0    0  501  502  0.00000000000E+00  0.00000000000E+00  0.22537769805E+03  0.22537769805E+03  0.00000000000E+00 0. -1.
         -4   -1    0    0    0  501 -0.00000000000E+00 -0.00000000000E+00 -0.71733225564E+02  0.71733225564E+02  0.00000000000E+00 0.  1.
        -24    2    1    2    0    0 -0.33331611967E+02 -0.36807436487E+02  0.21077499557E+02  0.96248469476E+02  0.79710244961E+02 0.  0.
         23    2    1    2    0    0  0.36666223270E+01  0.44731204879E+02  0.13626366175E+03  0.16993571451E+03  0.91082582011E+02 0.  0.
         11    1    3    3    0    0 -0.30561056821E+02  0.17206382868E+02  0.23319918109E+02  0.42117174478E+02  0.00000000000E+00 0. -1.
        -12    1    3    3    0    0 -0.27705551460E+01 -0.54013819355E+02 -0.22424185517E+01  0.54131294998E+02  0.00000000000E+00 0.  1.
        -13    1    4    4    0    0  0.19749144918E+02 -0.23684909464E+02  0.34656641344E+02  0.46390585797E+02  0.00000000000E+00 0.  1.
         13    1    4    4    0    0 -0.16082522591E+02  0.68416114343E+02  0.10160702040E+03  0.12354512872E+03  0.00000000000E+00 0. -1.
         -3    1    1    2    0  502  0.29664989640E+02 -0.79237683917E+01 -0.36966888136E+01  0.30926739628E+02  0.00000000000E+00 0.  1.
<scales pt_clust_5="13000.00000" pt_clust_6="13000.00000" pt_clust_7="13000.00000" pt_clust_8="13000.00000" pt_clust_9="30.70503"></scales>
<clustering>
<clus scale="   30.705">  1  9  2 -1</clus>
<clus scale="   79.710">  5  6 -1 -1</clus>
<clus scale="   91.083">  7  8 -1 -1</clus>
<clus scale="   92.226">  2  5  1 -1</clus>
<clus scale="   30.705">  1  5  2 -1</clus>
</clustering>
</event>
<event>
 9    1  0.4731329E-005  0.2506617E+03  0.7546771E-02  0.1112887E+00
         21   -1    0    0  501  502  0.00000000000E+00  0.00000000000E+00  0.54329524876E+02  0.54329524876E+02  0.00000000000E+00 0. -1.
          1   -1    0    0  502    0 -0.00000000000E+00 -0.00000000000E+00 -0.96448409170E+03  0.96448409170E+03  0.00000000000E+00 0. -1.
        -24    2    1    2    0    0 -0.72155943438E+01 -0.87229909605E+02 -0.13234732923E+03  0.17801774855E+03  0.80705522192E+02 0.  0.
         23    2    1    2    0    0 -0.59838925840E+01 -0.99791921815E+02 -0.23652078050E+03  0.26795870048E+03  0.76586884831E+02 0.  0.
         11    1    3    3    0    0  0.50217116265E+01 -0.51555623347E+02 -0.13786581493E+02  0.53602889061E+02  0.00000000000E+00 0. -1.
        -12    1    3    3    0    0 -0.12237305970E+02 -0.35674286257E+02 -0.11856074773E+03  0.12441485949E+03  0.00000000000E+00 0.  1.
        -13    1    4    4    0    0  0.32788012495E+02 -0.69100669375E+02 -0.14300268866E+03  0.16217190026E+03  0.00000000000E+00 0. -1.
         13    1    4    4    0    0 -0.38771905079E+02 -0.30691252440E+02 -0.93518091840E+02  0.10578680022E+03  0.00000000000E+00 0.  1.
          2    1    1    2  501    0  0.13199486928E+02  0.18702183142E+03 -0.54128645710E+03  0.57283716755E+03  0.00000000000E+00 0. -1.
<scales pt_clust_5="13000.00000" pt_clust_6="13000.00000" pt_clust_7="13000.00000" pt_clust_8="13000.00000" pt_clust_9="187.48714"></scales>
<clustering>
<clus scale="   76.587">  7  8 -1 -1</clus>
<clus scale="   80.706">  5  6 -1 -1</clus>
<clus scale="   95.323">  5  7 -1 -1</clus>
<clus scale="  187.487">  1  9  2 -1</clus>
<clus scale="  187.487">  1  5  2 -1</clus>
</clustering>
</event>
<event>
 9    1  0.4731329E-005  0.1111985E+03  0.7546771E-02  0.1263827E+00
          1   -1    0    0  502    0 -0.00000000000E+00  0.00000000000E+00  0.17378121482E+03  0.17378121482E+03  0.00000000000E+00 0. -1.
         21   -1    0    0  501  502  0.00000000000E+00 -0.00000000000E+00 -0.15276555044E+03  0.15276555044E+03  0.00000000000E+00 0. -1.
        -24    2    1    2    0    0  0.61159362485E+02 -0.30533861203E+02  0.11014346803E+03  0.15195260465E+03  0.79279418586E+02 0.  0.
         23    2    1    2    0    0 -0.17224810583E+02  0.15350310920E+02 -0.84574655734E+02  0.12788745653E+03  0.93112850885E+02 0.  0.
         11    1    3    3    0    0  0.39143891123E+02  0.19828444010E+02  0.24690233446E+02  0.50348972499E+02  0.00000000000E+00 0. -1.
        -12    1    3    3    0    0  0.22015471362E+02 -0.50362305214E+02  0.85453234585E+02  0.10160363215E+03  0.00000000000E+00 0.  1.
        -11    1    4    4    0    0  0.13043918895E+02 -0.15716488186E+02 -0.81924560077E+02  0.84432134670E+02  0.00000000000E+00 0. -1.
         11    1    4    4    0    0 -0.30268729479E+02  0.31066799105E+02 -0.26500956569E+01  0.43455321859E+02  0.00000000000E+00 0.  1.
          2    1    1    2  501    0 -0.43934551901E+02  0.15183550284E+02 -0.45531479108E+01  0.46706704079E+02  0.00000000000E+00 0. -1.
<scales pt_clust_5="13000.00000" pt_clust_6="13000.00000" pt_clust_7="13000.00000" pt_clust_8="13000.00000" pt_clust_9="46.48425"></scales>
<clustering>
<clus scale="   46.484">  2  9  1 -1</clus>
<clus scale="   79.279">  5  6 -1 -1</clus>
<clus scale="   93.113">  7  8 -1 -1</clus>
<clus scale="   99.902">  1  5  2 -1</clus>
<clus scale="   46.484">  2  5  1 -1</clus>
</clustering>
</event>
<event>
 9    1  0.4731329E-005  0.8964192E+02  0.7546771E-02  0.1309217E+00
          1   -1    0    0  502    0 -0.00000000000E+00  0.00000000000E+00  0.26649905689E+02  0.26649905689E+02  0.00000000000E+00 0. -1.
         21   -1    0    0  501  502  0.00000000000E+00 -0.00000000000E+00 -0.51974692453E+03  0.51974692453E+03  0.00000000000E+00 0.  1.
         23    2    1    2    0    0 -0.19367835196E+02  0.14842398895E+02 -0.18644982711E+03  0.20816048517E+03  0.89285159517E+02 0.  0.
        -24    2    1    2    0    0 -0.77694071327E+01  0.25284345946E+02 -0.24819647875E+03  0.26232144915E+03  0.80693176786E+02 0.  0.
         13    1    4    4    0    0  0.21921489138E+02 -0.13608840210E+02 -0.34423981074E+02  0.43020491523E+02  0.00000000000E+00 0. -1.
        -14    1    4    4    0    0 -0.29690896271E+02  0.38893186156E+02 -0.21377249768E+03  0.21930095762E+03  0.00000000000E+00 0.  1.
        -13    1    3    3    0    0 -0.44449137045E+02  0.27287053897E+02 -0.64052991800E+02  0.82602026930E+02  0.00000000000E+00 0.  1.
         13    1    3    3    0    0  0.25081301849E+02 -0.12444655002E+02 -0.12239683531E+03  0.12555845824E+03  0.00000000000E+00 0. -1.
          2    1    1    2  501    0  0.27137242329E+02 -0.40126744842E+02 -0.58450712978E+02  0.75914895906E+02  0.00000000000E+00 0. -1.
<scales pt_clust_5="13000.00000" pt_clust_6="13000.00000" pt_clust_7="13000.00000" pt_clust_8="13000.00000" pt_clust_9="48.44159"></scales>
<clustering>
<clus scale="   48.442">  2  9  1 -1</clus>
<clus scale="   80.693">  5  6 -1 -1</clus>
<clus scale="   81.088">  2  5  1 -1</clus>
<clus scale="   89.285">  7  8 -1 -1</clus>
<clus scale="   48.442">  2  5  1 -1</clus>
</clustering>
</event>
<event>
 9    1  0.4731329E-005  0.1075283E+03  0.7546771E-02  0.1271883E+00
         21   -1    0    0  501  502  0.00000000000E+00  0.00000000000E+00  0.19886470337E+03  0.19886470337E+03  0.00000000000E+00 0.  1.
          1   -1    0    0  502    0 -0.00000000000E+00 -0.00000000000E+00 -0.84699690436E+02  0.84699690436E+02  0.00000000000E+00 0. -1.
        -24    2    1    2    0    0  0.66591130526E+02  0.19033522487E+02  0.18419430992E+02  0.10399864673E+03  0.75364377789E+02 0.  0.
         23    2    1    2    0    0 -0.23463266105E+02 -0.41929624138E+02  0.66331645128E+02  0.12256202931E+03  0.91175356580E+02 0.  0.
         13    1    3    3    0    0  0.46779843299E+02 -0.93432499983E+01 -0.20495970829E+02  0.51920466869E+02  0.00000000000E+00 0. -1.
        -14    1    3    3    0    0  0.19811287227E+02  0.28376772485E+02  0.38915401821E+02  0.52078179857E+02  0.00000000000E+00 0.  1.
        -11    1    4    4    0    0 -0.45985564823E+02 -0.10515735606E+02  0.69259200973E+02  0.83797910396E+02  0.00000000000E+00 0.  1.
         11    1    4    4    0    0  0.22522298718E+02 -0.31413888532E+02 -0.29275558450E+01  0.38764118918E+02  0.00000000000E+00 0. -1.
          2    1    1    2  501    0 -0.43127864421E+02  0.22896101651E+02  0.29413936814E+02  0.57003717767E+02  0.00000000000E+00 0. -1.
<scales pt_clust_5="13000.00000" pt_clust_6="13000.00000" pt_clust_7="13000.00000" pt_clust_8="13000.00000" pt_clust_9="48.82872"></scales>
<clustering>
<clus scale="   48.829">  1  9  2 -1</clus>
<clus scale="   75.364">  5  6 -1 -1</clus>
<clus scale="   91.175">  7  8 -1 -1</clus>
<clus scale="   94.494">  2  5  1 -1</clus>
<clus scale="   48.829">  1  5  2 -1</clus>
</clustering>
</event>
<event>
 9    1  0.4731329E-005  0.1524510E+03  0.7546771E-02  0.1218853E+00
         21   -1    0    0  501  502  0.00000000000E+00  0.00000000000E+00  0.37972620343E+03  0.37972620343E+03  0.00000000000E+00 0. -1.
          1   -1    0    0  502    0 -0.00000000000E+00 -0.00000000000E+00 -0.95815747403E+02  0.95815747403E+02  0.00000000000E+00 0. -1.
         23    2    1    2    0    0  0.44064749675E+01  0.28321296274E+02  0.44674468718E+02  0.10631690415E+03  0.92119287385E+02 0.  0.
        -24    2    1    2    0    0  0.33927936124E+02 -0.12763789830E+03  0.19645468343E+03  0.25449251218E+03  0.93431569514E+02 0.  0.
         13    1    4    4    0    0  0.31976609371E+02 -0.11272195109E+03  0.92032539503E+02  0.14899238280E+03  0.00000000000E+00 0. -1.
        -14    1    4    4    0    0  0.19513267528E+01 -0.14915947212E+02  0.10442214393E+03  0.10550012938E+03  0.00000000000E+00 0.  1.
        -13    1    3    3    0    0 -0.41998314680E+02  0.10247334858E+02  0.34915475413E+02  0.55569386635E+02  0.00000000000E+00 0.  1.
         13    1    3    3    0    0  0.46404789648E+02  0.18073961416E+02  0.97589933052E+01  0.50747517514E+02  0.00000000000E+00 0. -1.
          2    1    1    2  501    0 -0.38334411091E+02  0.99316602029E+02  0.42781303883E+02  0.11473253451E+03  0.00000000000E+00 0. -1.
<scales pt_clust_5="13000.00000" pt_clust_6="13000.00000" pt_clust_7="13000.00000" pt_clust_8="13000.00000" pt_clust_9="120.46521"></scales>
<clustering>
<clus scale="   92.119">  7  8 -1 -1</clus>
<clus scale="   93.432">  5  6 -1 -1</clus>
<clus scale="   96.475">  2  7  1 -1</clus>
<clus scale="  120.465">  1  9  2 -1</clus>
<clus scale="  120.465">  1  5  2 -1</clus>
</clustering>
</event>
<event>
 9    1  0.4731329E-005  0.9679325E+02  0.7546771E-02  0.1290928E+00
          1   -1    0    0  502    0 -0.00000000000E+00  0.00000000000E+00  0.42732453782E+03  0.42732453782E+03  0.00000000000E+00 0. -1.
         21   -1    0    0  501  502  0.00000000000E+00 -0.00000000000E+00 -0.35098807814E+02  0.35098807814E+02  0.00000000000E+00 0. -1.
         23    2    1    2    0    0  0.31060215626E+02  0.35804292460E+02  0.27618339388E+03  0.29343962575E+03  0.87079633381E+02 0.  0.
        -24    2    1    2    0    0 -0.39275655108E+02 -0.42684572782E+01  0.95164111094E+02  0.13028097287E+03  0.79725322447E+02 0.  0.
         11    1    4    4    0    0 -0.32084461018E+02  0.34341415831E+02  0.67469132995E+02  0.82224262765E+02  0.00000000000E+00 0. -1.
        -12    1    4    4    0    0 -0.71911940898E+01 -0.38609873110E+02  0.27694978098E+02  0.48056710102E+02  0.00000000000E+00 0.  1.
        -11    1    3    3    0    0  0.39857907242E+02  0.59155039491E+02  0.16989550657E+03  0.18426191853E+03  0.00000000000E+00 0. -1.
         11    1    3    3    0    0 -0.87976916155E+01 -0.23350747031E+02  0.10628788731E+03  0.10917770722E+03  0.00000000000E+00 0.  1.
          2    1    1    2  501    0  0.82154394818E+01 -0.31535835182E+02  0.20878225036E+02  0.38702747023E+02  0.00000000000E+00 0. -1.
<scales pt_clust_5="13000.00000" pt_clust_6="13000.00000" pt_clust_7="13000.00000" pt_clust_8="13000.00000" pt_clust_9="32.58838"></scales>
<clustering>
<clus scale="   32.588">  2  9  1 -1</clus>
<clus scale="   79.725">  5  6 -1 -1</clus>
<clus scale="   87.080">  7  8 -1 -1</clus>
<clus scale="   90.234">  2  5  1 -1</clus>
<clus scale="   32.588">  2  5  1 -1</clus>
</clustering>
</event>
<event>
 9    1  0.4731329E-005  0.1036779E+03  0.7546771E-02  0.1278528E+00
         21   -1    0    0  501  502  0.00000000000E+00  0.00000000000E+00  0.21473607789E+03  0.21473607789E+03  0.00000000000E+00 0. -1.
          1   -1    0    0  502    0 -0.00000000000E+00 -0.00000000000E+00 -0.17849585641E+03  0.17849585641E+03  0.00000000000E+00 0. -1.
         23    2    1    2    0    0  0.54275711452E+02  0.64969895680E+01 -0.13218835153E+03  0.16936752325E+03  0.90683702629E+02 0.  0.
        -24    2    1    2    0    0 -0.31660236837E+02 -0.16728007406E+02  0.43016721138E+02  0.96019716170E+02  0.78020194614E+02 0.  0.
         13    1    4    4    0    0  0.22565548134E+02  0.85694753261E+01  0.36941088811E+01  0.24418974393E+02  0.00000000000E+00 0. -1.
        -14    1    4    4    0    0 -0.54225784971E+02 -0.25297482733E+02  0.39322612256E+02  0.71600741777E+02  0.00000000000E+00 0.  1.
        -13    1    3    3    0    0  0.27585637163E+01  0.39725263450E+02 -0.28703510495E+02  0.49087653689E+02  0.00000000000E+00 0.  1.
         13    1    3    3    0    0  0.51517147736E+02 -0.33228273882E+02 -0.10348484104E+03  0.12027986956E+03  0.00000000000E+00 0. -1.
          2    1    1    2  501    0 -0.22615474615E+02  0.10231017838E+02  0.12541185188E+03  0.12784469488E+03  0.00000000000E+00 0. -1.
<scales pt_clust_5="13000.00000" pt_clust_6="13000.00000" pt_clust_7="13000.00000" pt_clust_8="13000.00000" pt_clust_9="24.82203"></scales>
<clustering>
<clus scale="   24.822">  1  9  2 -1</clus>
<clus scale="   78.020">  5  6 -1 -1</clus>
<clus scale="   90.684">  7  8 -1 -1</clus>
<clus scale="   92.805">  1  5  2 -1</clus>
<clus scale="   24.822">  1  5  2 -1</clus>
</clustering>
</event>
<event>
 9    1  0.4731329E-005  0.1050349E+03  0.7546771E-02  0.1274951E+00
         21   -1    0    0  501  502  0.00000000000E+00  0.00000000000E+00  0.12961289744E+03  0.12961289744E+03  0.00000000000E+00 0.  1.
          1   -1    0    0  502    0 -0.00000000000E+00 -0.00000000000E+00 -0.39683750891E+03  0.39683750891E+03  0.00000000000E+00 0. -1.
        -24    2    1    2    0    0 -0.49558730921E+02  0.99306840567E+01 -0.33244170019E+03  0.34560063530E+03  0.79797423507E+02 0.  0.
         23    2    1    2    0    0  0.86416899528E+02  0.97282022288E+01  0.57681302444E+02  0.13840233912E+03  0.90915105340E+02 0.  0.
         11    1    3    3    0    0  0.17831466286E+02 -0.13686947617E+02 -0.96855493921E+02  0.99429776364E+02  0.00000000000E+00 0. -1.
        -12    1    3    3    0    0 -0.67390197207E+02  0.23617631673E+02 -0.23558620627E+03  0.24617085893E+03  0.00000000000E+00 0.  1.
        -11    1    4    4    0    0  0.76352169312E+02  0.40692902961E+02  0.60722279730E+02  0.10570128365E+03  0.00000000000E+00 0.  1.
         11    1    4    4    0    0  0.10064730216E+02 -0.30964700732E+02 -0.30409772863E+01  0.32701055466E+02  0.00000000000E+00 0. -1.
          2    1    1    2  501    0 -0.36858168608E+02 -0.19658886285E+02  0.75357862696E+01  0.42447431934E+02  0.00000000000E+00 0. -1.
<scales pt_clust_5="13000.00000" pt_clust_6="13000.00000" pt_clust_7="13000.00000" pt_clust_8="13000.00000" pt_clust_9="41.77315"></scales>
<clustering>
<clus scale="   41.773">  1  9  2 -1</clus>
<clus scale="   79.797">  5  6 -1 -1</clus>
<clus scale="   90.915">  7  8 -1 -1</clus>
<clus scale="   95.574">  2  5  1 -1</clus>
<clus scale="   41.773">  1  5  2 -1</clus>
</clustering>
</event>
<event>
 9    1  0.4731329E-005  0.1950850E+03  0.7546771E-02  0.1154764E+00
         21   -1    0    0  501  502  0.00000000000E+00  0.00000000000E+00  0.16755605699E+03  0.16755605699E+03  0.00000000000E+00 0. -1.
          3   -1    0    0  502    0 -0.00000000000E+00 -0.00000000000E+00 -0.31512392702E+03  0.31512392702E+03  0.00000000000E+00 0. -1.
        -24    2    1    2    0    0  0.10543093155E+03  0.16796041002E+03 -0.10781290323E+03  0.23959740543E+03  0.80354924713E+02 0.  0.
         23    2    1    2    0    0 -0.62595825388E+02 -0.12700050324E+03  0.74991135993E+01  0.16728344667E+03  0.88770206965E+02 0.  0.
         13    1    3    3    0    0  0.87846252157E+02  0.17085867780E+03 -0.11041311836E+03  0.22158679677E+03  0.00000000000E+00 0. -1.
        -14    1    3    3    0    0  0.17584679391E+02 -0.28982677819E+01  0.26002151354E+01  0.18010608656E+02  0.00000000000E+00 0.  1.
        -11    1    4    4    0    0 -0.70922971928E+02 -0.44897532716E+02 -0.35969728789E+01  0.84016632907E+02  0.00000000000E+00 0. -1.
         11    1    4    4    0    0  0.83271465404E+01 -0.82102970528E+02  0.11096086478E+02  0.83266813763E+02  0.00000000000E+00 0.  1.
          4    1    1    2  501    0 -0.42835106160E+02 -0.40959906776E+02 -0.47254080412E+02  0.75799131911E+02  0.00000000000E+00 0. -1.
<scales pt_clust_5="13000.00000" pt_clust_6="13000.00000" pt_clust_7="13000.00000" pt_clust_8="13000.00000" pt_clust_9="59.26689"></scales>
<clustering>
<clus scale="   59.267">  1  9  2 -1</clus>
<clus scale="   80.355">  5  6 -1 -1</clus>
<clus scale="   88.770">  7  8 -1 -1</clus>
<clus scale="  191.403">  2  5  1 -1</clus>
<clus scale="   59.267">  1  5  2 -1</clus>
</clustering>
</event>
<event>
 9    1  0.4731329E-005  0.9271778E+02  0.7546771E-02  0.1304578E+00
         21   -1    0    0  501  502  0.00000000000E+00  0.00000000000E+00  0.79679892134E+02  0.79679892134E+02  0.00000000000E+00 0.  1.
         -2   -1    0    0    0  501 -0.00000000000E+00 -0.00000000000E+00 -0.13093012105E+03  0.13093012105E+03  0.00000000000E+00 0.  1.
        -24    2    1    2    0    0 -0.59033183152E+01  0.19711929153E+02 -0.47204286758E+02  0.93954945813E+02  0.78586753568E+02 0.  0.
         23    2    1    2    0    0 -0.10599999486E+02 -0.20059934006E+01 -0.42768300803E+01  0.92449428180E+02  0.91718163396E+02 0.  0.
         13    1    3    3    0    0 -0.29934848582E+01 -0.29489901808E+02 -0.72707564462E+01  0.30520143505E+02  0.00000000000E+00 0. -1.
        -14    1    3    3    0    0 -0.29098334570E+01  0.49201830962E+02 -0.39933530311E+02  0.63434802308E+02  0.00000000000E+00 0.  1.
        -13    1    4    4    0    0 -0.19074935002E+02  0.32279665169E+02 -0.30604141478E+02  0.48398795484E+02  0.00000000000E+00 0. -1.
         13    1    4    4    0    0  0.84749355164E+01 -0.34285658569E+02  0.26327311397E+02  0.44050632696E+02  0.00000000000E+00 0.  1.
         -1    1    1    2    0  502  0.16503317801E+02 -0.17705935753E+02  0.23088792377E+00  0.24205639189E+02  0.00000000000E+00 0.  1.
<scales pt_clust_5="13000.00000" pt_clust_6="13000.00000" pt_clust_7="13000.00000" pt_clust_8="13000.00000" pt_clust_9="24.20454"></scales>
<clustering>
<clus scale="   24.205">  1  9  2 -1</clus>
<clus scale="   78.587">  5  6 -1 -1</clus>
<clus scale="   79.751">  2  5  1 -1</clus>
<clus scale="   91.718">  7  8 -1 -1</clus>
<clus scale="   24.205">  1  5  2 -1</clus>
</clustering>
</event>
<event>
 9    1  0.4731329E-005  0.2877535E+03  0.7546771E-02  0.1094161E+00
          1   -1    0    0  502    0 -0.00000000000E+00  0.00000000000E+00  0.56806974938E+03  0.56806974938E+03  0.00000000000E+00 0. -1.
         21   -1    0    0  501  502  0.00000000000E+00 -0.00000000000E+00 -0.40556335642E+03  0.40556335642E+03  0.00000000000E+00 0. -1.
         23    2    1    2    0    0  0.65010457589E+02 -0.24417824584E+03 -0.77266059569E+02  0.27940108386E+03  0.90804990845E+02 0.  0.
        -24    2    1    2    0    0 -0.26777039222E+03  0.50496069501E+01  0.25703264065E+03  0.38023837371E+03  0.82395151552E+02 0.  0.
         11    1    4    4    0    0 -0.23215972898E+03  0.32928215450E+02  0.20681528521E+03  0.31265791103E+03  0.00000000000E+00 0. -1.
        -12    1    4    4    0    0 -0.35610663243E+02 -0.27878608500E+02  0.50217355442E+02  0.67580462681E+02  0.00000000000E+00 0.  1.
        -13    1    3    3    0    0  0.60542467423E+02 -0.21363986752E+03 -0.31609209358E+02  0.22429116227E+03  0.00000000000E+00 0.  1.
         13    1    3    3    0    0  0.44679901663E+01 -0.30538378325E+02 -0.45656850212E+02  0.55109921594E+02  0.00000000000E+00 0. -1.
          2    1    1    2  501    0  0.20275993464E+03  0.23912863889E+03 -0.17260188117E+02  0.31399364823E+03  0.00000000000E+00 0. -1.
<scales pt_clust_5="13000.00000" pt_clust_6="13000.00000" pt_clust_7="13000.00000" pt_clust_8="13000.00000" pt_clust_9="275.70479"></scales>
<clustering>
<clus scale="   82.395">  5  6 -1 -1</clus>
<clus scale="   90.805">  7  8 -1 -1</clus>
<clus scale="  268.505">  1  7  2 -1</clus>
<clus scale="  275.705">  2  9  1 -1</clus>
<clus scale="  275.705">  2  5  1 -1</clus>
</clustering>
</event>
<event>
 9    1  0.4731329E-005  0.1145853E+03  0.7546771E-02  0.1255949E+00
         -4   -1    0    0    0  501 -0.00000000000E+00  0.00000000000E+00  0.79791954424E+02  0.79791954424E+02  0.00000000000E+00 0.  1.
         21   -1    0    0  501  502  0.00000000000E+00 -0.00000000000E+00 -0.41395515576E+03  0.41395515576E+03  0.00000000000E+00 0. -1.
        -24    2    1    2    0    0 -0.29481058261E+02 -0.62422870104E+02 -0.11983831925E+01  0.10645015874E+03  0.81021309942E+02 0.  0.
         23    2    1    2    0    0  0.54707631100E+01  0.74925270762E+02 -0.33946215533E+03  0.35945777607E+03  0.91277666657E+02 0.  0.
         13    1    3    3    0    0 -0.39641631286E+02  0.26598361724E+01 -0.69284390846E+01  0.40330347478E+02  0.00000000000E+00 0. -1.
        -14    1    3    3    0    0  0.10160573026E+02 -0.65082706276E+02  0.57300558920E+01  0.66119811259E+02  0.00000000000E+00 0.  1.
        -13    1    4    4    0    0  0.15226001517E+01 -0.20085036031E+02 -0.33813577272E+02  0.39358417035E+02  0.00000000000E+00 0.  1.
         13    1    4    4    0    0  0.39481629583E+01  0.95010306793E+02 -0.30564857806E+03  0.32009935904E+03  0.00000000000E+00 0. -1.
         -3    1    1    2    0  502  0.24010295151E+02 -0.12502400658E+02  0.64973371792E+01  0.27839175380E+02  0.00000000000E+00 0.  1.
<scales pt_clust_5="13000.00000" pt_clust_6="13000.00000" pt_clust_7="13000.00000" pt_clust_8="13000.00000" pt_clust_9="27.07037"></scales>
<clustering>
<clus scale="   27.070">  2  9  1 -1</clus>
<clus scale="   81.021">  5  6 -1 -1</clus>
<clus scale="   91.278">  7  8 -1 -1</clus>
<clus scale="  106.596">  1  5  2 -1</clus>
<clus scale="   27.070">  2  5  1 -1</clus>
</clustering>
</event>
<event>
 9    1  0.4731329E-005  0.1017587E+03  0.7546771E-02  0.1282365E+00
         21   -1    0    0  501  502  0.00000000000E+00  0.00000000000E+00  0.55347960602E+02  0.55347960602E+02  0.00000000000E+00 0. -1.
          1   -1    0    0  502    0 -0.00000000000E+00 -0.00000000000E+00 -0.42264328915E+03  0.42264328915E+03  0.00000000000E+00 0. -1.
         23    2    1    2    0    0 -0.24969508562E+02 -0.23837802021E+02 -0.24453809198E+03  0.26318282732E+03  0.90964855882E+02 0.  0.
        -24    2    1    2    0    0  0.30280016750E+02  0.61410200517E+02 -0.13865724355E+03  0.17366602523E+03  0.79031417724E+02 0.  0.
         13    1    4    4    0    0  0.41673500840E+02  0.58636936129E+02 -0.58683229156E+02  0.92836912567E+02  0.00000000000E+00 0. -1.
        -14    1    4    4    0    0 -0.11393484090E+02  0.27732643882E+01 -0.79974014395E+02  0.80829112661E+02  0.00000000000E+00 0.  1.
        -13    1    3    3    0    0 -0.51843181810E+02  0.10548780626E+02 -0.11761492846E+03  0.12896613380E+03  0.00000000000E+00 0. -1.
         13    1    3    3    0    0  0.26873673249E+02 -0.34386582647E+02 -0.12692316352E+03  0.13421669352E+03  0.00000000000E+00 0.  1.
          2    1    1    2  501    0 -0.53105081882E+01 -0.37572398497E+02  0.15900006977E+02  0.41142397206E+02  0.00000000000E+00 0. -1.
<scales pt_clust_5="13000.00000" pt_clust_6="13000.00000" pt_clust_7="13000.00000" pt_clust_8="13000.00000" pt_clust_9="37.94584"></scales>
<clustering>
<clus scale="   37.946">  1  9  2 -1</clus>
<clus scale="   79.031">  5  6 -1 -1</clus>
<clus scale="   90.965">  7  8 -1 -1</clus>
<clus scale="   91.248">  1  5  2 -1</clus>
<clus scale="   37.946">  1  5  2 -1</clus>
</clustering>
</event>
<event>
 9    1  0.4731329E-005  0.1380536E+03  0.7546771E-02  0.1218642E+00
          1   -1    0    0  502    0 -0.00000000000E+00  0.00000000000E+00  0.76881932298E+03  0.76881932298E+03  0.00000000000E+00 0. -1.
         21   -1    0    0  501  502  0.00000000000E+00 -0.00000000000E+00 -0.46622926132E+02  0.46622926132E+02  0.00000000000E+00 0.  1.
        -24    2    1    2    0    0 -0.53063588448E+02 -0.10406885581E+03  0.53517475812E+03  0.55360778920E+03  0.80146686539E+02 0.  0.
         23    2    1    2    0    0 -0.39651287773E+01  0.76060740021E+02  0.12936429404E+03  0.17603761537E+03  0.91941084568E+02 0.  0.
         13    1    3    3    0    0 -0.66324200277E+02 -0.98240090650E+02  0.51675277323E+03  0.53017303175E+03  0.00000000000E+00 0. -1.
        -14    1    3    3    0    0  0.13260611829E+02 -0.58287651568E+01  0.18421984887E+02  0.23434757445E+02  0.00000000000E+00 0.  1.
        -11    1    4    4    0    0  0.91730008714E+01  0.57354852040E+02  0.15798278341E+02  0.60193924910E+02  0.00000000000E+00 0.  1.
         11    1    4    4    0    0 -0.13138129649E+02  0.18705887981E+02  0.11356601570E+03  0.11584369046E+03  0.00000000000E+00 0. -1.
          2    1    1    2  501    0  0.57028717225E+02  0.28008115785E+02  0.57657344679E+02  0.85796844544E+02  0.00000000000E+00 0. -1.
<scales pt_clust_5="13000.00000" pt_clust_6="13000.00000" pt_clust_7="13000.00000" pt_clust_8="13000.00000" pt_clust_9="63.53526"></scales>
<clustering>
<clus scale="   63.535">  2  9  1 -1</clus>
<clus scale="   80.147">  5  6 -1 -1</clus>
<clus scale="   91.941">  7  8 -1 -1</clus>
<clus scale="  130.496">  1  5  2 -1</clus>
<clus scale="   63.535">  2  5  1 -1</clus>
</clustering>
</event>
<event>
 9    1  0.4731329E-005  0.1097677E+03  0.7546771E-02  0.1273528E+00
         21   -1    0    0  501  502  0.00000000000E+00  0.00000000000E+00  0.39867815262E+02  0.39867815262E+02  0.00000000000E+00 0. -1.
          1   -1    0    0  502    0 -0.00000000000E+00 -0.00000000000E+00 -0.56421857654E+03  0.56421857654E+03  0.00000000000E+00 0. -1.
        -24    2    1    2    0    0 -0.25193417176E+02 -0.87966785317E+01 -0.31723146420E+03  0.32817890766E+03  0.79708868583E+02 0.  0.
         23    2    1    2    0    0  0.52040515550E+02 -0.11966223698E+02 -0.21115231925E+03  0.24172956630E+03  0.10486408122E+03 0.  0.
         13    1    3    3    0    0 -0.47541916164E+02 -0.26485246990E+02 -0.23241986890E+03  0.23870629979E+03  0.00000000000E+00 0. -1.
        -14    1    3    3    0    0  0.22348498987E+02  0.17688568458E+02 -0.84811595306E+02  0.89472607873E+02  0.00000000000E+00 0.  1.
        -11    1    4    4    0    0  0.34271572379E+02 -0.51623560005E+02 -0.67410950424E+02  0.91562922944E+02  0.00000000000E+00 0. -1.
         11    1    4    4    0    0  0.17768943171E+02  0.39657336307E+02 -0.14374136883E+03  0.15016664336E+03  0.00000000000E+00 0.  1.
          2    1    1    2  501    0 -0.26847098374E+02  0.20762902230E+02  0.40330221759E+01  0.34177917842E+02  0.00000000000E+00 0. -1.
<scales pt_clust_5="13000.00000" pt_clust_6="13000.00000" pt_clust_7="13000.00000" pt_clust_8="13000.00000" pt_clust_9="33.93913"></scales>
<clustering>
<clus scale="   33.939">  1  9  2 -1</clus>
<clus scale="   79.709">  5  6 -1 -1</clus>
<clus scale="   86.058">  2  5  1 -1</clus>
<clus scale="  104.864">  7  8 -1 -1</clus>
<clus scale="   33.939">  1  5  2 -1</clus>
</clustering>
</event>
<event>
 9    1  0.4731329E-005  0.1672663E+03  0.7546771E-02  0.1181737E+00
         21   -1    0    0  501  502  0.00000000000E+00  0.00000000000E+00  0.65013242232E+02  0.65013242232E+02  0.00000000000E+00 0. -1.
          3   -1    0    0  502    0 -0.00000000000E+00 -0.00000000000E+00 -0.55548860977E+03  0.55548860977E+03  0.00000000000E+00 0. -1.
         23    2    1    2    0    0  0.78094922784E+02 -0.14012721149E+03 -0.28873587395E+03  0.34147170294E+03  0.86602925111E+02 0.  0.
        -24    2    1    2    0    0 -0.72500341692E+02  0.98123096522E+02 -0.12680001661E+03  0.19293967211E+03  0.79139315416E+02 0.  0.
         11    1    4    4    0    0 -0.46825708534E+02  0.10799526704E+03 -0.98658344407E+02  0.15358741356E+03  0.00000000000E+00 0. -1.
        -12    1    4    4    0    0 -0.25674633158E+02 -0.98721705176E+01 -0.28141672203E+02  0.39352258549E+02  0.00000000000E+00 0.  1.
        -13    1    3    3    0    0  0.79152931173E+02 -0.10053652112E+03 -0.14984207065E+03  0.19704168272E+03  0.00000000000E+00 0. -1.
         13    1    3    3    0    0 -0.10580083885E+01 -0.39590690377E+02 -0.13889380330E+03  0.14443002023E+03  0.00000000000E+00 0.  1.
          4    1    1    2  501    0 -0.55945810919E+01  0.42004114972E+02 -0.74939476978E+02  0.86090476953E+02  0.00000000000E+00 0. -1.
<scales pt_clust_5="13000.00000" pt_clust_6="13000.00000" pt_clust_7="13000.00000" pt_clust_8="13000.00000" pt_clust_9="42.37507"></scales>
<clustering>
<clus scale="   42.375">  1  9  2 -1</clus>
<clus scale="   79.139">  5  6 -1 -1</clus>
<clus scale="   86.603">  7  8 -1 -1</clus>
<clus scale="  163.527">  1  5  2 -1</clus>
<clus scale="   42.375">  1  5  2 -1</clus>
</clustering>
</event>
<event>
 9    1  0.4731329E-005  0.2163489E+03  0.7546771E-02  0.1138248E+00
         21   -1    0    0  501  502  0.00000000000E+00  0.00000000000E+00  0.18639900891E+03  0.18639900891E+03  0.00000000000E+00 0. -1.
          1   -1    0    0  502    0 -0.00000000000E+00 -0.00000000000E+00 -0.45378413272E+03  0.45378413272E+03  0.00000000000E+00 0. -1.
         23    2    1    2    0    0 -0.17242032456E+03 -0.45249501978E+02 -0.11065281994E+03  0.23225603631E+03  0.99611917419E+02 0.  0.
        -24    2    1    2    0    0  0.20196409488E+03  0.90771727613E+02  0.68923925033E+01  0.23553757938E+03  0.80009024931E+02 0.  0.
         11    1    4    4    0    0  0.17135733310E+03  0.10530480616E+03  0.10879071739E+02  0.20142192535E+03  0.00000000000E+00 0. -1.
        -12    1    4    4    0    0  0.30606761782E+02 -0.14533078549E+02 -0.39866792353E+01  0.34115654035E+02  0.00000000000E+00 0.  1.
        -11    1    3    3    0    0 -0.10600393292E+02 -0.31490631907E+02  0.39887463683E+01  0.33465479728E+02  0.00000000000E+00 0.  1.
         11    1    3    3    0    0 -0.16181993126E+03 -0.13758870071E+02 -0.11464156631E+03  0.19879055658E+03  0.00000000000E+00 0. -1.
          2    1    1    2  501    0 -0.29543770327E+02 -0.45522225635E+02 -0.16362469637E+03  0.17238952594E+03  0.00000000000E+00 0. -1.
<scales pt_clust_5="13000.00000" pt_clust_6="13000.00000" pt_clust_7="13000.00000" pt_clust_8="13000.00000" pt_clust_9="54.26887"></scales>
<clustering>
<clus scale="   54.269">  1  9  2 -1</clus>
<clus scale="   80.009">  5  6 -1 -1</clus>
<clus scale="   99.612">  7  8 -1 -1</clus>
<clus scale="  208.052">  1  5  2 -1</clus>
<clus scale="   54.269">  1  5  2 -1</clus>
</clustering>
</event>
<event>
 9    1  0.4731329E-005  0.1045644E+03  0.7546771E-02  0.1276868E+00
          1   -1    0    0  502    0 -0.00000000000E+00  0.00000000000E+00  0.49135302121E+03  0.49135302121E+03  0.00000000000E+00 0. -1.
         21   -1    0    0  501  502  0.00000000000E+00 -0.00000000000E+00 -0.37034758819E+02  0.37034758819E+02  0.00000000000E+00 0.  1.
         23    2    1    2    0    0 -0.26642322421E+02  0.34484185158E+02  0.14830998981E+03  0.17919592135E+03  0.90644099532E+02 0.  0.
        -24    2    1    2    0    0  0.53608650314E+02 -0.36875307798E+02  0.10296779113E+03  0.14435451489E+03  0.77473764871E+02 0.  0.
         13    1    4    4    0    0 -0.17459425304E+02 -0.11411790238E+02  0.64759752903E+01  0.21840300921E+02  0.00000000000E+00 0. -1.
        -14    1    4    4    0    0  0.71068075618E+02 -0.25463517560E+02  0.96491815843E+02  0.12251421396E+03  0.00000000000E+00 0.  1.
        -13    1    3    3    0    0  0.20413644477E+02 -0.19627552998E+02  0.50746680854E+02  0.58113538313E+02  0.00000000000E+00 0.  1.
         13    1    3    3    0    0 -0.47055966897E+02  0.54111738156E+02  0.97563308956E+02  0.12108238303E+03  0.00000000000E+00 0. -1.
          2    1    1    2  501    0 -0.26966327893E+02  0.23911226397E+01  0.20304048145E+03  0.20483734380E+03  0.00000000000E+00 0. -1.
<scales pt_clust_5="13000.00000" pt_clust_6="13000.00000" pt_clust_7="13000.00000" pt_clust_8="13000.00000" pt_clust_9="27.07215"></scales>
<clustering>
<clus scale="   27.072">  2  9  1 -1</clus>
<clus scale="   77.474">  5  6 -1 -1</clus>
<clus scale="   90.644">  7  8 -1 -1</clus>
<clus scale="   93.378">  2  5  1 -1</clus>
<clus scale="   27.072">  2  5  1 -1</clus>
</clustering>
</event>
<event>
 9    1  0.4731329E-005  0.1018869E+03  0.7546771E-02  0.1281728E+00
         21   -1    0    0  501  502  0.00000000000E+00  0.00000000000E+00  0.32406683625E+02  0.32406683625E+02  0.00000000000E+00 0. -1.
          1   -1    0    0  502    0 -0.00000000000E+00 -0.00000000000E+00 -0.59754983306E+03  0.59754983306E+03  0.00000000000E+00 0. -1.
         23    2    1    2    0    0  0.20661631180E+02 -0.46431218090E+02 -0.34515465776E+03  0.36040549208E+03  0.90430193682E+02 0.  0.
        -24    2    1    2    0    0 -0.57165405383E+02  0.79269026432E+01 -0.17239452223E+03  0.19827484509E+03  0.79134844051E+02 0.  0.
         13    1    4    4    0    0 -0.53661511492E+02  0.22524849526E+02 -0.55495070738E+02  0.80415356357E+02  0.00000000000E+00 0. -1.
        -14    1    4    4    0    0 -0.35038938912E+01 -0.14597946883E+02 -0.11689945150E+03  0.11785948874E+03  0.00000000000E+00 0.  1.
        -11    1    3    3    0    0  0.54722993202E+02 -0.35050175408E+02 -0.25978353584E+03  0.26778836097E+03  0.00000000000E+00 0. -1.
         11    1    3    3    0    0 -0.34061362022E+02 -0.11381042683E+02 -0.85371121922E+02  0.92617131102E+02  0.00000000000E+00 0.  1.
          2    1    1    2  501    0  0.36503774203E+02  0.38504315447E+02 -0.47593969447E+02  0.71276179519E+02  0.00000000000E+00 0. -1.
<scales pt_clust_5="13000.00000" pt_clust_6="13000.00000" pt_clust_7="13000.00000" pt_clust_8="13000.00000" pt_clust_9="53.05759"></scales>
<clustering>
<clus scale="   53.058">  1  9  2 -1</clus>
<clus scale="   79.135">  5  6 -1 -1</clus>
<clus scale="   90.430">  7  8 -1 -1</clus>
<clus scale="   92.009">  1  5  2 -1</clus>
<clus scale="   53.058">  1  5  2 -1</clus>
</clustering>
</event>
<event>
 9    1  0.4731329E-005  0.1202723E+03  0.7546771E-02  0.1244317E+00
          1   -1    0    0  502    0 -0.00000000000E+00  0.00000000000E+00  0.46104882349E+03  0.46104882349E+03  0.00000000000E+00 0. -1.
         21   -1    0    0  501  502  0.00000000000E+00 -0.00000000000E+00 -0.51714573272E+02  0.51714573272E+02  0.00000000000E+00 0. -1.
         23    2    1    2    0    0  0.15715360141E+02 -0.69157496210E+02  0.23075624590E+03  0.25714940397E+03  0.88586901478E+02 0.  0.
        -24    2    1    2    0    0 -0.19208140932E+01  0.10853669620E+03  0.11056581576E+03  0.17582258546E+03  0.83095595515E+02 0.  0.
         11    1    4    4    0    0  0.14060809855E+02  0.87425565350E+02  0.11873034891E+03  0.14811425185E+03  0.00000000000E+00 0. -1.
        -12    1    4    4    0    0 -0.15981623949E+02  0.21111130846E+02 -0.81645331454E+01  0.27708333604E+02  0.00000000000E+00 0.  1.
        -11    1    3    3    0    0 -0.29997191395E+02 -0.13050934054E+02  0.32568358559E+02  0.46161199622E+02  0.00000000000E+00 0.  1.
         11    1    3    3    0    0  0.45712551537E+02 -0.56106562156E+02  0.19818788734E+03  0.21098820435E+03  0.00000000000E+00 0. -1.
          2    1    1    2  501    0 -0.13794546048E+02 -0.39379199986E+02  0.68012188553E+02  0.79791407331E+02  0.00000000000E+00 0. -1.
<scales pt_clust_5="13000.00000" pt_clust_6="13000.00000" pt_clust_7="13000.00000" pt_clust_8="13000.00000" pt_clust_9="41.72544"></scales>
<clustering>
<clus scale="   41.725">  2  9  1 -1</clus>
<clus scale="   83.096">  5  6 -1 -1</clus>
<clus scale="   88.587">  7  8 -1 -1</clus>
<clus scale="  116.287">  2  5  1 -1</clus>
<clus scale="   41.725">  2  5  1 -1</clus>
</clustering>
</event>
<event>
 9    1  0.4731329E-005  0.1367726E+03  0.7546771E-02  0.1221129E+00
         21   -1    0    0  501  502  0.00000000000E+00  0.00000000000E+00  0.62492925896E+02  0.62492925896E+02  0.00000000000E+00 0.  1.
         -2   -1    0    0    0  501 -0.00000000000E+00 -0.00000000000E+00 -0.66785192582E+03  0.66785192582E+03  0.00000000000E+00 0.  1.
        -24    2    1    2    0    0  0.46195334155E+02 -0.93782113189E+02 -0.49230828057E+03  0.50981836839E+03  0.81352516727E+02 0.  0.
         23    2    1    2    0    0 -0.71174389022E+02  0.46957426723E+02 -0.10758141035E+03  0.16717465312E+03  0.95408653783E+02 0.  0.
         11    1    3    3    0    0  0.73328854135E+01 -0.77033485427E+02 -0.19974112070E+03  0.21420654608E+03  0.00000000000E+00 0. -1.
        -12    1    3    3    0    0  0.38862448741E+02 -0.16748627762E+02 -0.29256715987E+03  0.29561182231E+03  0.00000000000E+00 0.  1.
        -13    1    4    4    0    0 -0.23305145938E+02  0.51684925624E+02 -0.88955777526E+01  0.57389830698E+02  0.00000000000E+00 0. -1.
         13    1    4    4    0    0 -0.47869243084E+02 -0.47274989010E+01 -0.98685832598E+02  0.10978482243E+03  0.00000000000E+00 0.  1.
         -1    1    1    2    0  502  0.24979054867E+02  0.46824686465E+02 -0.54693089987E+01  0.53351830199E+02  0.00000000000E+00 0.  1.
<scales pt_clust_5="13000.00000" pt_clust_6="13000.00000" pt_clust_7="13000.00000" pt_clust_8="13000.00000" pt_clust_9="53.07075"></scales>
<clustering>
<clus scale="   53.071">  1  9  2 -1</clus>
<clus scale="   81.353">  5  6 -1 -1</clus>
<clus scale="   95.409">  7  8 -1 -1</clus>
<clus scale="  127.366">  2  5  1 -1</clus>
<clus scale="   53.071">  1  5  2 -1</clus>
</clustering>
</event>
<event>
 9    1  0.4731329E-005  0.1129976E+03  0.7546771E-02  0.1258398E+00
         21   -1    0    0  501  502  0.00000000000E+00  0.00000000000E+00  0.45900175713E+02  0.45900175713E+02  0.00000000000E+00 0.  1.
          1   -1    0    0  502    0 -0.00000000000E+00 -0.00000000000E+00 -0.43124539350E+03  0.43124539350E+03  0.00000000000E+00 0. -1.
        -24    2    1    2    0    0  0.50091164793E+02  0.17349303111E+02 -0.14909659746E+03  0.17809004286E+03  0.81707679469E+02 0.  0.
         23    2    1    2    0    0 -0.94813264832E+02  0.66978059972E+01 -0.15442349748E+03  0.20275557610E+03  0.90712685297E+02 0.  0.
         13    1    3    3    0    0  0.95806782049E+01  0.43173730061E+02 -0.10028093783E+03  0.10959939258E+03  0.00000000000E+00 0. -1.
        -14    1    3    3    0    0  0.40510486588E+02 -0.25824426950E+02 -0.48815659632E+02  0.68490650283E+02  0.00000000000E+00 0.  1.
        -13    1    4    4    0    0 -0.59541247464E+02 -0.30934725368E+02 -0.12864989917E+03  0.14509622304E+03  0.00000000000E+00 0. -1.
         13    1    4    4    0    0 -0.35272017368E+02  0.37632531365E+02 -0.25773598308E+02  0.57659353065E+02  0.00000000000E+00 0.  1.
          2    1    1    2  501    0  0.44722100039E+02 -0.24047109108E+02 -0.81825122851E+02  0.96299950249E+02  0.00000000000E+00 0. -1.
<scales pt_clust_5="13000.00000" pt_clust_6="13000.00000" pt_clust_7="13000.00000" pt_clust_8="13000.00000" pt_clust_9="50.77728"></scales>
<clustering>
<clus scale="   50.777">  1  9  2 -1</clus>
<clus scale="   81.708">  5  6 -1 -1</clus>
<clus scale="   90.713">  7  8 -1 -1</clus>
<clus scale="  105.905">  2  5  1 -1</clus>
<clus scale="   50.777">  1  5  2 -1</clus>
</clustering>
</event>
<event>
 9    1  0.4731329E-005  0.1110338E+03  0.7546771E-02  0.1258947E+00
         21   -1    0    0  501  502  0.00000000000E+00  0.00000000000E+00  0.50943416131E+02  0.50943416131E+02  0.00000000000E+00 0. -1.
          3   -1    0    0  502    0 -0.00000000000E+00 -0.00000000000E+00 -0.40478594648E+03  0.40478594648E+03  0.00000000000E+00 0. -1.
         23    2    1    2    0    0 -0.34490222491E+01 -0.56866465130E+02 -0.18940454002E+03  0.21557067604E+03  0.85737657882E+02 0.  0.
        -24    2    1    2    0    0  0.86378895286E+01  0.10003790981E+03 -0.12169041945E+03  0.17918284877E+03  0.84945503542E+02 0.  0.
         11    1    4    4    0    0  0.95151476369E+01  0.10935560751E+03 -0.78398171230E+02  0.13489054889E+03  0.00000000000E+00 0. -1.
        -12    1    4    4    0    0 -0.87725810836E+00 -0.93176977007E+01 -0.43292248223E+02  0.44292299877E+02  0.00000000000E+00 0.  1.
        -11    1    3    3    0    0 -0.33813777658E+02 -0.18843245623E+02 -0.14366355156E+03  0.14878728277E+03  0.00000000000E+00 0. -1.
         11    1    3    3    0    0  0.30364755409E+02 -0.38023219507E+02 -0.45740988455E+02  0.66783393277E+02  0.00000000000E+00 0.  1.
          4    1    1    2  501    0 -0.51888672795E+01 -0.43171444677E+02 -0.42747570873E+02  0.60975837794E+02  0.00000000000E+00 0. -1.
<scales pt_clust_5="13000.00000" pt_clust_6="13000.00000" pt_clust_7="13000.00000" pt_clust_8="13000.00000" pt_clust_9="43.48216"></scales>
<clustering>
<clus scale="   43.482">  1  9  2 -1</clus>
<clus scale="   84.946">  5  6 -1 -1</clus>
<clus scale="   85.738">  7  8 -1 -1</clus>
<clus scale="  110.423">  1  5  2 -1</clus>
<clus scale="   43.482">  1  5  2 -1</clus>
</clustering>
</event>
<event>
 9    1  0.4731329E-005  0.3817510E+03  0.7546771E-02  0.1050288E+00
          1   -1    0    0  502    0 -0.00000000000E+00  0.00000000000E+00  0.10221620965E+04  0.10221620965E+04  0.00000000000E+00 0. -1.
         21   -1    0    0  501  502  0.00000000000E+00 -0.00000000000E+00 -0.22180014211E+03  0.22180014211E+03  0.00000000000E+00 0. -1.
        -24    2    1    2    0    0  0.13436585663E+03  0.16244874514E+03  0.40466471737E+03  0.46376025016E+03  0.82923204917E+02 0.  0.
         23    2    1    2    0    0  0.75211672319E+02  0.85420390305E+02  0.42974052257E+03  0.45382675307E+03  0.91259883462E+02 0.  0.
         13    1    3    3    0    0  0.10206718545E+03  0.14009161501E+03  0.37922832746E+03  0.41696222286E+03  0.00000000000E+00 0. -1.
        -14    1    3    3    0    0  0.32298671174E+02  0.22357130126E+02  0.25436389912E+02  0.46798027296E+02  0.00000000000E+00 0.  1.
        -13    1    4    4    0    0 -0.17432631233E+02  0.37830716482E+02  0.11623440175E+03  0.12347265240E+03  0.00000000000E+00 0. -1.
         13    1    4    4    0    0  0.92644303551E+02  0.47589673823E+02  0.31350612083E+03  0.33035410067E+03  0.00000000000E+00 0.  1.
          2    1    1    2  501    0 -0.20957752895E+03 -0.24786913545E+03 -0.34043285605E+02  0.32637523534E+03  0.00000000000E+00 0. -1.
<scales pt_clust_5="13000.00000" pt_clust_6="13000.00000" pt_clust_7="13000.00000" pt_clust_8="13000.00000" pt_clust_9="324.59490"></scales>
<clustering>
<clus scale="   82.923">  5  6 -1 -1</clus>
<clus scale="   91.260">  7  8 -1 -1</clus>
<clus scale="  116.146">  5  7 -1 -1</clus>
<clus scale="  324.595">  2  9  1 -1</clus>
<clus scale="  324.595">  2  5  1 -1</clus>
</clustering>
</event>
<event>
 9    1  0.4731329E-005  0.1236829E+03  0.7546771E-02  0.1238987E+00
          1   -1    0    0  502    0 -0.00000000000E+00  0.00000000000E+00  0.49493977062E+03  0.49493977062E+03  0.00000000000E+00 0. -1.
         21   -1    0    0  501  502  0.00000000000E+00 -0.00000000000E+00 -0.61608673690E+02  0.61608673690E+02  0.00000000000E+00 0. -1.
        -24    2    1    2    0    0  0.86368470829E+02 -0.86469205318E+01  0.28458435597E+03  0.30913123806E+03  0.83902232951E+02 0.  0.
         23    2    1    2    0    0 -0.81561243514E+02 -0.19525977196E+02  0.17130131629E+03  0.21100937098E+03  0.90262469776E+02 0.  0.
         11    1    3    3    0    0  0.81654966734E+01 -0.35844464229E+02  0.10833281123E+03  0.11440060726E+03  0.00000000000E+00 0. -1.
        -12    1    3    3    0    0  0.78202974156E+02  0.27197543697E+02  0.17625154474E+03  0.19473063080E+03  0.00000000000E+00 0.  1.
        -11    1    4    4    0    0 -0.10116093385E+03 -0.13403768414E+02  0.15002507753E+03  0.18144067744E+03  0.00000000000E+00 0.  1.
         11    1    4    4    0    0  0.19599690334E+02 -0.61222087815E+01  0.21276238764E+02  0.29568693537E+02  0.00000000000E+00 0. -1.
          2    1    1    2  501    0 -0.48072273155E+01  0.28172897727E+02 -0.22554575328E+02  0.36407835270E+02  0.00000000000E+00 0. -1.
<scales pt_clust_5="13000.00000" pt_clust_6="13000.00000" pt_clust_7="13000.00000" pt_clust_8="13000.00000" pt_clust_9="28.58009"></scales>
<clustering>
<clus scale="   28.580">  2  9  1 -1</clus>
<clus scale="   83.902">  5  6 -1 -1</clus>
<clus scale="   90.262">  7  8 -1 -1</clus>
<clus scale="  119.121">  1  5  2 -1</clus>
<clus scale="   28.580">  2  5  1 -1</clus>
</clustering>
</event>
<event>
 9    1  0.4731329E-005  0.1057112E+03  0.7546771E-02  0.1269160E+00
          1   -1    0    0  502    0 -0.00000000000E+00  0.00000000000E+00  0.56079360241E+03  0.56079360241E+03  0.00000000000E+00 0. -1.
         21   -1    0    0  501  502  0.00000000000E+00 -0.00000000000E+00 -0.42095912558E+02  0.42095912558E+02  0.00000000000E+00 0.  1.
        -24    2    1    2    0    0 -0.83587183756E+02  0.27106258015E+02  0.29845138077E+03  0.32146652551E+03  0.80906945504E+02 0.  0.
         23    2    1    2    0    0  0.10489142781E+02 -0.47362467976E+02  0.92317040731E+02  0.13269661205E+03  0.82053210480E+02 0.  0.
         11    1    3    3    0    0 -0.23427850649E+02  0.40521571992E+02  0.65543059231E+02  0.80540391085E+02  0.00000000000E+00 0. -1.
        -12    1    3    3    0    0 -0.60159333107E+02 -0.13415313978E+02  0.23290832154E+03  0.24092613443E+03  0.00000000000E+00 0.  1.
        -11    1    4    4    0    0  0.38897424656E+02 -0.70554732082E+01  0.17833008313E+02  0.43368254894E+02  0.00000000000E+00 0.  1.
         11    1    4    4    0    0 -0.28408281874E+02 -0.40306994767E+02  0.74484032418E+02  0.89328357152E+02  0.00000000000E+00 0. -1.
          2    1    1    2  501    0  0.73098040974E+02  0.20256209961E+02  0.12792926835E+03  0.14872637741E+03  0.00000000000E+00 0. -1.
<scales pt_clust_5="13000.00000" pt_clust_6="13000.00000" pt_clust_7="13000.00000" pt_clust_8="13000.00000" pt_clust_9="75.85274"></scales>
<clustering>
<clus scale="   75.853">  2  9  1 -1</clus>
<clus scale="   80.907">  5  6 -1 -1</clus>
<clus scale="   82.053">  7  8 -1 -1</clus>
<clus scale="  104.824">  1  5  2 -1</clus>
<clus scale="   75.853">  2  5  1 -1</clus>
</clustering>
</event>
<event>
 9    1  0.4731329E-005  0.1082524E+03  0.7546771E-02  0.1267887E+00
         21   -1    0    0  501  502  0.00000000000E+00  0.00000000000E+00  0.57439068019E+03  0.57439068019E+03  0.00000000000E+00 0.  1.
          1   -1    0    0  502    0 -0.00000000000E+00 -0.00000000000E+00 -0.50136134462E+02  0.50136134462E+02  0.00000000000E+00 0. -1.
        -24    2    1    2    0    0  0.88614012416E+02  0.20389825600E+02  0.15234939579E+03  0.19505187533E+03  0.81035223761E+02 0.  0.
         23    2    1    2    0    0  0.82356444121E+01 -0.42225910830E+02  0.26558054107E+03  0.28400469116E+03  0.90965858570E+02 0.  0.
         11    1    3    3    0    0  0.74492857212E+02  0.48459560129E+02  0.98162319484E+02  0.13241357827E+03  0.00000000000E+00 0. -1.
        -12    1    3    3    0    0  0.14121155204E+02 -0.28069734529E+02  0.54187076305E+02  0.62638297066E+02  0.00000000000E+00 0.  1.
        -11    1    4    4    0    0  0.13190068627E+02 -0.66583954187E+02  0.13527684807E+03  0.15135133462E+03  0.00000000000E+00 0. -1.
         11    1    4    4    0    0 -0.49544242147E+01  0.24358043357E+02  0.13030369300E+03  0.13265335655E+03  0.00000000000E+00 0.  1.
          2    1    1    2  501    0 -0.96849656828E+02  0.21836085230E+02  0.10632460887E+03  0.14547024815E+03  0.00000000000E+00 0. -1.
<scales pt_clust_5="13000.00000" pt_clust_6="13000.00000" pt_clust_7="13000.00000" pt_clust_8="13000.00000" pt_clust_9="99.28082"></scales>
<clustering>
<clus scale="   81.035">  5  6 -1 -1</clus>
<clus scale="   90.966">  7  8 -1 -1</clus>
<clus scale="   99.281">  1  9  2 -1</clus>
<clus scale="  100.052">  2  5  1 -1</clus>
<clus scale="   99.281">  1  5  2 -1</clus>
</clustering>
</event>
<event>
 9    1  0.4731329E-005  0.8244052E+02  0.7546771E-02  0.1323599E+00
          1   -1    0    0  502    0 -0.00000000000E+00  0.00000000000E+00  0.28449921089E+02  0.28449921089E+02  0.00000000000E+00 0. -1.
         21   -1    0    0  501  502  0.00000000000E+00 -0.00000000000E+00 -0.66169483126E+03  0.66169483126E+03  0.00000000000E+00 0. -1.
         23    2    1    2    0    0  0.71887344045E+01 -0.19341130030E+02 -0.11974868200E+03  0.14438234125E+03  0.77979204992E+02 0.  0.
        -24    2    1    2    0    0  0.65062065292E+02 -0.98117089474E+01 -0.24012122356E+03  0.26150203887E+03  0.79973572841E+02 0.  0.
         13    1    4    4    0    0 -0.35139620515E+01 -0.30245290218E+02 -0.52384795917E+02  0.60591190390E+02  0.00000000000E+00 0. -1.
        -14    1    4    4    0    0  0.68576027343E+02  0.20433581270E+02 -0.18773642765E+03  0.20091084848E+03  0.00000000000E+00 0.  1.
        -13    1    3    3    0    0 -0.28447072781E+02 -0.24786601819E+02 -0.90188782753E+02  0.97763122465E+02  0.00000000000E+00 0.  1.
         13    1    3    3    0    0  0.35635807185E+02  0.54454717884E+01 -0.29559899245E+02  0.46619218785E+02  0.00000000000E+00 0. -1.
          2    1    1    2  501    0 -0.72250799696E+02  0.29152838978E+02 -0.27337500461E+03  0.28426037223E+03  0.00000000000E+00 0. -1.
<scales pt_clust_5="13000.00000" pt_clust_6="13000.00000" pt_clust_7="13000.00000" pt_clust_8="13000.00000" pt_clust_9="77.91063"></scales>
<clustering>
<clus scale="   77.911">  2  9  1 -1</clus>
<clus scale="   77.979">  7  8 -1 -1</clus>
<clus scale="   79.974">  5  6 -1 -1</clus>
<clus scale="   80.507">  1  7  2 -1</clus>
<clus scale="   77.911">  2  5  1 -1</clus>
</clustering>
</event>
<event>
 9    1  0.4731329E-005  0.9049011E+02  0.7546771E-02  0.1306615E+00
          1   -1    0    0  502    0 -0.00000000000E+00  0.00000000000E+00  0.98736547674E+03  0.98736547674E+03  0.00000000000E+00 0. -1.
         21   -1    0    0  501  502  0.00000000000E+00 -0.00000000000E+00 -0.35606684487E+02  0.35606684487E+02  0.00000000000E+00 0.  1.
        -24    2    1    2    0    0  0.41440210611E+01 -0.20033580956E+02  0.55649453664E+03  0.56273279523E+03  0.81015506198E+02 0.  0.
         23    2    1    2    0    0 -0.11701004765E+02 -0.27767593412E+02  0.40712766355E+02  0.10240026974E+03  0.88996253527E+02 0.  0.
         11    1    3    3    0    0  0.27456469660E+02  0.11962584518E+02  0.96567075689E+02  0.10110470445E+03  0.00000000000E+00 0. -1.
        -12    1    3    3    0    0 -0.23312448599E+02 -0.31996165473E+02  0.45992746095E+03  0.46162809078E+03  0.00000000000E+00 0.  1.
        -13    1    4    4    0    0  0.18638080695E+02  0.26039439800E+02  0.11040382910E+02  0.33872120274E+02  0.00000000000E+00 0.  1.
         13    1    4    4    0    0 -0.30339085460E+02 -0.53807033212E+02  0.29672383445E+02  0.68528149464E+02  0.00000000000E+00 0. -1.
          2    1    1    2  501    0  0.75569837042E+01  0.47801174368E+02  0.35455148926E+03  0.35783909626E+03  0.00000000000E+00 0. -1.
<scales pt_clust_5="13000.00000" pt_clust_6="13000.00000" pt_clust_7="13000.00000" pt_clust_8="13000.00000" pt_clust_9="48.39486"></scales>
<clustering>
<clus scale="   48.395">  2  9  1 -1</clus>
<clus scale="   81.016">  5  6 -1 -1</clus>
<clus scale="   82.654">  1  5  2 -1</clus>
<clus scale="   88.996">  7  8 -1 -1</clus>
<clus scale="   48.395">  2  5  1 -1</clus>
</clustering>
</event>
<event>
 9    1  0.4731329E-005  0.9808549E+02  0.7546771E-02  0.1290278E+00
         -2   -1    0    0    0  501 -0.00000000000E+00  0.00000000000E+00  0.67297174504E+02  0.67297174504E+02  0.00000000000E+00 0.  1.
         21   -1    0    0  501  502  0.00000000000E+00 -0.00000000000E+00 -0.26742988621E+03  0.26742988621E+03  0.00000000000E+00 0.  1.
         23    2    1    2    0    0 -0.41116478892E+02  0.16605257489E+02 -0.14103552473E+02  0.10235174658E+03  0.91162878533E+02 0.  0.
        -24    2    1    2    0    0  0.26669628242E+02  0.13216414278E+01 -0.58091991001E+02  0.10238299046E+03  0.79966127275E+02 0.  0.
         13    1    4    4    0    0  0.50735492325E+02 -0.21572562878E+01 -0.59256703314E+02  0.78039098045E+02  0.00000000000E+00 0. -1.
        -14    1    4    4    0    0 -0.24065864082E+02  0.34788977156E+01  0.11647123127E+01  0.24343892419E+02  0.00000000000E+00 0.  1.
        -13    1    3    3    0    0  0.33104512464E+01  0.21320917850E+02 -0.43717204887E+02  0.48751765389E+02  0.00000000000E+00 0. -1.
         13    1    3    3    0    0 -0.44426930138E+02 -0.47156603602E+01  0.29613652414E+02  0.53599981189E+02  0.00000000000E+00 0.  1.
         -1    1    1    2    0  502  0.14446850650E+02 -0.17926898917E+02 -0.12793716823E+03  0.12999232367E+03  0.00000000000E+00 0.  1.
<scales pt_clust_5="13000.00000" pt_clust_6="13000.00000" pt_clust_7="13000.00000" pt_clust_8="13000.00000" pt_clust_9="23.02358"></scales>
<clustering>
<clus scale="   23.024">  2  9  1 -1</clus>
<clus scale="   79.966">  5  6 -1 -1</clus>
<clus scale="   87.776">  2  5  1 -1</clus>
<clus scale="   91.163">  7  8 -1 -1</clus>
<clus scale="   23.024">  2  5  1 -1</clus>
</clustering>
</event>
<event>
 9    1  0.4731329E-005  0.1126340E+03  0.7546771E-02  0.1259463E+00
         21   -1    0    0  501  502  0.00000000000E+00  0.00000000000E+00  0.11196094179E+03  0.11196094179E+03  0.00000000000E+00 0. -1.
          1   -1    0    0  502    0 -0.00000000000E+00 -0.00000000000E+00 -0.80059877009E+03  0.80059877009E+03  0.00000000000E+00 0. -1.
         23    2    1    2    0    0 -0.56294616261E+02  0.23785125101E+01 -0.40634652402E+03  0.42005499647E+03  0.90299287558E+02 0.  0.
        -24    2    1    2    0    0  0.66439126430E+02 -0.74858770486E+02 -0.36214446718E+03  0.38418654285E+03  0.80204061991E+02 0.  0.
         11    1    4    4    0    0  0.72001588933E+02 -0.53503290618E+02 -0.18422895773E+03  0.20490763719E+03  0.00000000000E+00 0. -1.
        -12    1    4    4    0    0 -0.55624625028E+01 -0.21355479868E+02 -0.17791550945E+03  0.17927890565E+03  0.00000000000E+00 0.  1.
        -13    1    3    3    0    0  0.72233797414E+01 -0.30073300266E+02 -0.75165664189E+02  0.81280118583E+02  0.00000000000E+00 0.  1.
         13    1    3    3    0    0 -0.63517996003E+02  0.32451812776E+02 -0.33118085983E+03  0.33877487788E+03  0.00000000000E+00 0. -1.
          2    1    1    2  501    0 -0.10144510169E+02  0.72480257976E+02  0.79853162896E+02  0.10831817256E+03  0.00000000000E+00 0. -1.
<scales pt_clust_5="13000.00000" pt_clust_6="13000.00000" pt_clust_7="13000.00000" pt_clust_8="13000.00000" pt_clust_9="73.18674"></scales>
<clustering>
<clus scale="   73.187">  1  9  2 -1</clus>
<clus scale="   80.204">  5  6 -1 -1</clus>
<clus scale="   90.299">  7  8 -1 -1</clus>
<clus scale="  104.715">  1  5  2 -1</clus>
<clus scale="   73.187">  1  5  2 -1</clus>
</clustering>
</event>
<event>
 9    1  0.4731329E-005  0.1061782E+03  0.7546771E-02  0.1275748E+00
          3   -1    0    0  502    0 -0.00000000000E+00  0.00000000000E+00  0.64213530755E+02  0.64213530755E+02  0.00000000000E+00 0. -1.
         21   -1    0    0  501  502  0.00000000000E+00 -0.00000000000E+00 -0.29529645280E+03  0.29529645280E+03  0.00000000000E+00 0. -1.
         23    2    1    2    0    0 -0.40030169615E+02  0.18530547889E+02 -0.84608929470E+02  0.13163995534E+03  0.90689642248E+02 0.  0.
        -24    2    1    2    0    0  0.75870417397E+02 -0.16306927286E+01 -0.15514981159E+03  0.18730651874E+03  0.72479573202E+02 0.  0.
         11    1    4    4    0    0  0.54772820508E+02  0.33189054443E+02 -0.10018365558E+03  0.11890475199E+03  0.00000000000E+00 0. -1.
        -12    1    4    4    0    0  0.21097596888E+02 -0.34819747172E+02 -0.54966156014E+02  0.68401766750E+02  0.00000000000E+00 0.  1.
        -11    1    3    3    0    0 -0.43178638426E+02 -0.15414448348E+02 -0.86068383236E+02  0.97518032318E+02  0.00000000000E+00 0. -1.
         11    1    3    3    0    0  0.31484688108E+01  0.33944996237E+02  0.14594537662E+01  0.34121923021E+02  0.00000000000E+00 0.  1.
          4    1    1    2  501    0 -0.35840247781E+02 -0.16899855160E+02  0.86758190160E+01  0.40563509477E+02  0.00000000000E+00 0. -1.
<scales pt_clust_5="13000.00000" pt_clust_6="13000.00000" pt_clust_7="13000.00000" pt_clust_8="13000.00000" pt_clust_9="39.62487"></scales>
<clustering>
<clus scale="   39.625">  2  9  1 -1</clus>
<clus scale="   72.480">  5  6 -1 -1</clus>
<clus scale="   90.690">  7  8 -1 -1</clus>
<clus scale="   91.118">  2  5  1 -1</clus>
<clus scale="   39.625">  2  5  1 -1</clus>
</clustering>
</event>
<event>
 9    1  0.4731329E-005  0.1066060E+03  0.7546771E-02  0.1278823E+00
          3   -1    0    0  502    0 -0.00000000000E+00  0.00000000000E+00  0.16720385750E+03  0.16720385750E+03  0.00000000000E+00 0. -1.
         21   -1    0    0  501  502  0.00000000000E+00 -0.00000000000E+00 -0.50599549486E+03  0.50599549486E+03  0.00000000000E+00 0. -1.
         23    2    1    2    0    0  0.24621936884E+02 -0.11785459441E+02  0.11807032493E+03  0.15823415734E+03  0.10174630258E+03 0.  0.
        -24    2    1    2    0    0 -0.21207255915E+02  0.67261441331E+02 -0.76237126588E+02  0.13030364227E+03  0.78696191296E+02 0.  0.
         13    1    4    4    0    0  0.18889355462E+02  0.59099488306E+02 -0.59908051804E+02  0.86246924228E+02  0.00000000000E+00 0. -1.
        -14    1    4    4    0    0 -0.40096611377E+02  0.81619530243E+01 -0.16329074783E+02  0.44056718039E+02  0.00000000000E+00 0.  1.
        -13    1    3    3    0    0 -0.11217996341E+02  0.22162030082E+02 -0.52606372614E+01  0.25390417950E+02  0.00000000000E+00 0. -1.
         13    1    3    3    0    0  0.35839933225E+02 -0.33947489523E+02  0.12333096219E+03  0.13284373939E+03  0.00000000000E+00 0.  1.
          4    1    1    2  501    0 -0.34146809682E+01 -0.55475981890E+02 -0.38062483570E+03  0.38466155275E+03  0.00000000000E+00 0. -1.
<scales pt_clust_5="13000.00000" pt_clust_6="13000.00000" pt_clust_7="13000.00000" pt_clust_8="13000.00000" pt_clust_9="55.58097"></scales>
<clustering>
<clus scale="   55.581">  2  9  1 -1</clus>
<clus scale="   78.696">  5  6 -1 -1</clus>
<clus scale="   84.886">  2  5  1 -1</clus>
<clus scale="  101.746">  7  8 -1 -1</clus>
<clus scale="   55.581">  2  5  1 -1</clus>
</clustering>
</event>
<event>
 9    1  0.4731329E-005  0.1119854E+03  0.7546771E-02  0.1261402E+00
         21   -1    0    0  501  502  0.00000000000E+00  0.00000000000E+00  0.59735814134E+02  0.59735814134E+02  0.00000000000E+00 0.  1.
          1   -1    0    0  502    0 -0.00000000000E+00 -0.00000000000E+00 -0.49671138426E+03  0.49671138426E+03  0.00000000000E+00 0. -1.
        -24    2    1    2    0    0  0.24189930818E+02  0.61680458438E+02 -0.40005694063E+03  0.41345373272E+03  0.80677144500E+02 0.  0.
         23    2    1    2    0    0 -0.23930412363E+01 -0.50851565434E+02 -0.48454946503E+02  0.11605917658E+03  0.92359310706E+02 0.  0.
         11    1    3    3    0    0  0.32620344884E+02  0.76436935962E+02 -0.36690662741E+03  0.37620096400E+03  0.00000000000E+00 0. -1.
        -12    1    3    3    0    0 -0.84304140667E+01 -0.14756477524E+02 -0.33150313228E+02  0.37252768721E+02  0.00000000000E+00 0.  1.
        -13    1    4    4    0    0 -0.32992970803E+02 -0.50990580983E+02 -0.24200820253E+01  0.60781841601E+02  0.00000000000E+00 0.  1.
         13    1    4    4    0    0  0.30599929567E+02  0.13901554842E+00 -0.46034864477E+02  0.55277334978E+02  0.00000000000E+00 0. -1.
          2    1    1    2  501    0 -0.21796889581E+02 -0.10828893004E+02  0.11536317008E+02  0.26934289098E+02  0.00000000000E+00 0. -1.
<scales pt_clust_5="13000.00000" pt_clust_6="13000.00000" pt_clust_7="13000.00000" pt_clust_8="13000.00000" pt_clust_9="24.33864"></scales>
<clustering>
<clus scale="   24.339">  1  9  2 -1</clus>
<clus scale="   80.677">  5  6 -1 -1</clus>
<clus scale="   92.359">  7  8 -1 -1</clus>
<clus scale="  102.564">  2  5  1 -1</clus>
<clus scale="   24.339">  1  5  2 -1</clus>
</clustering>
</event>
<event>
 9    1  0.4731329E-005  0.1206583E+03  0.7546771E-02  0.1244624E+00
         21   -1    0    0  501  502  0.00000000000E+00  0.00000000000E+00  0.30673853177E+02  0.30673853177E+02  0.00000000000E+00 0. -1.
          1   -1    0    0  502    0 -0.00000000000E+00 -0.00000000000E+00 -0.11914129990E+04  0.11914129990E+04  0.00000000000E+00 0. -1.
         23    2    1    2    0    0 -0.46210997034E+02 -0.41381763064E+02 -0.36156074359E+03  0.37807247196E+03  0.91458822333E+02 0.  0.
        -24    2    1    2    0    0  0.13238648447E+03 -0.34310463984E+01 -0.33375001222E+03  0.36855882104E+03  0.83117871487E+02 0.  0.
         13    1    4    4    0    0  0.10521804957E+03  0.10242085795E+02 -0.15740634263E+03  0.18961143155E+03  0.00000000000E+00 0. -1.
        -14    1    4    4    0    0  0.27168434903E+02 -0.13673132193E+02 -0.17634366959E+03  0.17894738949E+03  0.00000000000E+00 0.  1.
        -13    1    3    3    0    0 -0.15394990112E+01 -0.58832265591E+02 -0.14973862998E+03  0.16088897675E+03  0.00000000000E+00 0. -1.
         13    1    3    3    0    0 -0.44671498023E+02  0.17450502527E+02 -0.21182211361E+03  0.21718349521E+03  0.00000000000E+00 0.  1.
          2    1    1    2  501    0 -0.86175487439E+02  0.44812809462E+02 -0.46542839000E+03  0.47545555917E+03  0.00000000000E+00 0. -1.
<scales pt_clust_5="13000.00000" pt_clust_6="13000.00000" pt_clust_7="13000.00000" pt_clust_8="13000.00000" pt_clust_9="97.13090"></scales>
<clustering>
<clus scale="   83.118">  5  6 -1 -1</clus>
<clus scale="   91.459">  7  8 -1 -1</clus>
<clus scale="   97.131">  1  9  2 -1</clus>
<clus scale="  114.465">  1  5  2 -1</clus>
<clus scale="   97.131">  1  5  2 -1</clus>
</clustering>
</event>
<event>
 9    1  0.4731329E-005  0.1506922E+03  0.7546771E-02  0.1219174E+00
         21   -1    0    0  501  502  0.00000000000E+00  0.00000000000E+00  0.52192221763E+02  0.52192221763E+02  0.00000000000E+00 0. -1.
          1   -1    0    0  502    0 -0.00000000000E+00 -0.00000000000E+00 -0.69092918823E+03  0.69092918823E+03  0.00000000000E+00 0. -1.
        -24    2    1    2    0    0 -0.56337232041E+02  0.15289164565E+02 -0.15209993179E+03  0.18160188067E+03  0.80232235080E+02 0.  0.
         23    2    1    2    0    0 -0.80590064591E+02 -0.17363924345E+02 -0.33318479456E+03  0.35584751084E+03  0.93909952945E+02 0.  0.
         11    1    3    3    0    0 -0.40467477128E+01  0.34234640587E+02 -0.98510502417E+02  0.10436812669E+03  0.00000000000E+00 0. -1.
        -12    1    3    3    0    0 -0.52290484328E+02 -0.18945476022E+02 -0.53589429370E+02  0.77233753975E+02  0.00000000000E+00 0.  1.
        -11    1    4    4    0    0 -0.90428153720E+02 -0.36446941004E+02 -0.30629650985E+03  0.32143923600E+03  0.00000000000E+00 0. -1.
         11    1    4    4    0    0  0.98380891294E+01  0.19083016659E+02 -0.26888284712E+02  0.34408274838E+02  0.00000000000E+00 0.  1.
          2    1    1    2  501    0  0.13692729663E+03  0.20747597802E+01 -0.15345224011E+03  0.20567201848E+03  0.00000000000E+00 0. -1.
<scales pt_clust_5="13000.00000" pt_clust_6="13000.00000" pt_clust_7="13000.00000" pt_clust_8="13000.00000" pt_clust_9="117.85190"></scales>
<clustering>
<clus scale="   80.232">  5  6 -1 -1</clus>
<clus scale="   93.910">  7  8 -1 -1</clus>
<clus scale="   99.221">  2  5  1 -1</clus>
<clus scale="  117.852">  1  9  2 -1</clus>
<clus scale="  117.852">  1  5  2 -1</clus>
</clustering>
</event>
<event>
 9    1  0.4731329E-005  0.1073783E+03  0.7546771E-02  0.1269577E+00
         -2   -1    0    0    0  501 -0.00000000000E+00  0.00000000000E+00  0.26240288385E+03  0.26240288385E+03  0.00000000000E+00 0.  1.
         21   -1    0    0  501  502  0.00000000000E+00 -0.00000000000E+00 -0.27572237863E+03  0.27572237863E+03  0.00000000000E+00 0.  1.
        -24    2    1    2    0    0  0.26372711408E+02 -0.46945118807E+02  0.19018094346E+03  0.21323815372E+03  0.80014716517E+02 0.  0.
         23    2    1    2    0    0 -0.10832861786E+03  0.82874684477E+02 -0.12273941593E+03  0.20434646411E+03  0.89940037776E+02 0.  0.
         11    1    3    3    0    0  0.47360736653E+02 -0.40024771898E+02  0.17690459902E+03  0.18745735220E+03  0.00000000000E+00 0. -1.
        -12    1    3    3    0    0 -0.20988025245E+02 -0.69203469087E+01  0.13276344443E+02  0.25780801515E+02  0.00000000000E+00 0.  1.
        -11    1    4    4    0    0 -0.53908467210E+02  0.82543782235E+02 -0.11139343591E+03  0.14875515583E+03  0.00000000000E+00 0.  1.
         11    1    4    4    0    0 -0.54420150652E+02  0.33090224181E+00 -0.11345980023E+02  0.55591308277E+02  0.00000000000E+00 0. -1.
         -1    1    1    2    0  502  0.81955906453E+02 -0.35929565670E+02 -0.80761022303E+02  0.12054064466E+03  0.00000000000E+00 0.  1.
<scales pt_clust_5="13000.00000" pt_clust_6="13000.00000" pt_clust_7="13000.00000" pt_clust_8="13000.00000" pt_clust_9="89.48578"></scales>
<clustering>
<clus scale="   80.015">  5  6 -1 -1</clus>
<clus scale="   89.486">  2  9  1 -1</clus>
<clus scale="   89.940">  7  8 -1 -1</clus>
<clus scale="   99.213">  1  5  2 -1</clus>
<clus scale="   89.486">  2  5  1 -1</clus>
</clustering>
</event>
<event>
 9    1  0.4731329E-005  0.1075589E+03  0.7546771E-02  0.1267082E+00
         -2   -1    0    0    0  501 -0.00000000000E+00  0.00000000000E+00  0.63620062661E+02  0.63620062661E+02  0.00000000000E+00 0.  1.
         21   -1    0    0  501  502  0.00000000000E+00 -0.00000000000E+00 -0.33242001006E+03  0.33242001006E+03  0.00000000000E+00 0.  1.
        -24    2    1    2    0    0 -0.40731765976E+01 -0.70262298144E+02 -0.26096054999E+02  0.11439432754E+03  0.86323095278E+02 0.  0.
         23    2    1    2    0    0  0.14886109438E+02  0.26795268786E+02 -0.14205765363E+03  0.17148237769E+03  0.91028820829E+02 0.  0.
         13    1    3    3    0    0  0.68347699643E+00  0.20484888068E+02 -0.42117941097E+01  0.20924554705E+02  0.00000000000E+00 0. -1.
        -14    1    3    3    0    0 -0.47566535940E+01 -0.90747186212E+02 -0.21884260889E+02  0.93469772833E+02  0.00000000000E+00 0.  1.
        -11    1    4    4    0    0  0.16760309937E+02 -0.27483581575E+02 -0.20028923799E+02  0.37913230329E+02  0.00000000000E+00 0.  1.
         11    1    4    4    0    0 -0.18742004990E+01  0.54278850362E+02 -0.12202872983E+03  0.13356914736E+03  0.00000000000E+00 0. -1.
         -1    1    1    2    0  502 -0.10812932841E+02  0.43467029358E+02 -0.10064623877E+03  0.11016336749E+03  0.00000000000E+00 0.  1.
<scales pt_clust_5="13000.00000" pt_clust_6="13000.00000" pt_clust_7="13000.00000" pt_clust_8="13000.00000" pt_clust_9="44.79176"></scales>
<clustering>
<clus scale="   44.792">  2  9  1 -1</clus>
<clus scale="   86.323">  5  6 -1 -1</clus>
<clus scale="   91.029">  7  8 -1 -1</clus>
<clus scale="  103.607">  1  5  2 -1</clus>
<clus scale="   44.792">  2  5  1 -1</clus>
</clustering>
</event>
<event>
 9    1  0.4731329E-005  0.1094222E+03  0.7546771E-02  0.1265810E+00
          1   -1    0    0  502    0 -0.00000000000E+00  0.00000000000E+00  0.59498259120E+03  0.59498259120E+03  0.00000000000E+00 0. -1.
         21   -1    0    0  501  502  0.00000000000E+00 -0.00000000000E+00 -0.32609813171E+02  0.32609813171E+02  0.00000000000E+00 0.  1.
         23    2    1    2    0    0  0.49805815721E+02  0.43610884995E+02  0.25811450648E+03  0.28178926914E+03  0.91649141691E+02 0.  0.
        -24    2    1    2    0    0 -0.60997559665E+02  0.26893971303E+01  0.12921160543E+03  0.16439115499E+03  0.81245785861E+02 0.  0.
         11    1    4    4    0    0  0.16702268804E+02 -0.14345219947E+02  0.25573147492E+02  0.33745177303E+02  0.00000000000E+00 0. -1.
        -12    1    4    4    0    0 -0.77699828468E+02  0.17034617078E+02  0.10363845794E+03  0.13064597769E+03  0.00000000000E+00 0.  1.
        -13    1    3    3    0    0  0.25793608651E+02  0.52068894928E+02  0.24746112101E+03  0.25419183008E+03  0.00000000000E+00 0.  1.
         13    1    3    3    0    0  0.24012207070E+02 -0.84580099335E+01  0.10653385471E+02  0.27597439055E+02  0.00000000000E+00 0. -1.
          2    1    1    2  501    0  0.11191743944E+02 -0.46300282125E+02  0.17504666611E+03  0.18141198024E+03  0.00000000000E+00 0. -1.
<scales pt_clust_5="13000.00000" pt_clust_6="13000.00000" pt_clust_7="13000.00000" pt_clust_8="13000.00000" pt_clust_9="47.63374"></scales>
<clustering>
<clus scale="   47.634">  2  9  1 -1</clus>
<clus scale="   81.246">  5  6 -1 -1</clus>
<clus scale="   91.649">  7  8 -1 -1</clus>
<clus scale="  100.869">  2  5  1 -1</clus>
<clus scale="   47.634">  2  5  1 -1</clus>
</clustering>
</event>
<event>
 9    1  0.4731329E-005  0.1010411E+03  0.7546771E-02  0.1286322E+00
          3   -1    0    0  502    0 -0.00000000000E+00  0.00000000000E+00  0.42331839225E+03  0.42331839225E+03  0.00000000000E+00 0. -1.
         21   -1    0    0  501  502  0.00000000000E+00 -0.00000000000E+00 -0.44018277354E+02  0.44018277354E+02  0.00000000000E+00 0. -1.
         23    2    1    2    0    0  0.20546865345E+02 -0.21671699138E+02  0.18104803789E+03  0.20447809646E+03  0.90227843197E+02 0.  0.
        -24    2    1    2    0    0 -0.81337959362E+02  0.12185556659E+02  0.11549925589E+03  0.15973935372E+03  0.73567870662E+02 0.  0.
         13    1    4    4    0    0 -0.65103261652E+02 -0.10182724486E+01  0.29952354243E+02  0.71670182650E+02  0.00000000000E+00 0. -1.
        -14    1    4    4    0    0 -0.16234697710E+02  0.13203829107E+02  0.85546901643E+02  0.88069171073E+02  0.00000000000E+00 0.  1.
        -13    1    3    3    0    0  0.54928585726E+02 -0.25378233074E+01  0.93031076857E+02  0.10806651349E+03  0.00000000000E+00 0. -1.
         13    1    3    3    0    0 -0.34381720380E+02 -0.19133875830E+02  0.88016961033E+02  0.96411582966E+02  0.00000000000E+00 0.  1.
          4    1    1    2  501    0  0.60791094017E+02  0.94861424791E+01  0.82752821122E+02  0.10311921942E+03  0.00000000000E+00 0. -1.
<scales pt_clust_5="13000.00000" pt_clust_6="13000.00000" pt_clust_7="13000.00000" pt_clust_8="13000.00000" pt_clust_9="61.52677"></scales>
<clustering>
<clus scale="   61.527">  2  9  1 -1</clus>
<clus scale="   73.568">  5  6 -1 -1</clus>
<clus scale="   86.490">  2  5  1 -1</clus>
<clus scale="   90.228">  7  8 -1 -1</clus>
<clus scale="   61.527">  2  5  1 -1</clus>
</clustering>
</event>
<event>
 9    1  0.4731329E-005  0.1154052E+03  0.7546771E-02  0.1255153E+00
          1   -1    0    0  502    0 -0.00000000000E+00  0.00000000000E+00  0.50213734201E+03  0.50213734201E+03  0.00000000000E+00 0. -1.
         21   -1    0    0  501  502  0.00000000000E+00 -0.00000000000E+00 -0.38913366505E+02  0.38913366505E+02  0.00000000000E+00 0. -1.
        -24    2    1    2    0    0 -0.10180025901E+02  0.66328756651E+02  0.20698494664E+03  0.23217306819E+03  0.80984125426E+02 0.  0.
         23    2    1    2    0    0 -0.32369490354E+02 -0.69453823043E+02  0.22752597586E+03  0.25745131646E+03  0.92959632174E+02 0.  0.
         13    1    3    3    0    0  0.30172059620E+02  0.49591617504E+02  0.14633319668E+03  0.15742644682E+03  0.00000000000E+00 0. -1.
        -14    1    3    3    0    0 -0.40352085522E+02  0.16737139146E+02  0.60651749961E+02  0.74746621369E+02  0.00000000000E+00 0.  1.
        -11    1    4    4    0    0 -0.60775888605E+02 -0.67762663782E+02  0.15829568731E+03  0.18260068964E+03  0.00000000000E+00 0.  1.
         11    1    4    4    0    0  0.28406398251E+02 -0.16911592608E+01  0.69230288557E+02  0.74850626817E+02  0.00000000000E+00 0. -1.
          2    1    1    2  501    0  0.42549516255E+02  0.31250663922E+01  0.28713053003E+02  0.51426323865E+02  0.00000000000E+00 0. -1.
<scales pt_clust_5="13000.00000" pt_clust_6="13000.00000" pt_clust_7="13000.00000" pt_clust_8="13000.00000" pt_clust_9="42.66412"></scales>
<clustering>
<clus scale="   42.664">  2  9  1 -1</clus>
<clus scale="   80.984">  5  6 -1 -1</clus>
<clus scale="   92.960">  7  8 -1 -1</clus>
<clus scale="  105.997">  1  5  2 -1</clus>
<clus scale="   42.664">  2  5  1 -1</clus>
</clustering>
</event>
<event>
 9    1  0.4731329E-005  0.2182114E+03  0.7546771E-02  0.1136183E+00
         21   -1    0    0  501  502  0.00000000000E+00  0.00000000000E+00  0.28602937543E+03  0.28602937543E+03  0.00000000000E+00 0. -1.
          3   -1    0    0  502    0 -0.00000000000E+00 -0.00000000000E+00 -0.51253435248E+03  0.51253435248E+03  0.00000000000E+00 0. -1.
         23    2    1    2    0    0 -0.15352460065E+03  0.72097673782E+02 -0.21341677604E+03  0.28772715876E+03  0.92045206424E+02 0.  0.
        -24    2    1    2    0    0  0.27626122682E+03 -0.17482008214E+02 -0.14512251038E+03  0.32247465904E+03  0.79394437135E+02 0.  0.
         11    1    4    4    0    0  0.10459231055E+03  0.34527742595E+00 -0.13583768262E+02  0.10547127288E+03  0.00000000000E+00 0. -1.
        -12    1    4    4    0    0  0.17166891627E+03 -0.17827285640E+02 -0.13153874212E+03  0.21700338616E+03  0.00000000000E+00 0.  1.
        -11    1    3    3    0    0 -0.91116220688E+02  0.89927258630E+02 -0.14475596633E+03  0.19324432024E+03  0.00000000000E+00 0. -1.
         11    1    3    3    0    0 -0.62408379965E+02 -0.17829584848E+02 -0.68660809712E+02  0.94482838526E+02  0.00000000000E+00 0.  1.
          4    1    1    2  501    0 -0.12273662617E+03 -0.54615665568E+02  0.13203430937E+03  0.18836191011E+03  0.00000000000E+00 0. -1.
<scales pt_clust_5="13000.00000" pt_clust_6="13000.00000" pt_clust_7="13000.00000" pt_clust_8="13000.00000" pt_clust_9="134.33968"></scales>
<clustering>
<clus scale="   79.394">  5  6 -1 -1</clus>
<clus scale="   92.045">  7  8 -1 -1</clus>
<clus scale="  134.340">  1  9  2 -1</clus>
<clus scale="  213.184">  1  5  2 -1</clus>
<clus scale="  134.340">  1  5  2 -1</clus>
</clustering>
</event>
<event>
 9    1  0.4731329E-005  0.1038581E+03  0.7546771E-02  0.1280588E+00
         21   -1    0    0  501  502  0.00000000000E+00  0.00000000000E+00  0.44584346939E+03  0.44584346939E+03  0.00000000000E+00 0. -1.
          1   -1    0    0  502    0 -0.00000000000E+00 -0.00000000000E+00 -0.53319808542E+02  0.53319808542E+02  0.00000000000E+00 0. -1.
        -24    2    1    2    0    0  0.51739740738E+02  0.53817077159E+01  0.94494906675E+01  0.90662899486E+02  0.73651238413E+02 0.  0.
         23    2    1    2    0    0 -0.38045496988E+02  0.29249392708E+02  0.25324294374E+03  0.27343375493E+03  0.91274547204E+02 0.  0.
         11    1    3    3    0    0  0.64854786925E+02 -0.32977167572E+01  0.24005577632E+02  0.69233561806E+02  0.00000000000E+00 0. -1.
        -12    1    3    3    0    0 -0.13115046187E+02  0.86794244731E+01 -0.14556086964E+02  0.21429337680E+02  0.00000000000E+00 0.  1.
        -13    1    4    4    0    0 -0.59383837769E+02 -0.82564075670E+01  0.14492328587E+03  0.15683547826E+03  0.00000000000E+00 0.  1.
         13    1    4    4    0    0  0.21338340781E+02  0.37505800275E+02  0.10831965788E+03  0.11659827668E+03  0.00000000000E+00 0. -1.
          2    1    1    2  501    0 -0.13694243750E+02 -0.34631100424E+02  0.12983122643E+03  0.13506662351E+03  0.00000000000E+00 0. -1.
<scales pt_clust_5="13000.00000" pt_clust_6="13000.00000" pt_clust_7="13000.00000" pt_clust_8="13000.00000" pt_clust_9="37.24037"></scales>
<clustering>
<clus scale="   37.240">  1  9  2 -1</clus>
<clus scale="   73.651">  5  6 -1 -1</clus>
<clus scale="   88.769">  2  5  1 -1</clus>
<clus scale="   91.275">  7  8 -1 -1</clus>
<clus scale="   37.240">  1  5  2 -1</clus>
</clustering>
</event>
<event>
 9    1  0.4731329E-005  0.2684364E+03  0.7546771E-02  0.1102613E+00
         21   -1    0    0  501  502  0.00000000000E+00  0.00000000000E+00  0.66198411448E+03  0.66198411448E+03  0.00000000000E+00 0. -1.
         -2   -1    0    0    0  501 -0.00000000000E+00 -0.00000000000E+00 -0.20906159095E+03  0.20906159095E+03  0.00000000000E+00 0.  1.
         23    2    1    2    0    0 -0.32411141262E+02  0.26201099793E+03  0.48830558508E+02  0.28318067718E+03  0.90036811215E+02 0.  0.
        -24    2    1    2    0    0  0.78119165255E+02 -0.21156559261E+03  0.44719261057E+03  0.50729438830E+03  0.80645901933E+02 0.  0.
         11    1    4    4    0    0  0.80176320146E+02 -0.13676725806E+03  0.35324677885E+03  0.38719092443E+03  0.00000000000E+00 0. -1.
        -12    1    4    4    0    0 -0.20571548910E+01 -0.74798334550E+02  0.93945831714E+02  0.12010346387E+03  0.00000000000E+00 0.  1.
        -11    1    3    3    0    0 -0.19404965945E+02  0.18046281745E+02  0.27103319218E+02  0.37905288559E+02  0.00000000000E+00 0. -1.
         11    1    3    3    0    0 -0.13006175317E+02  0.24396471618E+03  0.21727239290E+02  0.24527538862E+03  0.00000000000E+00 0.  1.
         -1    1    1    2    0  502 -0.45708023993E+02 -0.50445405312E+02 -0.43100645539E+02  0.80570639940E+02  0.00000000000E+00 0.  1.
<scales pt_clust_5="13000.00000" pt_clust_6="13000.00000" pt_clust_7="13000.00000" pt_clust_8="13000.00000" pt_clust_9="68.07325"></scales>
<clustering>
<clus scale="   68.073">  1  9  2 -1</clus>
<clus scale="   80.646">  5  6 -1 -1</clus>
<clus scale="   90.037">  7  8 -1 -1</clus>
<clus scale="  265.434">  1  5  2 -1</clus>
<clus scale="   68.073">  1  5  2 -1</clus>
</clustering>
</event>
<event>
 9    1  0.4731329E-005  0.1641057E+03  0.7546771E-02  0.1185839E+00
          1   -1    0    0  502    0 -0.00000000000E+00  0.00000000000E+00  0.47845643107E+03  0.47845643107E+03  0.00000000000E+00 0. -1.
         21   -1    0    0  501  502  0.00000000000E+00 -0.00000000000E+00 -0.18729707400E+03  0.18729707400E+03  0.00000000000E+00 0. -1.
         23    2    1    2    0    0  0.12811662573E+03  0.40435912525E+02  0.35515499319E+03  0.39056263245E+03  0.91406607332E+02 0.  0.
        -24    2    1    2    0    0 -0.11390266036E+03 -0.12140074287E+03 -0.34517527789E+02  0.18786218641E+03  0.79929875217E+02 0.  0.
         13    1    4    4    0    0 -0.85636537549E+02 -0.11919115575E+03 -0.48794958681E+01  0.14684671482E+03  0.00000000000E+00 0. -1.
        -14    1    4    4    0    0 -0.28266122812E+02 -0.22095871189E+01 -0.29638031921E+02  0.41015471596E+02  0.00000000000E+00 0.  1.
        -13    1    3    3    0    0 -0.53820504314E+01  0.21545371424E+02  0.22459146390E+02  0.31584533450E+02  0.00000000000E+00 0.  1.
         13    1    3    3    0    0  0.13349867616E+03  0.18890541100E+02  0.33269584680E+03  0.35897809900E+03  0.00000000000E+00 0. -1.
          2    1    1    2  501    0 -0.14213965365E+02  0.80964830342E+02 -0.29478108337E+02  0.87328686208E+02  0.00000000000E+00 0. -1.
<scales pt_clust_5="13000.00000" pt_clust_6="13000.00000" pt_clust_7="13000.00000" pt_clust_8="13000.00000" pt_clust_9="82.20304"></scales>
<clustering>
<clus scale="   79.930">  5  6 -1 -1</clus>
<clus scale="   82.203">  2  9  1 -1</clus>
<clus scale="   91.407">  7  8 -1 -1</clus>
<clus scale="  158.001">  2  5  1 -1</clus>
<clus scale="   82.203">  2  5  1 -1</clus>
</clustering>
</event>
<event>
 9    1  0.4731329E-005  0.1667514E+03  0.7546771E-02  0.1182626E+00
         21   -1    0    0  501  502  0.00000000000E+00  0.00000000000E+00  0.16958307440E+03  0.16958307440E+03  0.00000000000E+00 0. -1.
          1   -1    0    0  502    0 -0.00000000000E+00 -0.00000000000E+00 -0.23277265459E+03  0.23277265459E+03  0.00000000000E+00 0. -1.
         23    2    1    2    0    0 -0.49367329515E+02 -0.12972634293E+03 -0.18752749815E+02  0.16663117684E+03  0.90267525708E+02 0.  0.
        -24    2    1    2    0    0  0.78934202395E+02  0.12020625028E+03  0.18086144996E+02  0.16591083871E+03  0.80741233864E+02 0.  0.
         11    1    4    4    0    0  0.84891190342E+02  0.10134795235E+03  0.38291285074E+02  0.13763772795E+03  0.00000000000E+00 0. -1.
        -12    1    4    4    0    0 -0.59569879468E+01  0.18858297926E+02 -0.20205140079E+02  0.28273110753E+02  0.00000000000E+00 0.  1.
        -13    1    3    3    0    0  0.12789570733E+02 -0.64688389856E+02 -0.35852511015E+02  0.75057067940E+02  0.00000000000E+00 0.  1.
         13    1    3    3    0    0 -0.62156900248E+02 -0.65037953069E+02  0.17099761199E+02  0.91574108901E+02  0.00000000000E+00 0. -1.
          2    1    1    2  501    0 -0.29566872880E+02  0.95200926478E+01 -0.62522975367E+02  0.69813713442E+02  0.00000000000E+00 0. -1.
<scales pt_clust_5="13000.00000" pt_clust_6="13000.00000" pt_clust_7="13000.00000" pt_clust_8="13000.00000" pt_clust_9="31.06176"></scales>
<clustering>
<clus scale="   31.062">  1  9  2 -1</clus>
<clus scale="   80.741">  5  6 -1 -1</clus>
<clus scale="   90.268">  7  8 -1 -1</clus>
<clus scale="  161.793">  1  5  2 -1</clus>
<clus scale="   31.062">  1  5  2 -1</clus>
</clustering>
</event>
<event>
 9    1  0.4731329E-005  0.2246000E+03  0.7546771E-02  0.1155588E+00
          1   -1    0    0  502    0 -0.00000000000E+00  0.00000000000E+00  0.13447293837E+04  0.13447293837E+04  0.00000000000E+00 0. -1.
         21   -1    0    0  501  502  0.00000000000E+00 -0.00000000000E+00 -0.62915557317E+02  0.62915557317E+02  0.00000000000E+00 0.  1.
         23    2    1    2    0    0 -0.47629860075E+02 -0.70246311822E+02  0.42292727027E+03  0.44045687874E+03  0.89059745091E+02 0.  0.
        -24    2    1    2    0    0 -0.10028067925E+03  0.20354598070E+03  0.51936146119E+03  0.57358468393E+03  0.88180958126E+02 0.  0.
         11    1    4    4    0    0 -0.34440731199E+02  0.63501834826E+02  0.27511843198E+03  0.28444471977E+03  0.00000000000E+00 0. -1.
        -12    1    4    4    0    0 -0.65839948055E+02  0.14004414588E+03  0.24424302921E+03  0.28913996416E+03  0.00000000000E+00 0.  1.
        -11    1    3    3    0    0 -0.45514221751E+02 -0.27633774373E+01  0.26203292453E+03  0.26597073932E+03  0.00000000000E+00 0.  1.
         11    1    3    3    0    0 -0.21156383245E+01 -0.67482934384E+02  0.16089434574E+03  0.17448613942E+03  0.00000000000E+00 0. -1.
          2    1    1    2  501    0  0.14791053933E+03 -0.13329966888E+03  0.33952509495E+03  0.39360337838E+03  0.00000000000E+00 0. -1.
<scales pt_clust_5="13000.00000" pt_clust_6="13000.00000" pt_clust_7="13000.00000" pt_clust_8="13000.00000" pt_clust_9="206.56549"></scales>
<clustering>
<clus scale="   88.181">  5  6 -1 -1</clus>
<clus scale="   89.060">  7  8 -1 -1</clus>
<clus scale="  123.024">  1  7  2 -1</clus>
<clus scale="  206.565">  2  9  1 -1</clus>
<clus scale="  206.565">  2  5  1 -1</clus>
</clustering>
</event>
<event>
 9    1  0.4731329E-005  0.1080367E+03  0.7546771E-02  0.1270743E+00
         21   -1    0    0  501  502  0.00000000000E+00  0.00000000000E+00  0.72909264640E+02  0.72909264640E+02  0.00000000000E+00 0.  1.
          3   -1    0    0  502    0 -0.00000000000E+00 -0.00000000000E+00 -0.29606591840E+03  0.29606591840E+03  0.00000000000E+00 0. -1.
         23    2    1    2    0    0 -0.43061723528E+02  0.36514030342E+02 -0.12331008262E+03  0.16523376460E+03  0.94388738963E+02 0.  0.
        -24    2    1    2    0    0  0.16778796204E+02 -0.44699224373E+02  0.74531325403E+01  0.92966800046E+02  0.79421206643E+02 0.  0.
         13    1    4    4    0    0 -0.26745672357E+02 -0.46600762719E+01  0.18434914723E+02  0.32816053716E+02  0.00000000000E+00 0. -1.
        -14    1    4    4    0    0  0.43524468561E+02 -0.40039148101E+02 -0.10981782183E+02  0.60150746330E+02  0.00000000000E+00 0.  1.
        -11    1    3    3    0    0 -0.68950529617E+02  0.41587476871E+02 -0.74246441804E+02  0.10952729289E+03  0.00000000000E+00 0. -1.
         11    1    3    3    0    0  0.25888806089E+02 -0.50734465290E+01 -0.49063640812E+02  0.55706471708E+02  0.00000000000E+00 0.  1.
          4    1    1    2  501    0  0.26282927324E+02  0.81851940309E+01 -0.10729970369E+03  0.11077461840E+03  0.00000000000E+00 0. -1.
<scales pt_clust_5="13000.00000" pt_clust_6="13000.00000" pt_clust_7="13000.00000" pt_clust_8="13000.00000" pt_clust_9="27.52799"></scales>
<clustering>
<clus scale="   27.528">  1  9  2 -1</clus>
<clus scale="   79.421">  5  6 -1 -1</clus>
<clus scale="   94.389">  7  8 -1 -1</clus>
<clus scale="   95.239">  1  5  2 -1</clus>
<clus scale="   27.528">  1  5  2 -1</clus>
</clustering>
</event>
<event>
 9    1  0.4731329E-005  0.1455381E+03  0.7546771E-02  0.1208784E+00
         21   -1    0    0  501  502  0.00000000000E+00  0.00000000000E+00  0.11968554173E+03  0.11968554173E+03  0.00000000000E+00 0. -1.
          1   -1    0    0  502    0 -0.00000000000E+00 -0.00000000000E+00 -0.42976794521E+03  0.42976794521E+03  0.00000000000E+00 0. -1.
        -24    2    1    2    0    0 -0.11979247966E+02 -0.12657563728E+03 -0.27075962954E+03  0.30989517652E+03  0.80989808663E+02 0.  0.
         23    2    1    2    0    0 -0.14932914605E+02  0.43753077585E+02  0.48680842135E+02  0.11575008237E+03  0.94291746410E+02 0.  0.
         13    1    3    3    0    0  0.33446919538E+02 -0.58282288753E+02 -0.14409052820E+03  0.15898931387E+03  0.00000000000E+00 0. -1.
        -14    1    3    3    0    0 -0.45426167504E+02 -0.68293348531E+02 -0.12666910135E+03  0.15090586266E+03  0.00000000000E+00 0.  1.
        -11    1    4    4    0    0  0.35378005316E+02  0.25196902254E+02  0.16183726206E+00  0.43434011266E+02  0.00000000000E+00 0.  1.
         11    1    4    4    0    0 -0.50310919920E+02  0.18556175331E+02  0.48519004873E+02  0.72316071105E+02  0.00000000000E+00 0. -1.
          2    1    1    2  501    0  0.26912162571E+02  0.82822559699E+02 -0.88003616073E+02  0.12380822804E+03  0.00000000000E+00 0. -1.
<scales pt_clust_5="13000.00000" pt_clust_6="13000.00000" pt_clust_7="13000.00000" pt_clust_8="13000.00000" pt_clust_9="87.08529"></scales>
<clustering>
<clus scale="   80.990">  5  6 -1 -1</clus>
<clus scale="   87.085">  1  9  2 -1</clus>
<clus scale="   94.292">  7  8 -1 -1</clus>
<clus scale="  137.294">  2  5  1 -1</clus>
<clus scale="   87.085">  1  5  2 -1</clus>
</clustering>
</event>
<event>
 9    1  0.4731329E-005  0.9768486E+02  0.7546771E-02  0.1289095E+00
         21   -1    0    0  501  502  0.00000000000E+00  0.00000000000E+00  0.51735242611E+02  0.51735242611E+02  0.00000000000E+00 0.  1.
          1   -1    0    0  502    0 -0.00000000000E+00 -0.00000000000E+00 -0.35032099758E+03  0.35032099758E+03  0.00000000000E+00 0. -1.
         23    2    1    2    0    0 -0.83987335274E+01  0.30941986719E+02 -0.19745912477E+03  0.21959202037E+03  0.90568229476E+02 0.  0.
        -24    2    1    2    0    0 -0.11135768507E+02 -0.54839074092E+02 -0.29514165932E+02  0.10448337221E+03  0.83152628885E+02 0.  0.
         11    1    4    4    0    0  0.19882424570E+02 -0.21866470930E+02  0.21299249640E+02  0.36429540114E+02  0.00000000000E+00 0. -1.
        -12    1    4    4    0    0 -0.31018193077E+02 -0.32972603162E+02 -0.50813415572E+02  0.68053832097E+02  0.00000000000E+00 0.  1.
        -13    1    3    3    0    0 -0.47344969953E+02  0.21991611828E+02 -0.14155280317E+03  0.15087204266E+03  0.00000000000E+00 0. -1.
         13    1    3    3    0    0  0.38946236426E+02  0.89503748902E+01 -0.55906321593E+02  0.68719977710E+02  0.00000000000E+00 0.  1.
          2    1    1    2  501    0  0.19534502035E+02  0.23897087373E+02 -0.71612464266E+02  0.77980847603E+02  0.00000000000E+00 0. -1.
<scales pt_clust_5="13000.00000" pt_clust_6="13000.00000" pt_clust_7="13000.00000" pt_clust_8="13000.00000" pt_clust_9="30.86533"></scales>
<clustering>
<clus scale="   30.865">  1  9  2 -1</clus>
<clus scale="   83.153">  5  6 -1 -1</clus>
<clus scale="   90.568">  7  8 -1 -1</clus>
<clus scale="   90.852">  1  5  2 -1</clus>
<clus scale="   30.865">  1  5  2 -1</clus>
</clustering>
</event>
<event>
 9    1  0.4731329E-005  0.9459534E+02  0.7546771E-02  0.1298477E+00
          1   -1    0    0  502    0 -0.00000000000E+00  0.00000000000E+00  0.75107376155E+02  0.75107376155E+02  0.00000000000E+00 0. -1.
         21   -1    0    0  501  502  0.00000000000E+00 -0.00000000000E+00 -0.33864281651E+03  0.33864281651E+03  0.00000000000E+00 0.  1.
         23    2    1    2    0    0  0.72864096534E+01  0.12394026592E+02 -0.38900299257E+02  0.99905078027E+02  0.90890525757E+02 0.  0.
        -24    2    1    2    0    0  0.62681596021E+02 -0.58898400175E+02 -0.18985339767E+03  0.22291685579E+03  0.79054462031E+02 0.  0.
         13    1    4    4    0    0 -0.13584980510E+02 -0.20524794195E+02 -0.16360622536E+02  0.29554844645E+02  0.00000000000E+00 0. -1.
        -14    1    4    4    0    0  0.76266576532E+02 -0.38373605979E+02 -0.17349277513E+03  0.19336201115E+03  0.00000000000E+00 0.  1.
        -13    1    3    3    0    0  0.32386877809E+02 -0.17520517772E+02 -0.47318726209E+02  0.59957820568E+02  0.00000000000E+00 0.  1.
         13    1    3    3    0    0 -0.25100468155E+02  0.29914544365E+02  0.84184269514E+01  0.39947257459E+02  0.00000000000E+00 0. -1.
          2    1    1    2  501    0 -0.69968005675E+02  0.46504373582E+02 -0.34781743427E+02  0.90928258843E+02  0.00000000000E+00 0. -1.
<scales pt_clust_5="13000.00000" pt_clust_6="13000.00000" pt_clust_7="13000.00000" pt_clust_8="13000.00000" pt_clust_9="84.01301"></scales>
<clustering>
<clus scale="   79.054">  5  6 -1 -1</clus>
<clus scale="   84.013">  2  9  1 -1</clus>
<clus scale="   84.013">  2  5  1 -1</clus>
<clus scale="   90.891">  7  8 -1 -1</clus>
<clus scale="   84.013">  2  5  1 -1</clus>
</clustering>
</event>
<event>
 9    1  0.4731329E-005  0.9241698E+02  0.7546771E-02  0.1304740E+00
          3   -1    0    0  502    0 -0.00000000000E+00  0.00000000000E+00  0.14687175190E+03  0.14687175190E+03  0.00000000000E+00 0. -1.
         21   -1    0    0  501  502  0.00000000000E+00 -0.00000000000E+00 -0.17702409867E+03  0.17702409867E+03  0.00000000000E+00 0. -1.
         23    2    1    2    0    0  0.43486016381E+02 -0.77414206743E+01  0.51480986860E+02  0.11278569655E+03  0.90107480951E+02 0.  0.
        -24    2    1    2    0    0  0.33319846711E+02  0.31153574562E+02  0.10144932762E+02  0.89165413510E+02  0.75939409484E+02 0.  0.
         13    1    4    4    0    0  0.16122077648E+02  0.51967770456E+02 -0.10199405026E+02  0.55358815167E+02  0.00000000000E+00 0. -1.
        -14    1    4    4    0    0  0.17197769063E+02 -0.20814195894E+02  0.20344337788E+02  0.33806598343E+02  0.00000000000E+00 0.  1.
        -11    1    3    3    0    0  0.71503049859E+02 -0.10191481726E+02  0.37313321533E+02  0.81294750155E+02  0.00000000000E+00 0.  1.
         11    1    3    3    0    0 -0.28017033478E+02  0.24500610515E+01  0.14167665327E+02  0.31490946395E+02  0.00000000000E+00 0. -1.
          4    1    1    2  501    0 -0.76805863092E+02 -0.23412153888E+02 -0.91778266395E+02  0.12194474051E+03  0.00000000000E+00 0. -1.
<scales pt_clust_5="13000.00000" pt_clust_6="13000.00000" pt_clust_7="13000.00000" pt_clust_8="13000.00000" pt_clust_9="80.29489"></scales>
<clustering>
<clus scale="   75.939">  5  6 -1 -1</clus>
<clus scale="   80.295">  2  9  1 -1</clus>
<clus scale="   80.295">  2  5  1 -1</clus>
<clus scale="   90.107">  7  8 -1 -1</clus>
<clus scale="   80.295">  2  5  1 -1</clus>
</clustering>
</event>
<event>
 9    1  0.4731329E-005  0.1098441E+03  0.7546771E-02  0.1268985E+00
         21   -1    0    0  501  502  0.00000000000E+00  0.00000000000E+00  0.11841907522E+03  0.11841907522E+03  0.00000000000E+00 0. -1.
         -2   -1    0    0    0  501 -0.00000000000E+00 -0.00000000000E+00 -0.30334483827E+03  0.30334483827E+03  0.00000000000E+00 0.  1.
         23    2    1    2    0    0 -0.98729228780E+01 -0.33536338202E+02 -0.16978840896E+03  0.20012020867E+03  0.99989166995E+02 0.  0.
        -24    2    1    2    0    0 -0.50862281394E+02  0.71808623822E+02 -0.62599402123E+02  0.13558454559E+03  0.81981911011E+02 0.  0.
         11    1    4    4    0    0 -0.43284622202E+02  0.15495495240E+02 -0.63934404987E+02  0.78748187490E+02  0.00000000000E+00 0. -1.
        -12    1    4    4    0    0 -0.75776591919E+01  0.56313128582E+02  0.13350028639E+01  0.56836358101E+02  0.00000000000E+00 0.  1.
        -11    1    3    3    0    0 -0.33558492267E+02  0.19580278433E+02 -0.31221292827E+02  0.49843041967E+02  0.00000000000E+00 0. -1.
         11    1    3    3    0    0  0.23685569389E+02 -0.53116616635E+02 -0.13856711613E+03  0.15027716670E+03  0.00000000000E+00 0.  1.
         -1    1    1    2    0  502  0.60735204272E+02 -0.38272285620E+02  0.47462048029E+02  0.86059159232E+02  0.00000000000E+00 0.  1.
<scales pt_clust_5="13000.00000" pt_clust_6="13000.00000" pt_clust_7="13000.00000" pt_clust_8="13000.00000" pt_clust_9="71.78811"></scales>
<clustering>
<clus scale="   71.788">  1  9  2 -1</clus>
<clus scale="   81.982">  5  6 -1 -1</clus>
<clus scale="   93.749">  1  5  2 -1</clus>
<clus scale="   99.989">  7  8 -1 -1</clus>
<clus scale="   71.788">  1  5  2 -1</clus>
</clustering>
</event>
<event>
 9    1  0.4731329E-005  0.1093870E+03  0.7546771E-02  0.1270384E+00
         21   -1    0    0  501  502  0.00000000000E+00  0.00000000000E+00  0.37400984105E+03  0.37400984105E+03  0.00000000000E+00 0.  1.
          3   -1    0    0  502    0 -0.00000000000E+00 -0.00000000000E+00 -0.12203955930E+03  0.12203955930E+03  0.00000000000E+00 0. -1.
         23    2    1    2    0    0  0.32018146101E+02 -0.37155935896E+02 -0.82164466055E+02  0.13759979806E+03  0.98878610895E+02 0.  0.
        -24    2    1    2    0    0 -0.31947479061E+02  0.19096531058E+01  0.28716190307E+03  0.29972351279E+03  0.79673944015E+02 0.  0.
         11    1    4    4    0    0  0.23461959427E+02  0.70842210497E+01  0.44913693915E+02  0.51165316662E+02  0.00000000000E+00 0. -1.
        -12    1    4    4    0    0 -0.55409438488E+02 -0.51745679440E+01  0.24224820915E+03  0.24855819613E+03  0.00000000000E+00 0.  1.
        -11    1    3    3    0    0  0.31477570415E+02  0.22140791675E+02 -0.28792137754E+01  0.38591993563E+02  0.00000000000E+00 0.  1.
         11    1    3    3    0    0  0.54057568644E+00 -0.59296727571E+02 -0.79285252280E+02  0.99007804499E+02  0.00000000000E+00 0. -1.
          4    1    1    2  501    0 -0.70667039847E-01  0.35246282790E+02  0.46972844735E+02  0.58726089490E+02  0.00000000000E+00 0. -1.
<scales pt_clust_5="13000.00000" pt_clust_6="13000.00000" pt_clust_7="13000.00000" pt_clust_8="13000.00000" pt_clust_9="35.24635"></scales>
<clustering>
<clus scale="   35.246">  1  9  2 -1</clus>
<clus scale="   79.674">  5  6 -1 -1</clus>
<clus scale="   92.393">  1  5  2 -1</clus>
<clus scale="   98.879">  7  8 -1 -1</clus>
<clus scale="   35.246">  1  5  2 -1</clus>
</clustering>
</event>
<event>
 9    1  0.4731329E-005  0.2862617E+03  0.7546771E-02  0.1134814E+00
         21   -1    0    0  501  502  0.00000000000E+00  0.00000000000E+00  0.92441850809E+02  0.92441850809E+02  0.00000000000E+00 0.  1.
          1   -1    0    0  502    0 -0.00000000000E+00 -0.00000000000E+00 -0.11900686914E+04  0.11900686914E+04  0.00000000000E+00 0. -1.
         23    2    1    2    0    0  0.27988309840E+02  0.16828707598E+02 -0.15226991284E+03  0.18087687823E+03  0.91998738225E+02 0.  0.
        -24    2    1    2    0    0  0.52092327734E+00 -0.28245687004E+03 -0.42059877429E+03  0.51278545205E+03  0.79141873320E+02 0.  0.
         13    1    4    4    0    0  0.35957281281E+02 -0.86860534179E+02 -0.14992969874E+03  0.17696494862E+03  0.00000000000E+00 0. -1.
        -14    1    4    4    0    0 -0.35436358003E+02 -0.19559633586E+03 -0.27066907555E+03  0.33582050344E+03  0.00000000000E+00 0.  1.
        -13    1    3    3    0    0 -0.23329849473E+02 -0.20925025928E+02 -0.32089187803E+02  0.44853701747E+02  0.00000000000E+00 0.  1.
         13    1    3    3    0    0  0.51318159313E+02  0.37753733525E+02 -0.12018072504E+03  0.13602317649E+03  0.00000000000E+00 0. -1.
          2    1    1    2  501    0 -0.28509233117E+02  0.26562816245E+03 -0.52475815345E+03  0.58884821191E+03  0.00000000000E+00 0. -1.
<scales pt_clust_5="13000.00000" pt_clust_6="13000.00000" pt_clust_7="13000.00000" pt_clust_8="13000.00000" pt_clust_9="275.10434"></scales>
<clustering>
<clus scale="   79.142">  5  6 -1 -1</clus>
<clus scale="   91.999">  7  8 -1 -1</clus>
<clus scale="   97.623">  2  7  1 -1</clus>
<clus scale="  275.104">  1  9  2 -1</clus>
<clus scale="  275.104">  1  5  2 -1</clus>
</clustering>
</event>
<event>
 9    1  0.4731329E-005  0.3907596E+03  0.7546771E-02  0.1095323E+00
          3   -1    0    0  502    0 -0.00000000000E+00  0.00000000000E+00  0.95819748431E+03  0.95819748431E+03  0.00000000000E+00 0. -1.
         21   -1    0    0  501  502  0.00000000000E+00 -0.00000000000E+00 -0.24788886768E+03  0.24788886768E+03  0.00000000000E+00 0. -1.
         23    2    1    2    0    0 -0.85023842182E+01 -0.98008713818E+01  0.96348716048E+02  0.14177596765E+03  0.10319400322E+03 0.  0.
        -24    2    1    2    0    0 -0.37984846055E+03  0.79314234974E+01  0.68160586508E+02  0.39444714105E+03  0.81209119391E+02 0.  0.
         11    1    4    4    0    0 -0.27621155982E+03  0.29843417817E+02  0.21353636608E+02  0.27863853495E+03  0.00000000000E+00 0. -1.
        -12    1    4    4    0    0 -0.10363690073E+03 -0.21911994320E+02  0.46806949900E+02  0.11580860610E+03  0.00000000000E+00 0.  1.
        -11    1    3    3    0    0  0.24543364543E+01 -0.55960292199E+02  0.59382345097E+02  0.81632352530E+02  0.00000000000E+00 0.  1.
         11    1    3    3    0    0 -0.10956720673E+02  0.46159420817E+02  0.36966370951E+02  0.60143615117E+02  0.00000000000E+00 0. -1.
          4    1    1    2  501    0  0.38835084477E+03  0.18694478844E+01  0.54579931408E+03  0.66986324329E+03  0.00000000000E+00 0. -1.
<scales pt_clust_5="13000.00000" pt_clust_6="13000.00000" pt_clust_7="13000.00000" pt_clust_8="13000.00000" pt_clust_9="382.22808"></scales>
<clustering>
<clus scale="   81.209">  5  6 -1 -1</clus>
<clus scale="  103.194">  7  8 -1 -1</clus>
<clus scale="  104.006">  1  7  2 -1</clus>
<clus scale="  382.228">  2  9  1 -1</clus>
<clus scale="  382.228">  2  5  1 -1</clus>
</clustering>
</event>
<event>
 9    1  0.4731329E-005  0.9878381E+02  0.7546771E-02  0.1288068E+00
          1   -1    0    0  502    0 -0.00000000000E+00  0.00000000000E+00  0.29195149927E+03  0.29195149927E+03  0.00000000000E+00 0. -1.
         21   -1    0    0  501  502  0.00000000000E+00 -0.00000000000E+00 -0.52846955381E+02  0.52846955381E+02  0.00000000000E+00 0. -1.
        -24    2    1    2    0    0 -0.27971799716E+02  0.36435270723E+02  0.17714277202E+03  0.19988529664E+03  0.80402858174E+02 0.  0.
         23    2    1    2    0    0 -0.58257654021E+01 -0.31258902831E+02  0.52667949957E+02  0.10948089421E+03  0.90559895620E+02 0.  0.
         11    1    3    3    0    0 -0.28778421340E+02  0.60017350757E+02  0.14878419011E+03  0.16299391140E+03  0.00000000000E+00 0. -1.
        -12    1    3    3    0    0  0.80662162418E+00 -0.23582080034E+02  0.28358581918E+02  0.36891385249E+02  0.00000000000E+00 0.  1.
        -11    1    4    4    0    0  0.31639656012E+02 -0.40335227776E+02  0.10463425929E+02  0.52320949098E+02  0.00000000000E+00 0.  1.
         11    1    4    4    0    0 -0.37465421415E+02  0.90763249459E+01  0.42204524027E+02  0.57159945107E+02  0.00000000000E+00 0. -1.
          2    1    1    2  501    0  0.33797565118E+02 -0.51763678924E+01  0.92938219093E+01  0.35432263802E+02  0.00000000000E+00 0. -1.
<scales pt_clust_5="13000.00000" pt_clust_6="13000.00000" pt_clust_7="13000.00000" pt_clust_8="13000.00000" pt_clust_9="34.19167"></scales>
<clustering>
<clus scale="   34.192">  2  9  1 -1</clus>
<clus scale="   80.403">  5  6 -1 -1</clus>
<clus scale="   89.564">  1  5  2 -1</clus>
<clus scale="   90.560">  7  8 -1 -1</clus>
<clus scale="   34.192">  2  5  1 -1</clus>
</clustering>
</event>
<event>
 9    1  0.4731329E-005  0.1400687E+03  0.7546771E-02  0.1215844E+00
          1   -1    0    0  502    0 -0.00000000000E+00  0.00000000000E+00  0.97115111538E+03  0.97115111538E+03  0.00000000000E+00 0. -1.
         21   -1    0    0  501  502  0.00000000000E+00 -0.00000000000E+00 -0.65887908775E+02  0.65887908775E+02  0.00000000000E+00 0. -1.
        -24    2    1    2    0    0  0.69057340059E+02 -0.95100264815E+02  0.75622595240E+03  0.76935513629E+03  0.78845786546E+02 0.  0.
         23    2    1    2    0    0 -0.52527526966E+02  0.56228424230E+02  0.17962318157E+03  0.21553263031E+03  0.90934320214E+02 0.  0.
         13    1    3    3    0    0  0.85392844211E+01 -0.70593434174E+02  0.29058122248E+03  0.29915514233E+03  0.00000000000E+00 0. -1.
        -14    1    3    3    0    0  0.60518055638E+02 -0.24506830641E+02  0.46564472992E+03  0.47019999395E+03  0.00000000000E+00 0.  1.
        -11    1    4    4    0    0 -0.19070749284E+02 -0.94483591604E+01  0.11668450116E+03  0.11860960240E+03  0.00000000000E+00 0. -1.
         11    1    4    4    0    0 -0.33456777682E+02  0.65676783390E+02  0.62938680403E+02  0.96923027915E+02  0.00000000000E+00 0.  1.
          2    1    1    2  501    0 -0.16529813093E+02  0.38871840585E+02 -0.30585927370E+02  0.52151257553E+02  0.00000000000E+00 0. -1.
<scales pt_clust_5="13000.00000" pt_clust_6="13000.00000" pt_clust_7="13000.00000" pt_clust_8="13000.00000" pt_clust_9="42.24044"></scales>
<clustering>
<clus scale="   42.240">  2  9  1 -1</clus>
<clus scale="   78.846">  5  6 -1 -1</clus>
<clus scale="   90.934">  7  8 -1 -1</clus>
<clus scale="  132.540">  1  5  2 -1</clus>
<clus scale="   42.240">  2  5  1 -1</clus>
</clustering>
</event>
<event>
 9    1  0.4731329E-005  0.6748200E+03  0.7546771E-02  0.1017225E+00
          1   -1    0    0  502    0 -0.00000000000E+00  0.00000000000E+00  0.88086322359E+03  0.88086322359E+03  0.00000000000E+00 0. -1.
         21   -1    0    0  501  502  0.00000000000E+00 -0.00000000000E+00 -0.73536146697E+03  0.73536146697E+03  0.00000000000E+00 0. -1.
         23    2    1    2    0    0 -0.14331699282E+03  0.67109549079E+02  0.18393300898E+03  0.25950535476E+03  0.92022960990E+02 0.  0.
        -24    2    1    2    0    0 -0.52945327873E+03 -0.32256517652E+03  0.69398488305E+02  0.62904862123E+03  0.80727629940E+02 0.  0.
         11    1    4    4    0    0 -0.50798141589E+03 -0.29848517729E+03  0.81077555983E+02  0.59473699232E+03  0.00000000000E+00 0. -1.
        -12    1    4    4    0    0 -0.21471862837E+02 -0.24079999230E+02 -0.11679067678E+02  0.34311628910E+02  0.00000000000E+00 0.  1.
        -11    1    3    3    0    0 -0.12277519015E+03  0.11385058600E+02  0.11628392333E+03  0.16948544982E+03  0.00000000000E+00 0. -1.
         11    1    3    3    0    0 -0.20541802664E+02  0.55724490479E+02  0.67649085650E+02  0.90019904938E+02  0.00000000000E+00 0.  1.
          2    1    1    2  501    0  0.67277027154E+03  0.25545562744E+03 -0.10782974066E+03  0.72767071457E+03  0.00000000000E+00 0. -1.
<scales pt_clust_5="13000.00000" pt_clust_6="13000.00000" pt_clust_7="13000.00000" pt_clust_8="13000.00000" pt_clust_9="669.97389"></scales>
<clustering>
<clus scale="   80.728">  5  6 -1 -1</clus>
<clus scale="   92.023">  7  8 -1 -1</clus>
<clus scale="  183.062">  1  7  2 -1</clus>
<clus scale="  669.974">  2  9  1 -1</clus>
<clus scale="  669.974">  2  5  1 -1</clus>
</clustering>
</event>
<event>
 9    1  0.4731329E-005  0.9550361E+02  0.7546771E-02  0.1295231E+00
          1   -1    0    0  502    0 -0.00000000000E+00  0.00000000000E+00  0.43962254123E+03  0.43962254123E+03  0.00000000000E+00 0. -1.
         21   -1    0    0  501  502  0.00000000000E+00 -0.00000000000E+00 -0.38993736498E+02  0.38993736498E+02  0.00000000000E+00 0.  1.
         23    2    1    2    0    0 -0.48037540069E+01  0.23040377799E+02  0.28788231602E+03  0.30256251474E+03  0.90077257878E+02 0.  0.
        -24    2    1    2    0    0  0.27771928196E+02 -0.48764804738E+02  0.97192130122E+02  0.13822227824E+03  0.80683343188E+02 0.  0.
         11    1    4    4    0    0 -0.23940293810E+02 -0.62993081298E+01  0.66415529518E+01  0.25630629650E+02  0.00000000000E+00 0. -1.
        -12    1    4    4    0    0  0.51712222006E+02 -0.42465496608E+02  0.90550577170E+02  0.11259164859E+03  0.00000000000E+00 0.  1.
        -11    1    3    3    0    0 -0.24828519876E+02 -0.19171715516E+02  0.42788328790E+02  0.53055170867E+02  0.00000000000E+00 0.  1.
         11    1    3    3    0    0  0.20024765869E+02  0.42212093315E+02  0.24509398723E+03  0.24950734387E+03  0.00000000000E+00 0. -1.
          2    1    1    2  501    0 -0.22968174189E+02  0.25724426939E+02  0.15554358591E+02  0.37831484746E+02  0.00000000000E+00 0. -1.
<scales pt_clust_5="13000.00000" pt_clust_6="13000.00000" pt_clust_7="13000.00000" pt_clust_8="13000.00000" pt_clust_9="34.48599"></scales>
<clustering>
<clus scale="   34.486">  2  9  1 -1</clus>
<clus scale="   80.683">  5  6 -1 -1</clus>
<clus scale="   86.700">  2  5  1 -1</clus>
<clus scale="   90.077">  7  8 -1 -1</clus>
<clus scale="   34.486">  2  5  1 -1</clus>
</clustering>
</event>
<event>
 9    1  0.4731329E-005  0.1134934E+03  0.7546771E-02  0.1257098E+00
         21   -1    0    0  501  502  0.00000000000E+00  0.00000000000E+00  0.22954098408E+03  0.22954098408E+03  0.00000000000E+00 0.  1.
          1   -1    0    0  502    0 -0.00000000000E+00 -0.00000000000E+00 -0.22118202467E+03  0.22118202467E+03  0.00000000000E+00 0. -1.
         23    2    1    2    0    0 -0.82517040547E+00  0.73809068237E+02 -0.18212131503E+03  0.21544333566E+03  0.88313068288E+02 0.  0.
        -24    2    1    2    0    0 -0.97049454791E+01 -0.54348790432E+02  0.90497747381E+02  0.13287805461E+03  0.80117152511E+02 0.  0.
         13    1    4    4    0    0  0.33588067847E+02 -0.19786661321E+02  0.21928657942E+02  0.44727355243E+02  0.00000000000E+00 0. -1.
        -14    1    4    4    0    0 -0.43293013326E+02 -0.34562129111E+02  0.68569089439E+02  0.88150699362E+02  0.00000000000E+00 0.  1.
        -11    1    3    3    0    0  0.23894770159E+02  0.63324106470E+02 -0.60139049483E+02  0.90540641559E+02  0.00000000000E+00 0.  1.
         11    1    3    3    0    0 -0.24719940564E+02  0.10484961766E+02 -0.12198226555E+03  0.12490269410E+03  0.00000000000E+00 0. -1.
          2    1    1    2  501    0  0.10530115885E+02 -0.19460277805E+02  0.99982527060E+02  0.10240161849E+03  0.00000000000E+00 0. -1.
<scales pt_clust_5="13000.00000" pt_clust_6="13000.00000" pt_clust_7="13000.00000" pt_clust_8="13000.00000" pt_clust_9="22.12658"></scales>
<clustering>
<clus scale="   22.127">  1  9  2 -1</clus>
<clus scale="   80.117">  5  6 -1 -1</clus>
<clus scale="   88.313">  7  8 -1 -1</clus>
<clus scale="  107.239">  1  5  2 -1</clus>
<clus scale="   22.127">  1  5  2 -1</clus>
</clustering>
</event>
<event>
 9    1  0.4731329E-005  0.2939952E+03  0.7546771E-02  0.1136549E+00
         -2   -1    0    0    0  501 -0.00000000000E+00  0.00000000000E+00  0.29891009425E+04  0.29891009425E+04  0.00000000000E+00 0.  1.
         21   -1    0    0  501  502  0.00000000000E+00 -0.00000000000E+00 -0.49354464447E+02  0.49354464447E+02  0.00000000000E+00 0. -1.
         23    2    1    2    0    0 -0.93295799267E+01  0.23014253483E+02  0.72400038856E+02  0.11272240849E+03  0.82751911300E+02 0.  0.
        -24    2    1    2    0    0 -0.12698738170E+03  0.24003605968E+03  0.12825219256E+04  0.13134530847E+04  0.80953141455E+02 0.  0.
         11    1    4    4    0    0 -0.11311925962E+03  0.24395580512E+03  0.12117121345E+04  0.12411916446E+04  0.00000000000E+00 0. -1.
        -12    1    4    4    0    0 -0.13868122079E+02 -0.39197454436E+01  0.70809791092E+02  0.72261440124E+02  0.00000000000E+00 0.  1.
        -13    1    3    3    0    0 -0.23994669555E+02 -0.27017911810E+01  0.78815648239E+02  0.82431488219E+02  0.00000000000E+00 0.  1.
         13    1    3    3    0    0  0.14665089628E+02  0.25716044664E+02 -0.64156093827E+01  0.30290920269E+02  0.00000000000E+00 0. -1.
         -1    1    1    2    0  502  0.13631696163E+03 -0.26305031316E+03  0.15848245136E+04  0.16122799137E+04  0.00000000000E+00 0.  1.
<scales pt_clust_5="13000.00000" pt_clust_6="13000.00000" pt_clust_7="13000.00000" pt_clust_8="13000.00000" pt_clust_9="282.63022"></scales>
<clustering>
<clus scale="   80.953">  5  6 -1 -1</clus>
<clus scale="   82.752">  7  8 -1 -1</clus>
<clus scale="   86.398">  1  7  2 -1</clus>
<clus scale="  282.630">  2  9  1 -1</clus>
<clus scale="  282.630">  2  5  1 -1</clus>
</clustering>
</event>
<event>
 9    1  0.4731329E-005  0.1299051E+03  0.7546771E-02  0.1230831E+00
         21   -1    0    0  501  502  0.00000000000E+00  0.00000000000E+00  0.55235781867E+02  0.55235781867E+02  0.00000000000E+00 0. -1.
          1   -1    0    0  502    0 -0.00000000000E+00 -0.00000000000E+00 -0.83545715608E+03  0.83545715608E+03  0.00000000000E+00 0. -1.
         23    2    1    2    0    0 -0.88790211107E+02 -0.20244611997E+01 -0.31459138089E+03  0.33936714016E+03  0.91183983559E+02 0.  0.
        -24    2    1    2    0    0  0.98674312738E+02  0.62176618625E+02 -0.81986937099E+02  0.16286991600E+03  0.78754046148E+02 0.  0.
         11    1    4    4    0    0  0.62579316216E+02  0.50380819383E+01 -0.90440706414E+01  0.63429869159E+02  0.00000000000E+00 0. -1.
        -12    1    4    4    0    0  0.36094996522E+02  0.57138536687E+02 -0.72942866458E+02  0.99440046841E+02  0.00000000000E+00 0.  1.
        -11    1    3    3    0    0 -0.80356991968E+02 -0.36793180336E+02 -0.25476423895E+03  0.26965867634E+03  0.00000000000E+00 0. -1.
         11    1    3    3    0    0 -0.84332191392E+01  0.34768719136E+02 -0.59827141943E+02  0.69708463822E+02  0.00000000000E+00 0.  1.
          2    1    1    2  501    0 -0.98841016309E+01 -0.60152157425E+02 -0.38364305621E+03  0.38845588178E+03  0.00000000000E+00 0. -1.
<scales pt_clust_5="13000.00000" pt_clust_6="13000.00000" pt_clust_7="13000.00000" pt_clust_8="13000.00000" pt_clust_9="60.95885"></scales>
<clustering>
<clus scale="   60.959">  1  9  2 -1</clus>
<clus scale="   78.754">  5  6 -1 -1</clus>
<clus scale="   91.184">  7  8 -1 -1</clus>
<clus scale="  121.503">  1  5  2 -1</clus>
<clus scale="   60.959">  1  5  2 -1</clus>
</clustering>
</event>
<event>
 9    1  0.4731329E-005  0.9147159E+02  0.7546771E-02  0.1304877E+00
         -2   -1    0    0    0  501 -0.00000000000E+00  0.00000000000E+00  0.10378748546E+03  0.10378748546E+03  0.00000000000E+00 0.  1.
         21   -1    0    0  501  502  0.00000000000E+00 -0.00000000000E+00 -0.23934099082E+03  0.23934099082E+03  0.00000000000E+00 0.  1.
        -24    2    1    2    0    0 -0.35845695492E+00  0.61871017869E+00 -0.20860572110E+02  0.83550777858E+02  0.80901531001E+02 0.  0.
         23    2    1    2    0    0 -0.98078203272E+00 -0.67753586600E+02 -0.14690865984E+03  0.18510127106E+03  0.89937843986E+02 0.  0.
         11    1    3    3    0    0 -0.66371172274E+01 -0.32079774863E+02 -0.34494781765E+02  0.47571559249E+02  0.00000000000E+00 0. -1.
        -12    1    3    3    0    0  0.62786602725E+01  0.32698485041E+02  0.13634209655E+02  0.35979218609E+02  0.00000000000E+00 0.  1.
        -13    1    4    4    0    0 -0.12499317229E+02 -0.39384414112E+02 -0.70340570974E+01  0.41914710609E+02  0.00000000000E+00 0. -1.
         13    1    4    4    0    0  0.11518535196E+02 -0.28369172488E+02 -0.13987460275E+03  0.14318656045E+03  0.00000000000E+00 0.  1.
         -1    1    1    2    0  502  0.13392389876E+01  0.67134876422E+02  0.32215726595E+02  0.74476427367E+02  0.00000000000E+00 0.  1.
<scales pt_clust_5="13000.00000" pt_clust_6="13000.00000" pt_clust_7="13000.00000" pt_clust_8="13000.00000" pt_clust_9="67.14827"></scales>
<clustering>
<clus scale="   67.148">  2  9  1 -1</clus>
<clus scale="   80.902">  5  6 -1 -1</clus>
<clus scale="   82.603">  1  5  2 -1</clus>
<clus scale="   89.938">  7  8 -1 -1</clus>
<clus scale="   67.148">  2  5  1 -1</clus>
</clustering>
</event>
<event>
 9    1  0.4731329E-005  0.1122755E+03  0.7546771E-02  0.1259388E+00
          1   -1    0    0  502    0 -0.00000000000E+00  0.00000000000E+00  0.60928892419E+03  0.60928892419E+03  0.00000000000E+00 0. -1.
         21   -1    0    0  501  502  0.00000000000E+00 -0.00000000000E+00 -0.37737109370E+02  0.37737109370E+02  0.00000000000E+00 0. -1.
         23    2    1    2    0    0  0.52734323814E+02 -0.24342373115E+02  0.33230586408E+03  0.34937463396E+03  0.90895475761E+02 0.  0.
        -24    2    1    2    0    0 -0.49839979254E+02  0.76504898370E+02  0.18512421324E+03  0.22242860558E+03  0.82864270003E+02 0.  0.
         13    1    4    4    0    0 -0.53911554370E+02  0.25396595571E+02  0.49613480154E+02  0.77543150402E+02  0.00000000000E+00 0. -1.
        -14    1    4    4    0    0  0.40715751159E+01  0.51108302799E+02  0.13551073309E+03  0.14488545517E+03  0.00000000000E+00 0.  1.
        -11    1    3    3    0    0  0.98138185954E+01  0.31973986675E+02  0.15259579465E+03  0.15621819165E+03  0.00000000000E+00 0.  1.
         11    1    3    3    0    0  0.42920505218E+02 -0.56316359790E+02  0.17971006944E+03  0.19315644231E+03  0.00000000000E+00 0. -1.
          2    1    1    2  501    0 -0.28943445592E+01 -0.52162525255E+02  0.54121737496E+02  0.75222794025E+02  0.00000000000E+00 0. -1.
<scales pt_clust_5="13000.00000" pt_clust_6="13000.00000" pt_clust_7="13000.00000" pt_clust_8="13000.00000" pt_clust_9="52.24276"></scales>
<clustering>
<clus scale="   52.243">  2  9  1 -1</clus>
<clus scale="   82.864">  5  6 -1 -1</clus>
<clus scale="   90.895">  7  8 -1 -1</clus>
<clus scale="  105.879">  2  5  1 -1</clus>
<clus scale="   52.243">  2  5  1 -1</clus>
</clustering>
</event>
<event>
 9    1  0.4731329E-005  0.1088429E+03  0.7546771E-02  0.1266841E+00
          3   -1    0    0  502    0 -0.00000000000E+00  0.00000000000E+00  0.64352292270E+03  0.64352292270E+03  0.00000000000E+00 0. -1.
         21   -1    0    0  501  502  0.00000000000E+00 -0.00000000000E+00 -0.46928406912E+02  0.46928406912E+02  0.00000000000E+00 0. -1.
        -24    2    1    2    0    0 -0.59946593539E+02 -0.59643235778E+01  0.45209135753E+03  0.46313954043E+03  0.80513794621E+02 0.  0.
         23    2    1    2    0    0  0.56289293188E+02  0.26559566525E+02  0.16479696497E+03  0.19816769084E+03  0.90766177220E+02 0.  0.
         13    1    3    3    0    0  0.45406127205E+01  0.27290246408E+02  0.14235831151E+03  0.14502159690E+03  0.00000000000E+00 0. -1.
        -14    1    3    3    0    0 -0.64487206260E+02 -0.33254569986E+02  0.30973304602E+03  0.31811794353E+03  0.00000000000E+00 0.  1.
        -13    1    4    4    0    0  0.63593063687E+02 -0.19732206160E+01  0.53773678233E+02  0.83304140470E+02  0.00000000000E+00 0.  1.
         13    1    4    4    0    0 -0.73037704984E+01  0.28532787141E+02  0.11102328673E+03  0.11486355037E+03  0.00000000000E+00 0. -1.
          4    1    1    2  501    0  0.36573003511E+01 -0.20595242947E+02 -0.20293806707E+02  0.29144098349E+02  0.00000000000E+00 0. -1.
<scales pt_clust_5="13000.00000" pt_clust_6="13000.00000" pt_clust_7="13000.00000" pt_clust_8="13000.00000" pt_clust_9="20.91745"></scales>
<clustering>
<clus scale="   20.917">  2  9  1 -1</clus>
<clus scale="   80.514">  5  6 -1 -1</clus>
<clus scale="   90.766">  7  8 -1 -1</clus>
<clus scale="  100.453">  1  5  2 -1</clus>
<clus scale="   20.917">  2  5  1 -1</clus>
</clustering>
</event>
<event>
 9    1  0.4731329E-005  0.1562201E+03  0.7546771E-02  0.1193892E+00
         21   -1    0    0  501  502  0.00000000000E+00  0.00000000000E+00  0.67443126645E+02  0.67443126645E+02  0.00000000000E+00 0.  1.
          1   -1    0    0  502    0 -0.00000000000E+00 -0.00000000000E+00 -0.55219909962E+03  0.55219909962E+03  0.00000000000E+00 0. -1.
         23    2    1    2    0    0  0.52585476381E+02  0.11163217191E+03 -0.31055463447E+03  0.34670938098E+03  0.92391773087E+02 0.  0.
        -24    2    1    2    0    0 -0.97615870794E+02 -0.96126974922E+02 -0.13393497981E+03  0.21056677120E+03  0.87352920834E+02 0.  0.
         11    1    4    4    0    0 -0.80183218563E+02 -0.35356102565E+02 -0.11497400014E+03  0.14456286949E+03  0.00000000000E+00 0. -1.
        -12    1    4    4    0    0 -0.17432652231E+02 -0.60770872358E+02 -0.18960979675E+02  0.66003901712E+02  0.00000000000E+00 0.  1.
        -11    1    3    3    0    0 -0.53929292699E+01  0.87670732238E+02 -0.21663234765E+03  0.23376230455E+03  0.00000000000E+00 0.  1.
         11    1    3    3    0    0  0.57978405651E+02  0.23961439672E+02 -0.93922286820E+02  0.11294707643E+03  0.00000000000E+00 0. -1.
          2    1    1    2  501    0  0.45030394413E+02 -0.15505196987E+02 -0.40266358689E+02  0.62366074084E+02  0.00000000000E+00 0. -1.
<scales pt_clust_5="13000.00000" pt_clust_6="13000.00000" pt_clust_7="13000.00000" pt_clust_8="13000.00000" pt_clust_9="47.62507"></scales>
<clustering>
<clus scale="   47.625">  1  9  2 -1</clus>
<clus scale="   87.353">  5  6 -1 -1</clus>
<clus scale="   92.392">  7  8 -1 -1</clus>
<clus scale="  153.294">  1  5  2 -1</clus>
<clus scale="   47.625">  1  5  2 -1</clus>
</clustering>
</event>
<event>
 9    1  0.4731329E-005  0.1029828E+03  0.7546771E-02  0.1279373E+00
          3   -1    0    0  502    0 -0.00000000000E+00  0.00000000000E+00  0.25090274412E+03  0.25090274412E+03  0.00000000000E+00 0. -1.
         21   -1    0    0  501  502  0.00000000000E+00 -0.00000000000E+00 -0.11385665583E+03  0.11385665583E+03  0.00000000000E+00 0.  1.
         23    2    1    2    0    0 -0.27123970293E+02  0.35254585261E+02  0.18692056686E+03  0.21240331312E+03  0.90538795893E+02 0.  0.
        -24    2    1    2    0    0  0.33636951849E+02 -0.66592896695E+02 -0.24573907087E+02  0.11155623866E+03  0.79214007950E+02 0.  0.
         13    1    4    4    0    0  0.28971717640E+02  0.47367836418E+01  0.11449539818E+02  0.31510149228E+02  0.00000000000E+00 0. -1.
        -14    1    4    4    0    0  0.46652342085E+01 -0.71329680337E+02 -0.36023446905E+02  0.80046089437E+02  0.00000000000E+00 0.  1.
        -11    1    3    3    0    0 -0.13900531515E+02  0.65614725918E+02  0.13637867223E+03  0.15197914091E+03  0.00000000000E+00 0. -1.
         11    1    3    3    0    0 -0.13223438778E+02 -0.30360140657E+02  0.50541894638E+02  0.60424172211E+02  0.00000000000E+00 0.  1.
          4    1    1    2  501    0 -0.65129815561E+01  0.31338311434E+02 -0.25300571486E+02  0.40799848159E+02  0.00000000000E+00 0. -1.
<scales pt_clust_5="13000.00000" pt_clust_6="13000.00000" pt_clust_7="13000.00000" pt_clust_8="13000.00000" pt_clust_9="32.00795"></scales>
<clustering>
<clus scale="   32.008">  2  9  1 -1</clus>
<clus scale="   79.214">  5  6 -1 -1</clus>
<clus scale="   90.539">  7  8 -1 -1</clus>
<clus scale="   93.183">  2  5  1 -1</clus>
<clus scale="   32.008">  2  5  1 -1</clus>
</clustering>
</event>
<event>
 9    1  0.4731329E-005  0.1320105E+03  0.7546771E-02  0.1229159E+00
         21   -1    0    0  501  502  0.00000000000E+00  0.00000000000E+00  0.47139141902E+03  0.47139141902E+03  0.00000000000E+00 0.  1.
         -4   -1    0    0    0  501 -0.00000000000E+00 -0.00000000000E+00 -0.13679520585E+03  0.13679520585E+03  0.00000000000E+00 0.  1.
         23    2    1    2    0    0  0.64108354706E+02 -0.38593553837E+02 -0.10371219644E+01  0.12258475126E+03  0.97090689971E+02 0.  0.
        -24    2    1    2    0    0 -0.24096883534E+02  0.12900015407E+03  0.20029747845E+02  0.15487555851E+03  0.79771851418E+02 0.  0.
         13    1    4    4    0    0  0.29429438784E+02  0.50188289495E+02  0.10623284878E+02  0.59142289871E+02  0.00000000000E+00 0. -1.
        -14    1    4    4    0    0 -0.53526322318E+02  0.78811864579E+02  0.94064629671E+01  0.95733268641E+02  0.00000000000E+00 0.  1.
        -11    1    3    3    0    0  0.28274674757E+02 -0.40177752334E+02 -0.44462203349E+02  0.66261576663E+02  0.00000000000E+00 0.  1.
         11    1    3    3    0    0  0.35833679949E+02  0.15841984971E+01  0.43425081385E+02  0.56323174598E+02  0.00000000000E+00 0. -1.
         -3    1    1    2    0  502 -0.40011471172E+02 -0.90406600237E+02  0.31560358728E+03  0.33072631510E+03  0.00000000000E+00 0.  1.
<scales pt_clust_5="13000.00000" pt_clust_6="13000.00000" pt_clust_7="13000.00000" pt_clust_8="13000.00000" pt_clust_9="98.86491"></scales>
<clustering>
<clus scale="   79.772">  5  6 -1 -1</clus>
<clus scale="   97.091">  7  8 -1 -1</clus>
<clus scale="   98.865">  1  9  2 -1</clus>
<clus scale="  119.849">  1  5  2 -1</clus>
<clus scale="   98.865">  1  5  2 -1</clus>
</clustering>
</event>
<event>
 9    1  0.4731329E-005  0.9447395E+02  0.7546771E-02  0.1297968E+00
          3   -1    0    0  502    0 -0.00000000000E+00  0.00000000000E+00  0.20885698743E+03  0.20885698743E+03  0.00000000000E+00 0. -1.
         21   -1    0    0  501  502  0.00000000000E+00 -0.00000000000E+00 -0.13353376306E+03  0.13353376306E+03  0.00000000000E+00 0. -1.
        -24    2    1    2    0    0  0.10366191873E+02  0.21513080414E+02  0.13827092862E+03  0.16282675362E+03  0.82604064248E+02 0.  0.
         23    2    1    2    0    0 -0.21826260929E+02  0.22029123732E+01  0.16200775502E+02  0.96147791350E+02  0.92199209138E+02 0.  0.
         13    1    3    3    0    0  0.40418683256E+02 -0.10648641082E+02  0.72490419063E+02  0.83677502168E+02  0.00000000000E+00 0. -1.
        -14    1    3    3    0    0 -0.30052491383E+02  0.32161721496E+02  0.65780509552E+02  0.79149251449E+02  0.00000000000E+00 0.  1.
        -13    1    4    4    0    0  0.25505774463E+02  0.26495849330E+02 -0.80995536370E+01  0.37658695302E+02  0.00000000000E+00 0. -1.
         13    1    4    4    0    0 -0.47332035392E+02 -0.24292936957E+02  0.24300329139E+02  0.58489096049E+02  0.00000000000E+00 0.  1.
          4    1    1    2  501    0  0.11460069056E+02 -0.23715992787E+02 -0.79148479747E+02  0.83416205517E+02  0.00000000000E+00 0. -1.
<scales pt_clust_5="13000.00000" pt_clust_6="13000.00000" pt_clust_7="13000.00000" pt_clust_8="13000.00000" pt_clust_9="26.33973"></scales>
<clustering>
<clus scale="   26.340">  2  9  1 -1</clus>
<clus scale="   82.604">  5  6 -1 -1</clus>
<clus scale="   85.136">  1  5  2 -1</clus>
<clus scale="   92.199">  7  8 -1 -1</clus>
<clus scale="   26.340">  2  5  1 -1</clus>
</clustering>
</event>
<event>
 9    1  0.4731329E-005  0.1061978E+03  0.7546771E-02  0.1272686E+00
          3   -1    0    0  502    0 -0.00000000000E+00  0.00000000000E+00  0.12407743969E+03  0.12407743969E+03  0.00000000000E+00 0. -1.
         21   -1    0    0  501  502  0.00000000000E+00 -0.00000000000E+00 -0.52492974805E+03  0.52492974805E+03  0.00000000000E+00 0. -1.
         23    2    1    2    0    0 -0.45587659199E+02  0.62229977941E+01  0.69096331185E+02  0.12356851969E+03  0.91530954880E+02 0.  0.
        -24    2    1    2    0    0  0.99879318234E+02 -0.26666122493E+02 -0.14476719150E+03  0.19512294069E+03  0.80177689861E+02 0.  0.
         13    1    4    4    0    0  0.40050499388E+02 -0.45114590794E+02 -0.37833737230E+02  0.71209272406E+02  0.00000000000E+00 0. -1.
        -14    1    4    4    0    0  0.59828818846E+02  0.18448468301E+02 -0.10693345427E+03  0.12391366829E+03  0.00000000000E+00 0.  1.
        -13    1    3    3    0    0  0.16023827299E+02  0.25491646961E+02  0.15710622037E+01  0.30150544647E+02  0.00000000000E+00 0.  1.
         13    1    3    3    0    0 -0.61611486499E+02 -0.19268649167E+02  0.67525268981E+02  0.93417975039E+02  0.00000000000E+00 0. -1.
          4    1    1    2  501    0 -0.54291659034E+02  0.20443124699E+02 -0.32518144805E+03  0.33031572736E+03  0.00000000000E+00 0. -1.
<scales pt_clust_5="13000.00000" pt_clust_6="13000.00000" pt_clust_7="13000.00000" pt_clust_8="13000.00000" pt_clust_9="58.01298"></scales>
<clustering>
<clus scale="   58.013">  2  9  1 -1</clus>
<clus scale="   80.178">  5  6 -1 -1</clus>
<clus scale="   91.531">  7  8 -1 -1</clus>
<clus scale="   96.584">  2  5  1 -1</clus>
<clus scale="   58.013">  2  5  1 -1</clus>
</clustering>
</event>
<event>
 9    1  0.4731329E-005  0.9217212E+02  0.7546771E-02  0.1302568E+00
          1   -1    0    0  502    0 -0.00000000000E+00  0.00000000000E+00  0.12937344701E+03  0.12937344701E+03  0.00000000000E+00 0. -1.
         21   -1    0    0  501  502  0.00000000000E+00 -0.00000000000E+00 -0.88356996879E+02  0.88356996879E+02  0.00000000000E+00 0. -1.
         23    2    1    2    0    0  0.14930656769E+02  0.31619123364E+02  0.33197026625E+02  0.10122645867E+03  0.89005954203E+02 0.  0.
        -24    2    1    2    0    0 -0.17608526366E+02 -0.40297869699E-01 -0.38446579072E+01  0.82733524754E+02  0.80746472982E+02 0.  0.
         11    1    4    4    0    0 -0.14672103164E+02  0.39891834394E+02 -0.40103378969E+01  0.42693229822E+02  0.00000000000E+00 0. -1.
        -12    1    4    4    0    0 -0.29364232018E+01 -0.39932132264E+02  0.16567998971E+00  0.40040294932E+02  0.00000000000E+00 0.  1.
        -11    1    3    3    0    0  0.44543127401E+02  0.25160683036E+02  0.45549374741E+02  0.68497413884E+02  0.00000000000E+00 0.  1.
         11    1    3    3    0    0 -0.29612470632E+02  0.64584403275E+01 -0.12352348115E+02  0.32729044782E+02  0.00000000000E+00 0. -1.
          2    1    1    2  501    0  0.26778695970E+01 -0.31578825494E+02  0.11664081415E+02  0.33770460471E+02  0.00000000000E+00 0. -1.
<scales pt_clust_5="13000.00000" pt_clust_6="13000.00000" pt_clust_7="13000.00000" pt_clust_8="13000.00000" pt_clust_9="31.69218"></scales>
<clustering>
<clus scale="   31.692">  2  9  1 -1</clus>
<clus scale="   80.746">  5  6 -1 -1</clus>
<clus scale="   84.224">  2  5  1 -1</clus>
<clus scale="   89.006">  7  8 -1 -1</clus>
<clus scale="   31.692">  2  5  1 -1</clus>
</clustering>
</event>
<event>
 9    1  0.4731329E-005  0.9472569E+02  0.7546771E-02  0.1299082E+00
         21   -1    0    0  501  502  0.00000000000E+00  0.00000000000E+00  0.61993793435E+02  0.61993793435E+02  0.00000000000E+00 0.  1.
          1   -1    0    0  502    0 -0.00000000000E+00 -0.00000000000E+00 -0.30572022397E+03  0.30572022397E+03  0.00000000000E+00 0. -1.
        -24    2    1    2    0    0  0.23465874242E+01  0.26370861847E+02 -0.11443244906E+03  0.14089292832E+03  0.77814542506E+02 0.  0.
         23    2    1    2    0    0  0.57370690794E+02 -0.21644984419E+02 -0.34339610427E+02  0.11454990037E+03  0.90457555335E+02 0.  0.
         13    1    3    3    0    0 -0.19293759258E+02  0.47892126409E+02 -0.74099213229E+02  0.90313887744E+02  0.00000000000E+00 0. -1.
        -14    1    3    3    0    0  0.21640346682E+02 -0.21521264562E+02 -0.40333235827E+02  0.50579040572E+02  0.00000000000E+00 0.  1.
        -11    1    4    4    0    0 -0.17183741720E+02  0.13266781410E+02  0.64883151262E+01  0.22658038345E+02  0.00000000000E+00 0.  1.
         11    1    4    4    0    0  0.74554432514E+02 -0.34911765830E+02 -0.40827925553E+02  0.91891862022E+02  0.00000000000E+00 0. -1.
          2    1    1    2  501    0 -0.59717278218E+02 -0.47258774271E+01 -0.94954371049E+02  0.11227118872E+03  0.00000000000E+00 0. -1.
<scales pt_clust_5="13000.00000" pt_clust_6="13000.00000" pt_clust_7="13000.00000" pt_clust_8="13000.00000" pt_clust_9="59.90401"></scales>
<clustering>
<clus scale="   59.904">  1  9  2 -1</clus>
<clus scale="   77.815">  5  6 -1 -1</clus>
<clus scale="   82.737">  2  5  1 -1</clus>
<clus scale="   90.458">  7  8 -1 -1</clus>
<clus scale="   59.904">  1  5  2 -1</clus>
</clustering>
</event>
<event>
 9    1  0.4731329E-005  0.9229849E+02  0.7546771E-02  0.1302646E+00
         21   -1    0    0  501  502  0.00000000000E+00  0.00000000000E+00  0.54926969351E+02  0.54926969351E+02  0.00000000000E+00 0.  1.
          3   -1    0    0  502    0 -0.00000000000E+00 -0.00000000000E+00 -0.31279109339E+03  0.31279109339E+03  0.00000000000E+00 0. -1.
         23    2    1    2    0    0  0.47638316098E+01 -0.73152436193E+01 -0.21002428203E+03  0.22895389172E+03  0.90738517785E+02 0.  0.
        -24    2    1    2    0    0 -0.34027172837E+02  0.23541753297E+02 -0.51118553201E+02  0.10514285780E+03  0.82035671662E+02 0.  0.
         13    1    4    4    0    0 -0.81142002292E+00 -0.25781551043E+02 -0.35099180287E+02  0.43557998502E+02  0.00000000000E+00 0. -1.
        -14    1    4    4    0    0 -0.33215752814E+02  0.49323304340E+02 -0.16019372914E+02  0.61584859296E+02  0.00000000000E+00 0.  1.
        -11    1    3    3    0    0  0.29149734328E+02  0.30887664823E+02 -0.71049774746E+02  0.82775753340E+02  0.00000000000E+00 0.  1.
         11    1    3    3    0    0 -0.24385902718E+02 -0.38202908442E+02 -0.13897450728E+03  0.14617813838E+03  0.00000000000E+00 0. -1.
          4    1    1    2  501    0  0.29263341227E+02 -0.16226509678E+02  0.32787111885E+01  0.33621313228E+02  0.00000000000E+00 0. -1.
<scales pt_clust_5="13000.00000" pt_clust_6="13000.00000" pt_clust_7="13000.00000" pt_clust_8="13000.00000" pt_clust_9="33.46106"></scales>
<clustering>
<clus scale="   33.461">  1  9  2 -1</clus>
<clus scale="   82.036">  5  6 -1 -1</clus>
<clus scale="   83.758">  1  5  2 -1</clus>
<clus scale="   90.739">  7  8 -1 -1</clus>
<clus scale="   33.461">  1  5  2 -1</clus>
</clustering>
</event>
<event>
 9    1  0.4731329E-005  0.9947451E+02  0.7546771E-02  0.1285682E+00
         -4   -1    0    0    0  501 -0.00000000000E+00  0.00000000000E+00  0.75535670282E+02  0.75535670282E+02  0.00000000000E+00 0.  1.
         21   -1    0    0  501  502  0.00000000000E+00 -0.00000000000E+00 -0.19820131967E+03  0.19820131967E+03  0.00000000000E+00 0. -1.
        -24    2    1    2    0    0  0.23519217907E+02  0.47905611686E+02 -0.53387640245E+02  0.11147052497E+03  0.82020342374E+02 0.  0.
         23    2    1    2    0    0 -0.32431290052E+02 -0.95762805286E+01 -0.75170500826E+02  0.12247596217E+03  0.90588428570E+02 0.  0.
         13    1    3    3    0    0  0.40520601316E+02  0.46787935618E+02 -0.65841109626E+02  0.90366375202E+02  0.00000000000E+00 0. -1.
        -14    1    3    3    0    0 -0.17001383409E+02  0.11176760686E+01  0.12453469381E+02  0.21104149764E+02  0.00000000000E+00 0.  1.
        -11    1    4    4    0    0 -0.47594995097E+02 -0.31381586134E+02 -0.18576711998E+02  0.59959834349E+02  0.00000000000E+00 0. -1.
         11    1    4    4    0    0  0.15163705045E+02  0.21805305605E+02 -0.56593788828E+02  0.62516127816E+02  0.00000000000E+00 0.  1.
         -3    1    1    2    0  502  0.89120721451E+01 -0.38329331158E+02  0.58924916789E+01  0.39790502825E+02  0.00000000000E+00 0.  1.
<scales pt_clust_5="13000.00000" pt_clust_6="13000.00000" pt_clust_7="13000.00000" pt_clust_8="13000.00000" pt_clust_9="39.35180"></scales>
<clustering>
<clus scale="   39.352">  2  9  1 -1</clus>
<clus scale="   82.020">  5  6 -1 -1</clus>
<clus scale="   90.588">  7  8 -1 -1</clus>
<clus scale="   91.740">  1  5  2 -1</clus>
<clus scale="   39.352">  2  5  1 -1</clus>
</clustering>
</event>
<event>
 9    1  0.4731329E-005  0.1062559E+03  0.7546771E-02  0.1270892E+00
         21   -1    0    0  501  502  0.00000000000E+00  0.00000000000E+00  0.42913243719E+02  0.42913243719E+02  0.00000000000E+00 0.  1.
          1   -1    0    0  502    0 -0.00000000000E+00 -0.00000000000E+00 -0.41891153671E+03  0.41891153671E+03  0.00000000000E+00 0. -1.
         23    2    1    2    0    0 -0.16392544370E+02 -0.60073634376E+02 -0.15322207609E+03  0.18958371404E+03  0.92668349340E+02 0.  0.
        -24    2    1    2    0    0  0.14837296349E+02  0.35799606406E+02 -0.68342825065E+02  0.11590386754E+03  0.85212719656E+02 0.  0.
         11    1    4    4    0    0  0.15836862184E+02  0.52688470157E+02 -0.78732129837E+02  0.96050139822E+02  0.00000000000E+00 0. -1.
        -12    1    4    4    0    0 -0.99956583473E+00 -0.16888863751E+02  0.10389304772E+02  0.19853727718E+02  0.00000000000E+00 0.  1.
        -13    1    3    3    0    0 -0.48477786514E+02 -0.77182234472E+01 -0.81754813540E+02  0.95359930240E+02  0.00000000000E+00 0.  1.
         13    1    3    3    0    0  0.32085242144E+02 -0.52355410929E+02 -0.71467262550E+02  0.94223783798E+02  0.00000000000E+00 0. -1.
          2    1    1    2  501    0  0.15552480212E+01  0.24274027970E+02 -0.15443339184E+03  0.15633719885E+03  0.00000000000E+00 0. -1.
<scales pt_clust_5="13000.00000" pt_clust_6="13000.00000" pt_clust_7="13000.00000" pt_clust_8="13000.00000" pt_clust_9="24.32381"></scales>
<clustering>
<clus scale="   24.324">  1  9  2 -1</clus>
<clus scale="   85.213">  5  6 -1 -1</clus>
<clus scale="   92.668">  7  8 -1 -1</clus>
<clus scale="   99.820">  1  5  2 -1</clus>
<clus scale="   24.324">  1  5  2 -1</clus>
</clustering>
</event>
<event>
 9    1  0.4731329E-005  0.1687758E+03  0.7546771E-02  0.1180642E+00
         21   -1    0    0  501  502  0.00000000000E+00  0.00000000000E+00  0.52033271711E+03  0.52033271711E+03  0.00000000000E+00 0. -1.
          1   -1    0    0  502    0 -0.00000000000E+00 -0.00000000000E+00 -0.28623591260E+03  0.28623591260E+03  0.00000000000E+00 0. -1.
         23    2    1    2    0    0  0.94097533772E+02 -0.11642837647E+03 -0.23358775800E+03  0.29222140478E+03  0.91761626040E+02 0.  0.
        -24    2    1    2    0    0 -0.44855295201E+02  0.80384938335E+02  0.16483018977E+03  0.20540597067E+03  0.80925184646E+02 0.  0.
         13    1    4    4    0    0 -0.26762871364E+02 -0.10631721041E+02  0.28712740656E+02  0.40665787241E+02  0.00000000000E+00 0. -1.
        -14    1    4    4    0    0 -0.18092423838E+02  0.91016659375E+02  0.13611744911E+03  0.16474018343E+03  0.00000000000E+00 0.  1.
        -13    1    3    3    0    0 -0.16307830746E+02 -0.29468578389E+02 -0.31835884866E+02  0.46345075478E+02  0.00000000000E+00 0.  1.
         13    1    3    3    0    0  0.11040536452E+03 -0.86959798079E+02 -0.20175187314E+03  0.24587632930E+03  0.00000000000E+00 0. -1.
          2    1    1    2  501    0 -0.49242238570E+02  0.36043438134E+02  0.30285437274E+03  0.30894125426E+03  0.00000000000E+00 0. -1.
<scales pt_clust_5="13000.00000" pt_clust_6="13000.00000" pt_clust_7="13000.00000" pt_clust_8="13000.00000" pt_clust_9="61.02399"></scales>
<clustering>
<clus scale="   61.024">  1  9  2 -1</clus>
<clus scale="   80.925">  5  6 -1 -1</clus>
<clus scale="   91.762">  7  8 -1 -1</clus>
<clus scale="  163.138">  1  5  2 -1</clus>
<clus scale="   61.024">  1  5  2 -1</clus>
</clustering>
</event>
<event>
 9    1  0.4731329E-005  0.9375098E+02  0.7546771E-02  0.1304542E+00
         21   -1    0    0  501  502  0.00000000000E+00  0.00000000000E+00  0.10919011356E+03  0.10919011356E+03  0.00000000000E+00 0. -1.
          1   -1    0    0  502    0 -0.00000000000E+00 -0.00000000000E+00 -0.11573537243E+03  0.11573537243E+03  0.00000000000E+00 0. -1.
        -24    2    1    2    0    0  0.22624600275E+02  0.21246550752E+02 -0.50085093553E+02  0.92894515195E+02  0.71816334497E+02 0.  0.
         23    2    1    2    0    0  0.57890869534E+01 -0.30729198797E+02  0.32624260290E+02  0.10014981648E+03  0.89374751440E+02 0.  0.
         13    1    3    3    0    0  0.17986775807E+02  0.47823695083E+02 -0.35595704378E+02  0.62271053352E+02  0.00000000000E+00 0. -1.
        -14    1    3    3    0    0  0.46378244676E+01 -0.26577144331E+02 -0.14489389174E+02  0.30623461843E+02  0.00000000000E+00 0.  1.
        -13    1    4    4    0    0 -0.63873695640E+01  0.31003734531E+02  0.13208227375E+02  0.34299960863E+02  0.00000000000E+00 0.  1.
         13    1    4    4    0    0  0.12176456517E+02 -0.61732933328E+02  0.19416032915E+02  0.65849855617E+02  0.00000000000E+00 0. -1.
          2    1    1    2  501    0 -0.28413687228E+02  0.94826480457E+01  0.10915574395E+02  0.31881154312E+02  0.00000000000E+00 0. -1.
<scales pt_clust_5="13000.00000" pt_clust_6="13000.00000" pt_clust_7="13000.00000" pt_clust_8="13000.00000" pt_clust_9="29.95427"></scales>
<clustering>
<clus scale="   29.954">  1  9  2 -1</clus>
<clus scale="   71.816">  5  6 -1 -1</clus>
<clus scale="   77.194">  2  5  1 -1</clus>
<clus scale="   89.375">  7  8 -1 -1</clus>
<clus scale="   29.954">  1  5  2 -1</clus>
</clustering>
</event>
<event>
 9    1  0.4731329E-005  0.1040747E+03  0.7546771E-02  0.1282091E+00
          1   -1    0    0  502    0 -0.00000000000E+00  0.00000000000E+00  0.15420921411E+03  0.15420921411E+03  0.00000000000E+00 0. -1.
         21   -1    0    0  501  502  0.00000000000E+00 -0.00000000000E+00 -0.11556023251E+03  0.11556023251E+03  0.00000000000E+00 0. -1.
         23    2    1    2    0    0  0.14373454139E+02 -0.17052262440E+02  0.48585725008E+02  0.11185325970E+03  0.98250715989E+02 0.  0.
        -24    2    1    2    0    0 -0.15952585003E+02  0.61915011360E+02 -0.34172397043E+02  0.10690122047E+03  0.78563125056E+02 0.  0.
         11    1    4    4    0    0 -0.98871333995E+01  0.71949922717E+02 -0.49287454425E+02  0.87771293425E+02  0.00000000000E+00 0. -1.
        -12    1    4    4    0    0 -0.60654516033E+01 -0.10034911357E+02  0.15115057382E+02  0.19129927046E+02  0.00000000000E+00 0.  1.
        -13    1    3    3    0    0  0.49189251948E+02 -0.11352242348E+02  0.56427013263E+02  0.75713035465E+02  0.00000000000E+00 0.  1.
         13    1    3    3    0    0 -0.34815797810E+02 -0.57000200922E+01 -0.78412882545E+01  0.36140224234E+02  0.00000000000E+00 0. -1.
          2    1    1    2  501    0  0.15791308639E+01 -0.44862748919E+02  0.24235653640E+02  0.51014966453E+02  0.00000000000E+00 0. -1.
<scales pt_clust_5="13000.00000" pt_clust_6="13000.00000" pt_clust_7="13000.00000" pt_clust_8="13000.00000" pt_clust_9="44.89055"></scales>
<clustering>
<clus scale="   44.891">  2  9  1 -1</clus>
<clus scale="   78.563">  5  6 -1 -1</clus>
<clus scale="   85.735">  2  5  1 -1</clus>
<clus scale="   98.251">  7  8 -1 -1</clus>
<clus scale="   44.891">  2  5  1 -1</clus>
</clustering>
</event>
<event>
 9    1  0.4731329E-005  0.1096782E+03  0.7546771E-02  0.1265426E+00
          1   -1    0    0  502    0 -0.00000000000E+00  0.00000000000E+00  0.21531606926E+03  0.21531606926E+03  0.00000000000E+00 0. -1.
         21   -1    0    0  501  502  0.00000000000E+00 -0.00000000000E+00 -0.79307726596E+02  0.79307726596E+02  0.00000000000E+00 0.  1.
         23    2    1    2    0    0 -0.72389810044E+02 -0.30540355155E+02  0.85239335533E+02  0.14751204911E+03  0.91219857597E+02 0.  0.
        -24    2    1    2    0    0  0.32423029054E+02  0.21629934945E+02  0.11102614053E+02  0.90101555455E+02  0.80473072253E+02 0.  0.
         13    1    4    4    0    0 -0.12354514822E+02 -0.18108760914E+02  0.19879889083E+02  0.29593432520E+02  0.00000000000E+00 0. -1.
        -14    1    4    4    0    0  0.44777543876E+02  0.39738695859E+02 -0.87772750306E+01  0.60508122935E+02  0.00000000000E+00 0.  1.
        -13    1    3    3    0    0 -0.21075596829E+02 -0.30261189095E+02 -0.10969206078E+02  0.38473937011E+02  0.00000000000E+00 0.  1.
         13    1    3    3    0    0 -0.51314213216E+02 -0.27916605937E+00  0.96208541611E+02  0.10903811210E+03  0.00000000000E+00 0. -1.
          2    1    1    2  501    0  0.39966780990E+02  0.89104202097E+01  0.39666393080E+02  0.57010191291E+02  0.00000000000E+00 0. -1.
<scales pt_clust_5="13000.00000" pt_clust_6="13000.00000" pt_clust_7="13000.00000" pt_clust_8="13000.00000" pt_clust_9="40.94803"></scales>
<clustering>
<clus scale="   40.948">  2  9  1 -1</clus>
<clus scale="   80.473">  5  6 -1 -1</clus>
<clus scale="   91.220">  7  8 -1 -1</clus>
<clus scale="  100.917">  2  5  1 -1</clus>
<clus scale="   40.948">  2  5  1 -1</clus>
</clustering>
</event>
<event>
 9    1  0.4731329E-005  0.2580317E+03  0.7546771E-02  0.1144932E+00
         -4   -1    0    0    0  501 -0.00000000000E+00  0.00000000000E+00  0.12461410577E+04  0.12461410577E+04  0.00000000000E+00 0.  1.
         21   -1    0    0  501  502  0.00000000000E+00 -0.00000000000E+00 -0.13316244977E+03  0.13316244977E+03  0.00000000000E+00 0.  1.
        -24    2    1    2    0    0 -0.56656339843E+02 -0.34990258505E+02  0.47662821206E+03  0.48793334609E+03  0.80437793704E+02 0.  0.
         23    2    1    2    0    0 -0.22805716029E+03  0.32096632572E+02  0.69787709452E+02  0.25728544476E+03  0.91023148209E+02 0.  0.
         13    1    3    3    0    0 -0.18477235415E+02  0.21871264338E+02  0.70865010081E+02  0.76430426442E+02  0.00000000000E+00 0. -1.
        -14    1    3    3    0    0 -0.38179104429E+02 -0.56861522843E+02  0.40576320198E+03  0.41150291965E+03  0.00000000000E+00 0.  1.
        -13    1    4    4    0    0 -0.12680452920E+03 -0.27798492631E+02  0.31676042792E+02  0.13362453557E+03  0.00000000000E+00 0.  1.
         13    1    4    4    0    0 -0.10125263109E+03  0.59895125203E+02  0.38111666660E+02  0.12366090919E+03  0.00000000000E+00 0. -1.
         -3    1    1    2    0  502  0.28471350013E+03  0.28936259338E+01  0.56656268643E+03  0.63408471665E+03  0.00000000000E+00 0.  1.
<scales pt_clust_5="13000.00000" pt_clust_6="13000.00000" pt_clust_7="13000.00000" pt_clust_8="13000.00000" pt_clust_9="241.44401"></scales>
<clustering>
<clus scale="   80.438">  5  6 -1 -1</clus>
<clus scale="   91.023">  7  8 -1 -1</clus>
<clus scale="  104.425">  1  5  2 -1</clus>
<clus scale="  241.444">  2  9  1 -1</clus>
<clus scale="  241.444">  2  5  1 -1</clus>
</clustering>
</event>
<event>
 9    1  0.4731329E-005  0.2443522E+03  0.7546771E-02  0.1117675E+00
         21   -1    0    0  501  502  0.00000000000E+00  0.00000000000E+00  0.87721352572E+03  0.87721352572E+03  0.00000000000E+00 0.  1.
         -2   -1    0    0    0  501 -0.00000000000E+00 -0.00000000000E+00 -0.24853957147E+03  0.24853957147E+03  0.00000000000E+00 0.  1.
         23    2    1    2    0    0  0.11561009666E+03  0.21695873153E+03 -0.77556682266E+02  0.26644657390E+03  0.67394006719E+02 0.  0.
        -24    2    1    2    0    0 -0.19520821425E+03 -0.10645514598E+03  0.13649868435E+03  0.27352379902E+03  0.82124495624E+02 0.  0.
         13    1    4    4    0    0 -0.84591861277E+02 -0.22055618429E+02  0.93250547715E+02  0.12781978700E+03  0.00000000000E+00 0. -1.
        -14    1    4    4    0    0 -0.11061635298E+03 -0.84399527551E+02  0.43248136640E+02  0.14570401202E+03  0.00000000000E+00 0.  1.
        -13    1    3    3    0    0  0.88694404292E+02  0.15482240152E+03 -0.23843074819E+02  0.18001434827E+03  0.00000000000E+00 0.  1.
         13    1    3    3    0    0  0.26915692369E+02  0.62136330011E+02 -0.53713607447E+02  0.86432225633E+02  0.00000000000E+00 0. -1.
         -1    1    1    2    0  502  0.79598117591E+02 -0.11050358555E+03  0.56973195215E+03  0.58578272427E+03  0.00000000000E+00 0.  1.
<scales pt_clust_5="13000.00000" pt_clust_6="13000.00000" pt_clust_7="13000.00000" pt_clust_8="13000.00000" pt_clust_9="136.18701"></scales>
<clustering>
<clus scale="   67.394">  7  8 -1 -1</clus>
<clus scale="   82.124">  5  6 -1 -1</clus>
<clus scale="  136.187">  1  9  2 -1</clus>
<clus scale="  239.803">  2  7  1 -1</clus>
<clus scale="  136.187">  1  5  2 -1</clus>
</clustering>
</event>
<event>
 9    1  0.4731329E-005  0.1010569E+03  0.7546771E-02  0.1282579E+00
          1   -1    0    0  502    0 -0.00000000000E+00  0.00000000000E+00  0.32555614356E+03  0.32555614356E+03  0.00000000000E+00 0. -1.
         21   -1    0    0  501  502  0.00000000000E+00 -0.00000000000E+00 -0.61155375198E+02  0.61155375198E+02  0.00000000000E+00 0.  1.
         23    2    1    2    0    0  0.56112629491E+01  0.36973015597E+02  0.21507550503E+03  0.23663969159E+03  0.91336633485E+02 0.  0.
        -24    2    1    2    0    0 -0.75302281334E+01 -0.57026269798E+02  0.69175190933E+02  0.12179047187E+03  0.82091486857E+02 0.  0.
         13    1    4    4    0    0 -0.19478612204E+02 -0.29692191801E+02  0.81969525791E+02  0.89331101783E+02  0.00000000000E+00 0. -1.
        -14    1    4    4    0    0  0.11948384070E+02 -0.27334077997E+02 -0.12794334858E+02  0.32459370085E+02  0.00000000000E+00 0.  1.
        -11    1    3    3    0    0  0.80894794540E+01 -0.25291697241E+02  0.24480114979E+02  0.36116279661E+02  0.00000000000E+00 0.  1.
         11    1    3    3    0    0 -0.24782165050E+01  0.62264712837E+02  0.19059539006E+03  0.20052341193E+03  0.00000000000E+00 0. -1.
          2    1    1    2  501    0  0.19189651843E+01  0.20053254201E+02 -0.19849927608E+02  0.28281355298E+02  0.00000000000E+00 0. -1.
<scales pt_clust_5="13000.00000" pt_clust_6="13000.00000" pt_clust_7="13000.00000" pt_clust_8="13000.00000" pt_clust_9="20.14486"></scales>
<clustering>
<clus scale="   20.145">  2  9  1 -1</clus>
<clus scale="   82.091">  5  6 -1 -1</clus>
<clus scale="   91.337">  7  8 -1 -1</clus>
<clus scale="   92.785">  2  5  1 -1</clus>
<clus scale="   20.145">  2  5  1 -1</clus>
</clustering>
</event>
<event>
 9    1  0.4731329E-005  0.1089867E+03  0.7546771E-02  0.1267441E+00
         21   -1    0    0  501  502  0.00000000000E+00  0.00000000000E+00  0.93981429673E+02  0.93981429673E+02  0.00000000000E+00 0. -1.
          1   -1    0    0  502    0 -0.00000000000E+00 -0.00000000000E+00 -0.17416217975E+03  0.17416217975E+03  0.00000000000E+00 0. -1.
         23    2    1    2    0    0  0.56518619765E+01  0.61130023649E+02 -0.29292281686E+02  0.11385645359E+03  0.91304057542E+02 0.  0.
        -24    2    1    2    0    0  0.27754889593E+02 -0.55855939134E+02 -0.98726362906E+01  0.10112584000E+03  0.78985737543E+02 0.  0.
         13    1    4    4    0    0 -0.17589037683E+02 -0.47458392803E+02  0.88028823173E+01  0.51372794660E+02  0.00000000000E+00 0. -1.
        -14    1    4    4    0    0  0.45343927276E+02 -0.83975463305E+01 -0.18675518608E+02  0.49753045339E+02  0.00000000000E+00 0.  1.
        -13    1    3    3    0    0 -0.30031536986E+01  0.29058289973E+02 -0.61187942956E+02  0.67803890091E+02  0.00000000000E+00 0.  1.
         13    1    3    3    0    0  0.86550156752E+01  0.32071733676E+02  0.31895661271E+02  0.46052563503E+02  0.00000000000E+00 0. -1.
          2    1    1    2  501    0 -0.33406751570E+02 -0.52740845155E+01 -0.41015832101E+02  0.53161315831E+02  0.00000000000E+00 0. -1.
<scales pt_clust_5="13000.00000" pt_clust_6="13000.00000" pt_clust_7="13000.00000" pt_clust_8="13000.00000" pt_clust_9="33.82053"></scales>
<clustering>
<clus scale="   33.821">  1  9  2 -1</clus>
<clus scale="   78.986">  5  6 -1 -1</clus>
<clus scale="   91.304">  7  8 -1 -1</clus>
<clus scale="   98.896">  1  5  2 -1</clus>
<clus scale="   33.821">  1  5  2 -1</clus>
</clustering>
</event>
<event>
 9    1  0.4731329E-005  0.8600958E+02  0.7546771E-02  0.1317463E+00
          1   -1    0    0  502    0 -0.00000000000E+00  0.00000000000E+00  0.21400202348E+03  0.21400202348E+03  0.00000000000E+00 0. -1.
         21   -1    0    0  501  502  0.00000000000E+00 -0.00000000000E+00 -0.82670592536E+02  0.82670592536E+02  0.00000000000E+00 0.  1.
         23    2    1    2    0    0  0.13063568063E+02 -0.71886928575E+01  0.48413557540E+02  0.99683938695E+02  0.85852670107E+02 0.  0.
        -24    2    1    2    0    0  0.23565836349E+02  0.52930601461E+00 -0.22330252746E+02  0.85349845552E+02  0.78932421351E+02 0.  0.
         13    1    4    4    0    0  0.14377564661E+02 -0.34917356251E+02  0.70352572574E+01  0.38411339183E+02  0.00000000000E+00 0. -1.
        -14    1    4    4    0    0  0.91882716874E+01  0.35446662266E+02 -0.29365510004E+02  0.46938506369E+02  0.00000000000E+00 0.  1.
        -11    1    3    3    0    0  0.48754641622E+02  0.30772506897E+01  0.19426900891E+02  0.52572702324E+02  0.00000000000E+00 0.  1.
         11    1    3    3    0    0 -0.35691073558E+02 -0.10265943547E+02  0.28986656650E+02  0.47111236371E+02  0.00000000000E+00 0. -1.
          2    1    1    2  501    0 -0.36629404412E+02  0.66593868429E+01  0.10524812615E+03  0.11163883177E+03  0.00000000000E+00 0. -1.
<scales pt_clust_5="13000.00000" pt_clust_6="13000.00000" pt_clust_7="13000.00000" pt_clust_8="13000.00000" pt_clust_9="37.22985"></scales>
<clustering>
<clus scale="   37.230">  2  9  1 -1</clus>
<clus scale="   78.932">  5  6 -1 -1</clus>
<clus scale="   79.103">  2  5  1 -1</clus>
<clus scale="   85.853">  7  8 -1 -1</clus>
<clus scale="   37.230">  2  5  1 -1</clus>
</clustering>
</event>
<event>
 9    1  0.4731329E-005  0.1181654E+03  0.7546771E-02  0.1250008E+00
          3   -1    0    0  502    0 -0.00000000000E+00  0.00000000000E+00  0.48956725408E+03  0.48956725408E+03  0.00000000000E+00 0. -1.
         21   -1    0    0  501  502  0.00000000000E+00 -0.00000000000E+00 -0.76658890924E+02  0.76658890924E+02  0.00000000000E+00 0.  1.
         23    2    1    2    0    0 -0.20543599879E+02 -0.76823456812E+02  0.41473501700E+03  0.43206414995E+03  0.91380590600E+02 0.  0.
        -24    2    1    2    0    0  0.16618299509E+02  0.51999622832E+02  0.22494266736E+02  0.99188606691E+02  0.79701060269E+02 0.  0.
         13    1    4    4    0    0  0.42826065720E+02  0.11539314148E+02 -0.33707886625E+01  0.44481343193E+02  0.00000000000E+00 0. -1.
        -14    1    4    4    0    0 -0.26207766211E+02  0.40460308685E+02  0.25865055399E+02  0.54707263498E+02  0.00000000000E+00 0.  1.
        -11    1    3    3    0    0 -0.47487401121E+01  0.21045625434E+02  0.88991261453E+02  0.91569173293E+02  0.00000000000E+00 0. -1.
         11    1    3    3    0    0 -0.15794859767E+02 -0.97869082246E+02  0.32574375554E+03  0.34049497666E+03  0.00000000000E+00 0.  1.
          4    1    1    2  501    0  0.39253003702E+01  0.24823833979E+02 -0.24320920571E+02  0.34973388366E+02  0.00000000000E+00 0. -1.
<scales pt_clust_5="13000.00000" pt_clust_6="13000.00000" pt_clust_7="13000.00000" pt_clust_8="13000.00000" pt_clust_9="25.13226"></scales>
<clustering>
<clus scale="   25.132">  2  9  1 -1</clus>
<clus scale="   79.701">  5  6 -1 -1</clus>
<clus scale="   91.381">  7  8 -1 -1</clus>
<clus scale="  109.384">  2  5  1 -1</clus>
<clus scale="   25.132">  2  5  1 -1</clus>
</clustering>
</event>
<event>
 9    1  0.4731329E-005  0.1304490E+03  0.7546771E-02  0.1240486E+00
         21   -1    0    0  501  502  0.00000000000E+00  0.00000000000E+00  0.22440060278E+03  0.22440060278E+03  0.00000000000E+00 0. -1.
          1   -1    0    0  502    0 -0.00000000000E+00 -0.00000000000E+00 -0.60127084090E+03  0.60127084090E+03  0.00000000000E+00 0. -1.
         23    2    1    2    0    0 -0.42985048836E+02  0.27355481526E+02 -0.53546702980E+03  0.55078730778E+03  0.11851447850E+03 0.  0.
        -24    2    1    2    0    0  0.68242431266E+02 -0.45825941440E+02  0.29912135456E+01  0.11616366085E+03  0.82024401307E+02 0.  0.
         13    1    4    4    0    0  0.30504182196E+02 -0.55914369261E+02 -0.24663174547E+02  0.68302225440E+02  0.00000000000E+00 0. -1.
        -14    1    4    4    0    0  0.37738249070E+02  0.10088427821E+02  0.27654388093E+02  0.47861435410E+02  0.00000000000E+00 0.  1.
        -11    1    3    3    0    0  0.17534712621E+02 -0.32919811171E+02 -0.93931295290E+02  0.10106566355E+03  0.00000000000E+00 0.  1.
         11    1    3    3    0    0 -0.60519761457E+02  0.60275292697E+02 -0.44153573451E+03  0.44972164423E+03  0.00000000000E+00 0. -1.
          2    1    1    2  501    0 -0.25257382430E+02  0.18470459914E+02  0.15560557813E+03  0.15872047506E+03  0.00000000000E+00 0. -1.
<scales pt_clust_5="13000.00000" pt_clust_6="13000.00000" pt_clust_7="13000.00000" pt_clust_8="13000.00000" pt_clust_9="31.29047"></scales>
<clustering>
<clus scale="   31.290">  1  9  2 -1</clus>
<clus scale="   82.024">  5  6 -1 -1</clus>
<clus scale="   98.485">  1  5  2 -1</clus>
<clus scale="  118.514">  7  8 -1 -1</clus>
<clus scale="   31.290">  1  5  2 -1</clus>
</clustering>
</event>
<event>
 9    1  0.4731329E-005  0.1233402E+03  0.7546771E-02  0.1246075E+00
         21   -1    0    0  501  502  0.00000000000E+00  0.00000000000E+00  0.17589559723E+03  0.17589559723E+03  0.00000000000E+00 0.  1.
         -2   -1    0    0    0  501 -0.00000000000E+00 -0.00000000000E+00 -0.54475721740E+03  0.54475721740E+03  0.00000000000E+00 0.  1.
         23    2    1    2    0    0  0.56858819426E+02 -0.35658513845E+01 -0.35044430969E+03  0.37019510144E+03  0.10482155453E+03 0.  0.
        -24    2    1    2    0    0 -0.79429471432E+02 -0.99736496907E+00 -0.16595152129E+03  0.20113725029E+03  0.81278843288E+02 0.  0.
         11    1    4    4    0    0 -0.30699133647E+02 -0.13179452017E+02 -0.14127813874E+03  0.14517454064E+03  0.00000000000E+00 0. -1.
        -12    1    4    4    0    0 -0.48730337785E+02  0.12182087048E+02 -0.24673382550E+02  0.55962709655E+02  0.00000000000E+00 0.  1.
        -13    1    3    3    0    0 -0.30744562028E+02 -0.73481888106E+01 -0.91041441667E+02  0.96373067160E+02  0.00000000000E+00 0.  1.
         13    1    3    3    0    0  0.87603381453E+02  0.37823374261E+01 -0.25940286803E+03  0.27382203428E+03  0.00000000000E+00 0. -1.
         -1    1    1    2    0  502  0.22570652007E+02  0.45632163536E+01  0.14753421082E+03  0.14932046289E+03  0.00000000000E+00 0.  1.
<scales pt_clust_5="13000.00000" pt_clust_6="13000.00000" pt_clust_7="13000.00000" pt_clust_8="13000.00000" pt_clust_9="23.02732"></scales>
<clustering>
<clus scale="   23.027">  1  9  2 -1</clus>
<clus scale="   81.279">  5  6 -1 -1</clus>
<clus scale="  104.075">  1  5  2 -1</clus>
<clus scale="  104.822">  7  8 -1 -1</clus>
<clus scale="   23.027">  1  5  2 -1</clus>
</clustering>
</event>
<event>
 9    1  0.4731329E-005  0.1009478E+03  0.7546771E-02  0.1282843E+00
          1   -1    0    0  502    0 -0.00000000000E+00  0.00000000000E+00  0.31895873716E+03  0.31895873716E+03  0.00000000000E+00 0. -1.
         21   -1    0    0  501  502  0.00000000000E+00 -0.00000000000E+00 -0.59746944774E+02  0.59746944774E+02  0.00000000000E+00 0.  1.
         23    2    1    2    0    0  0.25117770977E+02 -0.36631184401E+02  0.23557843188E+03  0.25655767526E+03  0.91388714176E+02 0.  0.
        -24    2    1    2    0    0 -0.39795462831E+02  0.15670033040E+02  0.98802414386E+01  0.93097141132E+02  0.82098902056E+02 0.  0.
         13    1    4    4    0    0 -0.30371875242E+02 -0.14429999487E+02  0.38070852778E+02  0.50794345376E+02  0.00000000000E+00 0. -1.
        -14    1    4    4    0    0 -0.94235875884E+01  0.30100032527E+02 -0.28190611339E+02  0.42302795757E+02  0.00000000000E+00 0.  1.
        -13    1    3    3    0    0 -0.15394873975E+01 -0.45332112192E+02  0.21969890789E+03  0.22433229938E+03  0.00000000000E+00 0. -1.
         13    1    3    3    0    0  0.26657258375E+02  0.87009277906E+01  0.15879523989E+02  0.32225375880E+02  0.00000000000E+00 0.  1.
          2    1    1    2  501    0  0.14677691854E+02  0.20961151361E+02  0.13753119066E+02  0.29050865539E+02  0.00000000000E+00 0. -1.
<scales pt_clust_5="13000.00000" pt_clust_6="13000.00000" pt_clust_7="13000.00000" pt_clust_8="13000.00000" pt_clust_9="25.58915"></scales>
<clustering>
<clus scale="   25.589">  2  9  1 -1</clus>
<clus scale="   82.099">  5  6 -1 -1</clus>
<clus scale="   91.389">  7  8 -1 -1</clus>
<clus scale="   92.622">  2  5  1 -1</clus>
<clus scale="   25.589">  2  5  1 -1</clus>
</clustering>
</event>
<event>
 9    1  0.4731329E-005  0.1354569E+03  0.7546771E-02  0.1221499E+00
         21   -1    0    0  501  502  0.00000000000E+00  0.00000000000E+00  0.41865599579E+03  0.41865599579E+03  0.00000000000E+00 0. -1.
          1   -1    0    0  502    0 -0.00000000000E+00 -0.00000000000E+00 -0.23069717593E+03  0.23069717593E+03  0.00000000000E+00 0. -1.
        -24    2    1    2    0    0 -0.43363467649E+02  0.90447181359E+02 -0.10064333200E+03  0.16564100215E+03  0.85128011697E+02 0.  0.
         23    2    1    2    0    0 -0.42853965287E+01 -0.10266867194E+03 -0.45552486909E+02  0.14595619005E+03  0.93107247450E+02 0.  0.
         13    1    3    3    0    0 -0.35252227018E+02  0.30704633709E+02 -0.94002709380E+02  0.10498572956E+03  0.00000000000E+00 0. -1.
        -14    1    3    3    0    0 -0.81112406308E+01  0.59742547649E+02 -0.66406226207E+01  0.60655272590E+02  0.00000000000E+00 0.  1.
        -11    1    4    4    0    0  0.17716448745E+02 -0.67290441298E+02  0.16218575201E+02  0.71448710470E+02  0.00000000000E+00 0.  1.
         11    1    4    4    0    0 -0.22001845273E+02 -0.35378230647E+02 -0.61771062110E+02  0.74507479580E+02  0.00000000000E+00 0. -1.
          2    1    1    2  501    0  0.47648864177E+02  0.12221490586E+02  0.33415463877E+03  0.33775597952E+03  0.00000000000E+00 0. -1.
<scales pt_clust_5="13000.00000" pt_clust_6="13000.00000" pt_clust_7="13000.00000" pt_clust_8="13000.00000" pt_clust_9="49.19125"></scales>
<clustering>
<clus scale="   49.191">  1  9  2 -1</clus>
<clus scale="   85.128">  5  6 -1 -1</clus>
<clus scale="   93.107">  7  8 -1 -1</clus>
<clus scale="  130.101">  2  5  1 -1</clus>
<clus scale="   49.191">  1  5  2 -1</clus>
</clustering>
</event>
<event>
 9    1  0.4731329E-005  0.1131522E+03  0.7546771E-02  0.1260042E+00
         21   -1    0    0  501  502  0.00000000000E+00  0.00000000000E+00  0.10463749843E+03  0.10463749843E+03  0.00000000000E+00 0. -1.
         -4   -1    0    0    0  501 -0.00000000000E+00 -0.00000000000E+00 -0.20450649529E+03  0.20450649529E+03  0.00000000000E+00 0.  1.
         23    2    1    2    0    0 -0.67634321471E+02 -0.13229584813E+02 -0.10871199723E+03  0.15753105402E+03  0.90820214070E+02 0.  0.
        -24    2    1    2    0    0  0.56301546983E+02  0.35276830201E+02  0.42369777148E+02  0.10991692588E+03  0.76630370207E+02 0.  0.
         11    1    4    4    0    0  0.52978857426E+02  0.50127428818E+02  0.54011669273E+02  0.90756701525E+02  0.00000000000E+00 0. -1.
        -12    1    4    4    0    0  0.33226895572E+01 -0.14850598617E+02 -0.11641892125E+02  0.19160224357E+02  0.00000000000E+00 0.  1.
        -11    1    3    3    0    0 -0.82557703026E+02 -0.31556157134E+02 -0.96749035507E+02  0.13104175386E+03  0.00000000000E+00 0.  1.
         11    1    3    3    0    0  0.14923381555E+02  0.18326572321E+02 -0.11962961726E+02  0.26489300167E+02  0.00000000000E+00 0. -1.
         -3    1    1    2    0  502  0.11332774488E+02 -0.22047245388E+02 -0.33526776782E+02  0.41696013816E+02  0.00000000000E+00 0.  1.
<scales pt_clust_5="13000.00000" pt_clust_6="13000.00000" pt_clust_7="13000.00000" pt_clust_8="13000.00000" pt_clust_9="24.78938"></scales>
<clustering>
<clus scale="   24.789">  1  9  2 -1</clus>
<clus scale="   76.630">  5  6 -1 -1</clus>
<clus scale="   90.820">  7  8 -1 -1</clus>
<clus scale="  102.114">  1  5  2 -1</clus>
<clus scale="   24.789">  1  5  2 -1</clus>
</clustering>
</event>
<event>
 9    1  0.4731329E-005  0.1249394E+03  0.7546771E-02  0.1238827E+00
         21   -1    0    0  501  502  0.00000000000E+00  0.00000000000E+00  0.19419679069E+03  0.19419679069E+03  0.00000000000E+00 0.  1.
          1   -1    0    0  502    0 -0.00000000000E+00 -0.00000000000E+00 -0.16154861161E+03  0.16154861161E+03  0.00000000000E+00 0. -1.
        -24    2    1    2    0    0 -0.77470446740E+02  0.29342241327E+02 -0.90277292879E+02  0.14625346315E+03  0.79858929546E+02 0.  0.
         23    2    1    2    0    0  0.72379844338E+02 -0.56512622957E+02  0.65668235426E+02  0.14591100643E+03  0.92440176516E+02 0.  0.
         11    1    3    3    0    0 -0.60298632018E+02 -0.10435547836E+02 -0.21296266969E+02  0.64794727167E+02  0.00000000000E+00 0. -1.
        -12    1    3    3    0    0 -0.17171814722E+02  0.39777789164E+02 -0.68981025910E+02  0.81458735978E+02  0.00000000000E+00 0.  1.
        -13    1    4    4    0    0  0.53768768228E+02 -0.78680683945E+02  0.67696327165E+02  0.11689535138E+03  0.00000000000E+00 0.  1.
         13    1    4    4    0    0  0.18611076109E+02  0.22168060988E+02 -0.20280917396E+01  0.29015655051E+02  0.00000000000E+00 0. -1.
          2    1    1    2  501    0  0.50906024022E+01  0.27170381630E+02  0.57257236533E+02  0.63580932725E+02  0.00000000000E+00 0. -1.
<scales pt_clust_5="13000.00000" pt_clust_6="13000.00000" pt_clust_7="13000.00000" pt_clust_8="13000.00000" pt_clust_9="27.64315"></scales>
<clustering>
<clus scale="   27.643">  1  9  2 -1</clus>
<clus scale="   79.859">  5  6 -1 -1</clus>
<clus scale="   92.440">  7  8 -1 -1</clus>
<clus scale="  115.940">  2  5  1 -1</clus>
<clus scale="   27.643">  1  5  2 -1</clus>
</clustering>
</event>
<event>
 9    1  0.4731329E-005  0.1004605E+03  0.7546771E-02  0.1287469E+00
         21   -1    0    0  501  502  0.00000000000E+00  0.00000000000E+00  0.23138054565E+03  0.23138054565E+03  0.00000000000E+00 0. -1.
          1   -1    0    0  502    0 -0.00000000000E+00 -0.00000000000E+00 -0.12897631688E+03  0.12897631688E+03  0.00000000000E+00 0. -1.
         23    2    1    2    0    0  0.18330749590E+02  0.23417733243E+02 -0.72183692847E+02  0.12374375427E+03  0.96008461076E+02 0.  0.
        -24    2    1    2    0    0 -0.36460923269E+02 -0.58570550239E+01  0.18804763671E+03  0.20800813409E+03  0.80881185422E+02 0.  0.
         13    1    4    4    0    0 -0.58399054917E+02  0.60819448834E+01  0.16009623331E+03  0.17052344000E+03  0.00000000000E+00 0. -1.
        -14    1    4    4    0    0  0.21938131648E+02 -0.11938999907E+02  0.27951403402E+02  0.37484694091E+02  0.00000000000E+00 0.  1.
        -11    1    3    3    0    0  0.38841163781E+02  0.52262325329E+02 -0.46607654108E+02  0.80076588801E+02  0.00000000000E+00 0. -1.
         11    1    3    3    0    0 -0.20510414191E+02 -0.28844592086E+02 -0.25576038739E+02  0.43667165473E+02  0.00000000000E+00 0.  1.
          2    1    1    2  501    0  0.18130173679E+02 -0.17560678219E+02 -0.13459715093E+02  0.28604974175E+02  0.00000000000E+00 0. -1.
<scales pt_clust_5="13000.00000" pt_clust_6="13000.00000" pt_clust_7="13000.00000" pt_clust_8="13000.00000" pt_clust_9="25.24047"></scales>
<clustering>
<clus scale="   25.240">  1  9  2 -1</clus>
<clus scale="   80.881">  5  6 -1 -1</clus>
<clus scale="   86.119">  1  5  2 -1</clus>
<clus scale="   96.008">  7  8 -1 -1</clus>
<clus scale="   25.240">  1  5  2 -1</clus>
</clustering>
</event>
<event>
 9    1  0.4731329E-005  0.3299147E+03  0.7546771E-02  0.1071175E+00
          1   -1    0    0  502    0 -0.00000000000E+00  0.00000000000E+00  0.14898202927E+04  0.14898202927E+04  0.00000000000E+00 0. -1.
         21   -1    0    0  501  502  0.00000000000E+00 -0.00000000000E+00 -0.72530948505E+02  0.72530948505E+02  0.00000000000E+00 0. -1.
        -24    2    1    2    0    0  0.45685804852E+02  0.92518876829E+02  0.18987823769E+03  0.23061633456E+03  0.80518403400E+02 0.  0.
         23    2    1    2    0    0  0.16432320547E+03  0.59214776263E+02  0.24213745777E+03  0.31296552705E+03  0.93852901305E+02 0.  0.
         11    1    3    3    0    0  0.23171798588E+02  0.10332482591E+03  0.15212432355E+03  0.18535037554E+03  0.00000000000E+00 0. -1.
        -12    1    3    3    0    0  0.22514006264E+02 -0.10805949076E+02  0.37753914139E+02  0.45265959023E+02  0.00000000000E+00 0.  1.
        -11    1    4    4    0    0  0.13127481665E+02 -0.17855531241E+02  0.75160558479E+01  0.23401749213E+02  0.00000000000E+00 0.  1.
         11    1    4    4    0    0  0.15119572380E+03  0.77070307504E+02  0.23462140193E+03  0.28956377784E+03  0.00000000000E+00 0. -1.
          2    1    1    2  501    0 -0.21000901032E+03 -0.15173365309E+03  0.98527364870E+03  0.10187693796E+04  0.00000000000E+00 0. -1.
<scales pt_clust_5="13000.00000" pt_clust_6="13000.00000" pt_clust_7="13000.00000" pt_clust_8="13000.00000" pt_clust_9="259.08870"></scales>
<clustering>
<clus scale="   80.518">  5  6 -1 -1</clus>
<clus scale="   93.853">  7  8 -1 -1</clus>
<clus scale="  122.018">  5  7 -1 -1</clus>
<clus scale="  259.089">  2  9  1 -1</clus>
<clus scale="  259.089">  2  5  1 -1</clus>
</clustering>
</event>
<event>
 9    1  0.4731329E-005  0.1366532E+03  0.7546771E-02  0.1220350E+00
         21   -1    0    0  501  502  0.00000000000E+00  0.00000000000E+00  0.17409790014E+03  0.17409790014E+03  0.00000000000E+00 0.  1.
         -2   -1    0    0    0  501 -0.00000000000E+00 -0.00000000000E+00 -0.18037309516E+03  0.18037309516E+03  0.00000000000E+00 0.  1.
         23    2    1    2    0    0  0.11021354639E+03  0.44937372451E+01 -0.30280702620E+01  0.14362962905E+03  0.91940641988E+02 0.  0.
        -24    2    1    2    0    0 -0.80536967403E+02 -0.58229294415E+02  0.41355189292E+02  0.13496267449E+03  0.81411411836E+02 0.  0.
         11    1    4    4    0    0 -0.48462995142E+02 -0.10543076547E+02 -0.17604448180E+02  0.52628271461E+02  0.00000000000E+00 0. -1.
        -12    1    4    4    0    0 -0.32073972261E+02 -0.47686217867E+02  0.58959637472E+02  0.82334403028E+02  0.00000000000E+00 0.  1.
        -13    1    3    3    0    0  0.35036886192E+02  0.26078464484E+02  0.35645991255E+02  0.56376470237E+02  0.00000000000E+00 0.  1.
         13    1    3    3    0    0  0.75176660202E+02 -0.21584727238E+02 -0.38674061517E+02  0.87253158816E+02  0.00000000000E+00 0. -1.
         -1    1    1    2    0  502 -0.29676578991E+02  0.53735557170E+02 -0.44602314042E+02  0.75878691757E+02  0.00000000000E+00 0.  1.
<scales pt_clust_5="13000.00000" pt_clust_6="13000.00000" pt_clust_7="13000.00000" pt_clust_8="13000.00000" pt_clust_9="61.38577"></scales>
<clustering>
<clus scale="   61.386">  1  9  2 -1</clus>
<clus scale="   81.411">  5  6 -1 -1</clus>
<clus scale="   91.941">  7  8 -1 -1</clus>
<clus scale="  129.803">  1  5  2 -1</clus>
<clus scale="   61.386">  1  5  2 -1</clus>
</clustering>
</event>
<event>
 9    1  0.4731329E-005  0.1727874E+03  0.7546771E-02  0.1186727E+00
          1   -1    0    0  502    0 -0.00000000000E+00  0.00000000000E+00  0.12339380689E+04  0.12339380689E+04  0.00000000000E+00 0. -1.
         21   -1    0    0  501  502  0.00000000000E+00 -0.00000000000E+00 -0.60694010558E+02  0.60694010558E+02  0.00000000000E+00 0. -1.
         23    2    1    2    0    0  0.15734979090E+02  0.94725801086E+02  0.29147271019E+03  0.32026492106E+03  0.91611745537E+02 0.  0.
        -24    2    1    2    0    0  0.83103620163E+02 -0.19529896883E+03  0.74084199066E+03  0.77500539031E+03  0.82088982102E+02 0.  0.
         13    1    4    4    0    0  0.59073728781E+01 -0.70654857146E+02  0.14521674511E+03  0.16160107968E+03  0.00000000000E+00 0. -1.
        -14    1    4    4    0    0  0.77196247285E+02 -0.12464411168E+03  0.59562524555E+03  0.61340431064E+03  0.00000000000E+00 0.  1.
        -11    1    3    3    0    0 -0.29848134281E+02  0.69486106765E+01  0.10235911172E+03  0.10684840693E+03  0.00000000000E+00 0.  1.
         11    1    3    3    0    0  0.45583113371E+02  0.87777190409E+02  0.18911359847E+03  0.21341651414E+03  0.00000000000E+00 0. -1.
          2    1    1    2  501    0 -0.98838599254E+02  0.10057316774E+03  0.14092935752E+03  0.19936176811E+03  0.00000000000E+00 0. -1.
<scales pt_clust_5="13000.00000" pt_clust_6="13000.00000" pt_clust_7="13000.00000" pt_clust_8="13000.00000" pt_clust_9="152.04234"></scales>
<clustering>
<clus scale="   82.089">  5  6 -1 -1</clus>
<clus scale="   91.612">  7  8 -1 -1</clus>
<clus scale="  132.715">  1  7  2 -1</clus>
<clus scale="  152.042">  2  9  1 -1</clus>
<clus scale="  152.042">  2  5  1 -1</clus>
</clustering>
</event>
<event>
 9    1  0.4731329E-005  0.9235538E+02  0.7546771E-02  0.1304303E+00
         21   -1    0    0  501  502  0.00000000000E+00  0.00000000000E+00  0.60290575684E+02  0.60290575684E+02  0.00000000000E+00 0. -1.
          1   -1    0    0  502    0 -0.00000000000E+00 -0.00000000000E+00 -0.68064407816E+03  0.68064407816E+03  0.00000000000E+00 0. -1.
         23    2    1    2    0    0 -0.68335576166E+01  0.15929203411E+02 -0.52864233107E+03  0.53682522549E+03  0.91750593964E+02 0.  0.
        -24    2    1    2    0    0 -0.14736311705E+02  0.55332302374E+02 -0.19969651667E+02  0.10071548693E+03  0.80411440420E+02 0.  0.
         13    1    4    4    0    0 -0.43791593523E+02  0.51374224341E+02 -0.47375826917E+01  0.67671702208E+02  0.00000000000E+00 0. -1.
        -14    1    4    4    0    0  0.29055281818E+02  0.39580780333E+01 -0.15232068976E+02  0.33043784719E+02  0.00000000000E+00 0.  1.
        -13    1    3    3    0    0  0.36671771468E+02  0.30212422944E+02 -0.27952760130E+03  0.28353710377E+03  0.00000000000E+00 0. -1.
         13    1    3    3    0    0 -0.43505329085E+02 -0.14283219533E+02 -0.24911472976E+03  0.25328812172E+03  0.00000000000E+00 0.  1.
          2    1    1    2  501    0  0.21569869321E+02 -0.71261505785E+02 -0.71741519735E+02  0.10339394142E+03  0.00000000000E+00 0. -1.
<scales pt_clust_5="13000.00000" pt_clust_6="13000.00000" pt_clust_7="13000.00000" pt_clust_8="13000.00000" pt_clust_9="74.45443"></scales>
<clustering>
<clus scale="   74.454">  1  9  2 -1</clus>
<clus scale="   80.411">  5  6 -1 -1</clus>
<clus scale="   81.101">  1  5  2 -1</clus>
<clus scale="   91.751">  7  8 -1 -1</clus>
<clus scale="   74.454">  1  5  2 -1</clus>
</clustering>
</event>
<event>
 9    1  0.4731329E-005  0.9486991E+02  0.7546771E-02  0.1299222E+00
          3   -1    0    0  502    0 -0.00000000000E+00  0.00000000000E+00  0.67730622827E+03  0.67730622827E+03  0.00000000000E+00 0. -1.
         21   -1    0    0  501  502  0.00000000000E+00 -0.00000000000E+00 -0.64814256466E+02  0.64814256466E+02  0.00000000000E+00 0. -1.
         23    2    1    2    0    0  0.42074053642E+02  0.10248361205E+02  0.49929996605E+03  0.50915153739E+03  0.89775147074E+02 0.  0.
        -24    2    1    2    0    0  0.85674711776E+01  0.53885239479E+02  0.11849304577E+03  0.15108009708E+03  0.76207435602E+02 0.  0.
         13    1    4    4    0    0  0.10119620473E+02  0.71395355595E+02  0.11007153916E+03  0.13158817292E+03  0.00000000000E+00 0. -1.
        -14    1    4    4    0    0 -0.15521492951E+01 -0.17510116116E+02  0.84215066103E+01  0.19491924159E+02  0.00000000000E+00 0.  1.
        -11    1    3    3    0    0 -0.21866497307E+02  0.25591021171E+02  0.18677927711E+03  0.18978815144E+03  0.00000000000E+00 0.  1.
         11    1    3    3    0    0  0.63940550949E+02 -0.15342659966E+02  0.31252068894E+03  0.31936338595E+03  0.00000000000E+00 0. -1.
          4    1    1    2  501    0 -0.50641524819E+02 -0.64133600684E+02 -0.53010400171E+01  0.81888850266E+02  0.00000000000E+00 0. -1.
<scales pt_clust_5="13000.00000" pt_clust_6="13000.00000" pt_clust_7="13000.00000" pt_clust_8="13000.00000" pt_clust_9="81.71709"></scales>
<clustering>
<clus scale="   76.207">  5  6 -1 -1</clus>
<clus scale="   81.717">  2  9  1 -1</clus>
<clus scale="   82.148">  2  5  1 -1</clus>
<clus scale="   89.775">  7  8 -1 -1</clus>
<clus scale="   81.717">  2  5  1 -1</clus>
</clustering>
</event>
<event>
 9    1  0.4731329E-005  0.1280342E+03  0.7546771E-02  0.1249561E+00
         21   -1    0    0  501  502  0.00000000000E+00  0.00000000000E+00  0.43234850422E+02  0.43234850422E+02  0.00000000000E+00 0. -1.
          1   -1    0    0  502    0 -0.00000000000E+00 -0.00000000000E+00 -0.63444529771E+03  0.63444529771E+03  0.00000000000E+00 0. -1.
        -24    2    1    2    0    0  0.14933475962E+01  0.28385636115E+02 -0.30586843173E+03  0.31793529585E+03  0.81971826835E+02 0.  0.
         23    2    1    2    0    0 -0.14084677318E+02  0.71397041313E+02 -0.17305579673E+03  0.20900229280E+03  0.91857138930E+02 0.  0.
         13    1    3    3    0    0 -0.24057312413E+02  0.46941076163E+02 -0.22547692083E+03  0.23156437709E+03  0.00000000000E+00 0. -1.
        -14    1    3    3    0    0  0.25550660010E+02 -0.18555440048E+02 -0.80391510901E+02  0.86370918759E+02  0.00000000000E+00 0.  1.
        -11    1    4    4    0    0 -0.44511329564E+02  0.70298904690E+01 -0.80203113377E+02  0.91995745635E+02  0.00000000000E+00 0.  1.
         11    1    4    4    0    0  0.30426652247E+02  0.64367150844E+02 -0.92852683349E+02  0.11700654717E+03  0.00000000000E+00 0. -1.
          2    1    1    2  501    0  0.12591329721E+02 -0.99782677428E+02 -0.11228621883E+03  0.15074255948E+03  0.00000000000E+00 0. -1.
<scales pt_clust_5="13000.00000" pt_clust_6="13000.00000" pt_clust_7="13000.00000" pt_clust_8="13000.00000" pt_clust_9="89.19090"></scales>
<clustering>
<clus scale="   81.972">  5  6 -1 -1</clus>
<clus scale="   86.760">  2  5  1 -1</clus>
<clus scale="   89.191">  1  9  2 -1</clus>
<clus scale="   91.857">  7  8 -1 -1</clus>
<clus scale="   89.191">  1  5  2 -1</clus>
</clustering>
</event>
<event>
 9    1  0.4731329E-005  0.1170154E+03  0.7546771E-02  0.1259999E+00
          1   -1    0    0  502    0 -0.00000000000E+00  0.00000000000E+00  0.50563326733E+03  0.50563326733E+03  0.00000000000E+00 0. -1.
         21   -1    0    0  501  502  0.00000000000E+00 -0.00000000000E+00 -0.65092450272E+02  0.65092450272E+02  0.00000000000E+00 0.  1.
        -24    2    1    2    0    0 -0.51232591183E+02  0.64821249753E+01  0.33253291813E+03  0.34513391385E+03  0.76632111434E+02 0.  0.
         23    2    1    2    0    0 -0.38492664916E+02  0.18801374564E+02  0.80183488026E+02  0.12830832739E+03  0.90545337747E+02 0.  0.
         13    1    3    3    0    0  0.22174483914E+00 -0.26056095275E+02  0.53134151383E+02  0.59179450107E+02  0.00000000000E+00 0. -1.
        -14    1    3    3    0    0 -0.51454336023E+02  0.32538220250E+02  0.27939876675E+03  0.28595446374E+03  0.00000000000E+00 0.  1.
        -13    1    4    4    0    0 -0.11949862838E+02  0.54402573767E+02  0.46845297128E+02  0.72779949968E+02  0.00000000000E+00 0.  1.
         13    1    4    4    0    0 -0.26542802077E+02 -0.35601199203E+02  0.33338190899E+02  0.55528377423E+02  0.00000000000E+00 0. -1.
          2    1    1    2  501    0  0.89725256099E+02 -0.25283499539E+02  0.27824410896E+02  0.97283476360E+02  0.00000000000E+00 0. -1.
<scales pt_clust_5="13000.00000" pt_clust_6="13000.00000" pt_clust_7="13000.00000" pt_clust_8="13000.00000" pt_clust_9="74.12256"></scales>
<clustering>
<clus scale="   76.632">  5  6 -1 -1</clus>
<clus scale="   90.545">  7  8 -1 -1</clus>
<clus scale="   92.408">  1  5  2 -1</clus>
<clus scale="   74.123">  2  9  1 -1</clus>
<clus scale="   74.123">  2  5  1 -1</clus>
</clustering>
</event>
<event>
 9    1  0.4731329E-005  0.9428368E+02  0.7546771E-02  0.1298994E+00
         21   -1    0    0  501  502  0.00000000000E+00  0.00000000000E+00  0.14122032307E+03  0.14122032307E+03  0.00000000000E+00 0. -1.
          1   -1    0    0  502    0 -0.00000000000E+00 -0.00000000000E+00 -0.13864760231E+03  0.13864760231E+03  0.00000000000E+00 0. -1.
         23    2    1    2    0    0  0.30644511960E+02  0.80730348697E+01 -0.87032738481E+02  0.12994201233E+03  0.91137089027E+02 0.  0.
        -24    2    1    2    0    0 -0.25071909991E+01 -0.12041822175E+01  0.34399205390E+02  0.87583147374E+02  0.80496995664E+02 0.  0.
         11    1    4    4    0    0  0.29395491213E+02 -0.19651503594E+02 -0.24813547003E+01  0.35446207390E+02  0.00000000000E+00 0. -1.
        -12    1    4    4    0    0 -0.31902682212E+02  0.18447321376E+02  0.36880560091E+02  0.52136939984E+02  0.00000000000E+00 0.  1.
        -13    1    3    3    0    0  0.19273112128E+02 -0.39762996211E+02 -0.57742185448E+02  0.72709756561E+02  0.00000000000E+00 0.  1.
         13    1    3    3    0    0  0.11371399833E+02  0.47836031081E+02 -0.29290553033E+02  0.57232255772E+02  0.00000000000E+00 0. -1.
          2    1    1    2  501    0 -0.28137320961E+02 -0.68688526522E+01  0.55206253854E+02  0.62342765677E+02  0.00000000000E+00 0. -1.
<scales pt_clust_5="13000.00000" pt_clust_6="13000.00000" pt_clust_7="13000.00000" pt_clust_8="13000.00000" pt_clust_9="28.96360"></scales>
<clustering>
<clus scale="   28.964">  1  9  2 -1</clus>
<clus scale="   80.497">  5  6 -1 -1</clus>
<clus scale="   84.043">  1  5  2 -1</clus>
<clus scale="   91.137">  7  8 -1 -1</clus>
<clus scale="   28.964">  1  5  2 -1</clus>
</clustering>
</event>
<event>
 9    1  0.4731329E-005  0.1067270E+03  0.7546771E-02  0.1270705E+00
         21   -1    0    0  501  502  0.00000000000E+00  0.00000000000E+00  0.59466759294E+02  0.59466759294E+02  0.00000000000E+00 0.  1.
          1   -1    0    0  502    0 -0.00000000000E+00 -0.00000000000E+00 -0.22517102670E+03  0.22517102670E+03  0.00000000000E+00 0. -1.
         23    2    1    2    0    0  0.50395578928E+02  0.26955284696E+02 -0.88895176414E+02  0.13738384336E+03  0.87781924550E+02 0.  0.
        -24    2    1    2    0    0 -0.64747416723E+02 -0.12427963067E+02 -0.75048277358E+02  0.12675714321E+03  0.78028502372E+02 0.  0.
         13    1    4    4    0    0 -0.58694460138E+02 -0.41640990458E+02 -0.57746882954E+02  0.92269790441E+02  0.00000000000E+00 0. -1.
        -14    1    4    4    0    0 -0.60529565851E+01  0.29213027391E+02 -0.17301394404E+02  0.34487352770E+02  0.00000000000E+00 0.  1.
        -11    1    3    3    0    0  0.11677892535E+02 -0.28514047112E+02 -0.78103723888E+01  0.31787198266E+02  0.00000000000E+00 0.  1.
         11    1    3    3    0    0  0.38717686392E+02  0.55469331808E+02 -0.81084804026E+02  0.10559664509E+03  0.00000000000E+00 0. -1.
          2    1    1    2  501    0  0.14351837796E+02 -0.14527321629E+02 -0.17608136310E+01  0.20496799420E+02  0.00000000000E+00 0. -1.
<scales pt_clust_5="13000.00000" pt_clust_6="13000.00000" pt_clust_7="13000.00000" pt_clust_8="13000.00000" pt_clust_9="20.42103"></scales>
<clustering>
<clus scale="   20.421">  1  9  2 -1</clus>
<clus scale="   78.029">  5  6 -1 -1</clus>
<clus scale="   87.782">  7  8 -1 -1</clus>
<clus scale="   98.861">  1  5  2 -1</clus>
<clus scale="   20.421">  1  5  2 -1</clus>
</clustering>
</event>
<event>
 9    1  0.4731329E-005  0.1122145E+03  0.7546771E-02  0.1266183E+00
          1   -1    0    0  502    0 -0.00000000000E+00  0.00000000000E+00  0.57609071993E+03  0.57609071993E+03  0.00000000000E+00 0. -1.
         21   -1    0    0  501  502  0.00000000000E+00 -0.00000000000E+00 -0.48732380601E+02  0.48732380601E+02  0.00000000000E+00 0.  1.
         23    2    1    2    0    0 -0.29155500894E+02 -0.21397604288E+02  0.22028456521E+03  0.24092093202E+03  0.90607423062E+02 0.  0.
        -24    2    1    2    0    0 -0.16327556425E+02 -0.32896746183E+02  0.68393776632E+02  0.13493484898E+03  0.11036720427E+03 0.  0.
         11    1    4    4    0    0 -0.35726373656E+02 -0.48640487354E+02  0.85501311641E+02  0.10465536335E+03  0.00000000000E+00 0. -1.
        -12    1    4    4    0    0  0.19398817231E+02  0.15743741171E+02 -0.17107535009E+02  0.30279485631E+02  0.00000000000E+00 0.  1.
        -13    1    3    3    0    0  0.29868044554E+02  0.81991137901E+01  0.82785049603E+02  0.88389422389E+02  0.00000000000E+00 0. -1.
         13    1    3    3    0    0 -0.59023545448E+02 -0.29596718078E+02  0.13749951561E+03  0.15253150963E+03  0.00000000000E+00 0.  1.
          2    1    1    2  501    0  0.45483057319E+02  0.54294350471E+02  0.23867999748E+03  0.24896731953E+03  0.00000000000E+00 0. -1.
<scales pt_clust_5="13000.00000" pt_clust_6="13000.00000" pt_clust_7="13000.00000" pt_clust_8="13000.00000" pt_clust_9="70.82789"></scales>
<clustering>
<clus scale="   70.828">  2  9  1 -1</clus>
<clus scale="   90.607">  7  8 -1 -1</clus>
<clus scale="   92.849">  1  7  2 -1</clus>
<clus scale="  110.367">  5  6 -1 -1</clus>
<clus scale="   70.828">  2  5  1 -1</clus>
</clustering>
</event>
<event>
 9    1  0.4731329E-005  0.1106199E+03  0.7546771E-02  0.1263225E+00
         21   -1    0    0  501  502  0.00000000000E+00  0.00000000000E+00  0.15238439952E+03  0.15238439952E+03  0.00000000000E+00 0. -1.
         -2   -1    0    0    0  501 -0.00000000000E+00 -0.00000000000E+00 -0.14759840092E+03  0.14759840092E+03  0.00000000000E+00 0.  1.
         23    2    1    2    0    0  0.10214711915E+02  0.53329318004E+02 -0.49813590338E+02  0.11677068921E+03  0.90585007466E+02 0.  0.
        -24    2    1    2    0    0 -0.36358747295E+02 -0.85756802002E+02  0.66306014582E+02  0.13994442461E+03  0.80695519179E+02 0.  0.
         13    1    4    4    0    0 -0.18607886094E+01 -0.85880479768E+02  0.60237604106E+02  0.10491657775E+03  0.00000000000E+00 0. -1.
        -14    1    4    4    0    0 -0.34497958686E+02  0.12367776563E+00  0.60684104760E+01  0.35027846856E+02  0.00000000000E+00 0.  1.
        -13    1    3    3    0    0 -0.32739968784E+02 -0.40795197238E+01 -0.23010344164E+02  0.40224668746E+02  0.00000000000E+00 0. -1.
         13    1    3    3    0    0  0.42954680699E+02  0.57408837728E+02 -0.26803246173E+02  0.76546020463E+02  0.00000000000E+00 0.  1.
         -1    1    1    2    0  502  0.26144035380E+02  0.32427483998E+02 -0.11706425643E+02  0.43267686623E+02  0.00000000000E+00 0.  1.
<scales pt_clust_5="13000.00000" pt_clust_6="13000.00000" pt_clust_7="13000.00000" pt_clust_8="13000.00000" pt_clust_9="41.65398"></scales>
<clustering>
<clus scale="   41.654">  1  9  2 -1</clus>
<clus scale="   80.696">  5  6 -1 -1</clus>
<clus scale="   90.585">  7  8 -1 -1</clus>
<clus scale="  102.679">  1  5  2 -1</clus>
<clus scale="   41.654">  1  5  2 -1</clus>
</clustering>
</event>
<event>
 9    1  0.4731329E-005  0.1147742E+03  0.7546771E-02  0.1256306E+00
          3   -1    0    0  502    0 -0.00000000000E+00  0.00000000000E+00  0.97247341562E+03  0.97247341562E+03  0.00000000000E+00 0. -1.
         21   -1    0    0  501  502  0.00000000000E+00 -0.00000000000E+00 -0.19670182492E+02  0.19670182492E+02  0.00000000000E+00 0. -1.
         23    2    1    2    0    0 -0.65189153394E+02 -0.44646740041E+02  0.42751168146E+03  0.44424015428E+03  0.91324256256E+02 0.  0.
        -24    2    1    2    0    0  0.28812817409E+02  0.55680920224E+02  0.24404858908E+03  0.26410317082E+03  0.79121600595E+02 0.  0.
         11    1    4    4    0    0  0.41769269468E+02 -0.20101650147E+01  0.99994769670E+02  0.10838665322E+03  0.00000000000E+00 0. -1.
        -12    1    4    4    0    0 -0.12956452059E+02  0.57691085239E+02  0.14405381941E+03  0.15571651760E+03  0.00000000000E+00 0.  1.
        -13    1    3    3    0    0 -0.41564776904E+02 -0.69300260224E+02  0.22962645770E+03  0.24343062014E+03  0.00000000000E+00 0. -1.
         13    1    3    3    0    0 -0.23624376490E+02  0.24653520183E+02  0.19788522376E+03  0.20080953415E+03  0.00000000000E+00 0.  1.
          4    1    1    2  501    0  0.36376335985E+02 -0.11034180183E+02  0.28124296259E+03  0.28380027300E+03  0.00000000000E+00 0. -1.
<scales pt_clust_5="13000.00000" pt_clust_6="13000.00000" pt_clust_7="13000.00000" pt_clust_8="13000.00000" pt_clust_9="38.01306"></scales>
<clustering>
<clus scale="   38.013">  2  9  1 -1</clus>
<clus scale="   79.122">  5  6 -1 -1</clus>
<clus scale="   91.324">  7  8 -1 -1</clus>
<clus scale="  105.324">  2  5  1 -1</clus>
<clus scale="   38.013">  2  5  1 -1</clus>
</clustering>
</event>
<event>
 9    1  0.4731329E-005  0.2815818E+03  0.7546771E-02  0.1112628E+00
          1   -1    0    0  502    0 -0.00000000000E+00  0.00000000000E+00  0.16250094306E+04  0.16250094306E+04  0.00000000000E+00 0. -1.
         21   -1    0    0  501  502  0.00000000000E+00 -0.00000000000E+00 -0.94256848406E+02  0.94256848406E+02  0.00000000000E+00 0. -1.
        -24    2    1    2    0    0 -0.23587005478E+02  0.15681756718E+03  0.28499004395E+03  0.33600539491E+03  0.80822051808E+02 0.  0.
         23    2    1    2    0    0  0.20159714404E+03  0.85885543813E+02  0.87083510774E+03  0.90246676217E+03  0.89859539457E+02 0.  0.
         11    1    3    3    0    0 -0.44574363557E+02  0.12996270687E+03  0.18551030265E+03  0.23084897975E+03  0.00000000000E+00 0. -1.
        -12    1    3    3    0    0  0.20987358078E+02  0.26854860315E+02  0.99479741294E+02  0.10515641516E+03  0.00000000000E+00 0.  1.
        -13    1    4    4    0    0  0.38842480069E+02  0.60812058742E+02  0.26255183350E+03  0.27228718299E+03  0.00000000000E+00 0.  1.
         13    1    4    4    0    0  0.16275466397E+03  0.25073485071E+02  0.60828327424E+03  0.63017957918E+03  0.00000000000E+00 0. -1.
          2    1    1    2  501    0 -0.17801013856E+03 -0.24270311100E+03  0.37492743047E+03  0.48079412189E+03  0.00000000000E+00 0. -1.
<scales pt_clust_5="13000.00000" pt_clust_6="13000.00000" pt_clust_7="13000.00000" pt_clust_8="13000.00000" pt_clust_9="266.85875"></scales>
<clustering>
<clus scale="   80.822">  5  6 -1 -1</clus>
<clus scale="   89.860">  7  8 -1 -1</clus>
<clus scale="  177.990">  1  5  2 -1</clus>
<clus scale="  266.859">  2  9  1 -1</clus>
<clus scale="  266.859">  2  5  1 -1</clus>
</clustering>
</event>
<event>
 9    1  0.4731329E-005  0.1556253E+03  0.7546771E-02  0.1194991E+00
          1   -1    0    0  502    0 -0.00000000000E+00  0.00000000000E+00  0.91123818930E+03  0.91123818930E+03  0.00000000000E+00 0. -1.
         21   -1    0    0  501  502  0.00000000000E+00 -0.00000000000E+00 -0.50448150921E+02  0.50448150921E+02  0.00000000000E+00 0. -1.
         23    2    1    2    0    0 -0.23611342129E+02  0.14102956598E+03  0.69467014054E+03  0.71506858945E+03  0.91157278904E+02 0.  0.
        -24    2    1    2    0    0  0.24621943719E+02 -0.76223785837E+02  0.90345983183E+02  0.14690568231E+03  0.83681402820E+02 0.  0.
         13    1    4    4    0    0  0.23528348288E+02 -0.68647734828E+02  0.18816364352E+02  0.74967661278E+02  0.00000000000E+00 0. -1.
        -14    1    4    4    0    0  0.10935954305E+01 -0.75760510093E+01  0.71529618831E+02  0.71938021032E+02  0.00000000000E+00 0.  1.
        -11    1    3    3    0    0  0.59830201851E+01  0.20546626724E+02  0.20695202945E+02  0.29769981948E+02  0.00000000000E+00 0.  1.
         11    1    3    3    0    0 -0.29594362314E+02  0.12048293925E+03  0.67397493760E+03  0.68529860750E+03  0.00000000000E+00 0. -1.
          2    1    1    2  501    0 -0.10106015897E+01 -0.64805780140E+02  0.75773914656E+02  0.99712068464E+02  0.00000000000E+00 0. -1.
<scales pt_clust_5="13000.00000" pt_clust_6="13000.00000" pt_clust_7="13000.00000" pt_clust_8="13000.00000" pt_clust_9="64.81366"></scales>
<clustering>
<clus scale="   64.814">  2  9  1 -1</clus>
<clus scale="   83.681">  5  6 -1 -1</clus>
<clus scale="   91.157">  7  8 -1 -1</clus>
<clus scale="  151.368">  2  5  1 -1</clus>
<clus scale="   64.814">  2  5  1 -1</clus>
</clustering>
</event>
<event>
 9    1  0.4731329E-005  0.1662567E+03  0.7546771E-02  0.1202776E+00
         21   -1    0    0  501  502  0.00000000000E+00  0.00000000000E+00  0.47524195499E+02  0.47524195499E+02  0.00000000000E+00 0. -1.
          3   -1    0    0  502    0 -0.00000000000E+00 -0.00000000000E+00 -0.93556414075E+03  0.93556414075E+03  0.00000000000E+00 0. -1.
         23    2    1    2    0    0 -0.50381775598E+02  0.11080415358E+02 -0.21665577425E+03  0.24067172337E+03  0.91225298003E+02 0.  0.
        -24    2    1    2    0    0  0.16404918682E+03  0.46741696571E+02 -0.36624468673E+03  0.41169954066E+03  0.79148084759E+02 0.  0.
         13    1    4    4    0    0  0.15621588787E+03  0.56509276992E+02 -0.36230374365E+03  0.39857333663E+03  0.00000000000E+00 0. -1.
        -14    1    4    4    0    0  0.78332989567E+01 -0.97675804213E+01 -0.39409430841E+01  0.13126204029E+02  0.00000000000E+00 0.  1.
        -11    1    3    3    0    0 -0.42963273503E+01 -0.29680530832E+02 -0.13578681780E+03  0.13905916808E+03  0.00000000000E+00 0. -1.
         11    1    3    3    0    0 -0.46085448247E+02  0.40760946190E+02 -0.80868956453E+02  0.10161255529E+03  0.00000000000E+00 0.  1.
          4    1    1    2  501    0 -0.11366741122E+03 -0.57822111928E+02 -0.30513948426E+03  0.33071707222E+03  0.00000000000E+00 0. -1.
<scales pt_clust_5="13000.00000" pt_clust_6="13000.00000" pt_clust_7="13000.00000" pt_clust_8="13000.00000" pt_clust_9="146.20831"></scales>
<clustering>
<clus scale="   79.148">  5  6 -1 -1</clus>
<clus scale="   91.225">  7  8 -1 -1</clus>
<clus scale="  104.801">  2  7  1 -1</clus>
<clus scale="  146.208">  1  9  2 -1</clus>
<clus scale="  146.208">  1  5  2 -1</clus>
</clustering>
</event>
<event>
 9    1  0.4731329E-005  0.9146565E+02  0.7546771E-02  0.1308042E+00
         -2   -1    0    0    0  501 -0.00000000000E+00  0.00000000000E+00  0.16911730620E+03  0.16911730620E+03  0.00000000000E+00 0.  1.
         21   -1    0    0  501  502  0.00000000000E+00 -0.00000000000E+00 -0.75153687552E+02  0.75153687552E+02  0.00000000000E+00 0.  1.
        -24    2    1    2    0    0  0.18784208256E+01  0.13351924416E+02  0.22813192774E+02  0.82312310376E+02  0.77929919316E+02 0.  0.
         23    2    1    2    0    0  0.84279951945E+01  0.15181131859E+02  0.98676356789E+01  0.93577853564E+02  0.91421805803E+02 0.  0.
         11    1    3    3    0    0  0.72734938293E+00 -0.31178499602E+02  0.21252168993E+02  0.37739668274E+02  0.00000000000E+00 0. -1.
        -12    1    3    3    0    0  0.11510714427E+01  0.44530424018E+02  0.15610237811E+01  0.44572642102E+02  0.00000000000E+00 0.  1.
        -11    1    4    4    0    0 -0.19197516823E+02  0.24292022135E+02 -0.30737430718E+02  0.43628392576E+02  0.00000000000E+00 0.  1.
         11    1    4    4    0    0  0.27625512018E+02 -0.91108902764E+01  0.40605066397E+02  0.49949460988E+02  0.00000000000E+00 0. -1.
         -1    1    1    2    0  502 -0.10306416020E+02 -0.28533056275E+02  0.61282790196E+02  0.68380829812E+02  0.00000000000E+00 0.  1.
<scales pt_clust_5="13000.00000" pt_clust_6="13000.00000" pt_clust_7="13000.00000" pt_clust_8="13000.00000" pt_clust_9="30.33741"></scales>
<clustering>
<clus scale="   30.337">  2  9  1 -1</clus>
<clus scale="   77.930">  5  6 -1 -1</clus>
<clus scale="   77.981">  1  5  2 -1</clus>
<clus scale="   91.422">  7  8 -1 -1</clus>
<clus scale="   30.337">  2  5  1 -1</clus>
</clustering>
</event>
<event>
 9    1  0.4731329E-005  0.1350348E+03  0.7546771E-02  0.1221066E+00
          1   -1    0    0  502    0 -0.00000000000E+00  0.00000000000E+00  0.55791353948E+03  0.55791353948E+03  0.00000000000E+00 0. -1.
         21   -1    0    0  501  502  0.00000000000E+00 -0.00000000000E+00 -0.18893944948E+03  0.18893944948E+03  0.00000000000E+00 0. -1.
         23    2    1    2    0    0  0.32098809831E+01  0.91439328532E+02  0.22333594750E+03  0.25572138806E+03  0.84516440595E+02 0.  0.
        -24    2    1    2    0    0 -0.29902573475E+02 -0.11698052475E+03  0.29955663232E+03  0.33284150631E+03  0.80440569923E+02 0.  0.
         13    1    4    4    0    0 -0.28227768945E+02 -0.67743213635E+01  0.10805596375E+03  0.11188739728E+03  0.00000000000E+00 0. -1.
        -14    1    4    4    0    0 -0.16748045297E+01 -0.11020620339E+03  0.19150066857E+03  0.22095410903E+03  0.00000000000E+00 0.  1.
        -11    1    3    3    0    0  0.24470632432E+02  0.19376607856E+02  0.14033832197E+03  0.14376755335E+03  0.00000000000E+00 0. -1.
         11    1    3    3    0    0 -0.21260751449E+02  0.72062720677E+02  0.82997625525E+02  0.11195383471E+03  0.00000000000E+00 0.  1.
          2    1    1    2  501    0  0.26692692491E+02  0.25541196218E+02 -0.15391848981E+03  0.15829009458E+03  0.00000000000E+00 0. -1.
<scales pt_clust_5="13000.00000" pt_clust_6="13000.00000" pt_clust_7="13000.00000" pt_clust_8="13000.00000" pt_clust_9="36.94391"></scales>
<clustering>
<clus scale="   36.944">  2  9  1 -1</clus>
<clus scale="   80.441">  5  6 -1 -1</clus>
<clus scale="   84.516">  7  8 -1 -1</clus>
<clus scale="  132.522">  2  5  1 -1</clus>
<clus scale="   36.944">  2  5  1 -1</clus>
</clustering>
</event>
<event>
 9    1  0.4731329E-005  0.2058945E+03  0.7546771E-02  0.1145942E+00
         21   -1    0    0  501  502  0.00000000000E+00  0.00000000000E+00  0.70530875941E+02  0.70530875941E+02  0.00000000000E+00 0.  1.
          1   -1    0    0  502    0 -0.00000000000E+00 -0.00000000000E+00 -0.13363655247E+04  0.13363655247E+04  0.00000000000E+00 0. -1.
        -24    2    1    2    0    0 -0.51916375215E+02  0.16658298657E+03 -0.60522680733E+03  0.63470522681E+03  0.78141123671E+02 0.  0.
         23    2    1    2    0    0  0.24872557723E+02 -0.19653303612E+03 -0.68913801970E+03  0.72277109086E+03  0.90790754895E+02 0.  0.
         11    1    3    3    0    0 -0.59455408234E+02  0.71844161919E+02 -0.35480478766E+03  0.36685551177E+03  0.00000000000E+00 0. -1.
        -12    1    3    3    0    0  0.75390330190E+01  0.94738824649E+02 -0.25042201967E+03  0.26784971505E+03  0.00000000000E+00 0.  1.
        -11    1    4    4    0    0 -0.18515990674E+02 -0.35899105234E+02 -0.62485093507E+02  0.74404130113E+02  0.00000000000E+00 0.  1.
         11    1    4    4    0    0  0.43388548397E+02 -0.16063393088E+03 -0.62665292620E+03  0.64836696075E+03  0.00000000000E+00 0. -1.
          2    1    1    2  501    0  0.27043817492E+02  0.29950049548E+02  0.28530178242E+02  0.49420082993E+02  0.00000000000E+00 0. -1.
<scales pt_clust_5="13000.00000" pt_clust_6="13000.00000" pt_clust_7="13000.00000" pt_clust_8="13000.00000" pt_clust_9="40.35311"></scales>
<clustering>
<clus scale="   40.353">  1  9  2 -1</clus>
<clus scale="   78.141">  5  6 -1 -1</clus>
<clus scale="   90.791">  7  8 -1 -1</clus>
<clus scale="  200.638">  2  5  1 -1</clus>
<clus scale="   40.353">  1  5  2 -1</clus>
</clustering>
</event>
<event>
 9    1  0.4731329E-005  0.1070381E+03  0.7546771E-02  0.1269330E+00
         21   -1    0    0  501  502  0.00000000000E+00  0.00000000000E+00  0.63338579396E+02  0.63338579396E+02  0.00000000000E+00 0. -1.
          1   -1    0    0  502    0 -0.00000000000E+00 -0.00000000000E+00 -0.55801831702E+03  0.55801831702E+03  0.00000000000E+00 0. -1.
         23    2    1    2    0    0 -0.21428229390E+02  0.53424986863E+02 -0.44641573599E+03  0.45916610941E+03  0.90736478120E+02 0.  0.
        -24    2    1    2    0    0 -0.25034133328E+02 -0.63153781949E+02 -0.35225081347E+02  0.11296260356E+03  0.83094136015E+02 0.  0.
         13    1    4    4    0    0 -0.20969853277E+02  0.11102526603E+02 -0.30226849502E+02  0.38427376624E+02  0.00000000000E+00 0. -1.
        -14    1    4    4    0    0 -0.40642800512E+01 -0.74256308552E+02 -0.49982318454E+01  0.74535226931E+02  0.00000000000E+00 0.  1.
        -11    1    3    3    0    0 -0.94673974386E+01  0.73848613244E+02 -0.40201283423E+03  0.40884907751E+03  0.00000000000E+00 0. -1.
         11    1    3    3    0    0 -0.11960831951E+02 -0.20423626381E+02 -0.44402901753E+02  0.50317031904E+02  0.00000000000E+00 0.  1.
          2    1    1    2  501    0  0.46462362718E+02  0.97287950861E+01 -0.13038920290E+02  0.49228183447E+02  0.00000000000E+00 0. -1.
<scales pt_clust_5="13000.00000" pt_clust_6="13000.00000" pt_clust_7="13000.00000" pt_clust_8="13000.00000" pt_clust_9="47.47000"></scales>
<clustering>
<clus scale="   47.470">  1  9  2 -1</clus>
<clus scale="   83.094">  5  6 -1 -1</clus>
<clus scale="   90.736">  7  8 -1 -1</clus>
<clus scale="  100.641">  1  5  2 -1</clus>
<clus scale="   47.470">  1  5  2 -1</clus>
</clustering>
</event>
<event>
 9    1  0.4731329E-005  0.1971838E+03  0.7546771E-02  0.1152901E+00
          1   -1    0    0  502    0 -0.00000000000E+00  0.00000000000E+00  0.49842412568E+03  0.49842412568E+03  0.00000000000E+00 0. -1.
         21   -1    0    0  501  502  0.00000000000E+00 -0.00000000000E+00 -0.13755390850E+03  0.13755390850E+03  0.00000000000E+00 0. -1.
        -24    2    1    2    0    0 -0.20855883185E+03 -0.71083638854E+02  0.29281511111E+03  0.37535444253E+03  0.81244065467E+02 0.  0.
         23    2    1    2    0    0  0.10608858650E+03  0.42127057575E+02  0.34558450209E+02  0.14899626195E+03  0.89309139671E+02 0.  0.
         11    1    3    3    0    0 -0.18573540364E+03 -0.81369366843E+02  0.28368825453E+03  0.34870853127E+03  0.00000000000E+00 0. -1.
        -12    1    3    3    0    0 -0.22823428212E+02  0.10285727989E+02  0.91268565895E+01  0.26645911259E+02  0.00000000000E+00 0.  1.
        -11    1    4    4    0    0  0.86863041462E+02  0.69582625806E+02  0.23998849202E+02  0.11385462024E+03  0.00000000000E+00 0.  1.
         11    1    4    4    0    0  0.19225545036E+02 -0.27455568231E+02  0.10559601007E+02  0.35141641712E+02  0.00000000000E+00 0. -1.
          2    1    1    2  501    0  0.10247024535E+03  0.28956581279E+02  0.33496655863E+02  0.11162732970E+03  0.00000000000E+00 0. -1.
<scales pt_clust_5="13000.00000" pt_clust_6="13000.00000" pt_clust_7="13000.00000" pt_clust_8="13000.00000" pt_clust_9="106.48303"></scales>
<clustering>
<clus scale="   81.244">  5  6 -1 -1</clus>
<clus scale="   89.309">  7  8 -1 -1</clus>
<clus scale="  106.483">  2  9  1 -1</clus>
<clus scale="  193.664">  1  5  2 -1</clus>
<clus scale="  106.483">  2  5  1 -1</clus>
</clustering>
</event>
<event>
 9    1  0.4731329E-005  0.9352357E+02  0.7546771E-02  0.1301093E+00
         21   -1    0    0  501  502  0.00000000000E+00  0.00000000000E+00  0.23002319793E+03  0.23002319793E+03  0.00000000000E+00 0. -1.
         -2   -1    0    0    0  501 -0.00000000000E+00 -0.00000000000E+00 -0.18355440934E+03  0.18355440934E+03  0.00000000000E+00 0.  1.
         23    2    1    2    0    0 -0.18270078060E+02  0.13429958722E+02 -0.15407817446E+03  0.18025946262E+03  0.90770206993E+02 0.  0.
        -24    2    1    2    0    0  0.29826470593E+02  0.68414073130E+01  0.10695573291E+03  0.13686195330E+03  0.79719773315E+02 0.  0.
         13    1    4    4    0    0  0.51806573452E+02  0.23885600753E+02  0.78820352959E+02  0.97298977470E+02  0.00000000000E+00 0. -1.
        -14    1    4    4    0    0 -0.21980102859E+02 -0.17044193440E+02  0.28135379948E+02  0.39562975830E+02  0.00000000000E+00 0.  1.
        -13    1    3    3    0    0 -0.84645984627E+00 -0.35864030893E+02 -0.34591124457E+02  0.49834637526E+02  0.00000000000E+00 0. -1.
         13    1    3    3    0    0 -0.17423618214E+02  0.49293989615E+02 -0.11948705000E+03  0.13042482510E+03  0.00000000000E+00 0.  1.
         -1    1    1    2    0  502 -0.11556392532E+02 -0.20271366035E+02  0.93591230139E+02  0.96456191342E+02  0.00000000000E+00 0.  1.
<scales pt_clust_5="13000.00000" pt_clust_6="13000.00000" pt_clust_7="13000.00000" pt_clust_8="13000.00000" pt_clust_9="23.33406"></scales>
<clustering>
<clus scale="   23.334">  1  9  2 -1</clus>
<clus scale="   79.720">  5  6 -1 -1</clus>
<clus scale="   82.841">  1  5  2 -1</clus>
<clus scale="   90.770">  7  8 -1 -1</clus>
<clus scale="   23.334">  1  5  2 -1</clus>
</clustering>
</event>
<event>
 9    1  0.4731329E-005  0.1951856E+03  0.7546771E-02  0.1184147E+00
         21   -1    0    0  501  502  0.00000000000E+00  0.00000000000E+00  0.23404388706E+03  0.23404388706E+03  0.00000000000E+00 0. -1.
          1   -1    0    0  502    0 -0.00000000000E+00 -0.00000000000E+00 -0.30064681139E+03  0.30064681139E+03  0.00000000000E+00 0. -1.
         23    2    1    2    0    0 -0.24122686887E+02 -0.25330265022E+02 -0.91194149586E+02  0.13351042166E+03  0.91022708285E+02 0.  0.
        -24    2    1    2    0    0 -0.12482430122E+03 -0.86249572096E+02 -0.76077234986E+02  0.18959246002E+03  0.84483491588E+02 0.  0.
         13    1    4    4    0    0 -0.13318027109E+03 -0.68281513953E+02 -0.79522600130E+02  0.16947918364E+03  0.00000000000E+00 0. -1.
        -14    1    4    4    0    0  0.83559698673E+01 -0.17968058143E+02  0.34453651436E+01  0.20113276382E+02  0.00000000000E+00 0.  1.
        -11    1    3    3    0    0  0.32490401548E+02 -0.18372450851E+02 -0.20198703536E+02  0.42440084444E+02  0.00000000000E+00 0. -1.
         11    1    3    3    0    0 -0.56613088436E+02 -0.69578141707E+01 -0.70995446050E+02  0.91070337213E+02  0.00000000000E+00 0.  1.
          2    1    1    2  501    0  0.14894698811E+03  0.11157983712E+03  0.10066846025E+03  0.21158781677E+03  0.00000000000E+00 0. -1.
<scales pt_clust_5="13000.00000" pt_clust_6="13000.00000" pt_clust_7="13000.00000" pt_clust_8="13000.00000" pt_clust_9="175.95437"></scales>
<clustering>
<clus scale="   84.483">  5  6 -1 -1</clus>
<clus scale="   91.023">  7  8 -1 -1</clus>
<clus scale="   97.512">  2  7  1 -1</clus>
<clus scale="  175.954">  1  9  2 -1</clus>
<clus scale="  175.954">  1  5  2 -1</clus>
</clustering>
</event>
<event>
 9    1  0.4731329E-005  0.9186224E+02  0.7546771E-02  0.1305210E+00
          1   -1    0    0  502    0 -0.00000000000E+00  0.00000000000E+00  0.61816541454E+02  0.61816541454E+02  0.00000000000E+00 0. -1.
         21   -1    0    0  501  502  0.00000000000E+00 -0.00000000000E+00 -0.27693754065E+03  0.27693754065E+03  0.00000000000E+00 0. -1.
         23    2    1    2    0    0  0.42613739454E+01 -0.72414587934E+00 -0.14853494423E+02  0.92760261594E+02  0.91461227519E+02 0.  0.
        -24    2    1    2    0    0 -0.19585541248E+01 -0.20467470683E+02 -0.56275414250E+02  0.10043245983E+03  0.80603991508E+02 0.  0.
         13    1    4    4    0    0 -0.19787193353E+02 -0.18522653322E+02 -0.71779032184E+02  0.76725818133E+02  0.00000000000E+00 0. -1.
        -14    1    4    4    0    0  0.17828639228E+02 -0.19448173611E+01  0.15503617933E+02  0.23706641692E+02  0.00000000000E+00 0.  1.
        -11    1    3    3    0    0  0.47454144523E+02 -0.65526540645E+01 -0.59065836452E+01  0.48267181791E+02  0.00000000000E+00 0.  1.
         11    1    3    3    0    0 -0.43192770578E+02  0.58285081851E+01 -0.89469107777E+01  0.44493079802E+02  0.00000000000E+00 0. -1.
          2    1    1    2  501    0 -0.23028198206E+01  0.21191616563E+02 -0.14399209052E+03  0.14556136069E+03  0.00000000000E+00 0. -1.
<scales pt_clust_5="13000.00000" pt_clust_6="13000.00000" pt_clust_7="13000.00000" pt_clust_8="13000.00000" pt_clust_9="21.31637"></scales>
<clustering>
<clus scale="   21.316">  2  9  1 -1</clus>
<clus scale="   80.604">  5  6 -1 -1</clus>
<clus scale="   81.059">  2  5  1 -1</clus>
<clus scale="   91.461">  7  8 -1 -1</clus>
<clus scale="   21.316">  2  5  1 -1</clus>
</clustering>
</event>
<event>
 9    1  0.4731329E-005  0.8848186E+02  0.7546771E-02  0.1310267E+00
          1   -1    0    0  502    0 -0.00000000000E+00  0.00000000000E+00  0.22772739311E+03  0.22772739311E+03  0.00000000000E+00 0. -1.
         21   -1    0    0  501  502  0.00000000000E+00 -0.00000000000E+00 -0.13367252451E+03  0.13367252451E+03  0.00000000000E+00 0. -1.
         23    2    1    2    0    0  0.11998140154E+02  0.16045958281E+02  0.14303534290E+03  0.16895736701E+03  0.87670145469E+02 0.  0.
        -24    2    1    2    0    0 -0.11019541431E+02  0.63756979573E+02 -0.13898351314E+02  0.10526329907E+03  0.81858507346E+02 0.  0.
         11    1    4    4    0    0 -0.13863823861E+02  0.81064822479E+02 -0.23143240423E+02  0.85436061665E+02  0.00000000000E+00 0. -1.
        -12    1    4    4    0    0  0.28442824299E+01 -0.17307842906E+02  0.92448891088E+01  0.19827237408E+02  0.00000000000E+00 0.  1.
        -11    1    3    3    0    0 -0.26682645202E+02  0.36615638219E+02  0.84036368435E+02  0.95471355583E+02  0.00000000000E+00 0.  1.
         11    1    3    3    0    0  0.38680785356E+02 -0.20569679938E+02  0.58998974463E+02  0.73486011432E+02  0.00000000000E+00 0. -1.
          2    1    1    2  501    0 -0.97859872340E+00 -0.79802937853E+02 -0.35082122979E+02  0.87179251535E+02  0.00000000000E+00 0. -1.
<scales pt_clust_5="13000.00000" pt_clust_6="13000.00000" pt_clust_7="13000.00000" pt_clust_8="13000.00000" pt_clust_9="79.80894"></scales>
<clustering>
<clus scale="   79.809">  2  9  1 -1</clus>
<clus scale="   81.859">  5  6 -1 -1</clus>
<clus scale="   82.727">  2  5  1 -1</clus>
<clus scale="   87.670">  7  8 -1 -1</clus>
<clus scale="   79.809">  2  5  1 -1</clus>
</clustering>
</event>
<event>
 9    1  0.4731329E-005  0.9605257E+02  0.7546771E-02  0.1293028E+00
          1   -1    0    0  502    0 -0.00000000000E+00  0.00000000000E+00  0.20090002227E+03  0.20090002227E+03  0.00000000000E+00 0. -1.
         21   -1    0    0  501  502  0.00000000000E+00 -0.00000000000E+00 -0.97711237389E+02  0.97711237389E+02  0.00000000000E+00 0.  1.
        -24    2    1    2    0    0  0.80218175804E+01  0.27433718166E+02  0.11119906424E+03  0.14177507489E+03  0.83174404252E+02 0.  0.
         23    2    1    2    0    0 -0.50856928252E+02 -0.23500902734E+02 -0.26510766120E+02  0.11001117271E+03  0.90889591379E+02 0.  0.
         11    1    3    3    0    0  0.43837443172E+02  0.48175016196E+01  0.69666942667E+02  0.82452487205E+02  0.00000000000E+00 0. -1.
        -12    1    3    3    0    0 -0.35815625592E+02  0.22616216546E+02  0.41532121577E+02  0.59322587689E+02  0.00000000000E+00 0.  1.
        -11    1    4    4    0    0 -0.62228285562E+02 -0.45695638058E+02 -0.54960642527E+01  0.77399338393E+02  0.00000000000E+00 0.  1.
         11    1    4    4    0    0  0.11371357310E+02  0.22194735324E+02 -0.21014701867E+02  0.32611834320E+02  0.00000000000E+00 0. -1.
          2    1    1    2  501    0  0.42835110671E+02 -0.39328154319E+01  0.18500486756E+02  0.46825012052E+02  0.00000000000E+00 0. -1.
<scales pt_clust_5="13000.00000" pt_clust_6="13000.00000" pt_clust_7="13000.00000" pt_clust_8="13000.00000" pt_clust_9="43.01529"></scales>
<clustering>
<clus scale="   43.015">  2  9  1 -1</clus>
<clus scale="   83.174">  5  6 -1 -1</clus>
<clus scale="   88.787">  1  5  2 -1</clus>
<clus scale="   90.890">  7  8 -1 -1</clus>
<clus scale="   43.015">  2  5  1 -1</clus>
</clustering>
</event>
<event>
 9    1  0.4731329E-005  0.1887801E+03  0.7546771E-02  0.1175183E+00
          1   -1    0    0  502    0 -0.00000000000E+00  0.00000000000E+00  0.55996828936E+03  0.55996828936E+03  0.00000000000E+00 0. -1.
         21   -1    0    0  501  502  0.00000000000E+00 -0.00000000000E+00 -0.13767373545E+03  0.13767373545E+03  0.00000000000E+00 0. -1.
         23    2    1    2    0    0  0.21508737409E+02 -0.91171055739E+02  0.15567263988E+03  0.20401001941E+03  0.92797252229E+02 0.  0.
        -24    2    1    2    0    0 -0.63000891490E+02 -0.13270476212E+03  0.43797693955E+02  0.17505295129E+03  0.84531837455E+02 0.  0.
         11    1    4    4    0    0 -0.64804884426E+02 -0.86475750083E+02 -0.45195637798E+01  0.10815800874E+03  0.00000000000E+00 0. -1.
        -12    1    4    4    0    0  0.18039929354E+01 -0.46229012034E+02  0.48317257735E+02  0.66894942553E+02  0.00000000000E+00 0.  1.
        -13    1    3    3    0    0 -0.13344634868E+02 -0.89017388444E+02  0.13828747021E+03  0.16500181557E+03  0.00000000000E+00 0. -1.
         13    1    3    3    0    0  0.34853372277E+02 -0.21536672952E+01  0.17385169671E+02  0.39008203834E+02  0.00000000000E+00 0.  1.
          2    1    1    2  501    0  0.41492154081E+02  0.22387581786E+03  0.22282422007E+03  0.31857905411E+03  0.00000000000E+00 0. -1.
<scales pt_clust_5="13000.00000" pt_clust_6="13000.00000" pt_clust_7="13000.00000" pt_clust_8="13000.00000" pt_clust_9="168.79674"></scales>
<clustering>
<clus scale="   84.532">  5  6 -1 -1</clus>
<clus scale="   92.797">  7  8 -1 -1</clus>
<clus scale="  131.856">  1  7  2 -1</clus>
<clus scale="  168.797">  2  9  1 -1</clus>
<clus scale="  168.797">  2  5  1 -1</clus>
</clustering>
</event>
<event>
 9    1  0.4731329E-005  0.9780937E+02  0.7546771E-02  0.1289484E+00
         21   -1    0    0  501  502  0.00000000000E+00  0.00000000000E+00  0.29599349555E+03  0.29599349555E+03  0.00000000000E+00 0.  1.
          1   -1    0    0  502    0 -0.00000000000E+00 -0.00000000000E+00 -0.81856909829E+02  0.81856909829E+02  0.00000000000E+00 0. -1.
         23    2    1    2    0    0 -0.50873343703E+01 -0.33152692335E+02 -0.15787054639E+02  0.96901095204E+02  0.89529934533E+02 0.  0.
        -24    2    1    2    0    0 -0.18792268568E+02  0.55338102990E+02  0.80840214500E+02  0.12834427832E+03  0.80756786067E+02 0.  0.
         13    1    4    4    0    0  0.16137206970E+02 -0.14228254185E+02  0.13363794586E+02  0.25326738275E+02  0.00000000000E+00 0. -1.
        -14    1    4    4    0    0 -0.34929475537E+02  0.69566357174E+02  0.67476419914E+02  0.10301754004E+03  0.00000000000E+00 0.  1.
        -13    1    3    3    0    0  0.16906192411E+02  0.13432048558E+02 -0.35657897157E+02  0.41686027635E+02  0.00000000000E+00 0.  1.
         13    1    3    3    0    0 -0.21993526781E+02 -0.46584740893E+02  0.19870842518E+02  0.55215067570E+02  0.00000000000E+00 0. -1.
          2    1    1    2  501    0  0.23879602938E+02 -0.22185410654E+02  0.14908342586E+03  0.15260503186E+03  0.00000000000E+00 0. -1.
<scales pt_clust_5="13000.00000" pt_clust_6="13000.00000" pt_clust_7="13000.00000" pt_clust_8="13000.00000" pt_clust_9="32.59491"></scales>
<clustering>
<clus scale="   32.595">  1  9  2 -1</clus>
<clus scale="   80.757">  5  6 -1 -1</clus>
<clus scale="   89.530">  7  8 -1 -1</clus>
<clus scale="   89.848">  1  5  2 -1</clus>
<clus scale="   32.595">  1  5  2 -1</clus>
</clustering>
</event>
<event>
 9    1  0.4731329E-005  0.1091109E+03  0.7546771E-02  0.1265856E+00
         21   -1    0    0  501  502  0.00000000000E+00  0.00000000000E+00  0.70053354869E+02  0.70053354869E+02  0.00000000000E+00 0. -1.
          1   -1    0    0  502    0 -0.00000000000E+00 -0.00000000000E+00 -0.25246744803E+03  0.25246744803E+03  0.00000000000E+00 0. -1.
        -24    2    1    2    0    0 -0.10818455688E+02 -0.51123076525E+02 -0.99812739638E+02  0.13849075034E+03  0.80538791886E+02 0.  0.
         23    2    1    2    0    0  0.21766089879E+02  0.82035856326E+02 -0.39169453587E+02  0.12960780912E+03  0.89779138432E+02 0.  0.
         13    1    3    3    0    0  0.27595851052E+02 -0.49027192647E+02 -0.47980962757E+02  0.73941662148E+02  0.00000000000E+00 0. -1.
        -14    1    3    3    0    0 -0.38414306740E+02 -0.20958838780E+01 -0.51831776881E+02  0.64549088190E+02  0.00000000000E+00 0.  1.
        -13    1    4    4    0    0  0.22890429523E+02 -0.94889209660E+01 -0.28011402771E+02  0.37398530320E+02  0.00000000000E+00 0.  1.
         13    1    4    4    0    0 -0.11243396448E+01  0.91524777292E+02 -0.11158050816E+02  0.92209278796E+02  0.00000000000E+00 0. -1.
          2    1    1    2  501    0 -0.10947634191E+02 -0.30912779801E+02 -0.43431899934E+02  0.54422243442E+02  0.00000000000E+00 0. -1.
<scales pt_clust_5="13000.00000" pt_clust_6="13000.00000" pt_clust_7="13000.00000" pt_clust_8="13000.00000" pt_clust_9="32.79408"></scales>
<clustering>
<clus scale="   32.794">  1  9  2 -1</clus>
<clus scale="   80.539">  5  6 -1 -1</clus>
<clus scale="   89.779">  7  8 -1 -1</clus>
<clus scale="  101.643">  2  5  1 -1</clus>
<clus scale="   32.794">  1  5  2 -1</clus>
</clustering>
</event>
<event>
 9    1  0.4731329E-005  0.1085418E+03  0.7546771E-02  0.1269466E+00
         21   -1    0    0  501  502  0.00000000000E+00  0.00000000000E+00  0.92631258686E+02  0.92631258686E+02  0.00000000000E+00 0. -1.
         -4   -1    0    0    0  501 -0.00000000000E+00 -0.00000000000E+00 -0.30610488000E+03  0.30610488000E+03  0.00000000000E+00 0.  1.
         23    2    1    2    0    0  0.22850053883E+02 -0.32920307769E+02 -0.11544065923E+03  0.15243486081E+03  0.91126117877E+02 0.  0.
        -24    2    1    2    0    0 -0.60947169976E+02  0.49608303302E+02 -0.14624596842E+03  0.18262731594E+03  0.76087528306E+02 0.  0.
         13    1    4    4    0    0 -0.14593427610E+02 -0.15856162884E+02 -0.83752024648E+01  0.23119905863E+02  0.00000000000E+00 0. -1.
        -14    1    4    4    0    0 -0.46353742366E+02  0.65464466186E+02 -0.13787076596E+03  0.15950741008E+03  0.00000000000E+00 0.  1.
        -13    1    3    3    0    0 -0.19231789803E+02  0.11997765308E+02 -0.12376181815E+01  0.22701097114E+02  0.00000000000E+00 0. -1.
         13    1    3    3    0    0  0.42081843686E+02 -0.44918073077E+02 -0.11420304105E+03  0.12973376369E+03  0.00000000000E+00 0.  1.
         -3    1    1    2    0  502  0.38097116094E+02 -0.16687995533E+02  0.48213006334E+02  0.63673961941E+02  0.00000000000E+00 0.  1.
<scales pt_clust_5="13000.00000" pt_clust_6="13000.00000" pt_clust_7="13000.00000" pt_clust_8="13000.00000" pt_clust_9="41.59182"></scales>
<clustering>
<clus scale="   41.592">  1  9  2 -1</clus>
<clus scale="   76.088">  5  6 -1 -1</clus>
<clus scale="   91.126">  7  8 -1 -1</clus>
<clus scale="   96.264">  1  5  2 -1</clus>
<clus scale="   41.592">  1  5  2 -1</clus>
</clustering>
</event>
<event>
 9    1  0.4731329E-005  0.1081029E+03  0.7546771E-02  0.1274390E+00
         21   -1    0    0  501  502  0.00000000000E+00  0.00000000000E+00  0.24347767276E+02  0.24347767276E+02  0.00000000000E+00 0. -1.
          1   -1    0    0  502    0 -0.00000000000E+00 -0.00000000000E+00 -0.11340843683E+04  0.11340843683E+04  0.00000000000E+00 0. -1.
        -24    2    1    2    0    0  0.54252690477E+00 -0.68404462111E+02 -0.34861059598E+03  0.36087433954E+03  0.63415112884E+02 0.  0.
         23    2    1    2    0    0 -0.82808184228E+02  0.28835055448E+02 -0.26198357351E+03  0.29013633089E+03  0.88628674364E+02 0.  0.
         13    1    3    3    0    0  0.17615927551E+02 -0.71445392668E+02 -0.30887299369E+03  0.31751738735E+03  0.00000000000E+00 0. -1.
        -14    1    3    3    0    0 -0.17073400646E+02  0.30409305563E+01 -0.39737602281E+02  0.43356952191E+02  0.00000000000E+00 0.  1.
        -11    1    4    4    0    0 -0.44382798793E+02  0.46263826467E+02 -0.22524121029E+03  0.23418748319E+03  0.00000000000E+00 0.  1.
         11    1    4    4    0    0 -0.38425385435E+02 -0.17428771018E+02 -0.36742363214E+02  0.55948847706E+02  0.00000000000E+00 0. -1.
          2    1    1    2  501    0  0.82265657323E+02  0.39569406663E+02 -0.49914243159E+03  0.50742146519E+03  0.00000000000E+00 0. -1.
<scales pt_clust_5="13000.00000" pt_clust_6="13000.00000" pt_clust_7="13000.00000" pt_clust_8="13000.00000" pt_clust_9="91.28737"></scales>
<clustering>
<clus scale="   63.415">  5  6 -1 -1</clus>
<clus scale="   88.629">  7  8 -1 -1</clus>
<clus scale="   91.287">  1  9  2 -1</clus>
<clus scale="   88.615">  2  5  1 -1</clus>
<clus scale="   91.287">  1  5  2 -1</clus>
</clustering>
</event>
<event>
 9    1  0.4731329E-005  0.1280902E+03  0.7546771E-02  0.1247841E+00
         21   -1    0    0  501  502  0.00000000000E+00  0.00000000000E+00  0.27425918562E+03  0.27425918562E+03  0.00000000000E+00 0.  1.
          1   -1    0    0  502    0 -0.00000000000E+00 -0.00000000000E+00 -0.16234484746E+03  0.16234484746E+03  0.00000000000E+00 0. -1.
        -24    2    1    2    0    0  0.13312761691E+02 -0.37148239040E+02  0.16641212543E+03  0.18903938704E+03  0.80533676660E+02 0.  0.
         23    2    1    2    0    0 -0.38190814423E+02 -0.58288489761E+02 -0.87473284569E+02  0.14357200142E+03  0.90029204888E+02 0.  0.
         13    1    3    3    0    0  0.30202967841E+02  0.15247916414E+02  0.51477242543E+02  0.61600525332E+02  0.00000000000E+00 0. -1.
        -14    1    3    3    0    0 -0.16890206150E+02 -0.52396155455E+02  0.11493488288E+03  0.12743886171E+03  0.00000000000E+00 0.  1.
        -13    1    4    4    0    0 -0.20966026495E+02  0.22718002048E+02 -0.26704013718E+02  0.40850780075E+02  0.00000000000E+00 0.  1.
         13    1    4    4    0    0 -0.17224787928E+02 -0.81006491809E+02 -0.60769270851E+02  0.10272122134E+03  0.00000000000E+00 0. -1.
          2    1    1    2  501    0  0.24878052733E+02  0.95436728801E+02  0.32975497303E+02  0.10399264462E+03  0.00000000000E+00 0. -1.
<scales pt_clust_5="13000.00000" pt_clust_6="13000.00000" pt_clust_7="13000.00000" pt_clust_8="13000.00000" pt_clust_9="91.11443"></scales>
<clustering>
<clus scale="   80.534">  5  6 -1 -1</clus>
<clus scale="   89.682">  2  5  1 -1</clus>
<clus scale="   90.029">  7  8 -1 -1</clus>
<clus scale="   91.114">  1  9  2 -1</clus>
<clus scale="   91.114">  1  5  2 -1</clus>
</clustering>
</event>
<event>
 9    1  0.4731329E-005  0.1080380E+03  0.7546771E-02  0.1268958E+00
         21   -1    0    0  501  502  0.00000000000E+00  0.00000000000E+00  0.10932703688E+03  0.10932703688E+03  0.00000000000E+00 0. -1.
          1   -1    0    0  502    0 -0.00000000000E+00 -0.00000000000E+00 -0.99757935704E+03  0.99757935704E+03  0.00000000000E+00 0. -1.
        -24    2    1    2    0    0 -0.48040767173E+02 -0.36841462263E+02 -0.88808812459E+03  0.89368493241E+03  0.79416828985E+02 0.  0.
         23    2    1    2    0    0  0.54090667242E+01  0.52448217591E+02 -0.72611751009E+02  0.12772478916E+03  0.90890493734E+02 0.  0.
         11    1    3    3    0    0 -0.25488479356E+02 -0.51627750373E+01 -0.70026123357E+02  0.74699228767E+02  0.00000000000E+00 0. -1.
        -12    1    3    3    0    0 -0.22552287817E+02 -0.31678687226E+02 -0.81806200123E+03  0.81898570364E+03  0.00000000000E+00 0.  1.
        -13    1    4    4    0    0  0.67919305324E+00 -0.23480664766E+02 -0.14198432874E+01  0.23533356667E+02  0.00000000000E+00 0.  1.
         13    1    4    4    0    0  0.47298736709E+01  0.75928882357E+02 -0.71191907721E+02  0.10419143250E+03  0.00000000000E+00 0. -1.
          2    1    1    2  501    0  0.42631700448E+02 -0.15606755328E+02  0.72447555438E+02  0.85496672355E+02  0.00000000000E+00 0. -1.
<scales pt_clust_5="13000.00000" pt_clust_6="13000.00000" pt_clust_7="13000.00000" pt_clust_8="13000.00000" pt_clust_9="45.39860"></scales>
<clustering>
<clus scale="   45.399">  1  9  2 -1</clus>
<clus scale="   79.417">  5  6 -1 -1</clus>
<clus scale="   90.890">  7  8 -1 -1</clus>
<clus scale="   98.581">  2  5  1 -1</clus>
<clus scale="   45.399">  1  5  2 -1</clus>
</clustering>
</event>
<event>
 9    1  0.4731329E-005  0.9970574E+02  0.7546771E-02  0.1284295E+00
         21   -1    0    0  501  502  0.00000000000E+00  0.00000000000E+00  0.40687740727E+03  0.40687740727E+03  0.00000000000E+00 0.  1.
         -2   -1    0    0    0  501 -0.00000000000E+00 -0.00000000000E+00 -0.40596826024E+02  0.40596826024E+02  0.00000000000E+00 0.  1.
        -24    2    1    2    0    0 -0.19000695319E+02 -0.53740072510E+02  0.12175946636E+03  0.15859762391E+03  0.84135704947E+02 0.  0.
         23    2    1    2    0    0  0.94364439019E+01  0.11621898552E+02  0.22153672128E+03  0.23995117804E+03  0.90961167349E+02 0.  0.
         13    1    3    3    0    0 -0.33970359526E+02  0.79992459269E+01  0.25331016346E+02  0.43123469838E+02  0.00000000000E+00 0. -1.
        -14    1    3    3    0    0  0.14969664207E+02 -0.61739318437E+02  0.96428450014E+02  0.11547415408E+03  0.00000000000E+00 0.  1.
        -13    1    4    4    0    0  0.13433085268E+02 -0.37579147543E+02  0.69997706885E+02  0.80574928353E+02  0.00000000000E+00 0. -1.
         13    1    4    4    0    0 -0.39966413664E+01  0.49201046095E+02  0.15153901440E+03  0.15937624968E+03  0.00000000000E+00 0.  1.
         -1    1    1    2    0  502  0.95642514166E+01  0.42118173959E+02  0.22984393605E+02  0.48925431344E+02  0.00000000000E+00 0.  1.
<scales pt_clust_5="13000.00000" pt_clust_6="13000.00000" pt_clust_7="13000.00000" pt_clust_8="13000.00000" pt_clust_9="43.19048"></scales>
<clustering>
<clus scale="   43.190">  1  9  2 -1</clus>
<clus scale="   84.136">  5  6 -1 -1</clus>
<clus scale="   90.961">  7  8 -1 -1</clus>
<clus scale="   93.521">  2  5  1 -1</clus>
<clus scale="   43.190">  1  5  2 -1</clus>
</clustering>
</event>
<event>
 9    1  0.4731329E-005  0.1477913E+03  0.7546771E-02  0.1205732E+00
          1   -1    0    0  502    0 -0.00000000000E+00  0.00000000000E+00  0.64416014819E+03  0.64416014819E+03  0.00000000000E+00 0. -1.
         21   -1    0    0  501  502  0.00000000000E+00 -0.00000000000E+00 -0.70319562200E+02  0.70319562200E+02  0.00000000000E+00 0. -1.
        -24    2    1    2    0    0  0.24421174963E+02 -0.80351961971E+02  0.16931706194E+03  0.20451276270E+03  0.78130474615E+02 0.  0.
         23    2    1    2    0    0 -0.10376134318E+03  0.12395275106E+03  0.36828687869E+03  0.41245292014E+03  0.91386462263E+02 0.  0.
         11    1    3    3    0    0  0.22821818439E+02 -0.93758390143E+02  0.16341276638E+03  0.18977671969E+03  0.00000000000E+00 0. -1.
        -12    1    3    3    0    0  0.15993565247E+01  0.13406428171E+02  0.59042955606E+01  0.14736043013E+02  0.00000000000E+00 0.  1.
        -13    1    4    4    0    0 -0.73156271998E+02  0.19918512932E+02  0.17720451385E+03  0.19274342277E+03  0.00000000000E+00 0.  1.
         13    1    4    4    0    0 -0.30605071179E+02  0.10403423813E+03  0.19108236484E+03  0.21970949738E+03  0.00000000000E+00 0. -1.
          2    1    1    2  501    0  0.79340168213E+02 -0.43600789091E+02  0.36236645358E+02  0.97514027546E+02  0.00000000000E+00 0. -1.
<scales pt_clust_5="13000.00000" pt_clust_6="13000.00000" pt_clust_7="13000.00000" pt_clust_8="13000.00000" pt_clust_9="90.53116"></scales>
<clustering>
<clus scale="   78.130">  5  6 -1 -1</clus>
<clus scale="   90.531">  2  9  1 -1</clus>
<clus scale="   91.386">  7  8 -1 -1</clus>
<clus scale="  139.983">  1  5  2 -1</clus>
<clus scale="   90.531">  2  5  1 -1</clus>
</clustering>
</event>
<event>
 9    1  0.4731329E-005  0.1016284E+03  0.7546771E-02  0.1281125E+00
          1   -1    0    0  502    0 -0.00000000000E+00  0.00000000000E+00  0.54504081391E+03  0.54504081391E+03  0.00000000000E+00 0. -1.
         21   -1    0    0  501  502  0.00000000000E+00 -0.00000000000E+00 -0.16042150674E+03  0.16042150674E+03  0.00000000000E+00 0.  1.
        -24    2    1    2    0    0  0.42354819969E+02 -0.13401380858E+02  0.43072373612E+03  0.44041396018E+03  0.80423825326E+02 0.  0.
         23    2    1    2    0    0 -0.63236951123E+02  0.41935488209E+02  0.74773326742E+02  0.13910515698E+03  0.89452205939E+02 0.  0.
         13    1    3    3    0    0  0.18359115950E+02 -0.46789443623E+02  0.25948830012E+03  0.26431134496E+03  0.00000000000E+00 0. -1.
        -14    1    3    3    0    0  0.23995704019E+02  0.33388062765E+02  0.17123543601E+03  0.17610261523E+03  0.00000000000E+00 0.  1.
        -11    1    4    4    0    0 -0.23235023988E+01  0.49376213281E+02  0.11076083564E+02  0.50656576359E+02  0.00000000000E+00 0.  1.
         11    1    4    4    0    0 -0.60913448724E+02 -0.74407250720E+01  0.63697243178E+02  0.88448580619E+02  0.00000000000E+00 0. -1.
          2    1    1    2  501    0  0.20882131154E+02 -0.28534107350E+02 -0.12087775570E+03  0.12594320349E+03  0.00000000000E+00 0. -1.
<scales pt_clust_5="13000.00000" pt_clust_6="13000.00000" pt_clust_7="13000.00000" pt_clust_8="13000.00000" pt_clust_9="35.35900"></scales>
<clustering>
<clus scale="   35.359">  2  9  1 -1</clus>
<clus scale="   80.424">  5  6 -1 -1</clus>
<clus scale="   89.452">  7  8 -1 -1</clus>
<clus scale="   93.780">  1  5  2 -1</clus>
<clus scale="   35.359">  2  5  1 -1</clus>
</clustering>
</event>
<event>
 9    1  0.4731329E-005  0.1287029E+03  0.7546771E-02  0.1232452E+00
         21   -1    0    0  501  502  0.00000000000E+00  0.00000000000E+00  0.84547650290E+02  0.84547650290E+02  0.00000000000E+00 0.  1.
          1   -1    0    0  502    0 -0.00000000000E+00 -0.00000000000E+00 -0.31420413604E+03  0.31420413604E+03  0.00000000000E+00 0. -1.
         23    2    1    2    0    0  0.63371985220E+02 -0.77752589838E+02 -0.19426791225E+03  0.23691171477E+03  0.91245082756E+02 0.  0.
        -24    2    1    2    0    0 -0.42569173239E+02  0.49324766355E+02  0.11013565002E+02  0.10358153921E+03  0.79766970385E+02 0.  0.
         13    1    4    4    0    0 -0.17073032200E+02  0.11229346487E+02 -0.33786132377E+02  0.39485306027E+02  0.00000000000E+00 0. -1.
        -14    1    4    4    0    0 -0.25496141039E+02  0.38095419867E+02  0.44799697379E+02  0.64096233181E+02  0.00000000000E+00 0.  1.
        -13    1    3    3    0    0  0.26222941630E+02  0.90017891006E+01 -0.92718180278E+01  0.29234251903E+02  0.00000000000E+00 0.  1.
         13    1    3    3    0    0  0.37149043589E+02 -0.86754378939E+02 -0.18499609422E+03  0.20767746287E+03  0.00000000000E+00 0. -1.
          2    1    1    2  501    0 -0.20802811981E+02  0.28427823484E+02 -0.46402138499E+02  0.58258532350E+02  0.00000000000E+00 0. -1.
<scales pt_clust_5="13000.00000" pt_clust_6="13000.00000" pt_clust_7="13000.00000" pt_clust_8="13000.00000" pt_clust_9="35.22640"></scales>
<clustering>
<clus scale="   35.226">  1  9  2 -1</clus>
<clus scale="   79.767">  5  6 -1 -1</clus>
<clus scale="   91.245">  7  8 -1 -1</clus>
<clus scale="  120.837">  1  5  2 -1</clus>
<clus scale="   35.226">  1  5  2 -1</clus>
</clustering>
</event>
<event>
 9    1  0.4731329E-005  0.9786974E+02  0.7546771E-02  0.1290071E+00
         21   -1    0    0  501  502  0.00000000000E+00  0.00000000000E+00  0.95071143044E+02  0.95071143044E+02  0.00000000000E+00 0. -1.
         -2   -1    0    0    0  501 -0.00000000000E+00 -0.00000000000E+00 -0.38082020402E+03  0.38082020402E+03  0.00000000000E+00 0.  1.
         23    2    1    2    0    0 -0.37803944495E+02 -0.90652978164E+01 -0.30003033852E+03  0.31596337677E+03  0.91122629389E+02 0.  0.
        -24    2    1    2    0    0  0.27463597544E+02 -0.28530277956E+02 -0.35179958051E+02  0.96945719468E+02  0.81194932874E+02 0.  0.
         13    1    4    4    0    0  0.14272545692E+02  0.23319733473E+02  0.76739884986E+01  0.28397282075E+02  0.00000000000E+00 0. -1.
        -14    1    4    4    0    0  0.13191051851E+02 -0.51850011429E+02 -0.42853946549E+02  0.68548437393E+02  0.00000000000E+00 0.  1.
        -13    1    3    3    0    0 -0.18044242810E+02  0.36192915309E+02 -0.71375363580E+02  0.82036359885E+02  0.00000000000E+00 0. -1.
         13    1    3    3    0    0 -0.19759701684E+02 -0.45258213125E+02 -0.22865497494E+03  0.23392701689E+03  0.00000000000E+00 0.  1.
         -1    1    1    2    0  502  0.10340346951E+02  0.37595575773E+02  0.49461235591E+02  0.62982250824E+02  0.00000000000E+00 0.  1.
<scales pt_clust_5="13000.00000" pt_clust_6="13000.00000" pt_clust_7="13000.00000" pt_clust_8="13000.00000" pt_clust_9="38.99167"></scales>
<clustering>
<clus scale="   38.992">  1  9  2 -1</clus>
<clus scale="   81.195">  5  6 -1 -1</clus>
<clus scale="   88.700">  1  5  2 -1</clus>
<clus scale="   91.123">  7  8 -1 -1</clus>
<clus scale="   38.992">  1  5  2 -1</clus>
</clustering>
</event>
<event>
 9    1  0.4731329E-005  0.1197481E+03  0.7546771E-02  0.1244616E+00
         -2   -1    0    0    0  501 -0.00000000000E+00  0.00000000000E+00  0.55713783408E+03  0.55713783408E+03  0.00000000000E+00 0.  1.
         21   -1    0    0  501  502  0.00000000000E+00 -0.00000000000E+00 -0.78120830445E+02  0.78120830445E+02  0.00000000000E+00 0.  1.
         23    2    1    2    0    0 -0.18679094332E+01  0.80648764225E+02  0.39110709638E+03  0.40967885540E+03  0.91456500383E+02 0.  0.
        -24    2    1    2    0    0 -0.72906289892E+02 -0.58006719875E+02  0.67485906674E+02  0.14482720634E+03  0.87979914987E+02 0.  0.
         13    1    4    4    0    0 -0.87236381419E+01 -0.27217332107E+02  0.67867815676E+02  0.73640514895E+02  0.00000000000E+00 0. -1.
        -14    1    4    4    0    0 -0.64182651750E+02 -0.30789387768E+02 -0.38190900186E+00  0.71186691448E+02  0.00000000000E+00 0.  1.
        -11    1    3    3    0    0 -0.16304925997E+02 -0.15796103000E+02  0.50134117640E+02  0.55034509477E+02  0.00000000000E+00 0. -1.
         11    1    3    3    0    0  0.14437016564E+02  0.96444867225E+02  0.34097297874E+03  0.35464434592E+03  0.00000000000E+00 0.  1.
         -1    1    1    2    0  502  0.74774199325E+02 -0.22642044350E+02  0.20424000579E+02  0.80752602786E+02  0.00000000000E+00 0.  1.
<scales pt_clust_5="13000.00000" pt_clust_6="13000.00000" pt_clust_7="13000.00000" pt_clust_8="13000.00000" pt_clust_9="78.12710"></scales>
<clustering>
<clus scale="   78.127">  2  9  1 -1</clus>
<clus scale="   87.980">  5  6 -1 -1</clus>
<clus scale="   91.457">  7  8 -1 -1</clus>
<clus scale="  117.114">  2  5  1 -1</clus>
<clus scale="   78.127">  2  5  1 -1</clus>
</clustering>
</event>
<event>
 9    1  0.4731329E-005  0.9759628E+02  0.7546771E-02  0.1291276E+00
         -4   -1    0    0    0  501 -0.00000000000E+00  0.00000000000E+00  0.48785144017E+02  0.48785144017E+02  0.00000000000E+00 0.  1.
         21   -1    0    0  501  502  0.00000000000E+00 -0.00000000000E+00 -0.26122073920E+03  0.26122073920E+03  0.00000000000E+00 0. -1.
        -24    2    1    2    0    0  0.33841512605E+02 -0.11218787943E+02 -0.31902933914E+02  0.93172242615E+02  0.79950987632E+02 0.  0.
         23    2    1    2    0    0 -0.37997568419E+02 -0.87114676158E+01 -0.15841932239E+03  0.18677556942E+03  0.90932539572E+02 0.  0.
         11    1    3    3    0    0  0.17602211733E+02  0.34230566043E+02 -0.20374674513E+02  0.43551083465E+02  0.00000000000E+00 0. -1.
        -12    1    3    3    0    0  0.16239300872E+02 -0.45449353986E+02 -0.11528259401E+02  0.49621159150E+02  0.00000000000E+00 0.  1.
        -11    1    4    4    0    0 -0.17466473798E+02  0.40130538498E+02 -0.91441339980E+02  0.10137581805E+03  0.00000000000E+00 0. -1.
         11    1    4    4    0    0 -0.20531094621E+02 -0.48842006114E+02 -0.66977982410E+02  0.85399751377E+02  0.00000000000E+00 0.  1.
         -3    1    1    2    0  502  0.41560558145E+01  0.19930255559E+02 -0.22113338881E+02  0.30058071180E+02  0.00000000000E+00 0.  1.
<scales pt_clust_5="13000.00000" pt_clust_6="13000.00000" pt_clust_7="13000.00000" pt_clust_8="13000.00000" pt_clust_9="20.35898"></scales>
<clustering>
<clus scale="   20.359">  2  9  1 -1</clus>
<clus scale="   79.951">  5  6 -1 -1</clus>
<clus scale="   87.456">  1  5  2 -1</clus>
<clus scale="   90.933">  7  8 -1 -1</clus>
<clus scale="   20.359">  2  5  1 -1</clus>
</clustering>
</event>
<event>
 9    1  0.4731329E-005  0.9229386E+02  0.7546771E-02  0.1303548E+00
         21   -1    0    0  501  502  0.00000000000E+00  0.00000000000E+00  0.23807221720E+02  0.23807221720E+02  0.00000000000E+00 0. -1.
          1   -1    0    0  502    0 -0.00000000000E+00 -0.00000000000E+00 -0.75417804870E+03  0.75417804870E+03  0.00000000000E+00 0. -1.
         23    2    1    2    0    0  0.42936232777E+01 -0.16610766515E+02 -0.41431194986E+03  0.42450711471E+03  0.90871039818E+02 0.  0.
        -24    2    1    2    0    0 -0.37641218054E+02 -0.32182556991E+02 -0.23302968114E+03  0.25156300531E+03  0.80799350720E+02 0.  0.
         11    1    4    4    0    0 -0.53262429719E+02 -0.24996870198E+02 -0.22503727139E+03  0.23260159813E+03  0.00000000000E+00 0. -1.
        -12    1    4    4    0    0  0.15621211665E+02 -0.71856867928E+01 -0.79924097548E+01  0.18961407181E+02  0.00000000000E+00 0.  1.
        -13    1    3    3    0    0 -0.21842082173E+02  0.30575234086E+02 -0.14085011328E+03  0.14577611568E+03  0.00000000000E+00 0.  1.
         13    1    3    3    0    0  0.26135705451E+02 -0.47186000601E+02 -0.27346183658E+03  0.27873099903E+03  0.00000000000E+00 0. -1.
          2    1    1    2  501    0  0.33347594776E+02  0.48793323505E+02 -0.83029195977E+02  0.10191515040E+03  0.00000000000E+00 0. -1.
<scales pt_clust_5="13000.00000" pt_clust_6="13000.00000" pt_clust_7="13000.00000" pt_clust_8="13000.00000" pt_clust_9="59.10034"></scales>
<clustering>
<clus scale="   59.100">  1  9  2 -1</clus>
<clus scale="   80.799">  5  6 -1 -1</clus>
<clus scale="   82.396">  1  5  2 -1</clus>
<clus scale="   90.871">  7  8 -1 -1</clus>
<clus scale="   59.100">  1  5  2 -1</clus>
</clustering>
</event>
<event>
 9    1  0.4731329E-005  0.1695592E+03  0.7546771E-02  0.1179362E+00
         21   -1    0    0  501  502  0.00000000000E+00  0.00000000000E+00  0.36688944213E+03  0.36688944213E+03  0.00000000000E+00 0.  1.
          1   -1    0    0  502    0 -0.00000000000E+00 -0.00000000000E+00 -0.32903917943E+03  0.32903917943E+03  0.00000000000E+00 0. -1.
         23    2    1    2    0    0  0.14213171167E+03  0.13176859385E+02  0.16000418104E+01  0.16810261242E+03  0.88774292911E+02 0.  0.
        -24    2    1    2    0    0 -0.13352245182E+03 -0.10616543629E+03  0.23901416676E+03  0.30459023125E+03  0.80920282121E+02 0.  0.
         13    1    4    4    0    0 -0.33597806008E+02 -0.18345747169E+02  0.97126313276E+01  0.39493217330E+02  0.00000000000E+00 0. -1.
        -14    1    4    4    0    0 -0.99924645812E+02 -0.87819689119E+02  0.22930153543E+03  0.26509701392E+03  0.00000000000E+00 0.  1.
        -11    1    3    3    0    0  0.11779707503E+03 -0.11407024425E+02 -0.29077501088E+02  0.12186784712E+03  0.00000000000E+00 0.  1.
         11    1    3    3    0    0  0.24334636634E+02  0.24583883810E+02  0.30677542899E+02  0.46234765292E+02  0.00000000000E+00 0. -1.
          2    1    1    2  501    0 -0.86092598491E+01  0.92988576903E+02 -0.20276394587E+03  0.22323577790E+03  0.00000000000E+00 0. -1.
<scales pt_clust_5="13000.00000" pt_clust_6="13000.00000" pt_clust_7="13000.00000" pt_clust_8="13000.00000" pt_clust_9="93.38631"></scales>
<clustering>
<clus scale="   80.920">  5  6 -1 -1</clus>
<clus scale="   88.774">  7  8 -1 -1</clus>
<clus scale="   93.386">  1  9  2 -1</clus>
<clus scale="  165.582">  1  5  2 -1</clus>
<clus scale="   93.386">  1  5  2 -1</clus>
</clustering>
</event>
<event>
 9    1  0.4731329E-005  0.1882200E+03  0.7546771E-02  0.1186524E+00
         21   -1    0    0  501  502  0.00000000000E+00  0.00000000000E+00  0.41323877119E+03  0.41323877119E+03  0.00000000000E+00 0. -1.
          1   -1    0    0  502    0 -0.00000000000E+00 -0.00000000000E+00 -0.13246753693E+03  0.13246753693E+03  0.00000000000E+00 0. -1.
         23    2    1    2    0    0  0.38588550958E+02  0.32718709877E+02  0.40147956757E+02  0.11067706361E+03  0.89877492935E+02 0.  0.
        -24    2    1    2    0    0 -0.13608611996E+03 -0.13998159902E+03  0.18161933643E+03  0.27852822723E+03  0.80486706316E+02 0.  0.
         13    1    4    4    0    0 -0.39306609413E+02 -0.76138180093E+02  0.37422391924E+02  0.93501162713E+02  0.00000000000E+00 0. -1.
        -14    1    4    4    0    0 -0.96779510545E+02 -0.63843418922E+02  0.14419694450E+03  0.18502706452E+03  0.00000000000E+00 0.  1.
        -13    1    3    3    0    0 -0.15228375395E+02  0.13398817493E+02  0.48798920505E+02  0.52846630638E+02  0.00000000000E+00 0. -1.
         13    1    3    3    0    0  0.53816926352E+02  0.19319892384E+02 -0.86509637481E+01  0.57830432970E+02  0.00000000000E+00 0.  1.
          2    1    1    2  501    0  0.97497569001E+02  0.10726288914E+03  0.59003941070E+02  0.15650101728E+03  0.00000000000E+00 0. -1.
<scales pt_clust_5="13000.00000" pt_clust_6="13000.00000" pt_clust_7="13000.00000" pt_clust_8="13000.00000" pt_clust_9="170.14318"></scales>
<clustering>
<clus scale="   80.487">  5  6 -1 -1</clus>
<clus scale="   89.877">  7  8 -1 -1</clus>
<clus scale="  103.139">  2  7  1 -1</clus>
<clus scale="  170.143">  1  9  2 -1</clus>
<clus scale="  170.143">  1  5  2 -1</clus>
</clustering>
</event>
<event>
 9    1  0.4731329E-005  0.1592225E+03  0.7546771E-02  0.1213705E+00
         21   -1    0    0  501  502  0.00000000000E+00  0.00000000000E+00  0.58971321519E+02  0.58971321519E+02  0.00000000000E+00 0. -1.
          1   -1    0    0  502    0 -0.00000000000E+00 -0.00000000000E+00 -0.13250369244E+04  0.13250369244E+04  0.00000000000E+00 0. -1.
         23    2    1    2    0    0 -0.59977744231E+02  0.37311913824E+02 -0.64313808601E+02  0.11423751938E+03  0.62645320180E+02 0.  0.
        -24    2    1    2    0    0  0.33609105310E+02  0.12911625501E+03 -0.19687477918E+03  0.25086373571E+03  0.79827037712E+02 0.  0.
         13    1    4    4    0    0  0.35625876016E+02  0.79241922440E+02 -0.61129922563E+02  0.10623254090E+03  0.00000000000E+00 0. -1.
        -14    1    4    4    0    0 -0.20167707064E+01  0.49874332565E+02 -0.13574485662E+03  0.14463119481E+03  0.00000000000E+00 0.  1.
        -11    1    3    3    0    0 -0.13506271392E+02 -0.17749745006E+02 -0.13517458777E+02  0.26080538846E+02  0.00000000000E+00 0.  1.
         11    1    3    3    0    0 -0.46471472840E+02  0.55061658830E+02 -0.50796349824E+02  0.88156980532E+02  0.00000000000E+00 0. -1.
          2    1    1    2  501    0  0.26368638922E+02 -0.16642816883E+03 -0.10048770151E+04  0.10189069909E+04  0.00000000000E+00 0. -1.
<scales pt_clust_5="13000.00000" pt_clust_6="13000.00000" pt_clust_7="13000.00000" pt_clust_8="13000.00000" pt_clust_9="137.76604"></scales>
<clustering>
<clus scale="   62.645">  7  8 -1 -1</clus>
<clus scale="   79.827">  5  6 -1 -1</clus>
<clus scale="   94.414">  2  7  1 -1</clus>
<clus scale="  137.766">  1  9  2 -1</clus>
<clus scale="  137.766">  1  5  2 -1</clus>
</clustering>
</event>
<event>
 9    1  0.4731329E-005  0.1004478E+03  0.7546771E-02  0.1287565E+00
         21   -1    0    0  501  502  0.00000000000E+00  0.00000000000E+00  0.12284167886E+03  0.12284167886E+03  0.00000000000E+00 0.  1.
          1   -1    0    0  502    0 -0.00000000000E+00 -0.00000000000E+00 -0.19248774081E+03  0.19248774081E+03  0.00000000000E+00 0. -1.
         23    2    1    2    0    0  0.36701173065E+02  0.18806048220E+02 -0.14782366858E+03  0.17869104920E+03  0.91531472822E+02 0.  0.
        -24    2    1    2    0    0 -0.26120394458E+02 -0.39283674263E+02  0.64173185235E+02  0.10966783352E+03  0.75388022501E+02 0.  0.
         13    1    4    4    0    0  0.20035760115E+02 -0.29113571563E+01 -0.29449087533E+01  0.20459231937E+02  0.00000000000E+00 0. -1.
        -14    1    4    4    0    0 -0.46156154573E+02 -0.36372317107E+02  0.67118093988E+02  0.89208601588E+02  0.00000000000E+00 0.  1.
        -13    1    3    3    0    0  0.65349652398E+02  0.12276495487E+02 -0.12462435458E+03  0.14125338638E+03  0.00000000000E+00 0. -1.
         13    1    3    3    0    0 -0.28648479333E+02  0.65295527333E+01 -0.23199313998E+02  0.37437662814E+02  0.00000000000E+00 0.  1.
          2    1    1    2  501    0 -0.10580778607E+02  0.20477626043E+02  0.14004421397E+02  0.26970536942E+02  0.00000000000E+00 0. -1.
<scales pt_clust_5="13000.00000" pt_clust_6="13000.00000" pt_clust_7="13000.00000" pt_clust_8="13000.00000" pt_clust_9="23.04964"></scales>
<clustering>
<clus scale="   23.050">  1  9  2 -1</clus>
<clus scale="   75.388">  5  6 -1 -1</clus>
<clus scale="   85.995">  1  5  2 -1</clus>
<clus scale="   91.531">  7  8 -1 -1</clus>
<clus scale="   23.050">  1  5  2 -1</clus>
</clustering>
</event>
<event>
 9    1  0.4731329E-005  0.9358516E+02  0.7546771E-02  0.1301345E+00
          3   -1    0    0  502    0 -0.00000000000E+00  0.00000000000E+00  0.14339723921E+03  0.14339723921E+03  0.00000000000E+00 0. -1.
         21   -1    0    0  501  502  0.00000000000E+00 -0.00000000000E+00 -0.12818977608E+03  0.12818977608E+03  0.00000000000E+00 0. -1.
        -24    2    1    2    0    0  0.26595743893E+02  0.21028004508E+02  0.58289298834E+02  0.10392635742E+03  0.79079294642E+02 0.  0.
         23    2    1    2    0    0  0.33536016330E+02 -0.20624604388E+02 -0.11126723791E+02  0.99564251975E+02  0.90770025843E+02 0.  0.
         11    1    3    3    0    0  0.42090052889E+02 -0.58089032218E+01  0.59265167745E+02  0.72922397223E+02  0.00000000000E+00 0. -1.
        -12    1    3    3    0    0 -0.15494308996E+02  0.26836907730E+02 -0.97586891143E+00  0.31003960197E+02  0.00000000000E+00 0.  1.
        -11    1    4    4    0    0 -0.27472345982E+02  0.96001327578E+01  0.51676397868E+01  0.29556671729E+02  0.00000000000E+00 0.  1.
         11    1    4    4    0    0  0.61008362312E+02 -0.30224737145E+02 -0.16294363578E+02  0.70007580246E+02  0.00000000000E+00 0. -1.
          4    1    1    2  501    0 -0.60131760223E+02 -0.40340012016E+00 -0.31955111912E+02  0.68096405900E+02  0.00000000000E+00 0. -1.
<scales pt_clust_5="13000.00000" pt_clust_6="13000.00000" pt_clust_7="13000.00000" pt_clust_8="13000.00000" pt_clust_9="60.13311"></scales>
<clustering>
<clus scale="   60.133">  2  9  1 -1</clus>
<clus scale="   79.079">  5  6 -1 -1</clus>
<clus scale="   82.295">  1  5  2 -1</clus>
<clus scale="   90.770">  7  8 -1 -1</clus>
<clus scale="   60.133">  2  5  1 -1</clus>
</clustering>
</event>
<event>
 9    1  0.4731329E-005  0.1131800E+03  0.7546771E-02  0.1260413E+00
         21   -1    0    0  501  502  0.00000000000E+00  0.00000000000E+00  0.82427482994E+02  0.82427482994E+02  0.00000000000E+00 0. -1.
          1   -1    0    0  502    0 -0.00000000000E+00 -0.00000000000E+00 -0.42332572232E+03  0.42332572232E+03  0.00000000000E+00 0. -1.
        -24    2    1    2    0    0  0.44055688225E+02  0.49565075034E+02 -0.23150896178E+03  0.25362852004E+03  0.79582827679E+02 0.  0.
         23    2    1    2    0    0 -0.25685675787E+02 -0.30123613799E+02  0.32867738269E+02  0.10737494842E+03  0.94243860707E+02 0.  0.
         11    1    3    3    0    0  0.10531238402E+01  0.59429993672E+02 -0.12976200639E+03  0.14272775316E+03  0.00000000000E+00 0. -1.
        -12    1    3    3    0    0  0.43002564385E+02 -0.98649186383E+01 -0.10174695539E+03  0.11090076688E+03  0.00000000000E+00 0.  1.
        -11    1    4    4    0    0 -0.31425699122E+02 -0.40239331571E+01  0.60898488874E+02  0.68646868469E+02  0.00000000000E+00 0. -1.
         11    1    4    4    0    0  0.57400233350E+01 -0.26099680642E+02 -0.28030750605E+02  0.38728079955E+02  0.00000000000E+00 0.  1.
          2    1    1    2  501    0 -0.18370012438E+02 -0.19441461235E+02 -0.14225701581E+03  0.14474973685E+03  0.00000000000E+00 0. -1.
<scales pt_clust_5="13000.00000" pt_clust_6="13000.00000" pt_clust_7="13000.00000" pt_clust_8="13000.00000" pt_clust_9="26.74749"></scales>
<clustering>
<clus scale="   26.747">  1  9  2 -1</clus>
<clus scale="   79.583">  5  6 -1 -1</clus>
<clus scale="   94.244">  7  8 -1 -1</clus>
<clus scale="  101.298">  2  5  1 -1</clus>
<clus scale="   26.747">  1  5  2 -1</clus>
</clustering>
</event>
<event>
 9    1  0.4731329E-005  0.1022975E+03  0.7546771E-02  0.1280645E+00
         -2   -1    0    0    0  501 -0.00000000000E+00  0.00000000000E+00  0.21908453635E+03  0.21908453635E+03  0.00000000000E+00 0.  1.
         21   -1    0    0  501  502  0.00000000000E+00 -0.00000000000E+00 -0.63107370364E+02  0.63107370364E+02  0.00000000000E+00 0. -1.
         23    2    1    2    0    0 -0.25194339111E+02  0.49965786114E+02  0.12286416322E+03  0.16315090852E+03  0.91603940093E+02 0.  0.
        -24    2    1    2    0    0  0.13301282735E+02 -0.27532402170E+02  0.35687554642E+02  0.93519833991E+02  0.80854192851E+02 0.  0.
         13    1    4    4    0    0  0.36215683739E+02 -0.19376780258E+01 -0.87925282225E+01  0.37318077354E+02  0.00000000000E+00 0. -1.
        -14    1    4    4    0    0 -0.22914401005E+02 -0.25594724145E+02  0.44480082864E+02  0.56201756637E+02  0.00000000000E+00 0.  1.
        -13    1    3    3    0    0 -0.53979447183E+02  0.58331305912E+01  0.69015552981E+02  0.87812030406E+02  0.00000000000E+00 0.  1.
         13    1    3    3    0    0  0.28785108072E+02  0.44132655522E+02  0.53848610240E+02  0.75338878110E+02  0.00000000000E+00 0. -1.
         -1    1    1    2    0  502  0.11893056377E+02 -0.22433383943E+02 -0.25745518771E+01  0.25521164207E+02  0.00000000000E+00 0.  1.
<scales pt_clust_5="13000.00000" pt_clust_6="13000.00000" pt_clust_7="13000.00000" pt_clust_8="13000.00000" pt_clust_9="25.39097"></scales>
<clustering>
<clus scale="   25.391">  2  9  1 -1</clus>
<clus scale="   80.854">  5  6 -1 -1</clus>
<clus scale="   91.604">  7  8 -1 -1</clus>
<clus scale="   92.795">  2  5  1 -1</clus>
<clus scale="   25.391">  2  5  1 -1</clus>
</clustering>
</event>
<event>
 9    1  0.4731329E-005  0.1146095E+03  0.7546771E-02  0.1256402E+00
          1   -1    0    0  502    0 -0.00000000000E+00  0.00000000000E+00  0.38782213425E+03  0.38782213425E+03  0.00000000000E+00 0. -1.
         21   -1    0    0  501  502  0.00000000000E+00 -0.00000000000E+00 -0.60897512607E+02  0.60897512607E+02  0.00000000000E+00 0. -1.
         23    2    1    2    0    0 -0.55086035399E+02 -0.11330851615E+02  0.11907292760E+03  0.16027309837E+03  0.91357782815E+02 0.  0.
        -24    2    1    2    0    0  0.84031961696E+02  0.42893365509E+02  0.65552489770E+02  0.13984263713E+03  0.79734702942E+02 0.  0.
         13    1    4    4    0    0  0.93840206082E+02  0.53457930953E+02  0.63494427142E+02  0.12528079237E+03  0.00000000000E+00 0. -1.
        -14    1    4    4    0    0 -0.98082443860E+01 -0.10564565445E+02  0.20580626280E+01  0.14561844758E+02  0.00000000000E+00 0.  1.
        -11    1    3    3    0    0  0.16747285368E+02 -0.19902720459E+02  0.70989572958E+01  0.26962660172E+02  0.00000000000E+00 0.  1.
         11    1    3    3    0    0 -0.71833320767E+02  0.85718688437E+01  0.11197397030E+03  0.13331043820E+03  0.00000000000E+00 0. -1.
          2    1    1    2  501    0 -0.28945926297E+02 -0.31562513894E+02  0.14229920427E+03  0.14860391135E+03  0.00000000000E+00 0. -1.
<scales pt_clust_5="13000.00000" pt_clust_6="13000.00000" pt_clust_7="13000.00000" pt_clust_8="13000.00000" pt_clust_9="42.82594"></scales>
<clustering>
<clus scale="   42.826">  2  9  1 -1</clus>
<clus scale="   79.735">  5  6 -1 -1</clus>
<clus scale="   91.358">  7  8 -1 -1</clus>
<clus scale="  105.578">  2  5  1 -1</clus>
<clus scale="   42.826">  2  5  1 -1</clus>
</clustering>
</event>
<event>
 9    1  0.4731329E-005  0.1052855E+03  0.7546771E-02  0.1273493E+00
          1   -1    0    0  502    0 -0.00000000000E+00  0.00000000000E+00  0.52925411964E+03  0.52925411964E+03  0.00000000000E+00 0. -1.
         21   -1    0    0  501  502  0.00000000000E+00 -0.00000000000E+00 -0.33565000216E+02  0.33565000216E+02  0.00000000000E+00 0.  1.
         23    2    1    2    0    0  0.33112813829E+02  0.48902762609E+02  0.36802158823E+03  0.38281740868E+03  0.87300288420E+02 0.  0.
        -24    2    1    2    0    0 -0.14758059234E+02 -0.59149658296E+02  0.12411045751E+03  0.15868156435E+03  0.77845685884E+02 0.  0.
         11    1    4    4    0    0  0.22262227748E+02  0.65691199751E+01  0.34015078066E+02  0.41179918132E+02  0.00000000000E+00 0. -1.
        -12    1    4    4    0    0 -0.37020286981E+02 -0.65718778271E+02  0.90095379448E+02  0.11750164622E+03  0.00000000000E+00 0.  1.
        -13    1    3    3    0    0  0.23283649515E+02 -0.20416430468E+02  0.16965469096E+03  0.17245774303E+03  0.00000000000E+00 0.  1.
         13    1    3    3    0    0  0.98291643140E+01  0.69319193077E+02  0.19836689727E+03  0.21035966565E+03  0.00000000000E+00 0. -1.
          2    1    1    2  501    0 -0.18354754595E+02  0.10246895687E+02  0.35570736826E+01  0.21320146825E+02  0.00000000000E+00 0. -1.
<scales pt_clust_5="13000.00000" pt_clust_6="13000.00000" pt_clust_7="13000.00000" pt_clust_8="13000.00000" pt_clust_9="21.02132"></scales>
<clustering>
<clus scale="   21.021">  2  9  1 -1</clus>
<clus scale="   77.846">  5  6 -1 -1</clus>
<clus scale="   87.300">  7  8 -1 -1</clus>
<clus scale="   97.589">  2  5  1 -1</clus>
<clus scale="   21.021">  2  5  1 -1</clus>
</clustering>
</event>
<event>
 9    1  0.4731329E-005  0.1010728E+03  0.7546771E-02  0.1284336E+00
         21   -1    0    0  501  502  0.00000000000E+00  0.00000000000E+00  0.23011131929E+03  0.23011131929E+03  0.00000000000E+00 0.  1.
          1   -1    0    0  502    0 -0.00000000000E+00 -0.00000000000E+00 -0.21143554269E+03  0.21143554269E+03  0.00000000000E+00 0. -1.
         23    2    1    2    0    0 -0.32253378305E+02 -0.27928546042E+02 -0.18198452752E+03  0.20803296126E+03  0.91318457165E+02 0.  0.
        -24    2    1    2    0    0  0.50402838299E+02  0.19254604271E+02  0.13802966372E+03  0.16773216100E+03  0.78553827870E+02 0.  0.
         13    1    4    4    0    0 -0.20511385173E+02  0.12579503762E+02  0.35898134427E+02  0.43216164707E+02  0.00000000000E+00 0. -1.
        -14    1    4    4    0    0  0.70914223472E+02  0.66751005094E+01  0.10213152930E+03  0.12451599630E+03  0.00000000000E+00 0.  1.
        -11    1    3    3    0    0  0.21895362149E+02 -0.29155049975E+02 -0.31800494682E+02  0.48380732577E+02  0.00000000000E+00 0.  1.
         11    1    3    3    0    0 -0.54148740454E+02  0.12265039336E+01 -0.15018403284E+03  0.15965222869E+03  0.00000000000E+00 0. -1.
          2    1    1    2  501    0 -0.18149459994E+02  0.86739417704E+01  0.62630640396E+02  0.65781739718E+02  0.00000000000E+00 0. -1.
<scales pt_clust_5="13000.00000" pt_clust_6="13000.00000" pt_clust_7="13000.00000" pt_clust_8="13000.00000" pt_clust_9="20.11567"></scales>
<clustering>
<clus scale="   20.116">  1  9  2 -1</clus>
<clus scale="   78.554">  5  6 -1 -1</clus>
<clus scale="   89.707">  1  5  2 -1</clus>
<clus scale="   91.318">  7  8 -1 -1</clus>
<clus scale="   20.116">  1  5  2 -1</clus>
</clustering>
</event>
<event>
 9    1  0.4731329E-005  0.1046229E+03  0.7546771E-02  0.1278101E+00
          3   -1    0    0  502    0 -0.00000000000E+00  0.00000000000E+00  0.42199018530E+02  0.42199018530E+02  0.00000000000E+00 0. -1.
         21   -1    0    0  501  502  0.00000000000E+00 -0.00000000000E+00 -0.39827625958E+03  0.39827625958E+03  0.00000000000E+00 0. -1.
        -24    2    1    2    0    0  0.43511445383E+02  0.12859175471E+02 -0.52813286082E+02  0.10628705683E+03  0.80306232566E+02 0.  0.
         23    2    1    2    0    0 -0.37942051094E+02  0.13639090431E+02 -0.27979738662E+03  0.29835728383E+03  0.95419427939E+02 0.  0.
         13    1    3    3    0    0  0.38844981035E+02 -0.12304510209E+00  0.11499307663E+02  0.40511501681E+02  0.00000000000E+00 0. -1.
        -14    1    3    3    0    0  0.46664643476E+01  0.12982220573E+02 -0.64312593745E+02  0.65775555146E+02  0.00000000000E+00 0.  1.
        -11    1    4    4    0    0  0.21438599623E+02  0.32218131929E+02 -0.14172324820E+03  0.14691188059E+03  0.00000000000E+00 0.  1.
         11    1    4    4    0    0 -0.59380650717E+02 -0.18579041498E+02 -0.13807413842E+03  0.15144540324E+03  0.00000000000E+00 0. -1.
          4    1    1    2  501    0 -0.55693942889E+01 -0.26498265901E+02 -0.23466568351E+02  0.35830937452E+02  0.00000000000E+00 0. -1.
<scales pt_clust_5="13000.00000" pt_clust_6="13000.00000" pt_clust_7="13000.00000" pt_clust_8="13000.00000" pt_clust_9="27.07724"></scales>
<clustering>
<clus scale="   27.077">  2  9  1 -1</clus>
<clus scale="   80.306">  5  6 -1 -1</clus>
<clus scale="   91.050">  1  5  2 -1</clus>
<clus scale="   95.419">  7  8 -1 -1</clus>
<clus scale="   27.077">  2  5  1 -1</clus>
</clustering>
</event>
<event>
 9    1  0.4731329E-005  0.1045352E+03  0.7546771E-02  0.1275186E+00
          3   -1    0    0  502    0 -0.00000000000E+00  0.00000000000E+00  0.88954890269E+02  0.88954890269E+02  0.00000000000E+00 0. -1.
         21   -1    0    0  501  502  0.00000000000E+00 -0.00000000000E+00 -0.26054519565E+03  0.26054519565E+03  0.00000000000E+00 0.  1.
         23    2    1    2    0    0  0.17783265026E+01  0.57423298178E+02  0.34455675220E+02  0.11255107044E+03  0.90443088650E+02 0.  0.
        -24    2    1    2    0    0 -0.13645097439E+02 -0.30895821152E+02 -0.14957394315E+03  0.17343824234E+03  0.81041464625E+02 0.  0.
         13    1    4    4    0    0 -0.10912759625E+02  0.22957515272E+02 -0.17724742297E+02  0.30988745047E+02  0.00000000000E+00 0. -1.
        -14    1    4    4    0    0 -0.27323378137E+01 -0.53853336424E+02 -0.13184920085E+03  0.14244949730E+03  0.00000000000E+00 0.  1.
        -13    1    3    3    0    0 -0.32118232868E+02  0.34123744865E+01 -0.11133505322E+02  0.34164017957E+02  0.00000000000E+00 0.  1.
         13    1    3    3    0    0  0.33896559371E+02  0.54010923691E+02  0.45589180542E+02  0.78387052488E+02  0.00000000000E+00 0. -1.
          4    1    1    2  501    0  0.11866770936E+02 -0.26527477026E+02 -0.56472037446E+02  0.63510773127E+02  0.00000000000E+00 0. -1.
<scales pt_clust_5="13000.00000" pt_clust_6="13000.00000" pt_clust_7="13000.00000" pt_clust_8="13000.00000" pt_clust_9="29.06075"></scales>
<clustering>
<clus scale="   29.061">  2  9  1 -1</clus>
<clus scale="   81.041">  5  6 -1 -1</clus>
<clus scale="   90.443">  7  8 -1 -1</clus>
<clus scale="   96.516">  2  5  1 -1</clus>
<clus scale="   29.061">  2  5  1 -1</clus>
</clustering>
</event>
<event>
 9    1  0.4731329E-005  0.9826003E+02  0.7546771E-02  0.1289356E+00
         21   -1    0    0  501  502  0.00000000000E+00  0.00000000000E+00  0.54842528452E+03  0.54842528452E+03  0.00000000000E+00 0.  1.
          1   -1    0    0  502    0 -0.00000000000E+00 -0.00000000000E+00 -0.23250930334E+02  0.23250930334E+02  0.00000000000E+00 0. -1.
         23    2    1    2    0    0  0.35603166010E+02  0.28214482565E+02  0.19882603455E+03  0.22370721474E+03  0.91921071888E+02 0.  0.
        -24    2    1    2    0    0 -0.15360334125E+02 -0.11789540804E+02  0.29726756657E+03  0.30891466420E+03  0.81763870302E+02 0.  0.
         13    1    4    4    0    0 -0.36223955156E+02  0.17477029950E+02  0.90335170610E+02  0.98884096558E+02  0.00000000000E+00 0. -1.
        -14    1    4    4    0    0  0.20863621031E+02 -0.29266570755E+02  0.20693239596E+03  0.21003056764E+03  0.00000000000E+00 0.  1.
        -13    1    3    3    0    0  0.34920828138E+02 -0.21465766487E+02  0.14398590664E+03  0.14970699610E+03  0.00000000000E+00 0. -1.
         13    1    3    3    0    0  0.68233787263E+00  0.49680249052E+02  0.54840127908E+02  0.74000218647E+02  0.00000000000E+00 0.  1.
          2    1    1    2  501    0 -0.20242831886E+02 -0.16424941760E+02  0.29080753070E+02  0.39054335914E+02  0.00000000000E+00 0. -1.
<scales pt_clust_5="13000.00000" pt_clust_6="13000.00000" pt_clust_7="13000.00000" pt_clust_8="13000.00000" pt_clust_9="26.06821"></scales>
<clustering>
<clus scale="   26.068">  1  9  2 -1</clus>
<clus scale="   81.764">  5  6 -1 -1</clus>
<clus scale="   88.831">  1  5  2 -1</clus>
<clus scale="   91.921">  7  8 -1 -1</clus>
<clus scale="   26.068">  1  5  2 -1</clus>
</clustering>
</event>
<event>
 9    1  0.4731329E-005  0.1575076E+03  0.7546771E-02  0.1202556E+00
         21   -1    0    0  501  502  0.00000000000E+00  0.00000000000E+00  0.35943025981E+02  0.35943025981E+02  0.00000000000E+00 0. -1.
          1   -1    0    0  502    0 -0.00000000000E+00 -0.00000000000E+00 -0.14787181008E+04  0.14787181008E+04  0.00000000000E+00 0. -1.
         23    2    1    2    0    0 -0.48430893706E+02 -0.71986886977E+02 -0.46904818744E+03  0.48512117611E+03  0.88366792445E+02 0.  0.
        -24    2    1    2    0    0 -0.11948239943E+03  0.30741891816E+02 -0.30429090716E+03  0.33813518120E+03  0.80754794899E+02 0.  0.
         11    1    4    4    0    0 -0.12070427013E+03  0.42137230073E+02 -0.29962528187E+03  0.32576122624E+03  0.00000000000E+00 0. -1.
        -12    1    4    4    0    0  0.12218706990E+01 -0.11395338257E+02 -0.46656252872E+01  0.12373954958E+02  0.00000000000E+00 0.  1.
        -13    1    3    3    0    0 -0.55886341308E+02 -0.48111781201E+01 -0.22501038646E+03  0.23189675417E+03  0.00000000000E+00 0.  1.
         13    1    3    3    0    0  0.74554476017E+01 -0.67175708857E+02 -0.24403780098E+03  0.25322442194E+03  0.00000000000E+00 0. -1.
          2    1    1    2  501    0  0.16791329313E+03  0.41244995161E+02 -0.66943598024E+03  0.69140476949E+03  0.00000000000E+00 0. -1.
<scales pt_clust_5="13000.00000" pt_clust_6="13000.00000" pt_clust_7="13000.00000" pt_clust_8="13000.00000" pt_clust_9="135.23065"></scales>
<clustering>
<clus scale="   80.755">  5  6 -1 -1</clus>
<clus scale="   88.367">  7  8 -1 -1</clus>
<clus scale="  123.840">  2  7  1 -1</clus>
<clus scale="  135.231">  1  9  2 -1</clus>
<clus scale="  135.231">  1  5  2 -1</clus>
</clustering>
</event>
<event>
 9    1  0.4731329E-005  0.1143848E+03  0.7546771E-02  0.1255648E+00
         -2   -1    0    0    0  501 -0.00000000000E+00  0.00000000000E+00  0.40505190298E+03  0.40505190298E+03  0.00000000000E+00 0.  1.
         21   -1    0    0  501  502  0.00000000000E+00 -0.00000000000E+00 -0.28439344594E+03  0.28439344594E+03  0.00000000000E+00 0. -1.
         23    2    1    2    0    0 -0.70369273193E+02 -0.18019504107E+02  0.36534462311E+03  0.38282719574E+03  0.88337030854E+02 0.  0.
        -24    2    1    2    0    0  0.56344221191E+02  0.72314679205E+02 -0.20375313489E+03  0.23719062864E+03  0.79623930108E+02 0.  0.
         11    1    4    4    0    0  0.61129302095E+02  0.56722071930E+02 -0.20451427019E+03  0.22086256299E+03  0.00000000000E+00 0. -1.
        -12    1    4    4    0    0 -0.47850809035E+01  0.15592607274E+02  0.76113530016E+00  0.16328065648E+02  0.00000000000E+00 0.  1.
        -13    1    3    3    0    0 -0.62401055882E+02 -0.47308257436E+02  0.30965410901E+03  0.31940198845E+03  0.00000000000E+00 0.  1.
         13    1    3    3    0    0 -0.79682173115E+01  0.29288753329E+02  0.55690514098E+02  0.63425207285E+02  0.00000000000E+00 0. -1.
         -1    1    1    2    0  502  0.14025052002E+02 -0.54295175097E+02 -0.40933031184E+02  0.69427524545E+02  0.00000000000E+00 0.  1.
<scales pt_clust_5="13000.00000" pt_clust_6="13000.00000" pt_clust_7="13000.00000" pt_clust_8="13000.00000" pt_clust_9="56.07734"></scales>
<clustering>
<clus scale="   56.077">  2  9  1 -1</clus>
<clus scale="   79.624">  5  6 -1 -1</clus>
<clus scale="   88.337">  7  8 -1 -1</clus>
<clus scale="  107.798">  2  5  1 -1</clus>
<clus scale="   56.077">  2  5  1 -1</clus>
</clustering>
</event>
<event>
 9    1  0.4731329E-005  0.1008766E+03  0.7546771E-02  0.1286547E+00
         21   -1    0    0  501  502  0.00000000000E+00  0.00000000000E+00  0.72322242753E+02  0.72322242753E+02  0.00000000000E+00 0.  1.
          1   -1    0    0  502    0 -0.00000000000E+00 -0.00000000000E+00 -0.28631416969E+03  0.28631416969E+03  0.00000000000E+00 0. -1.
        -24    2    1    2    0    0 -0.80645753629E+01  0.31388288242E+02 -0.18353680823E+03  0.20296390856E+03  0.80363711897E+02 0.  0.
         23    2    1    2    0    0  0.28934564062E+02 -0.22836360042E+02 -0.59805240168E+02  0.11865735112E+03  0.95625268028E+02 0.  0.
         11    1    3    3    0    0 -0.33830306021E+02  0.43952811133E+02 -0.14243454900E+03  0.15285267404E+03  0.00000000000E+00 0. -1.
        -12    1    3    3    0    0  0.25765730658E+02 -0.12564522892E+02 -0.41102259228E+02  0.50111234523E+02  0.00000000000E+00 0.  1.
        -11    1    4    4    0    0  0.15692189780E+02  0.21995018888E+02  0.14656536198E+02  0.30738245384E+02  0.00000000000E+00 0.  1.
         11    1    4    4    0    0  0.13242374282E+02 -0.44831378930E+02 -0.74461776366E+02  0.87919105733E+02  0.00000000000E+00 0. -1.
          2    1    1    2  501    0 -0.20869988699E+02 -0.85519282002E+01  0.29350121460E+02  0.37015152761E+02  0.00000000000E+00 0. -1.
<scales pt_clust_5="13000.00000" pt_clust_6="13000.00000" pt_clust_7="13000.00000" pt_clust_8="13000.00000" pt_clust_9="22.55420"></scales>
<clustering>
<clus scale="   22.554">  1  9  2 -1</clus>
<clus scale="   80.364">  5  6 -1 -1</clus>
<clus scale="   86.546">  2  5  1 -1</clus>
<clus scale="   95.625">  7  8 -1 -1</clus>
<clus scale="   22.554">  1  5  2 -1</clus>
</clustering>
</event>
<event>
 9    1  0.4731329E-005  0.9497973E+02  0.7546771E-02  0.1297434E+00
         21   -1    0    0  501  502  0.00000000000E+00  0.00000000000E+00  0.27293472324E+02  0.27293472324E+02  0.00000000000E+00 0.  1.
          1   -1    0    0  502    0 -0.00000000000E+00 -0.00000000000E+00 -0.68919771529E+03  0.68919771529E+03  0.00000000000E+00 0. -1.
        -24    2    1    2    0    0  0.21408020509E+02  0.25154699196E+02 -0.52217813039E+03  0.52930311521E+03  0.80004535383E+02 0.  0.
         23    2    1    2    0    0 -0.49624546530E+01 -0.23800908916E+01 -0.12718460143E+03  0.15642398747E+03  0.90896920883E+02 0.  0.
         13    1    3    3    0    0  0.28036326327E+02  0.43220460530E+02 -0.19925704066E+03  0.20580916416E+03  0.00000000000E+00 0. -1.
        -14    1    3    3    0    0 -0.66283058178E+01 -0.18065761334E+02 -0.32292108973E+03  0.32349395105E+03  0.00000000000E+00 0.  1.
        -11    1    4    4    0    0  0.25491933977E+02 -0.35107073010E+02 -0.82519367155E+02  0.93229776514E+02  0.00000000000E+00 0.  1.
         11    1    4    4    0    0 -0.30454388630E+02  0.32726982119E+02 -0.44665234280E+02  0.63194210958E+02  0.00000000000E+00 0. -1.
          2    1    1    2  501    0 -0.16445565857E+02 -0.22774608305E+02 -0.12541511140E+02  0.30764084928E+02  0.00000000000E+00 0. -1.
<scales pt_clust_5="13000.00000" pt_clust_6="13000.00000" pt_clust_7="13000.00000" pt_clust_8="13000.00000" pt_clust_9="28.09163"></scales>
<clustering>
<clus scale="   28.092">  1  9  2 -1</clus>
<clus scale="   80.005">  5  6 -1 -1</clus>
<clus scale="   84.615">  2  5  1 -1</clus>
<clus scale="   90.897">  7  8 -1 -1</clus>
<clus scale="   28.092">  1  5  2 -1</clus>
</clustering>
</event>
<event>
 9    1  0.4731329E-005  0.1172067E+03  0.7546771E-02  0.1249566E+00
          3   -1    0    0  502    0 -0.00000000000E+00  0.00000000000E+00  0.11760593534E+03  0.11760593534E+03  0.00000000000E+00 0. -1.
         21   -1    0    0  501  502  0.00000000000E+00 -0.00000000000E+00 -0.57486762801E+03  0.57486762801E+03  0.00000000000E+00 0. -1.
         23    2    1    2    0    0  0.58742192722E+02 -0.57514673639E+02  0.63806499665E+02  0.13520072795E+03  0.86309817226E+02 0.  0.
        -24    2    1    2    0    0  0.13885780185E+02  0.77903552516E+02 -0.39015851610E+03  0.40618388094E+03  0.80621951482E+02 0.  0.
         13    1    4    4    0    0 -0.18313229481E+02  0.68602939967E+02 -0.32766768477E+03  0.33527279846E+03  0.00000000000E+00 0. -1.
        -14    1    4    4    0    0  0.32199009666E+02  0.93006125489E+01 -0.62490831328E+02  0.70911082471E+02  0.00000000000E+00 0.  1.
        -11    1    3    3    0    0  0.58526844866E+02 -0.19522050047E+00  0.48130880220E+02  0.75776060281E+02  0.00000000000E+00 0.  1.
         11    1    3    3    0    0  0.21534785640E+00 -0.57319453138E+02  0.15675619445E+02  0.59424667670E+02  0.00000000000E+00 0. -1.
          4    1    1    2  501    0 -0.72627972907E+02 -0.20388878877E+02 -0.13090967624E+03  0.15108895447E+03  0.00000000000E+00 0. -1.
<scales pt_clust_5="13000.00000" pt_clust_6="13000.00000" pt_clust_7="13000.00000" pt_clust_8="13000.00000" pt_clust_9="75.43559"></scales>
<clustering>
<clus scale="   75.436">  2  9  1 -1</clus>
<clus scale="   80.622">  5  6 -1 -1</clus>
<clus scale="   86.310">  7  8 -1 -1</clus>
<clus scale="  113.084">  2  5  1 -1</clus>
<clus scale="   75.436">  2  5  1 -1</clus>
</clustering>
</event>
<event>
 9    1  0.4731329E-005  0.1394388E+03  0.7546771E-02  0.1215034E+00
         21   -1    0    0  501  502  0.00000000000E+00  0.00000000000E+00  0.18753443994E+03  0.18753443994E+03  0.00000000000E+00 0. -1.
         -2   -1    0    0    0  501 -0.00000000000E+00 -0.00000000000E+00 -0.18836720067E+03  0.18836720067E+03  0.00000000000E+00 0.  1.
         23    2    1    2    0    0  0.23957510048E+02 -0.95146832301E+02 -0.83102555920E+02  0.15794894917E+03  0.91733057067E+02 0.  0.
        -24    2    1    2    0    0 -0.26485417032E+02  0.12791708682E+03  0.93868261636E+02  0.18309864837E+03  0.87462026474E+02 0.  0.
         13    1    4    4    0    0 -0.40993527942E+02  0.72953893364E+02  0.94530854680E+02  0.12624904901E+03  0.00000000000E+00 0. -1.
        -14    1    4    4    0    0  0.14508110909E+02  0.54963193457E+02 -0.66259304388E+00  0.56849599354E+02  0.00000000000E+00 0.  1.
        -11    1    3    3    0    0  0.46418878694E+02 -0.96389159609E+02 -0.50412881393E+02  0.11826682121E+03  0.00000000000E+00 0. -1.
         11    1    3    3    0    0 -0.22461368646E+02  0.12423273080E+01 -0.32689674527E+02  0.39682127958E+02  0.00000000000E+00 0.  1.
         -1    1    1    2    0  502  0.25279069845E+01 -0.32770254520E+02 -0.11598466442E+02  0.34854043077E+02  0.00000000000E+00 0.  1.
<scales pt_clust_5="13000.00000" pt_clust_6="13000.00000" pt_clust_7="13000.00000" pt_clust_8="13000.00000" pt_clust_9="32.86763"></scales>
<clustering>
<clus scale="   32.868">  1  9  2 -1</clus>
<clus scale="   87.462">  5  6 -1 -1</clus>
<clus scale="   91.733">  7  8 -1 -1</clus>
<clus scale="  136.667">  1  5  2 -1</clus>
<clus scale="   32.868">  1  5  2 -1</clus>
</clustering>
</event>
<event>
 9    1  0.4731329E-005  0.1359017E+03  0.7546771E-02  0.1221299E+00
          1   -1    0    0  502    0 -0.00000000000E+00  0.00000000000E+00  0.13357056348E+03  0.13357056348E+03  0.00000000000E+00 0. -1.
         21   -1    0    0  501  502  0.00000000000E+00 -0.00000000000E+00 -0.19104011516E+03  0.19104011516E+03  0.00000000000E+00 0. -1.
         23    2    1    2    0    0 -0.14518119542E+02  0.11198640063E+03 -0.11780178324E+02  0.14597866922E+03  0.91756577667E+02 0.  0.
        -24    2    1    2    0    0  0.49948517313E+02 -0.77814744654E+02 -0.31180310818E+02  0.12731409779E+03  0.81772115339E+02 0.  0.
         13    1    4    4    0    0  0.53511786148E+02 -0.49911057209E+02 -0.54121512896E+02  0.91015180309E+02  0.00000000000E+00 0. -1.
        -14    1    4    4    0    0 -0.35632688352E+01 -0.27903687444E+02  0.22941202078E+02  0.36298917485E+02  0.00000000000E+00 0.  1.
        -13    1    3    3    0    0  0.24799507852E+02 -0.95745452275E+00 -0.88573739148E+01  0.26351193171E+02  0.00000000000E+00 0.  1.
         13    1    3    3    0    0 -0.39317627394E+02  0.11294385515E+03 -0.29228044095E+01  0.11962747605E+03  0.00000000000E+00 0. -1.
          2    1    1    2  501    0 -0.35430397771E+02 -0.34171655972E+02 -0.14509062539E+02  0.51317911628E+02  0.00000000000E+00 0. -1.
<scales pt_clust_5="13000.00000" pt_clust_6="13000.00000" pt_clust_7="13000.00000" pt_clust_8="13000.00000" pt_clust_9="49.22413"></scales>
<clustering>
<clus scale="   49.224">  2  9  1 -1</clus>
<clus scale="   81.772">  5  6 -1 -1</clus>
<clus scale="   91.757">  7  8 -1 -1</clus>
<clus scale="  129.370">  2  5  1 -1</clus>
<clus scale="   49.224">  2  5  1 -1</clus>
</clustering>
</event>
<event>
 9    1  0.4731329E-005  0.1207525E+03  0.7546771E-02  0.1245196E+00
         21   -1    0    0  501  502  0.00000000000E+00  0.00000000000E+00  0.33392982114E+03  0.33392982114E+03  0.00000000000E+00 0. -1.
          1   -1    0    0  502    0 -0.00000000000E+00 -0.00000000000E+00 -0.64039177355E+02  0.64039177355E+02  0.00000000000E+00 0. -1.
         23    2    1    2    0    0 -0.82307401840E+02  0.66069965886E+01  0.86527603432E+02  0.15019171478E+03  0.90842524355E+02 0.  0.
        -24    2    1    2    0    0  0.65621302492E+02 -0.51927886730E+02  0.14788900492E+03  0.18785386438E+03  0.80095292156E+02 0.  0.
         13    1    4    4    0    0  0.72017765476E+02 -0.31045586030E+02  0.64166982031E+02  0.10133009691E+03  0.00000000000E+00 0. -1.
        -14    1    4    4    0    0 -0.63964629834E+01 -0.20882300701E+02  0.83722022894E+02  0.86523767479E+02  0.00000000000E+00 0.  1.
        -11    1    3    3    0    0  0.98564575163E+01 -0.22540062962E+02  0.87083518146E+01  0.26096735130E+02  0.00000000000E+00 0.  1.
         11    1    3    3    0    0 -0.92163859357E+02  0.29147059551E+02  0.77819251618E+02  0.12409497965E+03  0.00000000000E+00 0. -1.
          2    1    1    2  501    0  0.16686099348E+02  0.45320890142E+02  0.35474035430E+02  0.59923419331E+02  0.00000000000E+00 0. -1.
<scales pt_clust_5="13000.00000" pt_clust_6="13000.00000" pt_clust_7="13000.00000" pt_clust_8="13000.00000" pt_clust_9="48.29504"></scales>
<clustering>
<clus scale="   48.295">  1  9  2 -1</clus>
<clus scale="   80.095">  5  6 -1 -1</clus>
<clus scale="   90.843">  7  8 -1 -1</clus>
<clus scale="  112.890">  1  5  2 -1</clus>
<clus scale="   48.295">  1  5  2 -1</clus>
</clustering>
</event>
<event>
 9    1  0.4731329E-005  0.1086283E+03  0.7546771E-02  0.1267220E+00
         -2   -1    0    0    0  501 -0.00000000000E+00  0.00000000000E+00  0.16532408917E+03  0.16532408917E+03  0.00000000000E+00 0.  1.
         21   -1    0    0  501  502  0.00000000000E+00 -0.00000000000E+00 -0.13506089299E+03  0.13506089299E+03  0.00000000000E+00 0.  1.
        -24    2    1    2    0    0 -0.60720526800E+02  0.67293264987E+01  0.97792209713E+02  0.14112616564E+03  0.81369602059E+02 0.  0.
         23    2    1    2    0    0  0.45444457140E+02 -0.33847740882E+02 -0.32433959757E+02  0.11235008062E+03  0.91431453137E+02 0.  0.
         11    1    3    3    0    0 -0.22789332767E+02  0.35880476605E+02  0.14203964134E+02  0.44816457764E+02  0.00000000000E+00 0. -1.
        -12    1    3    3    0    0 -0.37931194032E+02 -0.29151150106E+02  0.83588245579E+02  0.96309707881E+02  0.00000000000E+00 0.  1.
        -11    1    4    4    0    0  0.73097560417E+02 -0.32159957210E+02 -0.23730936684E+02  0.83310704850E+02  0.00000000000E+00 0. -1.
         11    1    4    4    0    0 -0.27653103278E+02 -0.16877836720E+01 -0.87030230737E+01  0.29039375772E+02  0.00000000000E+00 0.  1.
         -1    1    1    2    0  502  0.15276069660E+02  0.27118414384E+02 -0.35095053776E+02  0.46908735887E+02  0.00000000000E+00 0.  1.
<scales pt_clust_5="13000.00000" pt_clust_6="13000.00000" pt_clust_7="13000.00000" pt_clust_8="13000.00000" pt_clust_9="31.12502"></scales>
<clustering>
<clus scale="   31.125">  2  9  1 -1</clus>
<clus scale="   81.370">  5  6 -1 -1</clus>
<clus scale="   91.431">  7  8 -1 -1</clus>
<clus scale="  100.307">  1  5  2 -1</clus>
<clus scale="   31.125">  2  5  1 -1</clus>
</clustering>
</event>
<event>
 9    1  0.4731329E-005  0.9830367E+02  0.7546771E-02  0.1285438E+00
         21   -1    0    0  501  502  0.00000000000E+00  0.00000000000E+00  0.20473925217E+03  0.20473925217E+03  0.00000000000E+00 0.  1.
          1   -1    0    0  502    0 -0.00000000000E+00 -0.00000000000E+00 -0.71938241200E+02  0.71938241200E+02  0.00000000000E+00 0. -1.
         23    2    1    2    0    0 -0.23198303904E+01  0.48333340758E+02  0.21965649357E+02  0.10113642991E+03  0.86049952134E+02 0.  0.
        -24    2    1    2    0    0 -0.27956499887E+02 -0.43665083111E+02  0.55727824396E+02  0.11249116684E+03  0.82827935125E+02 0.  0.
         11    1    4    4    0    0 -0.44613343093E+02 -0.10629200139E+02  0.31599978332E+00  0.45863167503E+02  0.00000000000E+00 0. -1.
        -12    1    4    4    0    0  0.16656843206E+02 -0.33035882972E+02  0.55411824612E+02  0.66627999341E+02  0.00000000000E+00 0.  1.
        -11    1    3    3    0    0  0.31316400267E+02  0.39581507102E+01 -0.14333042143E+02  0.34667275344E+02  0.00000000000E+00 0. -1.
         11    1    3    3    0    0 -0.33636230657E+02  0.44375190047E+02  0.36298691500E+02  0.66469154570E+02  0.00000000000E+00 0.  1.
          2    1    1    2  501    0  0.30276330277E+02 -0.46682576470E+01  0.55107537214E+02  0.63049896608E+02  0.00000000000E+00 0. -1.
<scales pt_clust_5="13000.00000" pt_clust_6="13000.00000" pt_clust_7="13000.00000" pt_clust_8="13000.00000" pt_clust_9="30.63411"></scales>
<clustering>
<clus scale="   30.634">  1  9  2 -1</clus>
<clus scale="   82.828">  5  6 -1 -1</clus>
<clus scale="   86.050">  7  8 -1 -1</clus>
<clus scale="   95.496">  1  5  2 -1</clus>
<clus scale="   30.634">  1  5  2 -1</clus>
</clustering>
</event>
<event>
 9    1  0.4731329E-005  0.2689161E+03  0.7546771E-02  0.1119517E+00
          1   -1    0    0  502    0 -0.00000000000E+00  0.00000000000E+00  0.95935125858E+03  0.95935125858E+03  0.00000000000E+00 0. -1.
         21   -1    0    0  501  502  0.00000000000E+00 -0.00000000000E+00 -0.29188169744E+03  0.29188169744E+03  0.00000000000E+00 0. -1.
         23    2    1    2    0    0  0.12739246229E+03  0.70529212106E+02  0.65666348089E+03  0.67876159539E+03  0.91143661451E+02 0.  0.
        -24    2    1    2    0    0  0.83829987970E+02  0.14640983638E+03  0.14974222598E+03  0.23933366110E+03  0.79965992914E+02 0.  0.
         13    1    4    4    0    0  0.27444219717E+02  0.99315270036E+02  0.12460017589E+03  0.16168460622E+03  0.00000000000E+00 0. -1.
        -14    1    4    4    0    0  0.56385768254E+02  0.47094566346E+02  0.25142050093E+02  0.77649054880E+02  0.00000000000E+00 0.  1.
        -13    1    3    3    0    0  0.99234459577E+02  0.37414601952E+01  0.37952620176E+03  0.39230296241E+03  0.00000000000E+00 0.  1.
         13    1    3    3    0    0  0.28158002718E+02  0.66787751910E+02  0.27713727913E+03  0.28645863298E+03  0.00000000000E+00 0. -1.
          2    1    1    2  501    0 -0.21122245026E+03 -0.21693904849E+03 -0.13893614574E+03  0.33313769953E+03  0.00000000000E+00 0. -1.
<scales pt_clust_5="13000.00000" pt_clust_6="13000.00000" pt_clust_7="13000.00000" pt_clust_8="13000.00000" pt_clust_9="256.75141"></scales>
<clustering>
<clus scale="   79.966">  5  6 -1 -1</clus>
<clus scale="   91.144">  7  8 -1 -1</clus>
<clus scale="  171.786">  1  7  2 -1</clus>
<clus scale="  256.751">  2  9  1 -1</clus>
<clus scale="  256.751">  2  5  1 -1</clus>
</clustering>
</event>
<event>
 9    1  0.4731329E-005  0.1331390E+03  0.7546771E-02  0.1225065E+00
         21   -1    0    0  501  502  0.00000000000E+00  0.00000000000E+00  0.27106085591E+02  0.27106085591E+02  0.00000000000E+00 0. -1.
          3   -1    0    0  502    0 -0.00000000000E+00 -0.00000000000E+00 -0.10846371479E+04  0.10846371479E+04  0.00000000000E+00 0. -1.
         23    2    1    2    0    0 -0.17581540349E+02 -0.85922105201E+02 -0.61546332723E+03  0.62814785449E+03  0.89904956557E+02 0.  0.
        -24    2    1    2    0    0  0.10802361038E+02  0.12735822925E+03 -0.30827958257E+03  0.34337348556E+03  0.80822274130E+02 0.  0.
         11    1    4    4    0    0 -0.32722728145E+02  0.69186426723E+02 -0.12996072323E+03  0.15082217398E+03  0.00000000000E+00 0. -1.
        -12    1    4    4    0    0  0.43525089182E+02  0.58171802524E+02 -0.17831885933E+03  0.19255131158E+03  0.00000000000E+00 0.  1.
        -11    1    3    3    0    0 -0.50314633180E+02 -0.70819068879E+02 -0.48856333895E+03  0.49622680197E+03  0.00000000000E+00 0. -1.
         11    1    3    3    0    0  0.32733092831E+02 -0.15103036323E+02 -0.12689998828E+03  0.13192105252E+03  0.00000000000E+00 0.  1.
          4    1    1    2  501    0  0.67791793112E+01 -0.41436124046E+02 -0.13378815253E+03  0.14022189346E+03  0.00000000000E+00 0. -1.
<scales pt_clust_5="13000.00000" pt_clust_6="13000.00000" pt_clust_7="13000.00000" pt_clust_8="13000.00000" pt_clust_9="41.98704"></scales>
<clustering>
<clus scale="   41.987">  1  9  2 -1</clus>
<clus scale="   80.822">  5  6 -1 -1</clus>
<clus scale="   89.905">  7  8 -1 -1</clus>
<clus scale="  127.182">  1  5  2 -1</clus>
<clus scale="   41.987">  1  5  2 -1</clus>
</clustering>
</event>
<event>
 9    1  0.4731329E-005  0.9910169E+02  0.7546771E-02  0.1287637E+00
          3   -1    0    0  502    0 -0.00000000000E+00  0.00000000000E+00  0.99154624339E+02  0.99154624339E+02  0.00000000000E+00 0. -1.
         21   -1    0    0  501  502  0.00000000000E+00 -0.00000000000E+00 -0.16339011296E+03  0.16339011296E+03  0.00000000000E+00 0.  1.
         23    2    1    2    0    0  0.18571959761E+01 -0.42962798935E+02  0.33873941659E+02  0.10647611585E+03  0.91326163025E+02 0.  0.
        -24    2    1    2    0    0  0.21205394001E+02  0.24341692111E+02 -0.90440370089E+02  0.12545092788E+03  0.80723528501E+02 0.  0.
         13    1    4    4    0    0  0.96120378837E+01  0.22095938294E+02  0.86933657844E+01  0.25616330144E+02  0.00000000000E+00 0. -1.
        -14    1    4    4    0    0  0.11593356117E+02  0.22457538172E+01 -0.99133735874E+02  0.99834597733E+02  0.00000000000E+00 0.  1.
        -11    1    3    3    0    0  0.28001248406E+02  0.71299784109E+01 -0.14284725217E+02  0.32232900567E+02  0.00000000000E+00 0.  1.
         11    1    3    3    0    0 -0.26144052430E+02 -0.50092777346E+02  0.48158666876E+02  0.74243215279E+02  0.00000000000E+00 0. -1.
          4    1    1    2  501    0 -0.23062589977E+02  0.18621106824E+02 -0.76690601911E+01  0.30617693577E+02  0.00000000000E+00 0. -1.
<scales pt_clust_5="13000.00000" pt_clust_6="13000.00000" pt_clust_7="13000.00000" pt_clust_8="13000.00000" pt_clust_9="29.64167"></scales>
<clustering>
<clus scale="   29.642">  2  9  1 -1</clus>
<clus scale="   80.724">  5  6 -1 -1</clus>
<clus scale="   89.426">  2  5  1 -1</clus>
<clus scale="   91.326">  7  8 -1 -1</clus>
<clus scale="   29.642">  2  5  1 -1</clus>
</clustering>
</event>
<event>
 9    1  0.4731329E-005  0.2369932E+03  0.7546771E-02  0.1159765E+00
          1   -1    0    0  502    0 -0.00000000000E+00  0.00000000000E+00  0.54228197142E+03  0.54228197142E+03  0.00000000000E+00 0. -1.
         21   -1    0    0  501  502  0.00000000000E+00 -0.00000000000E+00 -0.27669927484E+03  0.27669927484E+03  0.00000000000E+00 0. -1.
         23    2    1    2    0    0  0.13464061468E+02  0.46196400930E+02  0.33764326802E+03  0.35074665370E+03  0.81883149854E+02 0.  0.
        -24    2    1    2    0    0 -0.21894169447E+03  0.45459096496E+02 -0.42048018028E+02  0.24124881936E+03  0.80193278957E+02 0.  0.
         13    1    4    4    0    0 -0.16652100524E+03  0.11818058794E+02 -0.15372309727E+01  0.16694692204E+03  0.00000000000E+00 0. -1.
        -14    1    4    4    0    0 -0.52420689229E+02  0.33641037703E+02 -0.40510787055E+02  0.74301897316E+02  0.00000000000E+00 0.  1.
        -11    1    3    3    0    0 -0.27397362913E+02 -0.65811614299E+01  0.95022913102E+02  0.99112467403E+02  0.00000000000E+00 0.  1.
         11    1    3    3    0    0  0.40861424380E+02  0.52777562360E+02  0.24262035492E+03  0.25163418630E+03  0.00000000000E+00 0. -1.
          2    1    1    2  501    0  0.20547763300E+03 -0.91655497427E+02 -0.30012553414E+02  0.22698577320E+03  0.00000000000E+00 0. -1.
<scales pt_clust_5="13000.00000" pt_clust_6="13000.00000" pt_clust_7="13000.00000" pt_clust_8="13000.00000" pt_clust_9="223.01313"></scales>
<clustering>
<clus scale="   80.193">  5  6 -1 -1</clus>
<clus scale="   81.883">  7  8 -1 -1</clus>
<clus scale="   94.975">  1  7  2 -1</clus>
<clus scale="  223.013">  2  9  1 -1</clus>
<clus scale="  223.013">  2  5  1 -1</clus>
</clustering>
</event>
<event>
 9    1  0.4731329E-005  0.1223831E+03  0.7546771E-02  0.1243757E+00
         21   -1    0    0  501  502  0.00000000000E+00  0.00000000000E+00  0.71594987263E+02  0.71594987263E+02  0.00000000000E+00 0. -1.
          1   -1    0    0  502    0 -0.00000000000E+00 -0.00000000000E+00 -0.33286966383E+03  0.33286966383E+03  0.00000000000E+00 0. -1.
        -24    2    1    2    0    0  0.46672084769E+02  0.77556538954E+02 -0.22639500900E+03  0.25545163464E+03  0.76207199876E+02 0.  0.
         23    2    1    2    0    0 -0.18152929811E+02 -0.52879615570E+02 -0.22751505705E+02  0.10939755157E+03  0.91238208412E+02 0.  0.
         13    1    3    3    0    0  0.43697734111E+02  0.39504891917E+02 -0.20137488062E+03  0.20981413441E+03  0.00000000000E+00 0. -1.
        -14    1    3    3    0    0  0.29743506582E+01  0.38051647037E+02 -0.25020128377E+02  0.45637500239E+02  0.00000000000E+00 0.  1.
        -11    1    4    4    0    0  0.21864090621E+02 -0.59582074059E+02 -0.12528150094E+01  0.63479378961E+02  0.00000000000E+00 0. -1.
         11    1    4    4    0    0 -0.40017020433E+02  0.67024584894E+01 -0.21498690696E+02  0.45918172609E+02  0.00000000000E+00 0.  1.
          2    1    1    2  501    0 -0.28519154957E+02 -0.24676923385E+02 -0.12128161866E+02  0.39615464878E+02  0.00000000000E+00 0. -1.
<scales pt_clust_5="13000.00000" pt_clust_6="13000.00000" pt_clust_7="13000.00000" pt_clust_8="13000.00000" pt_clust_9="37.71330"></scales>
<clustering>
<clus scale="   37.713">  1  9  2 -1</clus>
<clus scale="   76.207">  5  6 -1 -1</clus>
<clus scale="   91.238">  7  8 -1 -1</clus>
<clus scale="  111.628">  2  5  1 -1</clus>
<clus scale="   37.713">  1  5  2 -1</clus>
</clustering>
</event>
<event>
 9    1  0.4731329E-005  0.1349920E+03  0.7546771E-02  0.1220865E+00
         21   -1    0    0  501  502  0.00000000000E+00  0.00000000000E+00  0.32902118661E+03  0.32902118661E+03  0.00000000000E+00 0.  1.
         -2   -1    0    0    0  501 -0.00000000000E+00 -0.00000000000E+00 -0.52742880921E+03  0.52742880921E+03  0.00000000000E+00 0.  1.
         23    2    1    2    0    0  0.99403811385E+02 -0.20509568570E+02 -0.48617626823E+03  0.50484532317E+03  0.90552064675E+02 0.  0.
        -24    2    1    2    0    0 -0.85190405579E+02 -0.88121127035E+01  0.92571282345E+02  0.15370623272E+03  0.87869819211E+02 0.  0.
         11    1    4    4    0    0 -0.10106246725E+03 -0.19171766472E+02  0.70987572287E+02  0.12498165600E+03  0.00000000000E+00 0. -1.
        -12    1    4    4    0    0  0.15872061672E+02  0.10359653769E+02  0.21583710059E+02  0.28724576721E+02  0.00000000000E+00 0.  1.
        -11    1    3    3    0    0  0.78149764204E+02 -0.20468456964E+02 -0.47297606568E+03  0.47982569969E+03  0.00000000000E+00 0.  1.
         11    1    3    3    0    0  0.21254047181E+02 -0.41111605641E-01 -0.13200202546E+02  0.25019623478E+02  0.00000000000E+00 0. -1.
         -1    1    1    2    0  502 -0.14213405806E+02  0.29321681273E+02  0.19519736328E+03  0.19789843994E+03  0.00000000000E+00 0.  1.
<scales pt_clust_5="13000.00000" pt_clust_6="13000.00000" pt_clust_7="13000.00000" pt_clust_8="13000.00000" pt_clust_9="32.58499"></scales>
<clustering>
<clus scale="   32.585">  1  9  2 -1</clus>
<clus scale="   87.870">  5  6 -1 -1</clus>
<clus scale="   90.552">  7  8 -1 -1</clus>
<clus scale="  133.208">  1  5  2 -1</clus>
<clus scale="   32.585">  1  5  2 -1</clus>
</clustering>
</event>
<event>
 9    1  0.4731329E-005  0.1055965E+03  0.7546771E-02  0.1274691E+00
         -2   -1    0    0    0  501 -0.00000000000E+00  0.00000000000E+00  0.13870420364E+03  0.13870420364E+03  0.00000000000E+00 0.  1.
         21   -1    0    0  501  502  0.00000000000E+00 -0.00000000000E+00 -0.21727881074E+03  0.21727881074E+03  0.00000000000E+00 0. -1.
         23    2    1    2    0    0  0.44287913602E+02 -0.22058926694E+02  0.91510626944E+02  0.13936867582E+03  0.92743826839E+02 0.  0.
        -24    2    1    2    0    0 -0.37387246963E+02  0.47062362125E+02 -0.98026824977E+02  0.14002971020E+03  0.79914886970E+02 0.  0.
         11    1    4    4    0    0  0.18121045359E+02  0.34880493592E+02 -0.59721564353E+02  0.71496058401E+02  0.00000000000E+00 0. -1.
        -12    1    4    4    0    0 -0.55508292322E+02  0.12181868534E+02 -0.38305260624E+02  0.68533651799E+02  0.00000000000E+00 0.  1.
        -11    1    3    3    0    0  0.30578302735E+02  0.33934215408E+02  0.27911601600E+02  0.53531496125E+02  0.00000000000E+00 0. -1.
         11    1    3    3    0    0  0.13709610867E+02 -0.55993142102E+02  0.63599025344E+02  0.85837179690E+02  0.00000000000E+00 0.  1.
         -1    1    1    2    0  502 -0.69006666394E+01 -0.25003435431E+02 -0.72058409070E+02  0.76584628361E+02  0.00000000000E+00 0.  1.
<scales pt_clust_5="13000.00000" pt_clust_6="13000.00000" pt_clust_7="13000.00000" pt_clust_8="13000.00000" pt_clust_9="25.93821"></scales>
<clustering>
<clus scale="   25.938">  2  9  1 -1</clus>
<clus scale="   79.915">  5  6 -1 -1</clus>
<clus scale="   92.744">  7  8 -1 -1</clus>
<clus scale="   94.528">  2  5  1 -1</clus>
<clus scale="   25.938">  2  5  1 -1</clus>
</clustering>
</event>
<event>
 9    1  0.4731329E-005  0.1386315E+03  0.7546771E-02  0.1216311E+00
         21   -1    0    0  501  502  0.00000000000E+00  0.00000000000E+00  0.15185248148E+03  0.15185248148E+03  0.00000000000E+00 0. -1.
         -4   -1    0    0    0  501 -0.00000000000E+00 -0.00000000000E+00 -0.47504864364E+03  0.47504864364E+03  0.00000000000E+00 0.  1.
         23    2    1    2    0    0 -0.69493367078E+00  0.11593744444E+03 -0.33955088455E+03  0.36888590166E+03  0.85673982528E+02 0.  0.
        -24    2    1    2    0    0  0.81162911209E+02 -0.54453712893E+02  0.68791078557E+02  0.14397612446E+03  0.80276316067E+02 0.  0.
         11    1    4    4    0    0  0.62782232157E+02  0.52634147542E+01  0.25526104831E+02  0.67977159674E+02  0.00000000000E+00 0. -1.
        -12    1    4    4    0    0  0.18380679052E+02 -0.59717127647E+02  0.43264973725E+02  0.75998964784E+02  0.00000000000E+00 0.  1.
        -13    1    3    3    0    0  0.17209987962E+02  0.63439171973E+02 -0.27955182916E+03  0.28717579531E+03  0.00000000000E+00 0.  1.
         13    1    3    3    0    0 -0.17904921633E+02  0.52498272466E+02 -0.59999055400E+02  0.81710106348E+02  0.00000000000E+00 0. -1.
         -3    1    1    2    0  502 -0.80467977538E+02 -0.61483731546E+02 -0.52436356167E+02  0.11403909901E+03  0.00000000000E+00 0.  1.
<scales pt_clust_5="13000.00000" pt_clust_6="13000.00000" pt_clust_7="13000.00000" pt_clust_8="13000.00000" pt_clust_9="101.26868"></scales>
<clustering>
<clus scale="   80.276">  5  6 -1 -1</clus>
<clus scale="   85.674">  7  8 -1 -1</clus>
<clus scale="  101.269">  1  9  2 -1</clus>
<clus scale="  135.362">  1  5  2 -1</clus>
<clus scale="  101.269">  1  5  2 -1</clus>
</clustering>
</event>
<event>
 9    1  0.4731329E-005  0.2834860E+03  0.7546771E-02  0.1125519E+00
          1   -1    0    0  502    0 -0.00000000000E+00  0.00000000000E+00  0.23345634367E+04  0.23345634367E+04  0.00000000000E+00 0. -1.
         21   -1    0    0  501  502  0.00000000000E+00 -0.00000000000E+00 -0.59677870167E+02  0.59677870167E+02  0.00000000000E+00 0. -1.
         23    2    1    2    0    0  0.53376661655E+02 -0.68730407273E+02  0.38062116625E+03  0.40102412188E+03  0.91514683168E+02 0.  0.
        -24    2    1    2    0    0 -0.87974306216E+02 -0.21813117882E+03  0.13905227944E+04  0.14124916284E+04  0.79109220723E+02 0.  0.
         11    1    4    4    0    0 -0.78142846036E+02 -0.21592157700E+03  0.13746042481E+04  0.13936517753E+04  0.00000000000E+00 0. -1.
        -12    1    4    4    0    0 -0.98314601792E+01 -0.22096018209E+01  0.15918546275E+02  0.18839853104E+02  0.00000000000E+00 0.  1.
        -13    1    3    3    0    0 -0.68024009710E+00 -0.36560416478E+02  0.38230035662E+02  0.52902385639E+02  0.00000000000E+00 0. -1.
         13    1    3    3    0    0  0.54056901752E+02 -0.32169990795E+02  0.34239113059E+03  0.34812173624E+03  0.00000000000E+00 0.  1.
          2    1    1    2  501    0  0.34597644561E+02  0.28686158610E+03  0.50374160587E+03  0.58072555659E+03  0.00000000000E+00 0. -1.
<scales pt_clust_5="13000.00000" pt_clust_6="13000.00000" pt_clust_7="13000.00000" pt_clust_8="13000.00000" pt_clust_9="272.22428"></scales>
<clustering>
<clus scale="   79.109">  5  6 -1 -1</clus>
<clus scale="   91.515">  7  8 -1 -1</clus>
<clus scale="  126.285">  1  7  2 -1</clus>
<clus scale="  272.224">  2  9  1 -1</clus>
<clus scale="  272.224">  2  5  1 -1</clus>
</clustering>
</event>
<event>
 9    1  0.4731329E-005  0.9522456E+02  0.7546771E-02  0.1297604E+00
          1   -1    0    0  502    0 -0.00000000000E+00  0.00000000000E+00  0.36874470359E+03  0.36874470359E+03  0.00000000000E+00 0. -1.
         21   -1    0    0  501  502  0.00000000000E+00 -0.00000000000E+00 -0.24826312900E+03  0.24826312900E+03  0.00000000000E+00 0. -1.
        -24    2    1    2    0    0 -0.20031139372E+02  0.55733565807E+01  0.29032771435E+03  0.30192164156E+03  0.80213384635E+02 0.  0.
         23    2    1    2    0    0  0.65886109049E+02  0.57423166251E+02  0.13093159846E+01  0.12702920454E+03  0.92175404042E+02 0.  0.
         13    1    3    3    0    0 -0.22176840393E+02 -0.26941976880E+02  0.60880594871E+02  0.70172139770E+02  0.00000000000E+00 0. -1.
        -14    1    3    3    0    0  0.21457010208E+01  0.32515333460E+02  0.22944711948E+03  0.23174950179E+03  0.00000000000E+00 0.  1.
        -13    1    4    4    0    0  0.47267815876E+02  0.79448306106E+02  0.17302712790E+02  0.94051388245E+02  0.00000000000E+00 0. -1.
         13    1    4    4    0    0  0.18618293173E+02 -0.22025139856E+02 -0.15993396806E+02  0.32977816297E+02  0.00000000000E+00 0.  1.
          2    1    1    2  501    0 -0.45854969676E+02 -0.62996522832E+02 -0.17115545574E+03  0.18805698648E+03  0.00000000000E+00 0. -1.
<scales pt_clust_5="13000.00000" pt_clust_6="13000.00000" pt_clust_7="13000.00000" pt_clust_8="13000.00000" pt_clust_9="77.91816"></scales>
<clustering>
<clus scale="   77.918">  2  9  1 -1</clus>
<clus scale="   80.213">  5  6 -1 -1</clus>
<clus scale="   83.699">  1  5  2 -1</clus>
<clus scale="   92.175">  7  8 -1 -1</clus>
<clus scale="   77.918">  2  5  1 -1</clus>
</clustering>
</event>
<event>
 9    1  0.4731329E-005  0.9904740E+02  0.7546771E-02  0.1285629E+00
         21   -1    0    0  501  502  0.00000000000E+00  0.00000000000E+00  0.53053769009E+03  0.53053769009E+03  0.00000000000E+00 0.  1.
          3   -1    0    0  502    0 -0.00000000000E+00 -0.00000000000E+00 -0.15423653322E+03  0.15423653322E+03  0.00000000000E+00 0. -1.
         23    2    1    2    0    0  0.66670832871E+01  0.37261529921E+02 -0.13121883908E+03  0.16461135215E+03  0.91900173636E+02 0.  0.
        -24    2    1    2    0    0  0.64440931784E+01 -0.19566140020E+02  0.33822818180E+03  0.34944454141E+03  0.85374612095E+02 0.  0.
         11    1    4    4    0    0  0.33570456306E+02 -0.11445500068E+02  0.59407857765E+02  0.69190090133E+02  0.00000000000E+00 0. -1.
        -12    1    4    4    0    0 -0.27126363127E+02 -0.81206399519E+01  0.27882032403E+03  0.28025445128E+03  0.00000000000E+00 0.  1.
        -13    1    3    3    0    0 -0.40383849613E+02  0.37961025357E+01 -0.42419913324E+02  0.58691692346E+02  0.00000000000E+00 0.  1.
         13    1    3    3    0    0  0.47050932900E+02  0.33465427385E+02 -0.88798925758E+02  0.10591965980E+03  0.00000000000E+00 0. -1.
          4    1    1    2  501    0 -0.13111176466E+02 -0.17695389901E+02  0.16929181415E+03  0.17071832974E+03  0.00000000000E+00 0. -1.
<scales pt_clust_5="13000.00000" pt_clust_6="13000.00000" pt_clust_7="13000.00000" pt_clust_8="13000.00000" pt_clust_9="22.02339"></scales>
<clustering>
<clus scale="   22.023">  1  9  2 -1</clus>
<clus scale="   85.375">  5  6 -1 -1</clus>
<clus scale="   91.900">  7  8 -1 -1</clus>
<clus scale="   93.025">  1  5  2 -1</clus>
<clus scale="   22.023">  1  5  2 -1</clus>
</clustering>
</event>
<event>
 9    1  0.4731329E-005  0.8618497E+02  0.7546771E-02  0.1314457E+00
          1   -1    0    0  502    0 -0.00000000000E+00  0.00000000000E+00  0.31484902423E+03  0.31484902423E+03  0.00000000000E+00 0. -1.
         21   -1    0    0  501  502  0.00000000000E+00 -0.00000000000E+00 -0.42860859774E+02  0.42860859774E+02  0.00000000000E+00 0.  1.
         23    2    1    2    0    0 -0.22148274936E+02  0.77226510158E+01  0.13303929734E+03  0.15887429681E+03  0.83614604759E+02 0.  0.
        -24    2    1    2    0    0 -0.23515716269E+01 -0.31154268399E+02  0.41482526419E+02  0.95641736873E+02  0.80314528607E+02 0.  0.
         11    1    4    4    0    0 -0.29327856388E+01 -0.51418191542E+02  0.51670091121E+02  0.72953615192E+02  0.00000000000E+00 0. -1.
        -12    1    4    4    0    0  0.58121401186E+00  0.20263923143E+02 -0.10187564702E+02  0.22688121681E+02  0.00000000000E+00 0.  1.
        -11    1    3    3    0    0  0.26271632772E+01  0.40466875131E+02  0.93301822252E+02  0.10173347534E+03  0.00000000000E+00 0.  1.
         11    1    3    3    0    0 -0.24775438213E+02 -0.32744224115E+02  0.39737475084E+02  0.57140821464E+02  0.00000000000E+00 0. -1.
          2    1    1    2  501    0  0.24499846563E+02  0.23431617384E+02  0.97466340700E+02  0.10319385032E+03  0.00000000000E+00 0. -1.
<scales pt_clust_5="13000.00000" pt_clust_6="13000.00000" pt_clust_7="13000.00000" pt_clust_8="13000.00000" pt_clust_9="33.90110"></scales>
<clustering>
<clus scale="   33.901">  2  9  1 -1</clus>
<clus scale="   80.315">  5  6 -1 -1</clus>
<clus scale="   82.987">  2  5  1 -1</clus>
<clus scale="   83.615">  7  8 -1 -1</clus>
<clus scale="   33.901">  2  5  1 -1</clus>
</clustering>
</event>
<event>
 9    1  0.4731329E-005  0.1100911E+03  0.7546771E-02  0.1263415E+00
          1   -1    0    0  502    0 -0.00000000000E+00  0.00000000000E+00  0.12558223198E+03  0.12558223198E+03  0.00000000000E+00 0. -1.
         21   -1    0    0  501  502  0.00000000000E+00 -0.00000000000E+00 -0.61816569963E+03  0.61816569963E+03  0.00000000000E+00 0. -1.
        -24    2    1    2    0    0  0.54450812668E+02 -0.10404374196E+01  0.64884630667E+02  0.11839652791E+03  0.82714865737E+02 0.  0.
         23    2    1    2    0    0 -0.11393386808E+03 -0.70211717759E+01 -0.13491128342E+03  0.19855228791E+03  0.90508195702E+02 0.  0.
         13    1    3    3    0    0  0.25960860442E+02 -0.37893105944E+02  0.11120368595E+02  0.47260092580E+02  0.00000000000E+00 0. -1.
        -14    1    3    3    0    0  0.28489952226E+02  0.36852668524E+02  0.53764262072E+02  0.71136435329E+02  0.00000000000E+00 0.  1.
        -11    1    4    4    0    0 -0.19387504035E+02  0.35923148196E+02 -0.49020778145E+02  0.63791728138E+02  0.00000000000E+00 0.  1.
         11    1    4    4    0    0 -0.94546364044E+02 -0.42944319972E+02 -0.85890505278E+02  0.13476055977E+03  0.00000000000E+00 0. -1.
          2    1    1    2  501    0  0.59483055411E+02  0.80616091955E+01 -0.42255681489E+03  0.42679911579E+03  0.00000000000E+00 0. -1.
<scales pt_clust_5="13000.00000" pt_clust_6="13000.00000" pt_clust_7="13000.00000" pt_clust_8="13000.00000" pt_clust_9="60.02686"></scales>
<clustering>
<clus scale="   60.027">  2  9  1 -1</clus>
<clus scale="   82.715">  5  6 -1 -1</clus>
<clus scale="   90.508">  7  8 -1 -1</clus>
<clus scale="  103.779">  1  5  2 -1</clus>
<clus scale="   60.027">  2  5  1 -1</clus>
</clustering>
</event>
<event>
 9    1  0.4731329E-005  0.2179975E+03  0.7546771E-02  0.1136628E+00
         -4   -1    0    0    0  501 -0.00000000000E+00  0.00000000000E+00  0.11712786017E+04  0.11712786017E+04  0.00000000000E+00 0.  1.
         21   -1    0    0  501  502  0.00000000000E+00 -0.00000000000E+00 -0.18876738516E+03  0.18876738516E+03  0.00000000000E+00 0.  1.
         23    2    1    2    0    0  0.11129170056E+03  0.14880079070E+03  0.16342697403E+03  0.26729336011E+03  0.10104378552E+03 0.  0.
        -24    2    1    2    0    0 -0.13998613741E+03  0.14157694255E+03 -0.92269696241E+01  0.21454874221E+03  0.79409549091E+02 0.  0.
         13    1    4    4    0    0  0.60568251737E+01  0.27064363612E+02 -0.83444463974E+01  0.28961952534E+02  0.00000000000E+00 0. -1.
        -14    1    4    4    0    0 -0.14604296258E+03  0.11451257893E+03 -0.88252322668E+00  0.18558678967E+03  0.00000000000E+00 0.  1.
        -13    1    3    3    0    0  0.11896672812E+03  0.88094494050E+02  0.97018013015E+02  0.17699213861E+03  0.00000000000E+00 0.  1.
         13    1    3    3    0    0 -0.76750275593E+01  0.60706296654E+02  0.66408961013E+02  0.90301221500E+02  0.00000000000E+00 0. -1.
         -3    1    1    2    0  502  0.28694436850E+02 -0.29037773325E+03  0.82831121214E+03  0.87820388455E+03  0.00000000000E+00 0.  1.
<scales pt_clust_5="13000.00000" pt_clust_6="13000.00000" pt_clust_7="13000.00000" pt_clust_8="13000.00000" pt_clust_9="203.01988"></scales>
<clustering>
<clus scale="   79.410">  5  6 -1 -1</clus>
<clus scale="  101.044">  7  8 -1 -1</clus>
<clus scale="  211.512">  1  7  2 -1</clus>
<clus scale="  203.020">  2  9  1 -1</clus>
<clus scale="  203.020">  2  5  1 -1</clus>
</clustering>
</event>
<event>
 9    1  0.4731329E-005  0.1021426E+03  0.7546771E-02  0.1282512E+00
          1   -1    0    0  502    0 -0.00000000000E+00  0.00000000000E+00  0.14346086661E+03  0.14346086661E+03  0.00000000000E+00 0. -1.
         21   -1    0    0  501  502  0.00000000000E+00 -0.00000000000E+00 -0.14911188265E+03  0.14911188265E+03  0.00000000000E+00 0. -1.
        -24    2    1    2    0    0  0.52205048712E+02  0.31889111654E+02  0.62014537160E+02  0.11610772439E+03  0.76765345639E+02 0.  0.
         23    2    1    2    0    0 -0.28676387757E+02  0.14342201383E+02 -0.67598250888E+01  0.96462275495E+02  0.90726189180E+02 0.  0.
         11    1    3    3    0    0  0.19221371239E+02 -0.21296268863E+02  0.41101611764E+02  0.50123194924E+02  0.00000000000E+00 0. -1.
        -12    1    3    3    0    0  0.32983677473E+02  0.53185380517E+02  0.20912925396E+02  0.65984529467E+02  0.00000000000E+00 0.  1.
        -11    1    4    4    0    0 -0.21508759854E+02  0.45629361504E+02 -0.28267584722E+02  0.57824923067E+02  0.00000000000E+00 0. -1.
         11    1    4    4    0    0 -0.71676279032E+01 -0.31287160121E+02  0.21507759633E+02  0.38637352428E+02  0.00000000000E+00 0.  1.
          2    1    1    2  501    0 -0.23528660954E+02 -0.46231313037E+02 -0.60905728113E+02  0.80002749381E+02  0.00000000000E+00 0. -1.
<scales pt_clust_5="13000.00000" pt_clust_6="13000.00000" pt_clust_7="13000.00000" pt_clust_8="13000.00000" pt_clust_9="51.87420"></scales>
<clustering>
<clus scale="   51.874">  2  9  1 -1</clus>
<clus scale="   76.765">  5  6 -1 -1</clus>
<clus scale="   89.971">  1  5  2 -1</clus>
<clus scale="   90.726">  7  8 -1 -1</clus>
<clus scale="   51.874">  2  5  1 -1</clus>
</clustering>
</event>
<event>
 9    1  0.4731329E-005  0.1008408E+03  0.7546771E-02  0.1284606E+00
         21   -1    0    0  501  502  0.00000000000E+00  0.00000000000E+00  0.77972608216E+02  0.77972608216E+02  0.00000000000E+00 0. -1.
          1   -1    0    0  502    0 -0.00000000000E+00 -0.00000000000E+00 -0.27506744696E+03  0.27506744696E+03  0.00000000000E+00 0. -1.
         23    2    1    2    0    0  0.56344397020E+02  0.26933966674E+02 -0.59492029005E+02  0.12572477893E+03  0.91472886073E+02 0.  0.
        -24    2    1    2    0    0 -0.24104819079E+02  0.14948044428E+02 -0.46792246862E+01  0.84269225254E+02  0.79214397973E+02 0.  0.
         13    1    4    4    0    0 -0.31387664233E+02 -0.25941131239E+02  0.65541206821E+01  0.41244202670E+02  0.00000000000E+00 0. -1.
        -14    1    4    4    0    0  0.72828451548E+01  0.40889175666E+02 -0.11233345368E+02  0.43025022584E+02  0.00000000000E+00 0.  1.
        -11    1    3    3    0    0  0.80276732180E+02  0.18615153267E+02 -0.57140062758E+02  0.10027893315E+03  0.00000000000E+00 0. -1.
         11    1    3    3    0    0 -0.23932335160E+02  0.83188134073E+01 -0.23519662465E+01  0.25445845789E+02  0.00000000000E+00 0.  1.
          2    1    1    2  501    0 -0.32239577942E+02 -0.41882011102E+02 -0.13292358506E+03  0.14304605099E+03  0.00000000000E+00 0. -1.
<scales pt_clust_5="13000.00000" pt_clust_6="13000.00000" pt_clust_7="13000.00000" pt_clust_8="13000.00000" pt_clust_9="52.85353"></scales>
<clustering>
<clus scale="   52.854">  1  9  2 -1</clus>
<clus scale="   79.214">  5  6 -1 -1</clus>
<clus scale="   89.869">  1  5  2 -1</clus>
<clus scale="   91.473">  7  8 -1 -1</clus>
<clus scale="   52.854">  1  5  2 -1</clus>
</clustering>
</event>
<event>
 9    1  0.4731329E-005  0.8618177E+02  0.7546771E-02  0.1314785E+00
         21   -1    0    0  501  502  0.00000000000E+00  0.00000000000E+00  0.14747713288E+03  0.14747713288E+03  0.00000000000E+00 0.  1.
          1   -1    0    0  502    0 -0.00000000000E+00 -0.00000000000E+00 -0.12057273690E+03  0.12057273690E+03  0.00000000000E+00 0. -1.
        -24    2    1    2    0    0 -0.13877997034E+02 -0.56846040953E+02 -0.19006386409E+02  0.10174773770E+03  0.81038806935E+02 0.  0.
         23    2    1    2    0    0  0.25232434136E+02 -0.13337028224E+02  0.10539896253E+01  0.82238356892E+02  0.77119935140E+02 0.  0.
         11    1    3    3    0    0  0.80539928562E+01 -0.41309404642E+02 -0.46897700678E+02  0.63013713124E+02  0.00000000000E+00 0. -1.
        -12    1    3    3    0    0 -0.21931989891E+02 -0.15536636312E+02  0.27891314268E+02  0.38734024579E+02  0.00000000000E+00 0.  1.
        -11    1    4    4    0    0 -0.16766567795E+02 -0.31213135932E+02 -0.63525815862E+01  0.35996290686E+02  0.00000000000E+00 0. -1.
         11    1    4    4    0    0  0.41999001931E+02  0.17876107708E+02  0.74065712115E+01  0.46242066207E+02  0.00000000000E+00 0.  1.
          2    1    1    2  501    0 -0.11354437101E+02  0.70183069177E+02  0.44856792767E+02  0.84063775185E+02  0.00000000000E+00 0. -1.
<scales pt_clust_5="13000.00000" pt_clust_6="13000.00000" pt_clust_7="13000.00000" pt_clust_8="13000.00000" pt_clust_9="71.09561"></scales>
<clustering>
<clus scale="   71.096">  1  9  2 -1</clus>
<clus scale="   77.120">  7  8 -1 -1</clus>
<clus scale="   81.039">  5  6 -1 -1</clus>
<clus scale="   82.508">  1  7  2 -1</clus>
<clus scale="   71.096">  1  5  2 -1</clus>
</clustering>
</event>
<event>
 9    1  0.4731329E-005  0.1561850E+03  0.7546771E-02  0.1196314E+00
         21   -1    0    0  501  502  0.00000000000E+00  0.00000000000E+00  0.48454745255E+02  0.48454745255E+02  0.00000000000E+00 0. -1.
          1   -1    0    0  502    0 -0.00000000000E+00 -0.00000000000E+00 -0.68703009980E+03  0.68703009980E+03  0.00000000000E+00 0. -1.
        -24    2    1    2    0    0  0.50446062379E+02 -0.89424957947E+02 -0.22569459350E+03  0.26081560167E+03  0.80901793726E+02 0.  0.
         23    2    1    2    0    0 -0.10502645206E+03  0.10375267422E+03 -0.31812994607E+03  0.36438769764E+03  0.98876481376E+02 0.  0.
         11    1    3    3    0    0  0.35557265460E+02 -0.10321123640E+03 -0.20207972462E+03  0.22968041612E+03  0.00000000000E+00 0. -1.
        -12    1    3    3    0    0  0.14888796919E+02  0.13786278453E+02 -0.23614868878E+02  0.31135185553E+02  0.00000000000E+00 0.  1.
        -13    1    4    4    0    0  0.83634897137E+01  0.25954712843E+02 -0.14085438175E+02  0.30691931310E+02  0.00000000000E+00 0.  1.
         13    1    4    4    0    0 -0.11338994177E+03  0.77797961381E+02 -0.30404450789E+03  0.33369576633E+03  0.00000000000E+00 0. -1.
          2    1    1    2  501    0  0.54580389679E+02 -0.14327716277E+02 -0.94750814978E+02  0.11028154574E+03  0.00000000000E+00 0. -1.
<scales pt_clust_5="13000.00000" pt_clust_6="13000.00000" pt_clust_7="13000.00000" pt_clust_8="13000.00000" pt_clust_9="56.42962"></scales>
<clustering>
<clus scale="   56.430">  1  9  2 -1</clus>
<clus scale="   80.902">  5  6 -1 -1</clus>
<clus scale="   98.876">  7  8 -1 -1</clus>
<clus scale="  145.473">  2  5  1 -1</clus>
<clus scale="   56.430">  1  5  2 -1</clus>
</clustering>
</event>
<event>
 9    1  0.4731329E-005  0.2453910E+03  0.7546771E-02  0.1116831E+00
          1   -1    0    0  502    0 -0.00000000000E+00  0.00000000000E+00  0.12004031022E+04  0.12004031022E+04  0.00000000000E+00 0. -1.
         21   -1    0    0  501  502  0.00000000000E+00 -0.00000000000E+00 -0.16139313076E+03  0.16139313076E+03  0.00000000000E+00 0. -1.
        -24    2    1    2    0    0  0.50765481155E+02  0.23075612859E+03  0.10670701507E+04  0.10959157074E+04  0.81037067115E+02 0.  0.
         23    2    1    2    0    0 -0.36663580705E+02 -0.15655662347E+03 -0.40917341313E+02  0.18926631815E+03  0.91067644449E+02 0.  0.
         11    1    3    3    0    0  0.53484378969E+02  0.96149501183E+02  0.59195909078E+03  0.60209706072E+03  0.00000000000E+00 0. -1.
        -12    1    3    3    0    0 -0.27188978139E+01  0.13460662741E+03  0.47511105991E+03  0.49381864667E+03  0.00000000000E+00 0.  1.
        -11    1    4    4    0    0 -0.36289619488E+02 -0.31657986333E+02 -0.42688927186E+02  0.64354557612E+02  0.00000000000E+00 0.  1.
         11    1    4    4    0    0 -0.37396121759E+00 -0.12489863713E+03  0.17715858725E+01  0.12491176054E+03  0.00000000000E+00 0. -1.
          2    1    1    2  501    0 -0.14101900449E+02 -0.74199505124E+02  0.12857162013E+02  0.76614207377E+02  0.00000000000E+00 0. -1.
<scales pt_clust_5="13000.00000" pt_clust_6="13000.00000" pt_clust_7="13000.00000" pt_clust_8="13000.00000" pt_clust_9="75.52768"></scales>
<clustering>
<clus scale="   75.528">  2  9  1 -1</clus>
<clus scale="   81.037">  5  6 -1 -1</clus>
<clus scale="   91.068">  7  8 -1 -1</clus>
<clus scale="  241.848">  1  5  2 -1</clus>
<clus scale="   75.528">  2  5  1 -1</clus>
</clustering>
</event>
<event>
 9    1  0.4731329E-005  0.1139864E+03  0.7546771E-02  0.1256047E+00
         21   -1    0    0  501  502  0.00000000000E+00  0.00000000000E+00  0.64845331691E+02  0.64845331691E+02  0.00000000000E+00 0.  1.
          3   -1    0    0  502    0 -0.00000000000E+00 -0.00000000000E+00 -0.58459317648E+03  0.58459317648E+03  0.00000000000E+00 0. -1.
         23    2    1    2    0    0  0.30880252409E+02  0.46026418434E+02 -0.30456329751E+03  0.32277822835E+03  0.91405477540E+02 0.  0.
        -24    2    1    2    0    0 -0.10771644802E+03 -0.76764647588E+02 -0.10387555873E+03  0.18795797047E+03  0.83919143645E+02 0.  0.
         13    1    4    4    0    0  0.47453292773E+01 -0.33583909638E+02 -0.36919887426E+02  0.50134571147E+02  0.00000000000E+00 0. -1.
        -14    1    4    4    0    0 -0.11246177729E+03 -0.43180737951E+02 -0.66955671302E+02  0.13782339932E+03  0.00000000000E+00 0.  1.
        -11    1    3    3    0    0 -0.41845899517E+01 -0.24628163066E+02 -0.11068124879E+03  0.11346539580E+03  0.00000000000E+00 0.  1.
         11    1    3    3    0    0  0.35064842360E+02  0.70654581500E+02 -0.19388204872E+03  0.20931283255E+03  0.00000000000E+00 0. -1.
          4    1    1    2  501    0  0.76836195607E+02  0.30738229154E+02 -0.11130898855E+03  0.13870230935E+03  0.00000000000E+00 0. -1.
<scales pt_clust_5="13000.00000" pt_clust_6="13000.00000" pt_clust_7="13000.00000" pt_clust_8="13000.00000" pt_clust_9="82.75655"></scales>
<clustering>
<clus scale="   82.757">  1  9  2 -1</clus>
<clus scale="   83.919">  5  6 -1 -1</clus>
<clus scale="   91.405">  7  8 -1 -1</clus>
<clus scale="  108.076">  1  5  2 -1</clus>
<clus scale="   82.757">  1  5  2 -1</clus>
</clustering>
</event>
<event>
 9    1  0.4731329E-005  0.1389110E+03  0.7546771E-02  0.1218463E+00
         21   -1    0    0  501  502  0.00000000000E+00  0.00000000000E+00  0.12155092179E+03  0.12155092179E+03  0.00000000000E+00 0. -1.
         -2   -1    0    0    0  501 -0.00000000000E+00 -0.00000000000E+00 -0.22222263928E+03  0.22222263928E+03  0.00000000000E+00 0.  1.
         23    2    1    2    0    0  0.11352963410E+03 -0.14904484328E+02 -0.66974336539E+02  0.16334976942E+03  0.95322945513E+02 0.  0.
        -24    2    1    2    0    0 -0.85427246186E+02 -0.27381215372E+02 -0.70678833191E+00  0.11987460663E+03  0.79510228390E+02 0.  0.
         11    1    4    4    0    0 -0.81938398682E+02 -0.41513437380E+02  0.20536691517E+02  0.94122379699E+02  0.00000000000E+00 0. -1.
        -12    1    4    4    0    0 -0.34888475036E+01  0.14132222007E+02 -0.21243479849E+02  0.25752226930E+02  0.00000000000E+00 0.  1.
        -11    1    3    3    0    0  0.46851592176E+02 -0.41253934348E+02 -0.67108200177E+02  0.91654074212E+02  0.00000000000E+00 0.  1.
         11    1    3    3    0    0  0.66678041926E+02  0.26349450020E+02  0.13386363815E+00  0.71695695205E+02  0.00000000000E+00 0. -1.
         -1    1    1    2    0  502 -0.28102387916E+02  0.42285699700E+02 -0.32990592617E+02  0.60549185023E+02  0.00000000000E+00 0.  1.
<scales pt_clust_5="13000.00000" pt_clust_6="13000.00000" pt_clust_7="13000.00000" pt_clust_8="13000.00000" pt_clust_9="50.77231"></scales>
<clustering>
<clus scale="   50.772">  1  9  2 -1</clus>
<clus scale="   79.510">  5  6 -1 -1</clus>
<clus scale="   95.323">  7  8 -1 -1</clus>
<clus scale="  128.576">  1  5  2 -1</clus>
<clus scale="   50.772">  1  5  2 -1</clus>
</clustering>
</event>
<event>
 9    1  0.4731329E-005  0.1243158E+03  0.7546771E-02  0.1237827E+00
         21   -1    0    0  501  502  0.00000000000E+00  0.00000000000E+00  0.65681070097E+02  0.65681070097E+02  0.00000000000E+00 0. -1.
          1   -1    0    0  502    0 -0.00000000000E+00 -0.00000000000E+00 -0.39069503595E+03  0.39069503595E+03  0.00000000000E+00 0. -1.
        -24    2    1    2    0    0 -0.48009269032E+02 -0.73723190831E+02 -0.17653981663E+03  0.21226834942E+03  0.78431795395E+02 0.  0.
         23    2    1    2    0    0  0.76297378196E+02  0.60532983805E+02 -0.16443363904E+03  0.20905202961E+03  0.84727784036E+02 0.  0.
         13    1    3    3    0    0 -0.29018848385E+02 -0.36863730026E+02 -0.21187037518E+02  0.51477361158E+02  0.00000000000E+00 0. -1.
        -14    1    3    3    0    0 -0.18990420647E+02 -0.36859460805E+02 -0.15535277912E+03  0.16079098826E+03  0.00000000000E+00 0.  1.
        -13    1    4    4    0    0 -0.11606914898E+02  0.33425304084E+02 -0.31369166569E+02  0.47286319774E+02  0.00000000000E+00 0.  1.
         13    1    4    4    0    0  0.87904293094E+02  0.27107679721E+02 -0.13306447247E+03  0.16176570983E+03  0.00000000000E+00 0. -1.
          2    1    1    2  501    0 -0.28288109164E+02  0.13190207025E+02  0.15959489821E+02  0.35055727018E+02  0.00000000000E+00 0. -1.
<scales pt_clust_5="13000.00000" pt_clust_6="13000.00000" pt_clust_7="13000.00000" pt_clust_8="13000.00000" pt_clust_9="31.21216"></scales>
<clustering>
<clus scale="   31.212">  1  9  2 -1</clus>
<clus scale="   78.432">  5  6 -1 -1</clus>
<clus scale="   84.728">  7  8 -1 -1</clus>
<clus scale="  120.113">  2  5  1 -1</clus>
<clus scale="   31.212">  1  5  2 -1</clus>
</clustering>
</event>
<event>
 9    1  0.4731329E-005  0.1198147E+03  0.7546771E-02  0.1255993E+00
         21   -1    0    0  501  502  0.00000000000E+00  0.00000000000E+00  0.16860282157E+02  0.16860282157E+02  0.00000000000E+00 0. -1.
          1   -1    0    0  502    0 -0.00000000000E+00 -0.00000000000E+00 -0.13851837385E+04  0.13851837385E+04  0.00000000000E+00 0. -1.
        -24    2    1    2    0    0 -0.45724108360E+02 -0.61537156353E+01 -0.33374566771E+03  0.34650342894E+03  0.80931410761E+02 0.  0.
         23    2    1    2    0    0 -0.56280100182E+02 -0.73381171386E+01 -0.50465182482E+03  0.51571801417E+03  0.89834894139E+02 0.  0.
         13    1    3    3    0    0 -0.27020210456E+02 -0.19501167464E+02 -0.40892577168E+02  0.52750262303E+02  0.00000000000E+00 0. -1.
        -14    1    3    3    0    0 -0.18703897904E+02  0.13347451829E+02 -0.29285309055E+03  0.29375316664E+03  0.00000000000E+00 0.  1.
        -11    1    4    4    0    0  0.18241894085E+02  0.18183208490E+02 -0.88281376294E+02  0.91961933272E+02  0.00000000000E+00 0.  1.
         11    1    4    4    0    0 -0.74521994267E+02 -0.25521325629E+02 -0.41637044853E+03  0.42375608090E+03  0.00000000000E+00 0. -1.
          2    1    1    2  501    0  0.10200420854E+03  0.13491832774E+02 -0.52992596386E+03  0.53982257759E+03  0.00000000000E+00 0. -1.
<scales pt_clust_5="13000.00000" pt_clust_6="13000.00000" pt_clust_7="13000.00000" pt_clust_8="13000.00000" pt_clust_9="79.27957"></scales>
<clustering>
<clus scale="   80.931">  5  6 -1 -1</clus>
<clus scale="   89.835">  7  8 -1 -1</clus>
<clus scale="   93.158">  2  5  1 -1</clus>
<clus scale="   79.280">  1  9  2 -1</clus>
<clus scale="   79.280">  1  5  2 -1</clus>
</clustering>
</event>
<event>
 9    1  0.4731329E-005  0.9095850E+02  0.7546771E-02  0.1306037E+00
         21   -1    0    0  501  502  0.00000000000E+00  0.00000000000E+00  0.23914708154E+03  0.23914708154E+03  0.00000000000E+00 0. -1.
          1   -1    0    0  502    0 -0.00000000000E+00 -0.00000000000E+00 -0.22548286635E+03  0.22548286635E+03  0.00000000000E+00 0. -1.
         23    2    1    2    0    0  0.25643720058E+00 -0.16190790923E+02 -0.11087932590E+03  0.14408778402E+03  0.90580666385E+02 0.  0.
        -24    2    1    2    0    0 -0.16226503465E+02 -0.12272959805E+02 -0.78313053979E+02  0.11507677437E+03  0.81827896333E+02 0.  0.
         13    1    4    4    0    0  0.22034329384E+02 -0.23241474962E+02 -0.66088876084E+02  0.73439889515E+02  0.00000000000E+00 0. -1.
        -14    1    4    4    0    0 -0.38260832849E+02  0.10968515158E+02 -0.12224177895E+02  0.41636884853E+02  0.00000000000E+00 0.  1.
        -13    1    3    3    0    0 -0.42523557175E+02  0.22184108755E+01 -0.35296713038E+02  0.55308518448E+02  0.00000000000E+00 0.  1.
         13    1    3    3    0    0  0.42779994376E+02 -0.18409201799E+02 -0.75582612859E+02  0.88779265576E+02  0.00000000000E+00 0. -1.
          2    1    1    2  501    0  0.15970066264E+02  0.28463750728E+02  0.20285659507E+03  0.20546538950E+03  0.00000000000E+00 0. -1.
<scales pt_clust_5="13000.00000" pt_clust_6="13000.00000" pt_clust_7="13000.00000" pt_clust_8="13000.00000" pt_clust_9="32.63783"></scales>
<clustering>
<clus scale="   32.638">  1  9  2 -1</clus>
<clus scale="   81.828">  5  6 -1 -1</clus>
<clus scale="   82.246">  1  5  2 -1</clus>
<clus scale="   90.581">  7  8 -1 -1</clus>
<clus scale="   32.638">  1  5  2 -1</clus>
</clustering>
</event>
<event>
 9    1  0.4731329E-005  0.9062709E+02  0.7546771E-02  0.1308153E+00
          3   -1    0    0  502    0 -0.00000000000E+00  0.00000000000E+00  0.54678744213E+02  0.54678744213E+02  0.00000000000E+00 0. -1.
         21   -1    0    0  501  502  0.00000000000E+00 -0.00000000000E+00 -0.24266266228E+03  0.24266266228E+03  0.00000000000E+00 0. -1.
         23    2    1    2    0    0  0.15709819746E+02  0.42439468811E+02 -0.41937861660E+02  0.94450433930E+02  0.71513588077E+02 0.  0.
        -24    2    1    2    0    0 -0.34344735829E+02 -0.45271857788E+00 -0.12020315391E+03  0.15018420922E+03  0.83226994762E+02 0.  0.
         13    1    4    4    0    0 -0.48786901611E+02  0.19574128863E+02 -0.11273489570E+03  0.12438836360E+03  0.00000000000E+00 0. -1.
        -14    1    4    4    0    0  0.14442165782E+02 -0.20026847441E+02 -0.74682582066E+01  0.25795845626E+02  0.00000000000E+00 0.  1.
        -11    1    3    3    0    0 -0.23315518793E+02 -0.26408439820E+01 -0.40664457325E+01  0.23814353957E+02  0.00000000000E+00 0.  1.
         11    1    3    3    0    0  0.39025338539E+02  0.45080312793E+02 -0.37871415927E+02  0.70636079973E+02  0.00000000000E+00 0. -1.
          4    1    1    2  501    0  0.18634916083E+02 -0.41986750233E+02 -0.25842902504E+02  0.52706763346E+02  0.00000000000E+00 0. -1.
<scales pt_clust_5="13000.00000" pt_clust_6="13000.00000" pt_clust_7="13000.00000" pt_clust_8="13000.00000" pt_clust_9="45.93636"></scales>
<clustering>
<clus scale="   45.936">  2  9  1 -1</clus>
<clus scale="   71.514">  7  8 -1 -1</clus>
<clus scale="   80.005">  1  7  2 -1</clus>
<clus scale="   83.227">  5  6 -1 -1</clus>
<clus scale="   45.936">  2  5  1 -1</clus>
</clustering>
</event>
<event>
 9    1  0.4731329E-005  0.1984994E+03  0.7546771E-02  0.1152129E+00
          1   -1    0    0  502    0 -0.00000000000E+00  0.00000000000E+00  0.91966049390E+03  0.91966049390E+03  0.00000000000E+00 0. -1.
         21   -1    0    0  501  502  0.00000000000E+00 -0.00000000000E+00 -0.61770866625E+02  0.61770866625E+02  0.00000000000E+00 0. -1.
        -24    2    1    2    0    0 -0.12931186649E+03  0.95164402651E+02  0.56575832224E+03  0.59688566866E+03  0.10204018776E+03 0.  0.
         23    2    1    2    0    0  0.15278328322E+03 -0.11903645684E+03  0.26884705786E+03  0.34376654841E+03  0.91565766508E+02 0.  0.
         13    1    3    3    0    0 -0.10248543500E+03  0.13396211101E+02  0.33611218583E+03  0.35164488383E+03  0.00000000000E+00 0. -1.
        -14    1    3    3    0    0 -0.26826431490E+02  0.81768191550E+02  0.22964613641E+03  0.24524078483E+03  0.00000000000E+00 0.  1.
        -11    1    4    4    0    0  0.52271168842E+02 -0.94059762879E+02  0.16585492160E+03  0.19770525816E+03  0.00000000000E+00 0. -1.
         11    1    4    4    0    0  0.10051211438E+03 -0.24976693960E+02  0.10299213626E+03  0.14606129025E+03  0.00000000000E+00 0.  1.
          2    1    1    2  501    0 -0.23471416734E+02  0.23872054188E+02  0.23284247170E+02  0.40779143455E+02  0.00000000000E+00 0. -1.
<scales pt_clust_5="13000.00000" pt_clust_6="13000.00000" pt_clust_7="13000.00000" pt_clust_8="13000.00000" pt_clust_9="33.47809"></scales>
<clustering>
<clus scale="   33.478">  2  9  1 -1</clus>
<clus scale="   91.566">  7  8 -1 -1</clus>
<clus scale="  102.040">  5  6 -1 -1</clus>
<clus scale="  193.324">  2  7  1 -1</clus>
<clus scale="   33.478">  2  5  1 -1</clus>
</clustering>
</event>
<event>
 9    1  0.4731329E-005  0.1048540E+03  0.7546771E-02  0.1276319E+00
          1   -1    0    0  502    0 -0.00000000000E+00  0.00000000000E+00  0.31435343770E+03  0.31435343770E+03  0.00000000000E+00 0. -1.
         21   -1    0    0  501  502  0.00000000000E+00 -0.00000000000E+00 -0.23902377782E+03  0.23902377782E+03  0.00000000000E+00 0.  1.
         23    2    1    2    0    0 -0.38392344512E+02  0.36290327668E+02  0.28045110179E+03  0.30002967204E+03  0.92596023704E+02 0.  0.
        -24    2    1    2    0    0  0.93423806865E+00 -0.26126381624E+02 -0.59827173996E+02  0.10295858170E+03  0.79609786963E+02 0.  0.
         11    1    4    4    0    0 -0.29733918477E+02  0.26830085849E+01 -0.52288298323E+02  0.60211050353E+02  0.00000000000E+00 0. -1.
        -12    1    4    4    0    0  0.30668156545E+02 -0.28809390209E+02 -0.75388756734E+01  0.42747531350E+02  0.00000000000E+00 0.  1.
        -11    1    3    3    0    0 -0.15629944428E+02 -0.20906885362E+02  0.21369825435E+02  0.33735181302E+02  0.00000000000E+00 0.  1.
         11    1    3    3    0    0 -0.22762400084E+02  0.57197213030E+02  0.25908127636E+03  0.26629449074E+03  0.00000000000E+00 0. -1.
          2    1    1    2  501    0  0.37458106444E+02 -0.10163946044E+02 -0.14529426792E+03  0.15038896179E+03  0.00000000000E+00 0. -1.
<scales pt_clust_5="13000.00000" pt_clust_6="13000.00000" pt_clust_7="13000.00000" pt_clust_8="13000.00000" pt_clust_9="38.81257"></scales>
<clustering>
<clus scale="   38.813">  2  9  1 -1</clus>
<clus scale="   79.610">  5  6 -1 -1</clus>
<clus scale="   92.596">  7  8 -1 -1</clus>
<clus scale="   93.584">  2  5  1 -1</clus>
<clus scale="   38.813">  2  5  1 -1</clus>
</clustering>
</event>
<event>
 9    1  0.4731329E-005  0.1402752E+03  0.7546771E-02  0.1214685E+00
         21   -1    0    0  501  502  0.00000000000E+00  0.00000000000E+00  0.45169191469E+02  0.45169191469E+02  0.00000000000E+00 0.  1.
          1   -1    0    0  502    0 -0.00000000000E+00 -0.00000000000E+00 -0.75851087139E+03  0.75851087139E+03  0.00000000000E+00 0. -1.
        -24    2    1    2    0    0  0.10244306829E+03 -0.43633888471E+02 -0.52562875417E+03  0.54337638918E+03  0.81079064136E+02 0.  0.
         23    2    1    2    0    0 -0.81811054767E+02  0.62239782588E+02 -0.18849704809E+03  0.23251025493E+03  0.89235880064E+02 0.  0.
         11    1    3    3    0    0  0.84997895808E+02  0.58876135953E+01 -0.31931895861E+03  0.33049039867E+03  0.00000000000E+00 0. -1.
        -12    1    3    3    0    0  0.17445172478E+02 -0.49521502066E+02 -0.20630979556E+03  0.21288599051E+03  0.00000000000E+00 0.  1.
        -13    1    4    4    0    0 -0.12951575633E+02  0.65893446501E+02 -0.91337188355E+02  0.11336741851E+03  0.00000000000E+00 0.  1.
         13    1    4    4    0    0 -0.68859479134E+02 -0.36536639137E+01 -0.97159859737E+02  0.11914283642E+03  0.00000000000E+00 0. -1.
          2    1    1    2  501    0 -0.20632013519E+02 -0.18605894117E+02  0.78412234443E+00  0.27793418746E+02  0.00000000000E+00 0. -1.
<scales pt_clust_5="13000.00000" pt_clust_6="13000.00000" pt_clust_7="13000.00000" pt_clust_8="13000.00000" pt_clust_9="27.78236"></scales>
<clustering>
<clus scale="   27.782">  1  9  2 -1</clus>
<clus scale="   81.079">  5  6 -1 -1</clus>
<clus scale="   89.236">  7  8 -1 -1</clus>
<clus scale="  135.233">  2  5  1 -1</clus>
<clus scale="   27.782">  1  5  2 -1</clus>
</clustering>
</event>
<event>
 9    1  0.4731329E-005  0.1309838E+03  0.7546771E-02  0.1228598E+00
         21   -1    0    0  501  502  0.00000000000E+00  0.00000000000E+00  0.53253452885E+03  0.53253452885E+03  0.00000000000E+00 0.  1.
         -2   -1    0    0    0  501 -0.00000000000E+00 -0.00000000000E+00 -0.64695211934E+02  0.64695211934E+02  0.00000000000E+00 0.  1.
        -24    2    1    2    0    0 -0.62909330281E+02  0.81322245793E+02  0.44421238118E+02  0.13801327239E+03  0.80644438502E+02 0.  0.
         23    2    1    2    0    0  0.73789212620E+02 -0.28592591075E+02  0.24795025808E+03  0.27567425409E+03  0.90854717668E+02 0.  0.
         13    1    3    3    0    0 -0.38228927840E+02  0.67052708103E+02  0.66558194815E+02  0.10191913405E+03  0.00000000000E+00 0. -1.
        -14    1    3    3    0    0 -0.24680402441E+02  0.14269537689E+02 -0.22136956698E+02  0.36094138338E+02  0.00000000000E+00 0.  1.
        -11    1    4    4    0    0  0.94760794299E+02 -0.24444373586E+02  0.18658630837E+03  0.21069310859E+03  0.00000000000E+00 0. -1.
         11    1    4    4    0    0 -0.20971581679E+02 -0.41482174893E+01  0.61363949713E+02  0.64981145503E+02  0.00000000000E+00 0.  1.
         -1    1    1    2    0  502 -0.10879882338E+02 -0.52729654718E+02  0.17546782071E+03  0.18354221430E+03  0.00000000000E+00 0.  1.
<scales pt_clust_5="13000.00000" pt_clust_6="13000.00000" pt_clust_7="13000.00000" pt_clust_8="13000.00000" pt_clust_9="53.84040"></scales>
<clustering>
<clus scale="   53.840">  1  9  2 -1</clus>
<clus scale="   80.644">  5  6 -1 -1</clus>
<clus scale="   90.855">  7  8 -1 -1</clus>
<clus scale="  124.120">  2  5  1 -1</clus>
<clus scale="   53.840">  1  5  2 -1</clus>
</clustering>
</event>
<event>
 9    1  0.4731329E-005  0.9440374E+02  0.7546771E-02  0.1298884E+00
         21   -1    0    0  501  502  0.00000000000E+00  0.00000000000E+00  0.91962135111E+02  0.91962135111E+02  0.00000000000E+00 0.  1.
         -4   -1    0    0    0  501 -0.00000000000E+00 -0.00000000000E+00 -0.15831415085E+03  0.15831415085E+03  0.00000000000E+00 0.  1.
        -24    2    1    2    0    0 -0.13947970465E+02  0.24305773694E+02 -0.91326504543E+02  0.12460770617E+03  0.80007708941E+02 0.  0.
         23    2    1    2    0    0  0.27198083274E+02  0.56770929460E+00  0.18091288739E+02  0.96657649283E+02  0.90968942003E+02 0.  0.
         11    1    3    3    0    0 -0.37778531874E+02 -0.13447854412E+02 -0.41638778171E+02  0.57808737284E+02  0.00000000000E+00 0. -1.
        -12    1    3    3    0    0  0.23830561409E+02  0.37753628106E+02 -0.49687726372E+02  0.66798968886E+02  0.00000000000E+00 0.  1.
        -11    1    4    4    0    0  0.24335994790E+02  0.43332567297E+02 -0.10672740272E+01  0.49710070456E+02  0.00000000000E+00 0.  1.
         11    1    4    4    0    0  0.28620884841E+01 -0.42764858002E+02  0.19158562767E+02  0.46947578827E+02  0.00000000000E+00 0. -1.
         -3    1    1    2    0  502 -0.13250112809E+02 -0.24873482989E+02  0.68832000687E+01  0.29010930503E+02  0.00000000000E+00 0.  1.
<scales pt_clust_5="13000.00000" pt_clust_6="13000.00000" pt_clust_7="13000.00000" pt_clust_8="13000.00000" pt_clust_9="28.18254"></scales>
<clustering>
<clus scale="   28.183">  1  9  2 -1</clus>
<clus scale="   80.008">  5  6 -1 -1</clus>
<clus scale="   83.893">  2  5  1 -1</clus>
<clus scale="   90.969">  7  8 -1 -1</clus>
<clus scale="   28.183">  1  5  2 -1</clus>
</clustering>
</event>
<event>
 9    1  0.4731329E-005  0.1701498E+03  0.7546771E-02  0.1179352E+00
         21   -1    0    0  501  502  0.00000000000E+00  0.00000000000E+00  0.19674165467E+03  0.19674165467E+03  0.00000000000E+00 0.  1.
          1   -1    0    0  502    0 -0.00000000000E+00 -0.00000000000E+00 -0.23894536114E+03  0.23894536114E+03  0.00000000000E+00 0. -1.
        -24    2    1    2    0    0 -0.28010706721E+02 -0.12790094105E+03  0.25846926441E+02  0.15513348296E+03  0.79089085956E+02 0.  0.
         23    2    1    2    0    0  0.17794215721E+01  0.15932843872E+03  0.18719768127E+02  0.18461151689E+03  0.91335999064E+02 0.  0.
         13    1    3    3    0    0 -0.55593044285E+02 -0.77122611845E+02  0.18900011154E+02  0.96931389407E+02  0.00000000000E+00 0. -1.
        -14    1    3    3    0    0  0.27582337564E+02 -0.50778329207E+02  0.69469152864E+01  0.58202093558E+02  0.00000000000E+00 0.  1.
        -11    1    4    4    0    0 -0.28472302092E+02  0.14878866980E+03  0.18144365154E+02  0.15257115793E+03  0.00000000000E+00 0.  1.
         11    1    4    4    0    0  0.30251723664E+02  0.10539768920E+02  0.57540297245E+00  0.32040358957E+02  0.00000000000E+00 0. -1.
          2    1    1    2  501    0  0.26231285149E+02 -0.31427497665E+02 -0.86770401035E+02  0.95942015956E+02  0.00000000000E+00 0. -1.
<scales pt_clust_5="13000.00000" pt_clust_6="13000.00000" pt_clust_7="13000.00000" pt_clust_8="13000.00000" pt_clust_9="40.93617"></scales>
<clustering>
<clus scale="   40.936">  1  9  2 -1</clus>
<clus scale="   79.089">  5  6 -1 -1</clus>
<clus scale="   91.336">  7  8 -1 -1</clus>
<clus scale="  163.902">  2  5  1 -1</clus>
<clus scale="   40.936">  1  5  2 -1</clus>
</clustering>
</event>
<event>
 9    1  0.4731329E-005  0.1166462E+03  0.7546771E-02  0.1256616E+00
          1   -1    0    0  502    0 -0.00000000000E+00  0.00000000000E+00  0.49351829318E+03  0.49351829318E+03  0.00000000000E+00 0. -1.
         21   -1    0    0  501  502  0.00000000000E+00 -0.00000000000E+00 -0.11690552060E+03  0.11690552060E+03  0.00000000000E+00 0. -1.
         23    2    1    2    0    0  0.91919297391E+01 -0.73748082952E+02  0.42458898562E+03  0.44038241667E+03  0.90208618701E+02 0.  0.
        -24    2    1    2    0    0  0.25506169675E+02  0.74317620252E+02  0.87248418152E+01  0.10356364069E+03  0.66900160213E+02 0.  0.
         13    1    4    4    0    0  0.31039452564E+02  0.18324912660E+02  0.26296863547E+02  0.44618102514E+02  0.00000000000E+00 0. -1.
        -14    1    4    4    0    0 -0.55332828892E+01  0.55992707592E+02 -0.17572021732E+02  0.58945538175E+02  0.00000000000E+00 0.  1.
        -11    1    3    3    0    0 -0.10143122669E+02 -0.82447794626E+02  0.39694523777E+03  0.40554413270E+03  0.00000000000E+00 0. -1.
         11    1    3    3    0    0  0.19335052408E+02  0.86997116739E+01  0.27643747853E+02  0.34838283973E+02  0.00000000000E+00 0.  1.
          2    1    1    2  501    0 -0.34698099414E+02 -0.56953729982E+00 -0.56701054860E+02  0.66477756415E+02  0.00000000000E+00 0. -1.
<scales pt_clust_5="13000.00000" pt_clust_6="13000.00000" pt_clust_7="13000.00000" pt_clust_8="13000.00000" pt_clust_9="34.70277"></scales>
<clustering>
<clus scale="   34.703">  2  9  1 -1</clus>
<clus scale="   66.900">  5  6 -1 -1</clus>
<clus scale="   90.209">  7  8 -1 -1</clus>
<clus scale="   99.721">  2  5  1 -1</clus>
<clus scale="   34.703">  2  5  1 -1</clus>
</clustering>
</event>
<event>
 9    1  0.4731329E-005  0.9746603E+02  0.7546771E-02  0.1289513E+00
         21   -1    0    0  501  502  0.00000000000E+00  0.00000000000E+00  0.61155284416E+02  0.61155284416E+02  0.00000000000E+00 0.  1.
          1   -1    0    0  502    0 -0.00000000000E+00 -0.00000000000E+00 -0.25626161945E+03  0.25626161945E+03  0.00000000000E+00 0. -1.
        -24    2    1    2    0    0  0.33529321287E+02 -0.31328949284E+02 -0.17135690513E+03  0.19532720485E+03  0.81754569114E+02 0.  0.
         23    2    1    2    0    0 -0.12106178811E+02  0.18026682977E+02 -0.29202298184E+02  0.96289794069E+02  0.89148355891E+02 0.  0.
         13    1    3    3    0    0 -0.29177658629E+01 -0.49708623578E+02 -0.11855171382E+03  0.12858448377E+03  0.00000000000E+00 0. -1.
        -14    1    3    3    0    0  0.36447087150E+02  0.18379674294E+02 -0.52805191302E+02  0.66742721081E+02  0.00000000000E+00 0.  1.
        -11    1    4    4    0    0 -0.42632487747E+02  0.69343911124E+01  0.11034594685E+02  0.44580007531E+02  0.00000000000E+00 0.  1.
         11    1    4    4    0    0  0.30526308936E+02  0.11092291864E+02 -0.40236892869E+02  0.51709786538E+02  0.00000000000E+00 0. -1.
          2    1    1    2  501    0 -0.21423142476E+02  0.13302266307E+02  0.54528682817E+01  0.25799904941E+02  0.00000000000E+00 0. -1.
<scales pt_clust_5="13000.00000" pt_clust_6="13000.00000" pt_clust_7="13000.00000" pt_clust_8="13000.00000" pt_clust_9="25.21708"></scales>
<clustering>
<clus scale="   25.217">  1  9  2 -1</clus>
<clus scale="   81.755">  5  6 -1 -1</clus>
<clus scale="   89.148">  7  8 -1 -1</clus>
<clus scale="   90.752">  2  5  1 -1</clus>
<clus scale="   25.217">  1  5  2 -1</clus>
</clustering>
</event>
<event>
 9    1  0.4731329E-005  0.1198182E+03  0.7546771E-02  0.1248868E+00
         -2   -1    0    0    0  501 -0.00000000000E+00  0.00000000000E+00  0.20689706009E+03  0.20689706009E+03  0.00000000000E+00 0.  1.
         21   -1    0    0  501  502  0.00000000000E+00 -0.00000000000E+00 -0.39505553744E+03  0.39505553744E+03  0.00000000000E+00 0.  1.
         23    2    1    2    0    0 -0.39011389357E+01  0.62184659856E+02  0.16892843224E+03  0.20161161684E+03  0.90709856254E+02 0.  0.
        -24    2    1    2    0    0 -0.94855018924E+01 -0.12436925780E+02 -0.13236115840E+03  0.16978577591E+03  0.10518118454E+03 0.  0.
         11    1    4    4    0    0  0.46051948773E+02  0.64444619367E+01 -0.46179731693E+02  0.65535339281E+02  0.00000000000E+00 0. -1.
        -12    1    4    4    0    0 -0.55537450666E+02 -0.18881387717E+02 -0.86181426709E+02  0.10425043663E+03  0.00000000000E+00 0.  1.
        -11    1    3    3    0    0 -0.35218489031E+02  0.21382427124E+02  0.13203183745E+03  0.13831108509E+03  0.00000000000E+00 0.  1.
         11    1    3    3    0    0  0.31317350095E+02  0.40802232731E+02  0.36896594787E+02  0.63300531749E+02  0.00000000000E+00 0. -1.
         -1    1    1    2    0  502  0.13386640828E+02 -0.49747734076E+02 -0.22472575119E+03  0.23055520477E+03  0.00000000000E+00 0.  1.
<scales pt_clust_5="13000.00000" pt_clust_6="13000.00000" pt_clust_7="13000.00000" pt_clust_8="13000.00000" pt_clust_9="51.51737"></scales>
<clustering>
<clus scale="   51.517">  2  9  1 -1</clus>
<clus scale="   90.710">  7  8 -1 -1</clus>
<clus scale="  105.181">  5  6 -1 -1</clus>
<clus scale="  107.339">  1  7  2 -1</clus>
<clus scale="   51.517">  2  5  1 -1</clus>
</clustering>
</event>
<event>
 9    1  0.4731329E-005  0.2464530E+03  0.7546771E-02  0.1115567E+00
         21   -1    0    0  501  502  0.00000000000E+00  0.00000000000E+00  0.19170847820E+03  0.19170847820E+03  0.00000000000E+00 0. -1.
          3   -1    0    0  502    0 -0.00000000000E+00 -0.00000000000E+00 -0.27772035475E+03  0.27772035475E+03  0.00000000000E+00 0. -1.
        -24    2    1    2    0    0  0.10254742063E+03  0.62852085435E+02 -0.92913120381E+02  0.17190362777E+03  0.80322171160E+02 0.  0.
         23    2    1    2    0    0  0.33608072348E+02  0.35157503231E+02 -0.58635238775E+02  0.11741627068E+03  0.89347282180E+02 0.  0.
         11    1    3    3    0    0  0.68144060028E+02 -0.51011793400E+01 -0.47581710301E+02  0.83268566115E+02  0.00000000000E+00 0. -1.
        -12    1    3    3    0    0  0.34403360598E+02  0.67953264775E+02 -0.45331410080E+02  0.88635061651E+02  0.00000000000E+00 0.  1.
        -13    1    4    4    0    0  0.60483275940E+01 -0.27491862938E+02 -0.35201472858E+02  0.45072480361E+02  0.00000000000E+00 0.  1.
         13    1    4    4    0    0  0.27559744754E+02  0.62649366169E+02 -0.23433765917E+02  0.72343790316E+02  0.00000000000E+00 0. -1.
          4    1    1    2  501    0 -0.13615549297E+03 -0.98009588666E+02  0.65536482608E+02  0.18010893451E+03  0.00000000000E+00 0. -1.
<scales pt_clust_5="13000.00000" pt_clust_6="13000.00000" pt_clust_7="13000.00000" pt_clust_8="13000.00000" pt_clust_9="167.76233"></scales>
<clustering>
<clus scale="   80.322">  5  6 -1 -1</clus>
<clus scale="   89.347">  7  8 -1 -1</clus>
<clus scale="   90.830">  5  7 -1 -1</clus>
<clus scale="  167.762">  1  9  2 -1</clus>
<clus scale="  167.762">  1  5  2 -1</clus>
</clustering>
</event>
<event>
 9    1  0.4731329E-005  0.9177598E+02  0.7546771E-02  0.1307001E+00
         21   -1    0    0  501  502  0.00000000000E+00  0.00000000000E+00  0.20637233883E+03  0.20637233883E+03  0.00000000000E+00 0. -1.
          3   -1    0    0  502    0 -0.00000000000E+00 -0.00000000000E+00 -0.88527282184E+02  0.88527282184E+02  0.00000000000E+00 0. -1.
         23    2    1    2    0    0 -0.16834532103E+02  0.92360666622E+01 -0.13643513611E+02  0.94471002323E+02  0.91487258226E+02 0.  0.
        -24    2    1    2    0    0 -0.44030448970E+02 -0.22651419078E+01  0.74314418772E+02  0.11663110494E+03  0.78334988975E+02 0.  0.
         11    1    4    4    0    0 -0.61714650641E+02  0.16025228515E+02  0.46366637138E+02  0.78837624851E+02  0.00000000000E+00 0. -1.
        -12    1    4    4    0    0  0.17684201671E+02 -0.18290370423E+02  0.27947781634E+02  0.37793480088E+02  0.00000000000E+00 0.  1.
        -11    1    3    3    0    0 -0.14413232963E+02  0.38929501037E+02 -0.37779004307E+02  0.56129319449E+02  0.00000000000E+00 0.  1.
         11    1    3    3    0    0 -0.24212991404E+01 -0.29693434374E+02  0.24135490696E+02  0.38341682874E+02  0.00000000000E+00 0. -1.
          4    1    1    2  501    0  0.60864981073E+02 -0.69709247544E+01  0.57174151487E+02  0.83797513753E+02  0.00000000000E+00 0. -1.
<scales pt_clust_5="13000.00000" pt_clust_6="13000.00000" pt_clust_7="13000.00000" pt_clust_8="13000.00000" pt_clust_9="61.26287"></scales>
<clustering>
<clus scale="   61.263">  1  9  2 -1</clus>
<clus scale="   78.335">  5  6 -1 -1</clus>
<clus scale="   78.672">  1  5  2 -1</clus>
<clus scale="   91.487">  7  8 -1 -1</clus>
<clus scale="   61.263">  1  5  2 -1</clus>
</clustering>
</event>
<event>
 9    1  0.4731329E-005  0.2149002E+03  0.7546771E-02  0.1161805E+00
          1   -1    0    0  502    0 -0.00000000000E+00  0.00000000000E+00  0.10294358221E+04  0.10294358221E+04  0.00000000000E+00 0. -1.
         21   -1    0    0  501  502  0.00000000000E+00 -0.00000000000E+00 -0.22283810004E+03  0.22283810004E+03  0.00000000000E+00 0. -1.
         23    2    1    2    0    0  0.16706370917E+02 -0.75049897068E+02  0.18995160905E+03  0.22547622336E+03  0.94054896957E+02 0.  0.
        -24    2    1    2    0    0  0.18073181139E+03  0.46598848751E+02  0.75616253787E+03  0.78337187676E+03  0.83989721238E+02 0.  0.
         11    1    4    4    0    0  0.13957095802E+03  0.14269168726E+02  0.41153983498E+03  0.43479730597E+03  0.00000000000E+00 0. -1.
        -12    1    4    4    0    0  0.41160853367E+02  0.32329680025E+02  0.34462270288E+03  0.34857457079E+03  0.00000000000E+00 0.  1.
        -11    1    3    3    0    0  0.28882117612E+02 -0.91902632009E+02  0.17535129974E+03  0.20007085947E+03  0.00000000000E+00 0. -1.
         11    1    3    3    0    0 -0.12175746695E+02  0.16852734941E+02  0.14600309308E+02  0.25405363892E+02  0.00000000000E+00 0.  1.
          2    1    1    2  501    0 -0.19743818230E+03  0.28451048316E+02 -0.13951642490E+03  0.24342582197E+03  0.00000000000E+00 0. -1.
<scales pt_clust_5="13000.00000" pt_clust_6="13000.00000" pt_clust_7="13000.00000" pt_clust_8="13000.00000" pt_clust_9="197.80753"></scales>
<clustering>
<clus scale="   83.990">  5  6 -1 -1</clus>
<clus scale="   94.055">  7  8 -1 -1</clus>
<clus scale="  121.482">  1  7  2 -1</clus>
<clus scale="  197.808">  2  9  1 -1</clus>
<clus scale="  197.808">  2  5  1 -1</clus>
</clustering>
</event>
<event>
 9    1  0.4731329E-005  0.9396538E+02  0.7546771E-02  0.1300072E+00
         21   -1    0    0  501  502  0.00000000000E+00  0.00000000000E+00  0.10236191122E+03  0.10236191122E+03  0.00000000000E+00 0.  1.
          1   -1    0    0  502    0 -0.00000000000E+00 -0.00000000000E+00 -0.44022663004E+03  0.44022663004E+03  0.00000000000E+00 0. -1.
         23    2    1    2    0    0  0.15343374808E+02 -0.11314098559E+02 -0.39339800465E+03  0.40447383431E+03  0.92052510066E+02 0.  0.
        -24    2    1    2    0    0 -0.25896221144E+02 -0.10265385848E+02  0.69479107840E+02  0.11033841014E+03  0.81063098321E+02 0.  0.
         13    1    4    4    0    0 -0.47022634126E+02 -0.10984288956E+02  0.12962683832E+02  0.49998138927E+02  0.00000000000E+00 0. -1.
        -14    1    4    4    0    0  0.21126412983E+02  0.71890310770E+00  0.56516424008E+02  0.60340271211E+02  0.00000000000E+00 0.  1.
        -11    1    3    3    0    0  0.11555551996E+02 -0.48448264690E+02 -0.29613286728E+03  0.30029225801E+03  0.00000000000E+00 0. -1.
         11    1    3    3    0    0  0.37878228115E+01  0.37134166131E+02 -0.97265137360E+02  0.10418157631E+03  0.00000000000E+00 0.  1.
          2    1    1    2  501    0  0.10552846336E+02  0.21579484407E+02 -0.13945822017E+02  0.27776296816E+02  0.00000000000E+00 0. -1.
<scales pt_clust_5="13000.00000" pt_clust_6="13000.00000" pt_clust_7="13000.00000" pt_clust_8="13000.00000" pt_clust_9="24.02159"></scales>
<clustering>
<clus scale="   24.022">  1  9  2 -1</clus>
<clus scale="   81.063">  5  6 -1 -1</clus>
<clus scale="   83.229">  1  5  2 -1</clus>
<clus scale="   92.053">  7  8 -1 -1</clus>
<clus scale="   24.022">  1  5  2 -1</clus>
</clustering>
</event>
<event>
 9    1  0.4731329E-005  0.9738842E+02  0.7546771E-02  0.1291740E+00
         -2   -1    0    0    0  501 -0.00000000000E+00  0.00000000000E+00  0.46299789199E+03  0.46299789199E+03  0.00000000000E+00 0.  1.
         21   -1    0    0  501  502  0.00000000000E+00 -0.00000000000E+00 -0.36433043993E+02  0.36433043993E+02  0.00000000000E+00 0. -1.
        -24    2    1    2    0    0 -0.26699787751E+02  0.30218396894E+02  0.30926716593E+03  0.32187181779E+03  0.79556627568E+02 0.  0.
         23    2    1    2    0    0  0.13126296775E+02 -0.95768543999E+01  0.47543732332E+02  0.10355961524E+03  0.90554798971E+02 0.  0.
         13    1    3    3    0    0 -0.51907861424E+02  0.67711579295E+01  0.22131903323E+03  0.22742556833E+03  0.00000000000E+00 0. -1.
        -14    1    3    3    0    0  0.25208073673E+02  0.23447238964E+02  0.87948132693E+02  0.94446249462E+02  0.00000000000E+00 0.  1.
        -11    1    4    4    0    0  0.50418993893E+02  0.74480401056E+01  0.24832405019E+02  0.56693884905E+02  0.00000000000E+00 0. -1.
         11    1    4    4    0    0 -0.37292697117E+02 -0.17024894506E+02  0.22711327312E+02  0.46865730331E+02  0.00000000000E+00 0.  1.
         -1    1    1    2    0  502  0.13573490976E+02 -0.20641542494E+02  0.69753949743E+02  0.73999502962E+02  0.00000000000E+00 0.  1.
<scales pt_clust_5="13000.00000" pt_clust_6="13000.00000" pt_clust_7="13000.00000" pt_clust_8="13000.00000" pt_clust_9="24.70452"></scales>
<clustering>
<clus scale="   24.705">  2  9  1 -1</clus>
<clus scale="   79.557">  5  6 -1 -1</clus>
<clus scale="   87.256">  1  5  2 -1</clus>
<clus scale="   90.555">  7  8 -1 -1</clus>
<clus scale="   24.705">  2  5  1 -1</clus>
</clustering>
</event>
<event>
 9    1  0.4731329E-005  0.1198520E+03  0.7546771E-02  0.1247587E+00
          1   -1    0    0  502    0 -0.00000000000E+00  0.00000000000E+00  0.22065393090E+03  0.22065393090E+03  0.00000000000E+00 0. -1.
         21   -1    0    0  501  502  0.00000000000E+00 -0.00000000000E+00 -0.16748747288E+03  0.16748747288E+03  0.00000000000E+00 0.  1.
         23    2    1    2    0    0 -0.45269523756E+02  0.62333055052E+02  0.14708304368E+03  0.18993799021E+03  0.92240332026E+02 0.  0.
        -24    2    1    2    0    0  0.68787154237E+02 -0.40684403384E+02 -0.15452735793E+02  0.11347845386E+03  0.79067560861E+02 0.  0.
         11    1    4    4    0    0  0.48094958582E+01 -0.26807161393E+02  0.24626972472E+02  0.36718427601E+02  0.00000000000E+00 0. -1.
        -12    1    4    4    0    0  0.63977658379E+02 -0.13877241991E+02 -0.40079708265E+02  0.76760026260E+02  0.00000000000E+00 0.  1.
        -13    1    3    3    0    0 -0.31438773053E+02  0.67979686321E+01  0.56654080494E-01  0.32165385716E+02  0.00000000000E+00 0. -1.
         13    1    3    3    0    0 -0.13830750703E+02  0.55535086420E+02  0.14702638960E+03  0.15777260449E+03  0.00000000000E+00 0.  1.
          2    1    1    2  501    0 -0.23517630480E+02 -0.21648651668E+02 -0.78463849867E+02  0.84724959713E+02  0.00000000000E+00 0. -1.
<scales pt_clust_5="13000.00000" pt_clust_6="13000.00000" pt_clust_7="13000.00000" pt_clust_8="13000.00000" pt_clust_9="31.96472"></scales>
<clustering>
<clus scale="   31.965">  2  9  1 -1</clus>
<clus scale="   79.068">  5  6 -1 -1</clus>
<clus scale="   92.240">  7  8 -1 -1</clus>
<clus scale="  110.036">  2  5  1 -1</clus>
<clus scale="   31.965">  2  5  1 -1</clus>
</clustering>
</event>
<event>
 9    1  0.4731329E-005  0.1477482E+03  0.7546771E-02  0.1226919E+00
          3   -1    0    0  502    0 -0.00000000000E+00  0.00000000000E+00  0.30364747172E+03  0.30364747172E+03  0.00000000000E+00 0. -1.
         21   -1    0    0  501  502  0.00000000000E+00 -0.00000000000E+00 -0.12791705643E+03  0.12791705643E+03  0.00000000000E+00 0.  1.
        -24    2    1    2    0    0 -0.26700061429E+02  0.31977125283E+02  0.11624298730E+03  0.14673424679E+03  0.79265864420E+02 0.  0.
         23    2    1    2    0    0  0.13610746233E+02  0.90601050971E+02  0.87993782350E+02  0.15830221449E+03  0.94461010626E+02 0.  0.
         11    1    3    3    0    0 -0.33386592589E+02 -0.66280118872E+00  0.10709936092E+03  0.11218456658E+03  0.00000000000E+00 0. -1.
        -12    1    3    3    0    0  0.66865311595E+01  0.32639926471E+02  0.91436263850E+01  0.34549680208E+02  0.00000000000E+00 0.  1.
        -13    1    4    4    0    0 -0.36229582358E+02  0.66255375061E+02  0.43142574742E+02  0.86969184874E+02  0.00000000000E+00 0.  1.
         13    1    4    4    0    0  0.49840328591E+02  0.24345675911E+02  0.44851207608E+02  0.71333029611E+02  0.00000000000E+00 0. -1.
          4    1    1    2  501    0  0.13089315196E+02 -0.12257817625E+03 -0.28506354368E+02  0.12652806687E+03  0.00000000000E+00 0. -1.
<scales pt_clust_5="13000.00000" pt_clust_6="13000.00000" pt_clust_7="13000.00000" pt_clust_8="13000.00000" pt_clust_9="113.60745"></scales>
<clustering>
<clus scale="   79.266">  5  6 -1 -1</clus>
<clus scale="   89.546">  1  5  2 -1</clus>
<clus scale="   94.461">  7  8 -1 -1</clus>
<clus scale="  113.607">  2  9  1 -1</clus>
<clus scale="  113.607">  2  5  1 -1</clus>
</clustering>
</event>
<event>
 9    1  0.4731329E-005  0.9703602E+02  0.7546771E-02  0.1292493E+00
         21   -1    0    0  501  502  0.00000000000E+00  0.00000000000E+00  0.10156890480E+03  0.10156890480E+03  0.00000000000E+00 0. -1.
          3   -1    0    0  502    0 -0.00000000000E+00 -0.00000000000E+00 -0.31654549829E+03  0.31654549829E+03  0.00000000000E+00 0. -1.
         23    2    1    2    0    0 -0.51072358849E+02  0.11712132707E+02 -0.20415457658E+03  0.22947265530E+03  0.90736147695E+02 0.  0.
        -24    2    1    2    0    0 -0.12230540145E+02 -0.32689790266E+02 -0.59955909897E+02  0.10580782613E+03  0.79889776808E+02 0.  0.
         13    1    4    4    0    0 -0.24340648277E+02 -0.43549213135E+02 -0.69614586667E+01  0.50373237239E+02  0.00000000000E+00 0. -1.
        -14    1    4    4    0    0  0.12110108131E+02  0.10859422869E+02 -0.52994451230E+02  0.55434588888E+02  0.00000000000E+00 0.  1.
        -11    1    3    3    0    0 -0.70025622112E+02 -0.81296674554E+01 -0.10410103238E+03  0.12572471590E+03  0.00000000000E+00 0.  1.
         11    1    3    3    0    0  0.18953263264E+02  0.19841800163E+02 -0.10005354420E+03  0.10374793940E+03  0.00000000000E+00 0. -1.
          4    1    1    2  501    0  0.63302898994E+02  0.20977657558E+02  0.49133892989E+02  0.82833921662E+02  0.00000000000E+00 0. -1.
<scales pt_clust_5="13000.00000" pt_clust_6="13000.00000" pt_clust_7="13000.00000" pt_clust_8="13000.00000" pt_clust_9="66.68822"></scales>
<clustering>
<clus scale="   66.688">  1  9  2 -1</clus>
<clus scale="   79.890">  5  6 -1 -1</clus>
<clus scale="   86.979">  1  5  2 -1</clus>
<clus scale="   90.736">  7  8 -1 -1</clus>
<clus scale="   66.688">  1  5  2 -1</clus>
</clustering>
</event>
<event>
 9    1  0.4731329E-005  0.9127465E+02  0.7546771E-02  0.1303936E+00
         21   -1    0    0  501  502  0.00000000000E+00  0.00000000000E+00  0.40372368844E+03  0.40372368844E+03  0.00000000000E+00 0. -1.
          1   -1    0    0  502    0 -0.00000000000E+00 -0.00000000000E+00 -0.38650074564E+02  0.38650074564E+02  0.00000000000E+00 0. -1.
        -24    2    1    2    0    0  0.12543378639E+02 -0.31290480235E+02  0.98226013852E+02  0.13156319506E+03  0.80771863885E+02 0.  0.
         23    2    1    2    0    0 -0.17127570082E+02 -0.33484713666E+01  0.26031742013E+03  0.27526461137E+03  0.87754664444E+02 0.  0.
         11    1    3    3    0    0  0.41872364929E+02 -0.32925735723E+02  0.82613316261E+02  0.98297299258E+02  0.00000000000E+00 0. -1.
        -12    1    3    3    0    0 -0.29328986290E+02  0.16352554886E+01  0.15612697590E+02  0.33265895799E+02  0.00000000000E+00 0.  1.
        -13    1    4    4    0    0 -0.85221521243E+01 -0.39191142724E+02  0.64089077348E+02  0.75604117482E+02  0.00000000000E+00 0.  1.
         13    1    4    4    0    0 -0.86054179572E+01  0.35842671358E+02  0.19622834279E+03  0.19966049389E+03  0.00000000000E+00 0. -1.
          2    1    1    2  501    0  0.45841914424E+01  0.34638951601E+02  0.65301798863E+01  0.35545956571E+02  0.00000000000E+00 0. -1.
<scales pt_clust_5="13000.00000" pt_clust_6="13000.00000" pt_clust_7="13000.00000" pt_clust_8="13000.00000" pt_clust_9="34.94099"></scales>
<clustering>
<clus scale="   34.941">  1  9  2 -1</clus>
<clus scale="   80.772">  5  6 -1 -1</clus>
<clus scale="   84.583">  2  5  1 -1</clus>
<clus scale="   87.755">  7  8 -1 -1</clus>
<clus scale="   34.941">  1  5  2 -1</clus>
</clustering>
</event>
<event>
 9    1  0.4731329E-005  0.1266233E+03  0.7546771E-02  0.1235334E+00
         -2   -1    0    0    0  501 -0.00000000000E+00  0.00000000000E+00  0.53626606062E+02  0.53626606062E+02  0.00000000000E+00 0.  1.
         21   -1    0    0  501  502  0.00000000000E+00 -0.00000000000E+00 -0.57259937384E+03  0.57259937384E+03  0.00000000000E+00 0. -1.
         23    2    1    2    0    0 -0.29797537825E+02  0.64855297569E+02 -0.94800542207E+02  0.14999415146E+03  0.91744208454E+02 0.  0.
        -24    2    1    2    0    0  0.48194732018E+02 -0.10274125593E+03 -0.17752130116E+03  0.22601096380E+03  0.81784139807E+02 0.  0.
         11    1    4    4    0    0  0.29923173710E+02 -0.73959027317E+02 -0.17439194614E+03  0.19177561087E+03  0.00000000000E+00 0. -1.
        -12    1    4    4    0    0  0.18271558309E+02 -0.28782228617E+02 -0.31293550265E+01  0.34235352927E+02  0.00000000000E+00 0.  1.
        -11    1    3    3    0    0 -0.11505611263E+02  0.25593983732E+02  0.15100267799E+02  0.31866113372E+02  0.00000000000E+00 0.  1.
         11    1    3    3    0    0 -0.18291926561E+02  0.39261313837E+02 -0.10990081001E+03  0.11812803808E+03  0.00000000000E+00 0. -1.
         -1    1    1    2    0  502 -0.18397194194E+02  0.37885958364E+02 -0.24665092440E+03  0.25022086465E+03  0.00000000000E+00 0.  1.
<scales pt_clust_5="13000.00000" pt_clust_6="13000.00000" pt_clust_7="13000.00000" pt_clust_8="13000.00000" pt_clust_9="42.11654"></scales>
<clustering>
<clus scale="   42.117">  2  9  1 -1</clus>
<clus scale="   81.784">  5  6 -1 -1</clus>
<clus scale="   91.744">  7  8 -1 -1</clus>
<clus scale="  119.604">  2  5  1 -1</clus>
<clus scale="   42.117">  2  5  1 -1</clus>
</clustering>
</event>
<event>
 9    1  0.4731329E-005  0.1265014E+03  0.7546771E-02  0.1252715E+00
         21   -1    0    0  501  502  0.00000000000E+00  0.00000000000E+00  0.10356671683E+03  0.10356671683E+03  0.00000000000E+00 0.  1.
         -4   -1    0    0    0  501 -0.00000000000E+00 -0.00000000000E+00 -0.39239057785E+03  0.39239057785E+03  0.00000000000E+00 0.  1.
        -24    2    1    2    0    0  0.17349189506E+02 -0.15605291485E+02 -0.17884235762E+03  0.19778716630E+03  0.81182847798E+02 0.  0.
         23    2    1    2    0    0  0.70140534504E+02  0.27966703020E+02 -0.15771056489E+03  0.19774443638E+03  0.92349384319E+02 0.  0.
         13    1    3    3    0    0 -0.55685498160E+01 -0.20101216398E+02 -0.38097637139E+01  0.21203347549E+02  0.00000000000E+00 0. -1.
        -14    1    3    3    0    0  0.22917739322E+02  0.44959249130E+01 -0.17503259391E+03  0.17658381875E+03  0.00000000000E+00 0.  1.
        -13    1    4    4    0    0  0.36354824403E+02 -0.28096568564E+02 -0.10169029335E+03  0.11158855759E+03  0.00000000000E+00 0.  1.
         13    1    4    4    0    0  0.33785710101E+02  0.56063271584E+02 -0.56020271535E+02  0.86155878793E+02  0.00000000000E+00 0. -1.
         -3    1    1    2    0  502 -0.87489724010E+02 -0.12361411535E+02  0.47729061481E+02  0.10042569199E+03  0.00000000000E+00 0.  1.
<scales pt_clust_5="13000.00000" pt_clust_6="13000.00000" pt_clust_7="13000.00000" pt_clust_8="13000.00000" pt_clust_9="86.45344"></scales>
<clustering>
<clus scale="   81.183">  5  6 -1 -1</clus>
<clus scale="   84.470">  2  5  1 -1</clus>
<clus scale="   86.453">  1  9  2 -1</clus>
<clus scale="   92.349">  7  8 -1 -1</clus>
<clus scale="   86.453">  1  5  2 -1</clus>
</clustering>
</event>
<event>
 9    1  0.4731329E-005  0.1261078E+03  0.7546771E-02  0.1236510E+00
          1   -1    0    0  502    0 -0.00000000000E+00  0.00000000000E+00  0.38430748016E+03  0.38430748016E+03  0.00000000000E+00 0. -1.
         21   -1    0    0  501  502  0.00000000000E+00 -0.00000000000E+00 -0.10247974909E+03  0.10247974909E+03  0.00000000000E+00 0. -1.
         23    2    1    2    0    0  0.64860011853E+02  0.73318010691E+02  0.15321902029E+03  0.20344700892E+03  0.91281243577E+02 0.  0.
        -24    2    1    2    0    0 -0.70755678935E+02 -0.80018387299E+01 -0.30403979660E+02  0.11133441540E+03  0.80003465854E+02 0.  0.
         13    1    4    4    0    0 -0.23016174682E+02  0.29392299543E+02  0.97749245210E+01  0.38590163498E+02  0.00000000000E+00 0. -1.
        -14    1    4    4    0    0 -0.47739504253E+02 -0.37394138273E+02 -0.40178904181E+02  0.72744251902E+02  0.00000000000E+00 0.  1.
        -13    1    3    3    0    0  0.27803599865E+02  0.12535319653E+02 -0.40980241417E+01  0.30772848521E+02  0.00000000000E+00 0.  1.
         13    1    3    3    0    0  0.37056411988E+02  0.60782691038E+02  0.15731704443E+03  0.17267416040E+03  0.00000000000E+00 0. -1.
          2    1    1    2  501    0  0.58956670828E+01 -0.65316171962E+02  0.15901269044E+03  0.17200580493E+03  0.00000000000E+00 0. -1.
<scales pt_clust_5="13000.00000" pt_clust_6="13000.00000" pt_clust_7="13000.00000" pt_clust_8="13000.00000" pt_clust_9="65.58175"></scales>
<clustering>
<clus scale="   65.582">  2  9  1 -1</clus>
<clus scale="   80.003">  5  6 -1 -1</clus>
<clus scale="   91.281">  7  8 -1 -1</clus>
<clus scale="  118.201">  2  5  1 -1</clus>
<clus scale="   65.582">  2  5  1 -1</clus>
</clustering>
</event>
<event>
 9    1  0.4731329E-005  0.2336046E+03  0.7546771E-02  0.1165824E+00
          3   -1    0    0  502    0 -0.00000000000E+00  0.00000000000E+00  0.35527314022E+03  0.35527314022E+03  0.00000000000E+00 0. -1.
         21   -1    0    0  501  502  0.00000000000E+00 -0.00000000000E+00 -0.24212535401E+03  0.24212535401E+03  0.00000000000E+00 0. -1.
        -24    2    1    2    0    0 -0.32002025670E+02 -0.12368981095E+02  0.11405117823E+03  0.14295046943E+03  0.79057220505E+02 0.  0.
         23    2    1    2    0    0  0.20730857661E+03 -0.90189000820E+02 -0.42217170086E+02  0.24718646369E+03  0.90597773559E+02 0.  0.
         11    1    3    3    0    0  0.43792642900E+01 -0.30642972764E+02  0.91097288573E+02  0.96212710808E+02  0.00000000000E+00 0. -1.
        -12    1    3    3    0    0 -0.36381289960E+02  0.18273991669E+02  0.22953889661E+02  0.46737758625E+02  0.00000000000E+00 0.  1.
        -13    1    4    4    0    0  0.88045991885E+01 -0.34136247780E+02 -0.17763196085E+02  0.39475758568E+02  0.00000000000E+00 0.  1.
         13    1    4    4    0    0  0.19850397743E+03 -0.56052753041E+02 -0.24453974001E+02  0.20771070512E+03  0.00000000000E+00 0. -1.
          4    1    1    2  501    0 -0.17530655094E+03  0.10255798191E+03  0.41313778060E+02  0.20726156112E+03  0.00000000000E+00 0. -1.
<scales pt_clust_5="13000.00000" pt_clust_6="13000.00000" pt_clust_7="13000.00000" pt_clust_8="13000.00000" pt_clust_9="215.32119"></scales>
<clustering>
<clus scale="   79.057">  5  6 -1 -1</clus>
<clus scale="   86.181">  1  5  2 -1</clus>
<clus scale="   90.598">  7  8 -1 -1</clus>
<clus scale="  215.321">  2  9  1 -1</clus>
<clus scale="  215.321">  2  5  1 -1</clus>
</clustering>
</event>
<event>
 9    1  0.4731329E-005  0.1097695E+03  0.7546771E-02  0.1265434E+00
          1   -1    0    0  502    0 -0.00000000000E+00  0.00000000000E+00  0.41325513233E+03  0.41325513233E+03  0.00000000000E+00 0. -1.
         21   -1    0    0  501  502  0.00000000000E+00 -0.00000000000E+00 -0.44896928190E+02  0.44896928190E+02  0.00000000000E+00 0. -1.
        -24    2    1    2    0    0 -0.12595611474E+02 -0.47757159317E+02  0.18344667176E+03  0.20630561249E+03  0.80435866825E+02 0.  0.
         23    2    1    2    0    0  0.49860960460E+02  0.71816055013E+02  0.13755454540E+03  0.18696023290E+03  0.91592655777E+02 0.  0.
         13    1    3    3    0    0 -0.20612522471E+02 -0.31188935678E+02  0.18413014885E+03  0.18788703390E+03  0.00000000000E+00 0. -1.
        -14    1    3    3    0    0  0.80169109968E+01 -0.16568223639E+02 -0.68347709129E+00  0.18418578594E+02  0.00000000000E+00 0.  1.
        -11    1    4    4    0    0  0.34065291284E-01  0.64603178736E+02  0.11475940561E+03  0.13169393699E+03  0.00000000000E+00 0.  1.
         11    1    4    4    0    0  0.49826895169E+02  0.72128762763E+01  0.22795139787E+02  0.55266295915E+02  0.00000000000E+00 0. -1.
          2    1    1    2  501    0 -0.37265348986E+02 -0.24058895696E+02  0.47356986985E+02  0.64886215126E+02  0.00000000000E+00 0. -1.
<scales pt_clust_5="13000.00000" pt_clust_6="13000.00000" pt_clust_7="13000.00000" pt_clust_8="13000.00000" pt_clust_9="44.35692"></scales>
<clustering>
<clus scale="   44.357">  2  9  1 -1</clus>
<clus scale="   80.436">  5  6 -1 -1</clus>
<clus scale="   91.593">  7  8 -1 -1</clus>
<clus scale="  100.648">  1  5  2 -1</clus>
<clus scale="   44.357">  2  5  1 -1</clus>
</clustering>
</event>
<event>
 9    1  0.4731329E-005  0.1726004E+03  0.7546771E-02  0.1176871E+00
         21   -1    0    0  501  502  0.00000000000E+00  0.00000000000E+00  0.10518308340E+03  0.10518308340E+03  0.00000000000E+00 0. -1.
          1   -1    0    0  502    0 -0.00000000000E+00 -0.00000000000E+00 -0.76363224376E+03  0.76363224376E+03  0.00000000000E+00 0. -1.
         23    2    1    2    0    0 -0.13183599734E+02 -0.14179915726E+03 -0.58636618845E+03  0.61043111149E+03  0.92303990268E+02 0.  0.
        -24    2    1    2    0    0  0.31996914932E+02  0.15754071647E+03 -0.11209521011E+03  0.21145110668E+03  0.79393667717E+02 0.  0.
         11    1    4    4    0    0  0.47901112075E+02  0.15474654758E+03 -0.94375194497E+02  0.18747716625E+03  0.00000000000E+00 0. -1.
        -12    1    4    4    0    0 -0.15904197142E+02  0.27941688888E+01 -0.17720015611E+02  0.23973940431E+02  0.00000000000E+00 0.  1.
        -11    1    3    3    0    0 -0.13431337808E+02 -0.14940870454E+02 -0.14792875509E+02  0.24949140488E+02  0.00000000000E+00 0.  1.
         11    1    3    3    0    0  0.24773807389E+00 -0.12685828681E+03 -0.57157331294E+03  0.58548197100E+03  0.00000000000E+00 0. -1.
          2    1    1    2  501    0 -0.18813315198E+02 -0.15741559212E+02  0.40012238189E+02  0.46933108997E+02  0.00000000000E+00 0. -1.
<scales pt_clust_5="13000.00000" pt_clust_6="13000.00000" pt_clust_7="13000.00000" pt_clust_8="13000.00000" pt_clust_9="24.53034"></scales>
<clustering>
<clus scale="   24.530">  1  9  2 -1</clus>
<clus scale="   79.394">  5  6 -1 -1</clus>
<clus scale="   92.304">  7  8 -1 -1</clus>
<clus scale="  166.055">  1  5  2 -1</clus>
<clus scale="   24.530">  1  5  2 -1</clus>
</clustering>
</event>
<event>
 9    1  0.4731329E-005  0.1471172E+03  0.7546771E-02  0.1206681E+00
          1   -1    0    0  502    0 -0.00000000000E+00  0.00000000000E+00  0.85304261821E+03  0.85304261821E+03  0.00000000000E+00 0. -1.
         21   -1    0    0  501  502  0.00000000000E+00 -0.00000000000E+00 -0.22292392873E+03  0.22292392873E+03  0.00000000000E+00 0.  1.
        -24    2    1    2    0    0  0.39754927427E+02 -0.10757336391E+03  0.66575716309E+03  0.68059892895E+03  0.82642719058E+02 0.  0.
         23    2    1    2    0    0  0.22244343420E+02  0.11128790978E+03  0.14310059645E+03  0.20614456813E+03  0.95592847988E+02 0.  0.
         11    1    3    3    0    0  0.20523130139E+02 -0.11743613239E+03  0.54057117291E+03  0.55356087022E+03  0.00000000000E+00 0. -1.
        -12    1    3    3    0    0  0.19231797287E+02  0.98627684834E+01  0.12518599018E+03  0.12703805873E+03  0.00000000000E+00 0.  1.
        -13    1    4    4    0    0  0.60045655118E+02  0.71329828890E+02  0.85642219953E+02  0.12660179709E+03  0.00000000000E+00 0. -1.
         13    1    4    4    0    0 -0.37801311698E+02  0.39958080894E+02  0.57458376495E+02  0.79542771037E+02  0.00000000000E+00 0.  1.
          2    1    1    2  501    0 -0.61999270847E+02 -0.37145458749E+01 -0.17873907005E+03  0.18922304986E+03  0.00000000000E+00 0. -1.
<scales pt_clust_5="13000.00000" pt_clust_6="13000.00000" pt_clust_7="13000.00000" pt_clust_8="13000.00000" pt_clust_9="62.11045"></scales>
<clustering>
<clus scale="   62.110">  2  9  1 -1</clus>
<clus scale="   82.643">  5  6 -1 -1</clus>
<clus scale="   95.593">  7  8 -1 -1</clus>
<clus scale="  139.051">  1  5  2 -1</clus>
<clus scale="   62.110">  2  5  1 -1</clus>
</clustering>
</event>
<event>
 9    1  0.4731329E-005  0.1024179E+03  0.7546771E-02  0.1278693E+00
          1   -1    0    0  502    0 -0.00000000000E+00  0.00000000000E+00  0.63744387484E+03  0.63744387484E+03  0.00000000000E+00 0. -1.
         21   -1    0    0  501  502  0.00000000000E+00 -0.00000000000E+00 -0.35854279594E+03  0.35854279594E+03  0.00000000000E+00 0. -1.
        -24    2    1    2    0    0 -0.81683317743E+02 -0.15347614181E+02  0.43210104454E+03  0.44777728505E+03  0.82978736183E+02 0.  0.
         23    2    1    2    0    0 -0.91254092751E+01  0.22022992791E+02  0.17998857349E+03  0.20280326507E+03  0.90360347665E+02 0.  0.
         13    1    3    3    0    0 -0.83277218150E+02 -0.28958367271E+01  0.42552268879E+03  0.43360470432E+03  0.00000000000E+00 0. -1.
        -14    1    3    3    0    0  0.15939004076E+01 -0.12451777454E+02  0.65783557505E+01  0.14172580734E+02  0.00000000000E+00 0.  1.
        -13    1    4    4    0    0 -0.43920662977E+02  0.14702689507E+01  0.13666907380E+03  0.14356051707E+03  0.00000000000E+00 0. -1.
         13    1    4    4    0    0  0.34795253702E+02  0.20552723840E+02  0.43319499687E+02  0.59242748000E+02  0.00000000000E+00 0.  1.
          2    1    1    2  501    0  0.90808727018E+02 -0.66753786100E+01 -0.33318853913E+03  0.34540612066E+03  0.00000000000E+00 0. -1.
<scales pt_clust_5="13000.00000" pt_clust_6="13000.00000" pt_clust_7="13000.00000" pt_clust_8="13000.00000" pt_clust_9="91.05375"></scales>
<clustering>
<clus scale="   82.979">  5  6 -1 -1</clus>
<clus scale="   90.360">  7  8 -1 -1</clus>
<clus scale="   91.054">  2  9  1 -1</clus>
<clus scale="   95.968">  1  5  2 -1</clus>
<clus scale="   91.054">  2  5  1 -1</clus>
</clustering>
</event>
<event>
 9    1  0.4731329E-005  0.1025572E+03  0.7546771E-02  0.1282775E+00
         21   -1    0    0  501  502  0.00000000000E+00  0.00000000000E+00  0.21503173017E+03  0.21503173017E+03  0.00000000000E+00 0. -1.
         -2   -1    0    0    0  501 -0.00000000000E+00 -0.00000000000E+00 -0.17945995707E+03  0.17945995707E+03  0.00000000000E+00 0.  1.
         23    2    1    2    0    0  0.39923255666E+02 -0.17898718382E+02 -0.14848551271E+03  0.18111806435E+03  0.94029651110E+02 0.  0.
        -24    2    1    2    0    0 -0.16487599935E+02  0.34297497685E+01  0.13094057046E+03  0.15354080194E+03  0.78394774912E+02 0.  0.
         13    1    4    4    0    0 -0.19700151576E+02  0.38179303470E+02  0.90117260577E+02  0.99834241818E+02  0.00000000000E+00 0. -1.
        -14    1    4    4    0    0  0.32125516407E+01 -0.34749553701E+02  0.40823309881E+02  0.53706560122E+02  0.00000000000E+00 0.  1.
        -11    1    3    3    0    0 -0.16276382426E+02 -0.14044929429E+02  0.84592885150E+00  0.21515024127E+02  0.00000000000E+00 0. -1.
         11    1    3    3    0    0  0.56199638093E+02 -0.38537889531E+01 -0.14933144156E+03  0.15960304023E+03  0.00000000000E+00 0.  1.
         -1    1    1    2    0  502 -0.23435655731E+02  0.14468968613E+02  0.53116715353E+02  0.59832820944E+02  0.00000000000E+00 0.  1.
<scales pt_clust_5="13000.00000" pt_clust_6="13000.00000" pt_clust_7="13000.00000" pt_clust_8="13000.00000" pt_clust_9="27.54235"></scales>
<clustering>
<clus scale="   27.542">  1  9  2 -1</clus>
<clus scale="   78.395">  5  6 -1 -1</clus>
<clus scale="   88.443">  1  5  2 -1</clus>
<clus scale="   94.030">  7  8 -1 -1</clus>
<clus scale="   27.542">  1  5  2 -1</clus>
</clustering>
</event>
<event>
 9    1  0.4731329E-005  0.1156987E+03  0.7546771E-02  0.1254457E+00
          1   -1    0    0  502    0 -0.00000000000E+00  0.00000000000E+00  0.60649970201E+03  0.60649970201E+03  0.00000000000E+00 0. -1.
         21   -1    0    0  501  502  0.00000000000E+00 -0.00000000000E+00 -0.41352528395E+02  0.41352528395E+02  0.00000000000E+00 0. -1.
        -24    2    1    2    0    0 -0.77188540648E+01  0.76836004541E+02  0.44355269543E+03  0.45729186264E+03  0.80084341251E+02 0.  0.
         23    2    1    2    0    0 -0.18823069606E+02 -0.49726577179E+02  0.10465654541E+03  0.14901174166E+03  0.91784891074E+02 0.  0.
         13    1    3    3    0    0  0.26740888070E+02  0.51620849387E+02  0.34532782111E+03  0.35018722310E+03  0.00000000000E+00 0. -1.
        -14    1    3    3    0    0 -0.34459742134E+02  0.25215155154E+02  0.98224874317E+02  0.10710463954E+03  0.00000000000E+00 0.  1.
        -11    1    4    4    0    0  0.36039439083E+02 -0.14357739746E+02  0.25554287222E+02  0.46454358842E+02  0.00000000000E+00 0. -1.
         11    1    4    4    0    0 -0.54862508689E+02 -0.35368837433E+02  0.79102258184E+02  0.10255738282E+03  0.00000000000E+00 0.  1.
          2    1    1    2  501    0  0.26541923671E+02 -0.27109427362E+02  0.16937932779E+02  0.41548626101E+02  0.00000000000E+00 0. -1.
<scales pt_clust_5="13000.00000" pt_clust_6="13000.00000" pt_clust_7="13000.00000" pt_clust_8="13000.00000" pt_clust_9="37.93936"></scales>
<clustering>
<clus scale="   37.939">  2  9  1 -1</clus>
<clus scale="   80.084">  5  6 -1 -1</clus>
<clus scale="   91.785">  7  8 -1 -1</clus>
<clus scale="  106.655">  1  5  2 -1</clus>
<clus scale="   37.939">  2  5  1 -1</clus>
</clustering>
</event>
<event>
 9    1  0.4731329E-005  0.1101128E+03  0.7546771E-02  0.1263834E+00
         21   -1    0    0  501  502  0.00000000000E+00  0.00000000000E+00  0.19718216339E+02  0.19718216339E+02  0.00000000000E+00 0. -1.
          3   -1    0    0  502    0 -0.00000000000E+00 -0.00000000000E+00 -0.12101168117E+04  0.12101168117E+04  0.00000000000E+00 0. -1.
         23    2    1    2    0    0 -0.17166562009E+02 -0.48802574003E+02 -0.44783024425E+03  0.45958282136E+03  0.89375947217E+02 0.  0.
        -24    2    1    2    0    0 -0.44071111008E+02  0.89653840435E+02 -0.40689588587E+03  0.42660284689E+03  0.80284824882E+02 0.  0.
         13    1    4    4    0    0 -0.23976785648E+02  0.90292623357E+02 -0.38773196370E+03  0.39882793252E+03  0.00000000000E+00 0. -1.
        -14    1    4    4    0    0 -0.20094325360E+02 -0.63878292210E+00 -0.19163922164E+02  0.27774914366E+02  0.00000000000E+00 0.  1.
        -13    1    3    3    0    0  0.23871047995E+02  0.10220880555E+02 -0.63799314858E+02  0.68881390143E+02  0.00000000000E+00 0.  1.
         13    1    3    3    0    0 -0.41037610004E+02 -0.59023454558E+02 -0.38403092940E+03  0.39070143122E+03  0.00000000000E+00 0. -1.
          4    1    1    2  501    0  0.61237673017E+02 -0.40851266432E+02 -0.33567246529E+03  0.34364935984E+03  0.00000000000E+00 0. -1.
<scales pt_clust_5="13000.00000" pt_clust_6="13000.00000" pt_clust_7="13000.00000" pt_clust_8="13000.00000" pt_clust_9="73.61307"></scales>
<clustering>
<clus scale="   73.613">  1  9  2 -1</clus>
<clus scale="   80.285">  5  6 -1 -1</clus>
<clus scale="   89.376">  7  8 -1 -1</clus>
<clus scale="  102.871">  1  5  2 -1</clus>
<clus scale="   73.613">  1  5  2 -1</clus>
</clustering>
</event>
<event>
 9    1  0.4731329E-005  0.1145270E+03  0.7546771E-02  0.1255703E+00
          1   -1    0    0  502    0 -0.00000000000E+00  0.00000000000E+00  0.41677359661E+02  0.41677359661E+02  0.00000000000E+00 0. -1.
         21   -1    0    0  501  502  0.00000000000E+00 -0.00000000000E+00 -0.58817238502E+03  0.58817238502E+03  0.00000000000E+00 0.  1.
         23    2    1    2    0    0  0.32916406960E+02  0.67698010925E+02 -0.12788163613E+03  0.17378161887E+03  0.90442399717E+02 0.  0.
        -24    2    1    2    0    0 -0.58669627489E+02 -0.31642913982E+02 -0.38866834970E+03  0.40259005764E+03  0.81069533495E+02 0.  0.
         13    1    4    4    0    0 -0.59207011384E+02 -0.32958735691E+02 -0.15800648375E+03  0.17192381267E+03  0.00000000000E+00 0. -1.
        -14    1    4    4    0    0  0.53738389586E+00  0.13158217083E+01 -0.23066186594E+03  0.23066624497E+03  0.00000000000E+00 0.  1.
        -13    1    3    3    0    0 -0.80744454947E+01  0.54236286972E+02 -0.11711126850E+03  0.12931287911E+03  0.00000000000E+00 0.  1.
         13    1    3    3    0    0  0.40990852455E+02  0.13461723952E+02 -0.10770367633E+02  0.44468739758E+02  0.00000000000E+00 0. -1.
          2    1    1    2  501    0  0.25753220529E+02 -0.36055096943E+02 -0.29945039538E+02  0.53478068178E+02  0.00000000000E+00 0. -1.
<scales pt_clust_5="13000.00000" pt_clust_6="13000.00000" pt_clust_7="13000.00000" pt_clust_8="13000.00000" pt_clust_9="44.30802"></scales>
<clustering>
<clus scale="   44.308">  2  9  1 -1</clus>
<clus scale="   81.070">  5  6 -1 -1</clus>
<clus scale="   90.442">  7  8 -1 -1</clus>
<clus scale="  107.279">  2  5  1 -1</clus>
<clus scale="   44.308">  2  5  1 -1</clus>
</clustering>
</event>
<event>
 9    1  0.6154639E-005  0.1052466E+03  0.7546771E-02  0.1282624E+00
         21   -1    0    0  501  502  0.00000000000E+00  0.00000000000E+00  0.30198617070E+03  0.30198617070E+03  0.00000000000E+00 0. -1.
         -2   -1    0    0    0  501 -0.00000000000E+00 -0.00000000000E+00 -0.99577514960E+02  0.99577514960E+02  0.00000000000E+00 0.  1.
        -24    2    1    2    0    0 -0.11725998028E+02  0.13130507094E+01 -0.55799169822E+02  0.99078247853E+02  0.81016842155E+02 0.  0.
         23    2    1    2    0    0  0.15947711286E+02 -0.25293129273E+02  0.11882973119E+03  0.16099649752E+03  0.10442842198E+03 0.  0.
         13    1    3    3    0    0  0.25287468324E+02 -0.21996731557E+01  0.67931251054E+01  0.26276247162E+02  0.00000000000E+00 0. -1.
        -14    1    3    3    0    0 -0.37013466352E+02  0.35127238651E+01 -0.62592294927E+02  0.72802000691E+02  0.00000000000E+00 0.  1.
        -11    1    4    4    0    0 -0.43577433468E+02 -0.20113324208E+02  0.42873831674E+02  0.64356071670E+02  0.00000000000E+00 0.  1.
         11    1    4    4    0    0  0.59525144754E+02 -0.51798050654E+01  0.75955899511E+02  0.96640425853E+02  0.00000000000E+00 0. -1.
         -1    1    1    2    0  502 -0.42217132583E+01  0.23980078564E+02  0.13937809438E+03  0.14148894029E+03  0.00000000000E+00 0.  1.
<scales pt_clust_5="13000.00000" pt_clust_6="13000.00000" pt_clust_7="13000.00000" pt_clust_8="13000.00000" pt_clust_9="24.34886"></scales>
<clustering>
<clus scale="   24.349">  1  9  2 -1</clus>
<clus scale="   81.017">  5  6 -1 -1</clus>
<clus scale="   82.069">  2  5  1 -1</clus>
<clus scale="  104.428">  7  8 -1 -1</clus>
<clus scale="   24.349">  1  5  2 -1</clus>
</clustering>
</event>
<event>
 9    1  0.4731329E-005  0.9495981E+02  0.7546771E-02  0.1295561E+00
         21   -1    0    0  501  502  0.00000000000E+00  0.00000000000E+00  0.16372864561E+03  0.16372864561E+03  0.00000000000E+00 0.  1.
          1   -1    0    0  502    0 -0.00000000000E+00 -0.00000000000E+00 -0.14793321635E+03  0.14793321635E+03  0.00000000000E+00 0. -1.
        -24    2    1    2    0    0 -0.19089298628E+01 -0.17987543915E+02 -0.75838292343E+02  0.11393222294E+03  0.83077729203E+02 0.  0.
         23    2    1    2    0    0  0.21247666973E+02  0.59074949023E+02  0.18856583976E+02  0.11194692880E+03  0.90748174383E+02 0.  0.
         11    1    3    3    0    0  0.32306896525E+02 -0.34298174198E+02 -0.41681435233E+02  0.62908205820E+02  0.00000000000E+00 0. -1.
        -12    1    3    3    0    0 -0.34215826388E+02  0.16310630283E+02 -0.34156857109E+02  0.51024017121E+02  0.00000000000E+00 0.  1.
        -13    1    4    4    0    0 -0.46421930493E+01  0.72884256478E+02 -0.62912985254E+01  0.73302423124E+02  0.00000000000E+00 0.  1.
         13    1    4    4    0    0  0.25889860022E+02 -0.13809307455E+02  0.25147882501E+02  0.38644505672E+02  0.00000000000E+00 0. -1.
          2    1    1    2  501    0 -0.19338737110E+02 -0.41087405107E+02  0.72777137624E+02  0.85782710217E+02  0.00000000000E+00 0. -1.
<scales pt_clust_5="13000.00000" pt_clust_6="13000.00000" pt_clust_7="13000.00000" pt_clust_8="13000.00000" pt_clust_9="45.41103"></scales>
<clustering>
<clus scale="   45.411">  1  9  2 -1</clus>
<clus scale="   83.078">  5  6 -1 -1</clus>
<clus scale="   87.659">  2  5  1 -1</clus>
<clus scale="   90.748">  7  8 -1 -1</clus>
<clus scale="   45.411">  1  5  2 -1</clus>
</clustering>
</event>
<event>
 9    1  0.4731329E-005  0.1126230E+03  0.7546771E-02  0.1259661E+00
         21   -1    0    0  501  502  0.00000000000E+00  0.00000000000E+00  0.52549592706E+02  0.52549592706E+02  0.00000000000E+00 0.  1.
          1   -1    0    0  502    0 -0.00000000000E+00 -0.00000000000E+00 -0.53368654276E+03  0.53368654276E+03  0.00000000000E+00 0. -1.
         23    2    1    2    0    0 -0.30374183411E+01  0.71538697501E+02 -0.41623500882E+03  0.43180848405E+03  0.89888671011E+02 0.  0.
        -24    2    1    2    0    0 -0.55779273333E+01 -0.47815234049E+02 -0.90980761121E+01  0.93181441238E+02  0.79262829382E+02 0.  0.
         13    1    4    4    0    0 -0.24826803199E+02  0.11815745534E+02 -0.12970913760E+02  0.30401095431E+02  0.00000000000E+00 0. -1.
        -14    1    4    4    0    0  0.19248875866E+02 -0.59630979583E+02  0.38728376484E+01  0.62780345807E+02  0.00000000000E+00 0.  1.
        -13    1    3    3    0    0  0.39151528591E+02  0.24860756986E+02 -0.24565669226E+03  0.24999621973E+03  0.00000000000E+00 0.  1.
         13    1    3    3    0    0 -0.42188946932E+02  0.46677940515E+02 -0.17057831656E+03  0.18181226432E+03  0.00000000000E+00 0. -1.
          2    1    1    2  501    0  0.86153456744E+01 -0.23723463452E+02 -0.55803865120E+02  0.61246210182E+02  0.00000000000E+00 0. -1.
<scales pt_clust_5="13000.00000" pt_clust_6="13000.00000" pt_clust_7="13000.00000" pt_clust_8="13000.00000" pt_clust_9="25.23940"></scales>
<clustering>
<clus scale="   25.239">  1  9  2 -1</clus>
<clus scale="   79.263">  5  6 -1 -1</clus>
<clus scale="   89.889">  7  8 -1 -1</clus>
<clus scale="  104.339">  1  5  2 -1</clus>
<clus scale="   25.239">  1  5  2 -1</clus>
</clustering>
</event>
<event>
 9    1  0.4731329E-005  0.9255591E+02  0.7546771E-02  0.1301410E+00
          1   -1    0    0  502    0 -0.00000000000E+00  0.00000000000E+00  0.69362038760E+02  0.69362038760E+02  0.00000000000E+00 0. -1.
         21   -1    0    0  501  502  0.00000000000E+00 -0.00000000000E+00 -0.23071290904E+03  0.23071290904E+03  0.00000000000E+00 0.  1.
         23    2    1    2    0    0 -0.25707150586E+02 -0.77746899223E+01  0.82468728497E+01  0.94448691775E+02  0.90173394478E+02 0.  0.
        -24    2    1    2    0    0  0.79013342648E+01 -0.50398123468E+01 -0.87029349335E+02  0.12019325176E+03  0.82367950880E+02 0.  0.
         11    1    4    4    0    0 -0.33373935845E+02 -0.19980122083E+02 -0.37865237477E+02  0.54284446036E+02  0.00000000000E+00 0. -1.
        -12    1    4    4    0    0  0.41275270110E+02  0.14940309736E+02 -0.49164111858E+02  0.65908805727E+02  0.00000000000E+00 0.  1.
        -11    1    3    3    0    0 -0.49724975440E+02 -0.31765821529E+02 -0.18407710500E+01  0.59034134515E+02  0.00000000000E+00 0. -1.
         11    1    3    3    0    0  0.24017824854E+02  0.23991131606E+02  0.10087643900E+02  0.35414557260E+02  0.00000000000E+00 0.  1.
          2    1    1    2  501    0  0.17805816321E+02  0.12814502269E+02 -0.82568393796E+02  0.85433004263E+02  0.00000000000E+00 0. -1.
<scales pt_clust_5="13000.00000" pt_clust_6="13000.00000" pt_clust_7="13000.00000" pt_clust_8="13000.00000" pt_clust_9="21.93761"></scales>
<clustering>
<clus scale="   21.938">  2  9  1 -1</clus>
<clus scale="   82.368">  5  6 -1 -1</clus>
<clus scale="   84.970">  2  5  1 -1</clus>
<clus scale="   90.173">  7  8 -1 -1</clus>
<clus scale="   21.938">  2  5  1 -1</clus>
</clustering>
</event>
<event>
 9    1  0.4731329E-005  0.9728516E+02  0.7546771E-02  0.1292626E+00
          3   -1    0    0  502    0 -0.00000000000E+00  0.00000000000E+00  0.75426522244E+02  0.75426522244E+02  0.00000000000E+00 0. -1.
         21   -1    0    0  501  502  0.00000000000E+00 -0.00000000000E+00 -0.15488341683E+03  0.15488341683E+03  0.00000000000E+00 0.  1.
         23    2    1    2    0    0  0.18117903699E+02 -0.24826738441E+02 -0.18120052655E+02  0.99542537141E+02  0.92928763126E+02 0.  0.
        -24    2    1    2    0    0  0.20423004253E+01  0.30198263914E+02 -0.66598189399E+02  0.10925068997E+03  0.81143627561E+02 0.  0.
         11    1    4    4    0    0  0.68705683293E+01 -0.20759449961E+02  0.38167563362E+01  0.22197457079E+02  0.00000000000E+00 0. -1.
        -12    1    4    4    0    0 -0.48282679040E+01  0.50957713875E+02 -0.70414945735E+02  0.87053232894E+02  0.00000000000E+00 0.  1.
        -13    1    3    3    0    0 -0.30789004423E+02 -0.29994846232E+02  0.82055381154E+01  0.43760535298E+02  0.00000000000E+00 0.  1.
         13    1    3    3    0    0  0.48906908122E+02  0.51681077910E+01 -0.26325590770E+02  0.55782001843E+02  0.00000000000E+00 0. -1.
          4    1    1    2  501    0 -0.20160204125E+02 -0.53715254735E+01  0.52613474703E+01  0.21516711957E+02  0.00000000000E+00 0. -1.
<scales pt_clust_5="13000.00000" pt_clust_6="13000.00000" pt_clust_7="13000.00000" pt_clust_8="13000.00000" pt_clust_9="20.86355"></scales>
<clustering>
<clus scale="   20.864">  2  9  1 -1</clus>
<clus scale="   81.144">  5  6 -1 -1</clus>
<clus scale="   86.098">  2  5  1 -1</clus>
<clus scale="   92.929">  7  8 -1 -1</clus>
<clus scale="   20.864">  2  5  1 -1</clus>
</clustering>
</event>
<event>
 9    1  0.4731329E-005  0.1504050E+03  0.7546771E-02  0.1201664E+00
         21   -1    0    0  501  502  0.00000000000E+00  0.00000000000E+00  0.36357599591E+02  0.36357599591E+02  0.00000000000E+00 0. -1.
          1   -1    0    0  502    0 -0.00000000000E+00 -0.00000000000E+00 -0.14362151249E+04  0.14362151249E+04  0.00000000000E+00 0. -1.
         23    2    1    2    0    0  0.14560433062E+03  0.28408918432E+02 -0.83671562221E+03  0.85448353655E+03  0.89673820300E+02 0.  0.
        -24    2    1    2    0    0 -0.80846282278E+02  0.72094335848E+02 -0.31528340428E+03  0.34290135321E+03  0.80274518986E+02 0.  0.
         13    1    4    4    0    0 -0.44804892139E+02  0.79889714596E+02 -0.26614458993E+03  0.28146542879E+03  0.00000000000E+00 0. -1.
        -14    1    4    4    0    0 -0.36041390139E+02 -0.77953787479E+01 -0.49138814358E+02  0.61435924421E+02  0.00000000000E+00 0.  1.
        -13    1    3    3    0    0  0.12611105063E+03 -0.10915559438E+01 -0.75478186482E+03  0.76524561550E+03  0.00000000000E+00 0. -1.
         13    1    3    3    0    0  0.19493279989E+02  0.29500474376E+02 -0.81933757387E+02  0.89237921047E+02  0.00000000000E+00 0.  1.
          2    1    1    2  501    0 -0.64758048342E+02 -0.10050325428E+03 -0.24785849880E+03  0.27518783471E+03  0.00000000000E+00 0. -1.
<scales pt_clust_5="13000.00000" pt_clust_6="13000.00000" pt_clust_7="13000.00000" pt_clust_8="13000.00000" pt_clust_9="119.55965"></scales>
<clustering>
<clus scale="   80.275">  5  6 -1 -1</clus>
<clus scale="   89.674">  7  8 -1 -1</clus>
<clus scale="  119.560">  1  9  2 -1</clus>
<clus scale="  144.997">  1  5  2 -1</clus>
<clus scale="  119.560">  1  5  2 -1</clus>
</clustering>
</event>
<event>
 9    1  0.4731329E-005  0.1085527E+03  0.7546771E-02  0.1266633E+00
          1   -1    0    0  502    0 -0.00000000000E+00  0.00000000000E+00  0.12677813203E+03  0.12677813203E+03  0.00000000000E+00 0. -1.
         21   -1    0    0  501  502  0.00000000000E+00 -0.00000000000E+00 -0.16493725898E+03  0.16493725898E+03  0.00000000000E+00 0. -1.
         23    2    1    2    0    0  0.44677839167E+02  0.57407245926E+02  0.49589903664E+02  0.12591610323E+03  0.90022248966E+02 0.  0.
        -24    2    1    2    0    0 -0.10719008659E+02 -0.27464122832E+02 -0.83357728308E+02  0.12031218713E+03  0.81592501573E+02 0.  0.
         11    1    4    4    0    0  0.27338187122E+02 -0.36696086858E+02 -0.32512320946E+02  0.56134038507E+02  0.00000000000E+00 0. -1.
        -12    1    4    4    0    0 -0.38057195781E+02  0.92319640263E+01 -0.50845407362E+02  0.64178148620E+02  0.00000000000E+00 0.  1.
        -13    1    3    3    0    0  0.89949087536E+01  0.47664856433E+02 -0.15608845761E+02  0.50955696328E+02  0.00000000000E+00 0.  1.
         13    1    3    3    0    0  0.35682930414E+02  0.97423894930E+01  0.65198749424E+02  0.74960406899E+02  0.00000000000E+00 0. -1.
          2    1    1    2  501    0 -0.33958830508E+02 -0.29943123095E+02 -0.43913023026E+01  0.45487100656E+02  0.00000000000E+00 0. -1.
<scales pt_clust_5="13000.00000" pt_clust_6="13000.00000" pt_clust_7="13000.00000" pt_clust_8="13000.00000" pt_clust_9="45.27466"></scales>
<clustering>
<clus scale="   45.275">  2  9  1 -1</clus>
<clus scale="   81.593">  5  6 -1 -1</clus>
<clus scale="   90.022">  7  8 -1 -1</clus>
<clus scale="  101.671">  2  5  1 -1</clus>
<clus scale="   45.275">  2  5  1 -1</clus>
</clustering>
</event>
<event>
 9    1  0.4731329E-005  0.1672646E+03  0.7546771E-02  0.1182145E+00
         21   -1    0    0  501  502  0.00000000000E+00  0.00000000000E+00  0.56167917923E+03  0.56167917923E+03  0.00000000000E+00 0. -1.
          1   -1    0    0  502    0 -0.00000000000E+00 -0.00000000000E+00 -0.15178507328E+03  0.15178507328E+03  0.00000000000E+00 0. -1.
         23    2    1    2    0    0 -0.10590353102E+03  0.10190354805E+03 -0.36181650967E+02  0.17650651827E+03  0.90805000621E+02 0.  0.
        -24    2    1    2    0    0  0.37770074203E+01 -0.15382679716E+03  0.19641358907E+03  0.26226327001E+03  0.80788461550E+02 0.  0.
         13    1    4    4    0    0 -0.23546932548E+02 -0.46815552303E+02  0.11064270349E+03  0.12242533155E+03  0.00000000000E+00 0. -1.
        -14    1    4    4    0    0  0.27323939969E+02 -0.10701124485E+03  0.85770885575E+02  0.13983793846E+03  0.00000000000E+00 0.  1.
        -13    1    3    3    0    0  0.26022936760E+01  0.47196025326E+02  0.64978227535E+01  0.47712246222E+02  0.00000000000E+00 0.  1.
         13    1    3    3    0    0 -0.10850582470E+03  0.54707522720E+02 -0.42679473721E+02  0.12879427205E+03  0.00000000000E+00 0. -1.
          2    1    1    2  501    0  0.10212652360E+03  0.51923249111E+02  0.24966216785E+03  0.27469446422E+03  0.00000000000E+00 0. -1.
<scales pt_clust_5="13000.00000" pt_clust_6="13000.00000" pt_clust_7="13000.00000" pt_clust_8="13000.00000" pt_clust_9="114.56810"></scales>
<clustering>
<clus scale="   80.788">  5  6 -1 -1</clus>
<clus scale="   90.805">  7  8 -1 -1</clus>
<clus scale="  114.568">  1  9  2 -1</clus>
<clus scale="  162.045">  1  5  2 -1</clus>
<clus scale="  114.568">  1  5  2 -1</clus>
</clustering>
</event>
<event>
 9    1  0.4731329E-005  0.1256325E+03  0.7546771E-02  0.1238489E+00
          3   -1    0    0  502    0 -0.00000000000E+00  0.00000000000E+00  0.14770802673E+03  0.14770802673E+03  0.00000000000E+00 0. -1.
         21   -1    0    0  501  502  0.00000000000E+00 -0.00000000000E+00 -0.19968568170E+03  0.19968568170E+03  0.00000000000E+00 0.  1.
         23    2    1    2    0    0  0.33918425740E+02 -0.48102612237E+02 -0.55525781493E+02  0.12058005358E+03  0.89398635344E+02 0.  0.
        -24    2    1    2    0    0 -0.10374645011E+03  0.63526622057E+02 -0.33911465267E+02  0.14608525784E+03  0.73429949347E+02 0.  0.
         11    1    4    4    0    0 -0.19132367669E+02 -0.14831967943E+02 -0.16875955943E+02  0.29509873851E+02  0.00000000000E+00 0. -1.
        -12    1    4    4    0    0 -0.84614082443E+02  0.78358590000E+02 -0.17035509324E+02  0.11657538399E+03  0.00000000000E+00 0.  1.
        -11    1    3    3    0    0  0.51295765258E+02  0.45178291287E+01 -0.29656386979E+02  0.59423628315E+02  0.00000000000E+00 0.  1.
         11    1    3    3    0    0 -0.17377339518E+02 -0.52620441366E+02 -0.25869394514E+02  0.61156425262E+02  0.00000000000E+00 0. -1.
          4    1    1    2  501    0  0.69828024372E+02 -0.15424009820E+02  0.37459591789E+02  0.80728397009E+02  0.00000000000E+00 0. -1.
<scales pt_clust_5="13000.00000" pt_clust_6="13000.00000" pt_clust_7="13000.00000" pt_clust_8="13000.00000" pt_clust_9="71.51125"></scales>
<clustering>
<clus scale="   71.511">  2  9  1 -1</clus>
<clus scale="   73.430">  5  6 -1 -1</clus>
<clus scale="   89.399">  7  8 -1 -1</clus>
<clus scale="  114.819">  2  5  1 -1</clus>
<clus scale="   71.511">  2  5  1 -1</clus>
</clustering>
</event>
<event>
 9    1  0.4731329E-005  0.1056946E+03  0.7546771E-02  0.1273603E+00
         21   -1    0    0  501  502  0.00000000000E+00  0.00000000000E+00  0.84928875750E+02  0.84928875750E+02  0.00000000000E+00 0. -1.
          1   -1    0    0  502    0 -0.00000000000E+00 -0.00000000000E+00 -0.18981847358E+03  0.18981847358E+03  0.00000000000E+00 0. -1.
         23    2    1    2    0    0 -0.41384090771E+02 -0.48815252574E+02 -0.81566494440E+02  0.13831941071E+03  0.91561970876E+02 0.  0.
        -24    2    1    2    0    0  0.18316092612E+02  0.38503254263E+02 -0.46391322844E+02  0.10221372232E+03  0.80482981791E+02 0.  0.
         13    1    4    4    0    0 -0.14987685385E+02 -0.14806320114E+02 -0.31030451755E+02  0.37506622943E+02  0.00000000000E+00 0. -1.
        -14    1    4    4    0    0  0.33303777996E+02  0.53309574377E+02 -0.15360871089E+02  0.64707099377E+02  0.00000000000E+00 0.  1.
        -13    1    3    3    0    0 -0.12590356389E+02 -0.29444907671E+02  0.15251384773E+02  0.35470049327E+02  0.00000000000E+00 0. -1.
         13    1    3    3    0    0 -0.28793734381E+02 -0.19370344903E+02 -0.96817879212E+02  0.10284936138E+03  0.00000000000E+00 0.  1.
          2    1    1    2  501    0  0.23067998159E+02  0.10311998311E+02  0.23068219454E+02  0.34214216300E+02  0.00000000000E+00 0. -1.
<scales pt_clust_5="13000.00000" pt_clust_6="13000.00000" pt_clust_7="13000.00000" pt_clust_8="13000.00000" pt_clust_9="25.26796"></scales>
<clustering>
<clus scale="   25.268">  1  9  2 -1</clus>
<clus scale="   80.483">  5  6 -1 -1</clus>
<clus scale="   91.562">  7  8 -1 -1</clus>
<clus scale="   96.256">  1  5  2 -1</clus>
<clus scale="   25.268">  1  5  2 -1</clus>
</clustering>
</event>
<event>
 9    1  0.4731329E-005  0.9283451E+02  0.7546771E-02  0.1303177E+00
         21   -1    0    0  501  502  0.00000000000E+00  0.00000000000E+00  0.20062498120E+02  0.20062498120E+02  0.00000000000E+00 0. -1.
          1   -1    0    0  502    0 -0.00000000000E+00 -0.00000000000E+00 -0.79673654245E+03  0.79673654245E+03  0.00000000000E+00 0. -1.
         23    2    1    2    0    0 -0.13547784976E+02 -0.93249045286E-01 -0.39599398905E+03  0.40666063538E+03  0.91531862382E+02 0.  0.
        -24    2    1    2    0    0 -0.25147281775E+02  0.43204712532E+02 -0.22238627901E+03  0.24157735963E+03  0.80030810487E+02 0.  0.
         11    1    4    4    0    0 -0.54009514677E+02  0.31769967170E+02 -0.16157927462E+03  0.17330383861E+03  0.00000000000E+00 0. -1.
        -12    1    4    4    0    0  0.28862232901E+02  0.11434745361E+02 -0.60807004392E+02  0.68273521021E+02  0.00000000000E+00 0.  1.
        -11    1    3    3    0    0  0.37458175769E+02  0.13315012476E+02 -0.16461464254E+03  0.16934693687E+03  0.00000000000E+00 0. -1.
         11    1    3    3    0    0 -0.51005960745E+02 -0.13408261521E+02 -0.23137934652E+03  0.23731369852E+03  0.00000000000E+00 0.  1.
          2    1    1    2  501    0  0.38695066751E+02 -0.43111463486E+02 -0.15829377627E+03  0.16856104556E+03  0.00000000000E+00 0. -1.
<scales pt_clust_5="13000.00000" pt_clust_6="13000.00000" pt_clust_7="13000.00000" pt_clust_8="13000.00000" pt_clust_9="57.93019"></scales>
<clustering>
<clus scale="   57.930">  1  9  2 -1</clus>
<clus scale="   80.031">  5  6 -1 -1</clus>
<clus scale="   81.517">  1  5  2 -1</clus>
<clus scale="   91.532">  7  8 -1 -1</clus>
<clus scale="   57.930">  1  5  2 -1</clus>
</clustering>
</event>
<event>
 9    1  0.4731329E-005  0.1606219E+03  0.7546771E-02  0.1194843E+00
          1   -1    0    0  502    0 -0.00000000000E+00  0.00000000000E+00  0.10162374959E+03  0.10162374959E+03  0.00000000000E+00 0. -1.
         21   -1    0    0  501  502  0.00000000000E+00 -0.00000000000E+00 -0.40711803321E+03  0.40711803321E+03  0.00000000000E+00 0.  1.
         23    2    1    2    0    0  0.11194990797E+03 -0.82311718491E+01 -0.56551365463E+02  0.17092495701E+03  0.11583069502E+03 0.  0.
        -24    2    1    2    0    0 -0.10551185205E+03  0.39098932033E+02 -0.69311622707E+02  0.15543900508E+03  0.81827292814E+02 0.  0.
         13    1    4    4    0    0 -0.63773641075E+02  0.12178384304E+01  0.28787787463E+01  0.63850198069E+02  0.00000000000E+00 0. -1.
        -14    1    4    4    0    0 -0.41738210976E+02  0.37881093602E+02 -0.72190401454E+02  0.91588807013E+02  0.00000000000E+00 0.  1.
        -11    1    3    3    0    0  0.37338356745E+02 -0.31645410256E+02 -0.75950776360E+02  0.90355438710E+02  0.00000000000E+00 0.  1.
         11    1    3    3    0    0  0.74611551221E+02  0.23414238407E+02  0.19399410898E+02  0.80569518299E+02  0.00000000000E+00 0. -1.
          2    1    1    2  501    0 -0.64380559160E+01 -0.30867760184E+02 -0.17963129545E+03  0.18237782071E+03  0.00000000000E+00 0. -1.
<scales pt_clust_5="13000.00000" pt_clust_6="13000.00000" pt_clust_7="13000.00000" pt_clust_8="13000.00000" pt_clust_9="31.53200"></scales>
<clustering>
<clus scale="   31.532">  2  9  1 -1</clus>
<clus scale="   81.827">  5  6 -1 -1</clus>
<clus scale="  115.831">  7  8 -1 -1</clus>
<clus scale="  138.124">  2  5  1 -1</clus>
<clus scale="   31.532">  2  5  1 -1</clus>
</clustering>
</event>
<event>
 9    1  0.4731329E-005  0.9369374E+02  0.7546771E-02  0.1299126E+00
          1   -1    0    0  502    0 -0.00000000000E+00  0.00000000000E+00  0.27623743631E+03  0.27623743631E+03  0.00000000000E+00 0. -1.
         21   -1    0    0  501  502  0.00000000000E+00 -0.00000000000E+00 -0.16630242312E+03  0.16630242312E+03  0.00000000000E+00 0. -1.
         23    2    1    2    0    0 -0.10328976621E+02  0.25356141432E+02  0.20953742836E+03  0.23033209664E+03  0.91636887725E+02 0.  0.
        -24    2    1    2    0    0 -0.47843974326E+02  0.37210729771E+02 -0.64514590659E+02  0.11985051607E+03  0.80798078591E+02 0.  0.
         13    1    4    4    0    0 -0.51671561550E+01  0.22918096638E+02  0.15430304516E+02  0.28107524859E+02  0.00000000000E+00 0. -1.
        -14    1    4    4    0    0 -0.42676818171E+02  0.14292633133E+02 -0.79944895175E+02  0.91742991207E+02  0.00000000000E+00 0.  1.
        -13    1    3    3    0    0 -0.47959834956E+02 -0.33366142476E+01  0.11378062075E+03  0.12352047774E+03  0.00000000000E+00 0. -1.
         13    1    3    3    0    0  0.37630858335E+02  0.28692755680E+02  0.95756807616E+02  0.10681161890E+03  0.00000000000E+00 0.  1.
          2    1    1    2  501    0  0.58172950947E+02 -0.62566871203E+02 -0.35087824508E+02  0.92357246726E+02  0.00000000000E+00 0. -1.
<scales pt_clust_5="13000.00000" pt_clust_6="13000.00000" pt_clust_7="13000.00000" pt_clust_8="13000.00000" pt_clust_9="85.43246"></scales>
<clustering>
<clus scale="   80.798">  5  6 -1 -1</clus>
<clus scale="   85.432">  2  9  1 -1</clus>
<clus scale="   85.432">  2  5  1 -1</clus>
<clus scale="   91.637">  7  8 -1 -1</clus>
<clus scale="   85.432">  2  5  1 -1</clus>
</clustering>
</event>
<event>
 9    1  0.4731329E-005  0.1635143E+03  0.7546771E-02  0.1216553E+00
          1   -1    0    0  502    0 -0.00000000000E+00  0.00000000000E+00  0.28996728199E+03  0.28996728199E+03  0.00000000000E+00 0. -1.
         21   -1    0    0  501  502  0.00000000000E+00 -0.00000000000E+00 -0.23075687786E+03  0.23075687786E+03  0.00000000000E+00 0. -1.
        -24    2    1    2    0    0 -0.15287048462E+02  0.16882367235E+02  0.88554757990E+02  0.12073879389E+03  0.78849242308E+02 0.  0.
         23    2    1    2    0    0 -0.94498204097E+02  0.68161656675E+02  0.12399420467E+03  0.19310858811E+03  0.91326020344E+02 0.  0.
         11    1    3    3    0    0 -0.33434518123E+02  0.14556836837E+02  0.94668100661E+02  0.10144859676E+03  0.00000000000E+00 0. -1.
        -12    1    3    3    0    0  0.18147469662E+02  0.23255303979E+01 -0.61133426713E+01  0.19290197132E+02  0.00000000000E+00 0.  1.
        -11    1    4    4    0    0 -0.10513624484E+03  0.46715994909E+02  0.12402527081E+03  0.16916938836E+03  0.00000000000E+00 0. -1.
         11    1    4    4    0    0  0.10638040744E+02  0.21445661766E+02 -0.31066139348E-01  0.23939199748E+02  0.00000000000E+00 0.  1.
          2    1    1    2  501    0  0.10978525256E+03 -0.85044023910E+02 -0.15333855853E+03  0.20687677785E+03  0.00000000000E+00 0. -1.
<scales pt_clust_5="13000.00000" pt_clust_6="13000.00000" pt_clust_7="13000.00000" pt_clust_8="13000.00000" pt_clust_9="135.63362"></scales>
<clustering>
<clus scale="   78.849">  5  6 -1 -1</clus>
<clus scale="   82.073">  1  5  2 -1</clus>
<clus scale="   91.326">  7  8 -1 -1</clus>
<clus scale="  135.634">  2  9  1 -1</clus>
<clus scale="  135.634">  2  5  1 -1</clus>
</clustering>
</event>
<event>
 9    1  0.4731329E-005  0.1018088E+03  0.7546771E-02  0.1281950E+00
          3   -1    0    0  502    0 -0.00000000000E+00  0.00000000000E+00  0.12342821895E+03  0.12342821895E+03  0.00000000000E+00 0. -1.
         21   -1    0    0  501  502  0.00000000000E+00 -0.00000000000E+00 -0.13874828703E+03  0.13874828703E+03  0.00000000000E+00 0. -1.
         23    2    1    2    0    0 -0.39595468970E+02 -0.26395231947E+02  0.27275172411E+02  0.10683200393E+03  0.91676783325E+02 0.  0.
        -24    2    1    2    0    0  0.50351332797E+02 -0.23953049990E+02 -0.29119865173E+02  0.10212586019E+03  0.80453212829E+02 0.  0.
         13    1    4    4    0    0 -0.14457539118E+01 -0.38537320716E+02 -0.29104920116E+02  0.48314714811E+02  0.00000000000E+00 0. -1.
        -14    1    4    4    0    0  0.51797086709E+02  0.14584270725E+02 -0.14945056982E-01  0.53811145384E+02  0.00000000000E+00 0.  1.
        -11    1    3    3    0    0  0.28290138359E+02 -0.51956053165E+01 -0.41839141244E+01  0.29065983217E+02  0.00000000000E+00 0.  1.
         11    1    3    3    0    0 -0.67885607329E+02 -0.21199626630E+02  0.31459086535E+02  0.77766020711E+02  0.00000000000E+00 0. -1.
          4    1    1    2  501    0 -0.10755863827E+02  0.50348281937E+02 -0.13475375325E+02  0.53218641855E+02  0.00000000000E+00 0. -1.
<scales pt_clust_5="13000.00000" pt_clust_6="13000.00000" pt_clust_7="13000.00000" pt_clust_8="13000.00000" pt_clust_9="51.48435"></scales>
<clustering>
<clus scale="   51.484">  2  9  1 -1</clus>
<clus scale="   80.453">  5  6 -1 -1</clus>
<clus scale="   91.677">  7  8 -1 -1</clus>
<clus scale="   91.832">  2  5  1 -1</clus>
<clus scale="   51.484">  2  5  1 -1</clus>
</clustering>
</event>
<event>
 9    1  0.4731329E-005  0.1581312E+03  0.7546771E-02  0.1214410E+00
         -2   -1    0    0    0  501 -0.00000000000E+00  0.00000000000E+00  0.24761042168E+03  0.24761042168E+03  0.00000000000E+00 0.  1.
         21   -1    0    0  501  502  0.00000000000E+00 -0.00000000000E+00 -0.16509480828E+03  0.16509480828E+03  0.00000000000E+00 0. -1.
         23    2    1    2    0    0 -0.43481376410E+02 -0.70430929024E+01 -0.53671795467E+01  0.95103042268E+02  0.84116269414E+02 0.  0.
        -24    2    1    2    0    0  0.14359544830E+03 -0.50891497320E+02 -0.24675572375E+00  0.17218533350E+03  0.80237964290E+02 0.  0.
         13    1    4    4    0    0  0.13097201243E+03 -0.12542695064E+02 -0.40501236163E+01  0.13163354717E+03  0.00000000000E+00 0. -1.
        -14    1    4    4    0    0  0.12623435873E+02 -0.38348802256E+02  0.38033678926E+01  0.40551786336E+02  0.00000000000E+00 0.  1.
        -13    1    3    3    0    0 -0.21238288984E+02 -0.41296986207E+02 -0.21520630684E+02  0.51182453378E+02  0.00000000000E+00 0.  1.
         13    1    3    3    0    0 -0.22243087426E+02  0.34253893305E+02  0.16153451137E+02  0.43920588890E+02  0.00000000000E+00 0. -1.
         -1    1    1    2    0  502 -0.10011407189E+03  0.57934590223E+02  0.88129548665E+02  0.14541685419E+03  0.00000000000E+00 0.  1.
<scales pt_clust_5="13000.00000" pt_clust_6="13000.00000" pt_clust_7="13000.00000" pt_clust_8="13000.00000" pt_clust_9="136.26214"></scales>
<clustering>
<clus scale="   80.238">  5  6 -1 -1</clus>
<clus scale="   84.116">  7  8 -1 -1</clus>
<clus scale="   94.952">  1  7  2 -1</clus>
<clus scale="  136.262">  2  9  1 -1</clus>
<clus scale="  136.262">  2  5  1 -1</clus>
</clustering>
</event>
<event>
 9    1  0.4731329E-005  0.8895233E+02  0.7546771E-02  0.1309513E+00
          1   -1    0    0  502    0 -0.00000000000E+00  0.00000000000E+00  0.12739827406E+03  0.12739827406E+03  0.00000000000E+00 0. -1.
         21   -1    0    0  501  502  0.00000000000E+00 -0.00000000000E+00 -0.91945331858E+02  0.91945331858E+02  0.00000000000E+00 0.  1.
         23    2    1    2    0    0  0.20384279177E+02  0.34356943576E+01  0.12209990311E+02  0.90730643583E+02  0.87496531293E+02 0.  0.
        -24    2    1    2    0    0 -0.44770889364E+01 -0.15618258288E+02 -0.16395580585E+02  0.84198248307E+02  0.80972561019E+02 0.  0.
         13    1    4    4    0    0  0.27823934485E+02 -0.13177836840E+02  0.19031440275E+02  0.36194232039E+02  0.00000000000E+00 0. -1.
        -14    1    4    4    0    0 -0.32301023421E+02 -0.24404214479E+01 -0.35427020859E+02  0.48004016268E+02  0.00000000000E+00 0.  1.
        -11    1    3    3    0    0  0.49905189075E+02  0.22518376410E+02  0.70532465318E+01  0.55202839233E+02  0.00000000000E+00 0. -1.
         11    1    3    3    0    0 -0.29520909898E+02 -0.19082682053E+02  0.51567437788E+01  0.35527804350E+02  0.00000000000E+00 0.  1.
          2    1    1    2  501    0 -0.15907190241E+02  0.12182563930E+02  0.39638532481E+02  0.44414714032E+02  0.00000000000E+00 0. -1.
<scales pt_clust_5="13000.00000" pt_clust_6="13000.00000" pt_clust_7="13000.00000" pt_clust_8="13000.00000" pt_clust_9="20.03632"></scales>
<clustering>
<clus scale="   20.036">  2  9  1 -1</clus>
<clus scale="   80.973">  5  6 -1 -1</clus>
<clus scale="   82.544">  2  5  1 -1</clus>
<clus scale="   87.497">  7  8 -1 -1</clus>
<clus scale="   20.036">  2  5  1 -1</clus>
</clustering>
</event>
<event>
 9    1  0.4731329E-005  0.9758604E+02  0.7546771E-02  0.1290357E+00
         21   -1    0    0  501  502  0.00000000000E+00  0.00000000000E+00  0.25909938312E+02  0.25909938312E+02  0.00000000000E+00 0. -1.
          1   -1    0    0  502    0 -0.00000000000E+00 -0.00000000000E+00 -0.55250072855E+03  0.55250072855E+03  0.00000000000E+00 0. -1.
        -24    2    1    2    0    0  0.21245602738E+02 -0.23800113026E+02 -0.36813006447E+03  0.37860694079E+03  0.82496364965E+02 0.  0.
         23    2    1    2    0    0 -0.39632883620E+02  0.14010830995E+02 -0.13090979325E+03  0.16526424108E+03  0.91694201350E+02 0.  0.
         11    1    3    3    0    0  0.18691317439E+02 -0.35019557363E+02 -0.71711103979E+02  0.81964731314E+02  0.00000000000E+00 0. -1.
        -12    1    3    3    0    0  0.25542852986E+01  0.11219444337E+02 -0.29641896049E+03  0.29664220948E+03  0.00000000000E+00 0.  1.
        -11    1    4    4    0    0 -0.65462218737E+02 -0.91751695639E+01 -0.83124466361E+02  0.10620340261E+03  0.00000000000E+00 0. -1.
         11    1    4    4    0    0  0.25829335116E+02  0.23186000559E+02 -0.47785326892E+02  0.59060838469E+02  0.00000000000E+00 0.  1.
          2    1    1    2  501    0  0.18387280883E+02  0.97892820306E+01 -0.27550932511E+02  0.34539484987E+02  0.00000000000E+00 0. -1.
<scales pt_clust_5="13000.00000" pt_clust_6="13000.00000" pt_clust_7="13000.00000" pt_clust_8="13000.00000" pt_clust_9="20.83080"></scales>
<clustering>
<clus scale="   20.831">  1  9  2 -1</clus>
<clus scale="   82.496">  5  6 -1 -1</clus>
<clus scale="   88.999">  2  5  1 -1</clus>
<clus scale="   91.694">  7  8 -1 -1</clus>
<clus scale="   20.831">  1  5  2 -1</clus>
</clustering>
</event>
<event>
 9    1  0.4731329E-005  0.1327036E+03  0.7546771E-02  0.1238745E+00
          1   -1    0    0  502    0 -0.00000000000E+00  0.00000000000E+00  0.11063277846E+04  0.11063277846E+04  0.00000000000E+00 0. -1.
         21   -1    0    0  501  502  0.00000000000E+00 -0.00000000000E+00 -0.41384096702E+02  0.41384096702E+02  0.00000000000E+00 0.  1.
         23    2    1    2    0    0 -0.16277898378E+02  0.33285788947E+02  0.32020999969E+03  0.33455564458E+03  0.89555132162E+02 0.  0.
        -24    2    1    2    0    0 -0.48595795653E+02  0.84975219665E+02  0.12281859481E+03  0.17678162556E+03  0.81147991917E+02 0.  0.
         13    1    4    4    0    0  0.19341712145E+02  0.89614502523E+01  0.68913759233E+01  0.22403135527E+02  0.00000000000E+00 0. -1.
        -14    1    4    4    0    0 -0.67937507797E+02  0.76013769412E+02  0.11592721888E+03  0.15437849003E+03  0.00000000000E+00 0.  1.
        -13    1    3    3    0    0  0.56166297300E+01  0.60251399052E+02  0.17214828958E+03  0.18247413850E+03  0.00000000000E+00 0.  1.
         13    1    3    3    0    0 -0.21894528108E+02 -0.26965610105E+02  0.14806171011E+03  0.15208150607E+03  0.00000000000E+00 0. -1.
          2    1    1    2  501    0  0.64873694031E+02 -0.11826100861E+03  0.62191509336E+03  0.63637461112E+03  0.00000000000E+00 0. -1.
<scales pt_clust_5="13000.00000" pt_clust_6="13000.00000" pt_clust_7="13000.00000" pt_clust_8="13000.00000" pt_clust_9="105.00129"></scales>
<clustering>
<clus scale="   81.148">  5  6 -1 -1</clus>
<clus scale="   89.555">  7  8 -1 -1</clus>
<clus scale="   96.918">  1  7  2 -1</clus>
<clus scale="  105.001">  2  9  1 -1</clus>
<clus scale="  105.001">  2  5  1 -1</clus>
</clustering>
</event>
<event>
 9    1  0.4731329E-005  0.9417983E+02  0.7546771E-02  0.1294768E+00
         -4   -1    0    0    0  501 -0.00000000000E+00  0.00000000000E+00  0.29690770918E+02  0.29690770918E+02  0.00000000000E+00 0.  1.
         21   -1    0    0  501  502  0.00000000000E+00 -0.00000000000E+00 -0.53510440604E+03  0.53510440604E+03  0.00000000000E+00 0.  1.
        -24    2    1    2    0    0 -0.13342440963E+02 -0.34151072118E+02 -0.13627166398E+03  0.16202716809E+03  0.79614824866E+02 0.  0.
         23    2    1    2    0    0 -0.31081682581E+01  0.80158976879E+02 -0.28150878574E+03  0.30243394173E+03  0.76052418622E+02 0.  0.
         11    1    3    3    0    0 -0.25390080691E+02  0.12611809905E+02 -0.16300424691E+02  0.32701953942E+02  0.00000000000E+00 0. -1.
        -12    1    3    3    0    0  0.12047639728E+02 -0.46762882023E+02 -0.11997123929E+03  0.12932521415E+03  0.00000000000E+00 0.  1.
        -13    1    4    4    0    0  0.17302851049E+02  0.22629975928E+02 -0.22420137611E+02  0.36251441840E+02  0.00000000000E+00 0.  1.
         13    1    4    4    0    0 -0.20411019307E+02  0.57529000950E+02 -0.25908864813E+03  0.26618249989E+03  0.00000000000E+00 0. -1.
         -3    1    1    2    0  502  0.16450609221E+02 -0.46007904761E+02 -0.87633185400E+02  0.10033406713E+03  0.00000000000E+00 0.  1.
<scales pt_clust_5="13000.00000" pt_clust_6="13000.00000" pt_clust_7="13000.00000" pt_clust_8="13000.00000" pt_clust_9="48.86054"></scales>
<clustering>
<clus scale="   48.861">  2  9  1 -1</clus>
<clus scale="   76.052">  7  8 -1 -1</clus>
<clus scale="   79.615">  5  6 -1 -1</clus>
<clus scale="   91.188">  2  7  1 -1</clus>
<clus scale="   48.861">  2  5  1 -1</clus>
</clustering>
</event>
<event>
 9    1  0.4731329E-005  0.1061045E+03  0.7546771E-02  0.1270909E+00
         -4   -1    0    0    0  501 -0.00000000000E+00  0.00000000000E+00  0.11380937456E+03  0.11380937456E+03  0.00000000000E+00 0.  1.
         21   -1    0    0  501  502  0.00000000000E+00 -0.00000000000E+00 -0.17328096385E+03  0.17328096385E+03  0.00000000000E+00 0. -1.
        -24    2    1    2    0    0 -0.78323429392E+02 -0.37801580897E+01 -0.17434455334E+01  0.11533450882E+03  0.84558619516E+02 0.  0.
         23    2    1    2    0    0  0.21486967495E+02 -0.25738572349E+02 -0.39958788702E+02  0.10529163753E+03  0.91462890076E+02 0.  0.
         13    1    3    3    0    0 -0.76794635105E+02  0.28781934978E+02 -0.70252379409E+01  0.82311419196E+02  0.00000000000E+00 0. -1.
        -14    1    3    3    0    0 -0.15287942867E+01 -0.32562093068E+02  0.52817924075E+01  0.33023089619E+02  0.00000000000E+00 0.  1.
        -11    1    4    4    0    0 -0.27397106363E+02 -0.13535234559E+02  0.12078988637E+02  0.32858879746E+02  0.00000000000E+00 0.  1.
         11    1    4    4    0    0  0.48884073858E+02 -0.12203337790E+02 -0.52037777339E+02  0.72432757786E+02  0.00000000000E+00 0. -1.
         -3    1    1    2    0  502  0.56836461897E+02  0.29518730439E+02 -0.17769355050E+02  0.66464192063E+02  0.00000000000E+00 0.  1.
<scales pt_clust_5="13000.00000" pt_clust_6="13000.00000" pt_clust_7="13000.00000" pt_clust_8="13000.00000" pt_clust_9="64.04482"></scales>
<clustering>
<clus scale="   64.045">  2  9  1 -1</clus>
<clus scale="   84.559">  5  6 -1 -1</clus>
<clus scale="   91.463">  7  8 -1 -1</clus>
<clus scale="  100.214">  1  5  2 -1</clus>
<clus scale="   64.045">  2  5  1 -1</clus>
</clustering>
</event>
<event>
 9    1  0.4731329E-005  0.1078273E+03  0.7546771E-02  0.1274158E+00
         -2   -1    0    0    0  501 -0.00000000000E+00  0.00000000000E+00  0.21731139288E+03  0.21731139288E+03  0.00000000000E+00 0.  1.
         21   -1    0    0  501  502  0.00000000000E+00 -0.00000000000E+00 -0.10848711040E+03  0.10848711040E+03  0.00000000000E+00 0.  1.
         23    2    1    2    0    0  0.34791914984E+02 -0.26364778564E+02  0.14625512760E+03  0.18261698955E+03  0.10026377026E+03 0.  0.
        -24    2    1    2    0    0  0.60281432367E+01  0.42373237352E+02 -0.39433889222E+02  0.99288916499E+02  0.80445183609E+02 0.  0.
         11    1    4    4    0    0 -0.29658132026E+02  0.42939978374E+02 -0.36072290167E+02  0.63440181714E+02  0.00000000000E+00 0. -1.
        -12    1    4    4    0    0  0.35686275262E+02 -0.56674102229E+00 -0.33615990541E+01  0.35848734785E+02  0.00000000000E+00 0.  1.
        -11    1    3    3    0    0  0.39408714976E+01  0.31922324790E+02  0.91209586761E+02  0.96714807580E+02  0.00000000000E+00 0.  1.
         11    1    3    3    0    0  0.30851043486E+02 -0.58287103353E+02  0.55045540834E+02  0.85902181970E+02  0.00000000000E+00 0. -1.
         -1    1    1    2    0  502 -0.40820058220E+02 -0.16008458788E+02  0.20030441075E+01  0.43892597230E+02  0.00000000000E+00 0.  1.
<scales pt_clust_5="13000.00000" pt_clust_6="13000.00000" pt_clust_7="13000.00000" pt_clust_8="13000.00000" pt_clust_9="43.84687"></scales>
<clustering>
<clus scale="   43.847">  2  9  1 -1</clus>
<clus scale="   80.445">  5  6 -1 -1</clus>
<clus scale="   89.696">  2  5  1 -1</clus>
<clus scale="  100.264">  7  8 -1 -1</clus>
<clus scale="   43.847">  2  5  1 -1</clus>
</clustering>
</event>
<event>
 9    1  0.4731329E-005  0.2503091E+03  0.7546771E-02  0.1113110E+00
         -2   -1    0    0    0  501 -0.00000000000E+00  0.00000000000E+00  0.94422022710E+03  0.94422022710E+03  0.00000000000E+00 0.  1.
         21   -1    0    0  501  502  0.00000000000E+00 -0.00000000000E+00 -0.55537177059E+02  0.55537177059E+02  0.00000000000E+00 0.  1.
        -24    2    1    2    0    0  0.15890334069E+02 -0.88033057501E+02  0.13365569497E+03  0.17978310307E+03  0.80347977090E+02 0.  0.
         23    2    1    2    0    0  0.74005098421E+02 -0.51512424137E+02  0.18022698643E+03  0.22168541266E+03  0.92370834762E+02 0.  0.
         11    1    3    3    0    0  0.44082093435E+02 -0.45481293548E+02  0.45753423206E+02  0.78135489756E+02  0.00000000000E+00 0. -1.
        -12    1    3    3    0    0 -0.28191759365E+02 -0.42551763953E+02  0.87902271760E+02  0.10164761331E+03  0.00000000000E+00 0.  1.
        -11    1    4    4    0    0  0.64133215952E+02 -0.77380801507E+02  0.12984788986E+03  0.16419906312E+03  0.00000000000E+00 0.  1.
         11    1    4    4    0    0  0.98718824697E+01  0.25868377370E+02  0.50379096577E+02  0.57486349538E+02  0.00000000000E+00 0. -1.
         -1    1    1    2    0  502 -0.89895432491E+02  0.13954548164E+03  0.57480036864E+03  0.59828888843E+03  0.00000000000E+00 0.  1.
<scales pt_clust_5="13000.00000" pt_clust_6="13000.00000" pt_clust_7="13000.00000" pt_clust_8="13000.00000" pt_clust_9="165.99445"></scales>
<clustering>
<clus scale="   80.348">  5  6 -1 -1</clus>
<clus scale="   92.371">  7  8 -1 -1</clus>
<clus scale="  116.367">  5  7 -1 -1</clus>
<clus scale="  165.994">  2  9  1 -1</clus>
<clus scale="  165.994">  2  5  1 -1</clus>
</clustering>
</event>
<event>
 9    1  0.4731329E-005  0.9044392E+02  0.7546771E-02  0.1305411E+00
         21   -1    0    0  501  502  0.00000000000E+00  0.00000000000E+00  0.17348358914E+03  0.17348358914E+03  0.00000000000E+00 0. -1.
         -4   -1    0    0    0  501 -0.00000000000E+00 -0.00000000000E+00 -0.10978650637E+03  0.10978650637E+03  0.00000000000E+00 0.  1.
         23    2    1    2    0    0  0.38105010625E+01  0.20967473135E+02 -0.53826819208E+02  0.10610283163E+03  0.88917543638E+02 0.  0.
        -24    2    1    2    0    0  0.16095933906E+02 -0.52717816787E+01  0.36424456743E+02  0.92198205378E+02  0.82987331898E+02 0.  0.
         11    1    4    4    0    0  0.47410826774E+02  0.72592279360E+00  0.37258089238E+02  0.60303222741E+02  0.00000000000E+00 0. -1.
        -12    1    4    4    0    0 -0.31314892868E+02 -0.59977044723E+01 -0.83363249492E+00  0.31894982637E+02  0.00000000000E+00 0.  1.
        -11    1    3    3    0    0  0.29782595656E+02  0.16710550236E+02  0.11209556135E+02  0.35943005466E+02  0.00000000000E+00 0. -1.
         11    1    3    3    0    0 -0.25972094594E+02  0.42569228986E+01 -0.65036375342E+02  0.70159826167E+02  0.00000000000E+00 0.  1.
         -3    1    1    2    0  502 -0.19906434969E+02 -0.15695691456E+02  0.81099445235E+02  0.84969058492E+02  0.00000000000E+00 0.  1.
<scales pt_clust_5="13000.00000" pt_clust_6="13000.00000" pt_clust_7="13000.00000" pt_clust_8="13000.00000" pt_clust_9="25.34997"></scales>
<clustering>
<clus scale="   25.350">  1  9  2 -1</clus>
<clus scale="   82.987">  5  6 -1 -1</clus>
<clus scale="   84.621">  1  5  2 -1</clus>
<clus scale="   88.918">  7  8 -1 -1</clus>
<clus scale="   25.350">  1  5  2 -1</clus>
</clustering>
</event>
<event>
 9    1  0.4731329E-005  0.1261670E+03  0.7546771E-02  0.1236302E+00
          1   -1    0    0  502    0 -0.00000000000E+00  0.00000000000E+00  0.97423846385E+02  0.97423846385E+02  0.00000000000E+00 0. -1.
         21   -1    0    0  501  502  0.00000000000E+00 -0.00000000000E+00 -0.36263085210E+03  0.36263085210E+03  0.00000000000E+00 0.  1.
        -24    2    1    2    0    0  0.76490576356E+02  0.34723790380E+02  0.25270825871E+02  0.11814095577E+03  0.79133563680E+02 0.  0.
         23    2    1    2    0    0 -0.92796318081E+02 -0.53230476786E+02 -0.17612560412E+03  0.22493166468E+03  0.90163102430E+02 0.  0.
         11    1    3    3    0    0  0.29837330945E+02 -0.38707538812E+01  0.45286642710E+02  0.54370295764E+02  0.00000000000E+00 0. -1.
        -12    1    3    3    0    0  0.46653245411E+02  0.38594544261E+02 -0.20015816838E+02  0.63770660007E+02  0.00000000000E+00 0.  1.
        -11    1    4    4    0    0 -0.58566381740E+02 -0.76080833149E+02 -0.10154333101E+03  0.13974749484E+03  0.00000000000E+00 0.  1.
         11    1    4    4    0    0 -0.34229936341E+02  0.22850356363E+02 -0.74582273113E+02  0.85184169835E+02  0.00000000000E+00 0. -1.
          2    1    1    2  501    0  0.16305741725E+02  0.18506686406E+02 -0.11435222747E+03  0.11698207804E+03  0.00000000000E+00 0. -1.
<scales pt_clust_5="13000.00000" pt_clust_6="13000.00000" pt_clust_7="13000.00000" pt_clust_8="13000.00000" pt_clust_9="24.66525"></scales>
<clustering>
<clus scale="   24.665">  2  9  1 -1</clus>
<clus scale="   79.134">  5  6 -1 -1</clus>
<clus scale="   90.163">  7  8 -1 -1</clus>
<clus scale="  118.536">  1  5  2 -1</clus>
<clus scale="   24.665">  2  5  1 -1</clus>
</clustering>
</event>
<event>
 9    1  0.4731329E-005  0.9223853E+02  0.7546771E-02  0.1304472E+00
          1   -1    0    0  502    0 -0.00000000000E+00  0.00000000000E+00  0.31018993984E+03  0.31018993984E+03  0.00000000000E+00 0. -1.
         21   -1    0    0  501  502  0.00000000000E+00 -0.00000000000E+00 -0.39027921952E+02  0.39027921952E+02  0.00000000000E+00 0. -1.
         23    2    1    2    0    0 -0.60207012253E+01 -0.96504808494E+01  0.16906406638E+03  0.19273082558E+03  0.91832085711E+02 0.  0.
        -24    2    1    2    0    0  0.11666557016E+02 -0.15413260210E+02  0.10107675363E+03  0.13077498362E+03  0.80696400620E+02 0.  0.
         13    1    4    4    0    0  0.26517114207E+02 -0.43206044598E+02  0.53446778165E+02  0.73664630128E+02  0.00000000000E+00 0. -1.
        -14    1    4    4    0    0 -0.14850557191E+02  0.27792784388E+02  0.47629975468E+02  0.57110353492E+02  0.00000000000E+00 0.  1.
        -13    1    3    3    0    0  0.40063453444E+02 -0.10168468573E+02  0.11197740422E+03  0.11936254484E+03  0.00000000000E+00 0.  1.
         13    1    3    3    0    0 -0.46084154669E+02  0.51798772367E+00  0.57086662156E+02  0.73368280742E+02  0.00000000000E+00 0. -1.
          2    1    1    2  501    0 -0.56458557910E+01  0.25063741059E+02  0.10211978835E+01  0.25712052594E+02  0.00000000000E+00 0. -1.
<scales pt_clust_5="13000.00000" pt_clust_6="13000.00000" pt_clust_7="13000.00000" pt_clust_8="13000.00000" pt_clust_9="25.69177"></scales>
<clustering>
<clus scale="   25.692">  2  9  1 -1</clus>
<clus scale="   80.696">  5  6 -1 -1</clus>
<clus scale="   81.159">  2  5  1 -1</clus>
<clus scale="   91.832">  7  8 -1 -1</clus>
<clus scale="   25.692">  2  5  1 -1</clus>
</clustering>
</event>
<event>
 9    1  0.4731329E-005  0.1541403E+03  0.7546771E-02  0.1211473E+00
          1   -1    0    0  502    0 -0.00000000000E+00  0.00000000000E+00  0.22474688002E+03  0.22474688002E+03  0.00000000000E+00 0. -1.
         21   -1    0    0  501  502  0.00000000000E+00 -0.00000000000E+00 -0.75307496572E+03  0.75307496572E+03  0.00000000000E+00 0. -1.
         23    2    1    2    0    0 -0.65698838352E+02 -0.13947482900E+02  0.17168847290E+03  0.20343087892E+03  0.86001867019E+02 0.  0.
        -24    2    1    2    0    0 -0.75483147016E+02 -0.16234318965E+02 -0.83845504181E+02  0.14153232348E+03  0.83905133472E+02 0.  0.
         11    1    4    4    0    0 -0.65362411937E+02 -0.32177301776E+02 -0.94908471057E+02  0.11964631846E+03  0.00000000000E+00 0. -1.
        -12    1    4    4    0    0 -0.10120735079E+02  0.15942982812E+02  0.11062966876E+02  0.21886005016E+02  0.00000000000E+00 0.  1.
        -13    1    3    3    0    0 -0.72224422909E+02  0.82762646782E+01  0.16338028577E+03  0.17882388431E+03  0.00000000000E+00 0. -1.
         13    1    3    3    0    0  0.65255845577E+01 -0.22223747578E+02  0.83081871298E+01  0.24606994607E+02  0.00000000000E+00 0.  1.
          2    1    1    2  501    0  0.14118198537E+03  0.30181801864E+02 -0.61617105441E+03  0.63285864334E+03  0.00000000000E+00 0. -1.
<scales pt_clust_5="13000.00000" pt_clust_6="13000.00000" pt_clust_7="13000.00000" pt_clust_8="13000.00000" pt_clust_9="129.30254"></scales>
<clustering>
<clus scale="   83.905">  5  6 -1 -1</clus>
<clus scale="   86.002">  7  8 -1 -1</clus>
<clus scale="  109.120">  1  7  2 -1</clus>
<clus scale="  129.303">  2  9  1 -1</clus>
<clus scale="  129.303">  2  5  1 -1</clus>
</clustering>
</event>
<event>
 9    1  0.4731329E-005  0.1249992E+03  0.7546771E-02  0.1242549E+00
         21   -1    0    0  501  502  0.00000000000E+00  0.00000000000E+00  0.44346640988E+03  0.44346640988E+03  0.00000000000E+00 0. -1.
         -2   -1    0    0    0  501 -0.00000000000E+00 -0.00000000000E+00 -0.91438504558E+02  0.91438504558E+02  0.00000000000E+00 0.  1.
        -24    2    1    2    0    0 -0.55874383695E+02 -0.38654763243E+02  0.23689022960E+03  0.26007975945E+03  0.83116562262E+02 0.  0.
         23    2    1    2    0    0 -0.15065848006E+02 -0.63966040655E+02  0.95644166341E+02  0.14855741257E+03  0.92751626082E+02 0.  0.
         11    1    3    3    0    0  0.23764679361E+01 -0.48037413165E+02  0.11534225934E+03  0.12496830579E+03  0.00000000000E+00 0. -1.
        -12    1    3    3    0    0 -0.58250851631E+02  0.93826499217E+01  0.12154797026E+03  0.13511145366E+03  0.00000000000E+00 0.  1.
        -13    1    4    4    0    0 -0.40850738205E+02 -0.34522367811E+01  0.62897684671E+02  0.75078755235E+02  0.00000000000E+00 0. -1.
         13    1    4    4    0    0  0.25784890199E+02 -0.60513803874E+02  0.32746481670E+02  0.73478657334E+02  0.00000000000E+00 0.  1.
         -1    1    1    2    0  502  0.70940231701E+02  0.10262080390E+03  0.19493509378E+02  0.12626774241E+03  0.00000000000E+00 0.  1.
<scales pt_clust_5="13000.00000" pt_clust_6="13000.00000" pt_clust_7="13000.00000" pt_clust_8="13000.00000" pt_clust_9="83.79709"></scales>
<clustering>
<clus scale="   83.117">  5  6 -1 -1</clus>
<clus scale="   92.752">  7  8 -1 -1</clus>
<clus scale="  107.352">  2  5  1 -1</clus>
<clus scale="   83.797">  1  9  2 -1</clus>
<clus scale="   83.797">  1  5  2 -1</clus>
</clustering>
</event>
<event>
 9    1  0.4731329E-005  0.1114724E+03  0.7546771E-02  0.1260707E+00
         21   -1    0    0  501  502  0.00000000000E+00  0.00000000000E+00  0.66775450166E+02  0.66775450166E+02  0.00000000000E+00 0.  1.
         -2   -1    0    0    0  501 -0.00000000000E+00 -0.00000000000E+00 -0.56321417046E+03  0.56321417046E+03  0.00000000000E+00 0.  1.
        -24    2    1    2    0    0 -0.28835403980E+02  0.45572748811E+02 -0.24612953651E+03  0.26477227500E+03  0.81340352294E+02 0.  0.
         23    2    1    2    0    0  0.27892897764E+02 -0.13380476351E+03 -0.10124875240E+03  0.19199844094E+03  0.89052585455E+02 0.  0.
         13    1    3    3    0    0 -0.57515314750E+02  0.29620095880E+02 -0.16834496992E+03  0.18034797034E+03  0.00000000000E+00 0. -1.
        -14    1    3    3    0    0  0.28679910770E+02  0.15952652932E+02 -0.77784566591E+02  0.84424304659E+02  0.00000000000E+00 0.  1.
        -13    1    4    4    0    0 -0.22107560270E+02 -0.56973172276E+02 -0.74799974789E+02  0.96590490261E+02  0.00000000000E+00 0. -1.
         13    1    4    4    0    0  0.50000458034E+02 -0.76831591233E+02 -0.26448777608E+02  0.95407950675E+02  0.00000000000E+00 0.  1.
         -1    1    1    2    0  502  0.94250621633E+00  0.88232014698E+02 -0.14906043139E+03  0.17321890469E+03  0.00000000000E+00 0.  1.
<scales pt_clust_5="13000.00000" pt_clust_6="13000.00000" pt_clust_7="13000.00000" pt_clust_8="13000.00000" pt_clust_9="88.23709"></scales>
<clustering>
<clus scale="   81.340">  5  6 -1 -1</clus>
<clus scale="   88.237">  1  9  2 -1</clus>
<clus scale="   89.053">  7  8 -1 -1</clus>
<clus scale="  105.413">  2  5  1 -1</clus>
<clus scale="   88.237">  1  5  2 -1</clus>
</clustering>
</event>
<event>
 9    1  0.4731329E-005  0.1028014E+03  0.7546771E-02  0.1280143E+00
         21   -1    0    0  501  502  0.00000000000E+00  0.00000000000E+00  0.41934148411E+03  0.41934148411E+03  0.00000000000E+00 0. -1.
          3   -1    0    0  502    0 -0.00000000000E+00 -0.00000000000E+00 -0.37524209499E+02  0.37524209499E+02  0.00000000000E+00 0. -1.
        -24    2    1    2    0    0 -0.40897262795E+02  0.41468710909E+02  0.88112039102E+02  0.13230444572E+03  0.79677442440E+02 0.  0.
         23    2    1    2    0    0  0.53349890317E+01 -0.30938096180E+02  0.17275415770E+03  0.19805143647E+03  0.91622838760E+02 0.  0.
         13    1    3    3    0    0 -0.54066060847E+02  0.29468526219E+02  0.24543856535E+02  0.66286754835E+02  0.00000000000E+00 0. -1.
        -14    1    3    3    0    0  0.13168798052E+02  0.12000184691E+02  0.63568182567E+02  0.66017690884E+02  0.00000000000E+00 0.  1.
        -13    1    4    4    0    0  0.21399858267E+02  0.93576422585E+01  0.38574494071E+01  0.23672754770E+02  0.00000000000E+00 0.  1.
         13    1    4    4    0    0 -0.16064869235E+02 -0.40295738439E+02  0.16889670829E+03  0.17437868170E+03  0.00000000000E+00 0. -1.
          4    1    1    2  501    0  0.35562273764E+02 -0.10530614729E+02  0.12095107781E+03  0.12650981142E+03  0.00000000000E+00 0. -1.
<scales pt_clust_5="13000.00000" pt_clust_6="13000.00000" pt_clust_7="13000.00000" pt_clust_8="13000.00000" pt_clust_9="37.08867"></scales>
<clustering>
<clus scale="   37.089">  1  9  2 -1</clus>
<clus scale="   79.677">  5  6 -1 -1</clus>
<clus scale="   91.623">  7  8 -1 -1</clus>
<clus scale="   92.314">  2  5  1 -1</clus>
<clus scale="   37.089">  1  5  2 -1</clus>
</clustering>
</event>
<event>
 9    1  0.4731329E-005  0.1405463E+03  0.7546771E-02  0.1215647E+00
         21   -1    0    0  501  502  0.00000000000E+00  0.00000000000E+00  0.74637976568E+02  0.74637976568E+02  0.00000000000E+00 0.  1.
          1   -1    0    0  502    0 -0.00000000000E+00 -0.00000000000E+00 -0.45661062889E+03  0.45661062889E+03  0.00000000000E+00 0. -1.
        -24    2    1    2    0    0  0.10859694457E+03 -0.34686193302E+01 -0.25251350839E+03  0.28685058850E+03  0.81944252461E+02 0.  0.
         23    2    1    2    0    0 -0.85217878953E+02  0.59514827389E+02 -0.11481206131E+03  0.18192966356E+03  0.95459370876E+02 0.  0.
         11    1    3    3    0    0  0.29974765427E+02 -0.26158478589E+02 -0.30179069546E+02  0.49935246101E+02  0.00000000000E+00 0. -1.
        -12    1    3    3    0    0  0.78622179147E+02  0.22689859258E+02 -0.22233443885E+03  0.23691534240E+03  0.00000000000E+00 0.  1.
        -13    1    4    4    0    0 -0.25171287863E+02 -0.17944950561E+02 -0.65028781568E+02  0.72002482009E+02  0.00000000000E+00 0. -1.
         13    1    4    4    0    0 -0.60046591091E+02  0.77459777950E+02 -0.49783279745E+02  0.10992718155E+03  0.00000000000E+00 0.  1.
          2    1    1    2  501    0 -0.23379065621E+02 -0.56046208059E+02 -0.14647082617E+02  0.62468353398E+02  0.00000000000E+00 0. -1.
<scales pt_clust_5="13000.00000" pt_clust_6="13000.00000" pt_clust_7="13000.00000" pt_clust_8="13000.00000" pt_clust_9="60.72691"></scales>
<clustering>
<clus scale="   60.727">  1  9  2 -1</clus>
<clus scale="   81.944">  5  6 -1 -1</clus>
<clus scale="   95.459">  7  8 -1 -1</clus>
<clus scale="  131.741">  2  5  1 -1</clus>
<clus scale="   60.727">  1  5  2 -1</clus>
</clustering>
</event>
<event>
 9    1  0.4731329E-005  0.1125910E+03  0.7546771E-02  0.1260397E+00
         -2   -1    0    0    0  501 -0.00000000000E+00  0.00000000000E+00  0.10340002632E+03  0.10340002632E+03  0.00000000000E+00 0.  1.
         21   -1    0    0  501  502  0.00000000000E+00 -0.00000000000E+00 -0.32292360941E+03  0.32292360941E+03  0.00000000000E+00 0. -1.
         23    2    1    2    0    0 -0.73679951594E+02 -0.59262670605E+00  0.47861609896E+02  0.12724817223E+03  0.92044973577E+02 0.  0.
        -24    2    1    2    0    0  0.31095500843E+02  0.82569755559E+01 -0.13845126970E+03  0.16307496988E+03  0.79934872877E+02 0.  0.
         13    1    4    4    0    0  0.68901965698E+01  0.42168347847E+02 -0.86527053736E+02  0.96501685981E+02  0.00000000000E+00 0. -1.
        -14    1    4    4    0    0  0.24205304273E+02 -0.33911372291E+02 -0.51924215962E+02  0.66573283897E+02  0.00000000000E+00 0.  1.
        -11    1    3    3    0    0  0.80264601089E+01 -0.26808396971E+02 -0.19100179689E+01  0.28049284816E+02  0.00000000000E+00 0. -1.
         11    1    3    3    0    0 -0.81706411703E+02  0.26215770265E+02  0.49771627865E+02  0.99198887414E+02  0.00000000000E+00 0.  1.
         -1    1    1    2    0  502  0.42584450751E+02 -0.76643488499E+01 -0.12893392329E+03  0.13600049362E+03  0.00000000000E+00 0.  1.
<scales pt_clust_5="13000.00000" pt_clust_6="13000.00000" pt_clust_7="13000.00000" pt_clust_8="13000.00000" pt_clust_9="43.26867"></scales>
<clustering>
<clus scale="   43.269">  2  9  1 -1</clus>
<clus scale="   79.935">  5  6 -1 -1</clus>
<clus scale="   92.045">  7  8 -1 -1</clus>
<clus scale="  102.927">  2  5  1 -1</clus>
<clus scale="   43.269">  2  5  1 -1</clus>
</clustering>
</event>
<event>
 9    1  0.4731329E-005  0.1449755E+03  0.7546771E-02  0.1207300E+00
         21   -1    0    0  501  502  0.00000000000E+00  0.00000000000E+00  0.27038959450E+02  0.27038959450E+02  0.00000000000E+00 0. -1.
          1   -1    0    0  502    0 -0.00000000000E+00 -0.00000000000E+00 -0.18732397539E+04  0.18732397539E+04  0.00000000000E+00 0. -1.
        -24    2    1    2    0    0 -0.94032056986E+02  0.65984246004E+02 -0.86083632710E+03  0.87212159376E+03  0.79755525160E+02 0.  0.
         23    2    1    2    0    0  0.15827648806E+03  0.24326440227E+02 -0.54255450316E+03  0.57168802824E+03  0.82574756228E+02 0.  0.
         11    1    3    3    0    0 -0.85135688078E+02  0.73437112512E+02 -0.56611233621E+03  0.57716918844E+03  0.00000000000E+00 0. -1.
        -12    1    3    3    0    0 -0.88963689083E+01 -0.74528665081E+01 -0.29472399089E+03  0.29495240532E+03  0.00000000000E+00 0.  1.
        -13    1    4    4    0    0  0.81281503784E+02 -0.14455645682E+02 -0.36618345345E+03  0.37537443990E+03  0.00000000000E+00 0.  1.
         13    1    4    4    0    0  0.76994984272E+02  0.38782085909E+02 -0.17637104971E+03  0.19631358834E+03  0.00000000000E+00 0. -1.
          2    1    1    2  501    0 -0.64244431070E+02 -0.90310686230E+02 -0.44280996423E+03  0.45646909138E+03  0.00000000000E+00 0. -1.
<scales pt_clust_5="13000.00000" pt_clust_6="13000.00000" pt_clust_7="13000.00000" pt_clust_8="13000.00000" pt_clust_9="110.83035"></scales>
<clustering>
<clus scale="   79.756">  5  6 -1 -1</clus>
<clus scale="   82.575">  7  8 -1 -1</clus>
<clus scale="  110.830">  1  9  2 -1</clus>
<clus scale="  143.388">  2  5  1 -1</clus>
<clus scale="  110.830">  1  5  2 -1</clus>
</clustering>
</event>
<event>
 9    1  0.4731329E-005  0.9818102E+02  0.7546771E-02  0.1290295E+00
         21   -1    0    0  501  502  0.00000000000E+00  0.00000000000E+00  0.20304196526E+03  0.20304196526E+03  0.00000000000E+00 0. -1.
          3   -1    0    0  502    0 -0.00000000000E+00 -0.00000000000E+00 -0.27423838629E+03  0.27423838629E+03  0.00000000000E+00 0. -1.
         23    2    1    2    0    0 -0.20567835906E+00 -0.32411867120E+02 -0.23453343039E+03  0.25430529036E+03  0.92815296700E+02 0.  0.
        -24    2    1    2    0    0  0.48393892548E+02  0.23388411278E+02  0.13428966588E+03  0.16599019561E+03  0.81425082485E+02 0.  0.
         11    1    4    4    0    0  0.30206883790E+02 -0.21903318811E+02  0.98896193559E+02  0.10570084344E+03  0.00000000000E+00 0. -1.
        -12    1    4    4    0    0  0.18187008758E+02  0.45291730089E+02  0.35393472322E+02  0.60289352169E+02  0.00000000000E+00 0.  1.
        -11    1    3    3    0    0 -0.41861436660E+02 -0.27750609454E+01 -0.66148121694E+02  0.78330420950E+02  0.00000000000E+00 0.  1.
         11    1    3    3    0    0  0.41655758301E+02 -0.29636806174E+02 -0.16838530870E+03  0.17597486941E+03  0.00000000000E+00 0. -1.
          4    1    1    2  501    0 -0.48188214189E+02  0.90234558419E+01  0.29047343475E+02  0.56984865578E+02  0.00000000000E+00 0. -1.
<scales pt_clust_5="13000.00000" pt_clust_6="13000.00000" pt_clust_7="13000.00000" pt_clust_8="13000.00000" pt_clust_9="49.02578"></scales>
<clustering>
<clus scale="   49.026">  1  9  2 -1</clus>
<clus scale="   81.425">  5  6 -1 -1</clus>
<clus scale="   87.492">  1  5  2 -1</clus>
<clus scale="   92.815">  7  8 -1 -1</clus>
<clus scale="   49.026">  1  5  2 -1</clus>
</clustering>
</event>
<event>
 9    1  0.4731329E-005  0.1013012E+03  0.7546771E-02  0.1292014E+00
          1   -1    0    0  502    0 -0.00000000000E+00  0.00000000000E+00  0.23466182266E+03  0.23466182266E+03  0.00000000000E+00 0. -1.
         21   -1    0    0  501  502  0.00000000000E+00 -0.00000000000E+00 -0.18311916263E+03  0.18311916263E+03  0.00000000000E+00 0.  1.
         23    2    1    2    0    0  0.38993752155E+02  0.89272721489E+01  0.16996864253E+03  0.18665262197E+03  0.65951898757E+02 0.  0.
        -24    2    1    2    0    0  0.34780532142E+02  0.38405688546E+02 -0.10652498195E+03  0.14267109677E+03  0.79515959049E+02 0.  0.
         11    1    4    4    0    0 -0.25847787951E+01 -0.19883602153E+02 -0.66122607942E+01  0.21113045938E+02  0.00000000000E+00 0. -1.
        -12    1    4    4    0    0  0.37365310937E+02  0.58289290699E+02 -0.99912721159E+02  0.12155805083E+03  0.00000000000E+00 0.  1.
        -13    1    3    3    0    0  0.18704076088E+02 -0.28762033833E+02  0.73371571211E+02  0.80996817928E+02  0.00000000000E+00 0.  1.
         13    1    3    3    0    0  0.20289676067E+02  0.37689305982E+02  0.96597071317E+02  0.10565580404E+03  0.00000000000E+00 0. -1.
          2    1    1    2  501    0 -0.73774284297E+02 -0.47332960695E+02 -0.11901000547E+02  0.88457266551E+02  0.00000000000E+00 0. -1.
<scales pt_clust_5="13000.00000" pt_clust_6="13000.00000" pt_clust_7="13000.00000" pt_clust_8="13000.00000" pt_clust_9="62.76267"></scales>
<clustering>
<clus scale="   65.952">  7  8 -1 -1</clus>
<clus scale="   77.135">  1  7  2 -1</clus>
<clus scale="   62.763">  2  9  1 -1</clus>
<clus scale="   79.516">  5  6 -1 -1</clus>
<clus scale="   62.763">  2  5  1 -1</clus>
</clustering>
</event>
<event>
 9    1  0.4731329E-005  0.1519010E+03  0.7546771E-02  0.1200958E+00
         21   -1    0    0  501  502  0.00000000000E+00  0.00000000000E+00  0.19072034734E+03  0.19072034734E+03  0.00000000000E+00 0.  1.
         -4   -1    0    0    0  501 -0.00000000000E+00 -0.00000000000E+00 -0.24571663664E+03  0.24571663664E+03  0.00000000000E+00 0.  1.
        -24    2    1    2    0    0 -0.46318118900E+02  0.93193066483E+02 -0.34092426966E+02  0.13651672100E+03  0.81511997630E+02 0.  0.
         23    2    1    2    0    0  0.14438820655E+03 -0.56186704316E+02 -0.53498418436E+02  0.19014951086E+03  0.96383897899E+02 0.  0.
         13    1    3    3    0    0 -0.30429386739E+02  0.97709040585E+02 -0.42716933830E+01  0.10242681072E+03  0.00000000000E+00 0. -1.
        -14    1    3    3    0    0 -0.15888732161E+02 -0.45159741018E+01 -0.29820733583E+02  0.34089910284E+02  0.00000000000E+00 0.  1.
        -11    1    4    4    0    0  0.20361680071E+01 -0.37629350661E+02 -0.20300163511E+02  0.42804329803E+02  0.00000000000E+00 0. -1.
         11    1    4    4    0    0  0.14235203854E+03 -0.18557353655E+02 -0.33198254924E+02  0.14734518106E+03  0.00000000000E+00 0.  1.
         -3    1    1    2    0  502 -0.98070087648E+02 -0.37006362167E+02  0.32594556099E+02  0.10977075211E+03  0.00000000000E+00 0.  1.
<scales pt_clust_5="13000.00000" pt_clust_6="13000.00000" pt_clust_7="13000.00000" pt_clust_8="13000.00000" pt_clust_9="104.81991"></scales>
<clustering>
<clus scale="   81.512">  5  6 -1 -1</clus>
<clus scale="   96.384">  7  8 -1 -1</clus>
<clus scale="  104.820">  1  9  2 -1</clus>
<clus scale="  142.927">  2  5  1 -1</clus>
<clus scale="  104.820">  1  5  2 -1</clus>
</clustering>
</event>
<event>
 9    1  0.4731329E-005  0.9352276E+02  0.7546771E-02  0.1300324E+00
         21   -1    0    0  501  502  0.00000000000E+00  0.00000000000E+00  0.18485094056E+03  0.18485094056E+03  0.00000000000E+00 0.  1.
          3   -1    0    0  502    0 -0.00000000000E+00 -0.00000000000E+00 -0.22364273168E+03  0.22364273168E+03  0.00000000000E+00 0. -1.
         23    2    1    2    0    0  0.24812946702E+02  0.97106251256E+01 -0.19073610087E+03  0.21274266567E+03  0.90383643733E+02 0.  0.
        -24    2    1    2    0    0 -0.44604226782E+01 -0.31694995551E+01  0.57941715008E+02  0.99348209018E+02  0.80516353613E+02 0.  0.
         13    1    4    4    0    0 -0.12646718385E+02 -0.40163964275E+02  0.37013221081E+02  0.56063018533E+02  0.00000000000E+00 0. -1.
        -14    1    4    4    0    0  0.81862957072E+01  0.36994464720E+02  0.20928493927E+02  0.43285190485E+02  0.00000000000E+00 0.  1.
        -11    1    3    3    0    0  0.12528408795E+02 -0.39630961392E+02 -0.10684328309E+03  0.11464319111E+03  0.00000000000E+00 0. -1.
         11    1    3    3    0    0  0.12284537906E+02  0.49341586517E+02 -0.83892817788E+02  0.98099474555E+02  0.00000000000E+00 0.  1.
          4    1    1    2  501    0 -0.20352524024E+02 -0.65411255704E+01  0.94002594744E+02  0.96402797555E+02  0.00000000000E+00 0. -1.
<scales pt_clust_5="13000.00000" pt_clust_6="13000.00000" pt_clust_7="13000.00000" pt_clust_8="13000.00000" pt_clust_9="21.37783"></scales>
<clustering>
<clus scale="   21.378">  1  9  2 -1</clus>
<clus scale="   80.516">  5  6 -1 -1</clus>
<clus scale="   84.025">  1  5  2 -1</clus>
<clus scale="   90.384">  7  8 -1 -1</clus>
<clus scale="   21.378">  1  5  2 -1</clus>
</clustering>
</event>
<event>
 9    1  0.4731329E-005  0.1679464E+03  0.7546771E-02  0.1181191E+00
         21   -1    0    0  501  502  0.00000000000E+00  0.00000000000E+00  0.74621759626E+03  0.74621759626E+03  0.00000000000E+00 0. -1.
          1   -1    0    0  502    0 -0.00000000000E+00 -0.00000000000E+00 -0.91350020633E+02  0.91350020633E+02  0.00000000000E+00 0. -1.
         23    2    1    2    0    0  0.15619952776E+03 -0.23224457588E+02  0.10909774722E+03  0.21224466095E+03  0.90596963252E+02 0.  0.
        -24    2    1    2    0    0 -0.71503965087E+02  0.12831718998E+03  0.33760836035E+03  0.37723221141E+03  0.82137799358E+02 0.  0.
         13    1    4    4    0    0 -0.49617804871E+02  0.10793857056E+03  0.32258873003E+03  0.34376758183E+03  0.00000000000E+00 0. -1.
        -14    1    4    4    0    0 -0.21886160217E+02  0.20378619414E+02  0.15019630321E+02  0.33464629585E+02  0.00000000000E+00 0.  1.
        -11    1    3    3    0    0  0.99992109342E+02 -0.52407562280E+02  0.43280841024E+02  0.12090577205E+03  0.00000000000E+00 0. -1.
         11    1    3    3    0    0  0.56207418417E+02  0.29183104692E+02  0.65816906193E+02  0.91338888900E+02  0.00000000000E+00 0.  1.
          2    1    1    2  501    0 -0.84695562672E+02 -0.10509273239E+03  0.20816146806E+03  0.24809074453E+03  0.00000000000E+00 0. -1.
<scales pt_clust_5="13000.00000" pt_clust_6="13000.00000" pt_clust_7="13000.00000" pt_clust_8="13000.00000" pt_clust_9="134.97341"></scales>
<clustering>
<clus scale="   82.138">  5  6 -1 -1</clus>
<clus scale="   90.597">  7  8 -1 -1</clus>
<clus scale="  134.973">  1  9  2 -1</clus>
<clus scale="  163.538">  1  5  2 -1</clus>
<clus scale="  134.973">  1  5  2 -1</clus>
</clustering>
</event>
<event>
 9    1  0.4731329E-005  0.1054159E+03  0.7546771E-02  0.1273778E+00
         21   -1    0    0  501  502  0.00000000000E+00  0.00000000000E+00  0.66168780671E+02  0.66168780671E+02  0.00000000000E+00 0.  1.
         -2   -1    0    0    0  501 -0.00000000000E+00 -0.00000000000E+00 -0.49874092693E+03  0.49874092693E+03  0.00000000000E+00 0.  1.
        -24    2    1    2    0    0 -0.44583819985E+02  0.28519893268E+02 -0.29947694671E+03  0.31423523544E+03  0.79096398572E+02 0.  0.
         23    2    1    2    0    0  0.19164258623E+02 -0.74297840927E+02 -0.15428266217E+03  0.19418833966E+03  0.89546264231E+02 0.  0.
         11    1    3    3    0    0  0.22234362959E+02  0.54258504552E+01 -0.51066190269E+02  0.55960365778E+02  0.00000000000E+00 0. -1.
        -12    1    3    3    0    0 -0.66818182944E+02  0.23094042813E+02 -0.24841075644E+03  0.25827486967E+03  0.00000000000E+00 0.  1.
        -13    1    4    4    0    0 -0.29573796363E+02 -0.15876033647E+02 -0.17952067206E+02  0.38064873475E+02  0.00000000000E+00 0.  1.
         13    1    4    4    0    0  0.48738054986E+02 -0.58421807280E+02 -0.13633059497E+03  0.15612346619E+03  0.00000000000E+00 0. -1.
         -1    1    1    2    0  502  0.25419561362E+02  0.45777947660E+02  0.21187462626E+02  0.56486132495E+02  0.00000000000E+00 0.  1.
<scales pt_clust_5="13000.00000" pt_clust_6="13000.00000" pt_clust_7="13000.00000" pt_clust_8="13000.00000" pt_clust_9="52.36196"></scales>
<clustering>
<clus scale="   52.362">  1  9  2 -1</clus>
<clus scale="   79.096">  5  6 -1 -1</clus>
<clus scale="   89.546">  7  8 -1 -1</clus>
<clus scale="   96.697">  2  5  1 -1</clus>
<clus scale="   52.362">  1  5  2 -1</clus>
</clustering>
</event>
<event>
 9    1  0.4731329E-005  0.9937316E+02  0.7546771E-02  0.1287149E+00
         21   -1    0    0  501  502  0.00000000000E+00  0.00000000000E+00  0.43402729839E+03  0.43402729839E+03  0.00000000000E+00 0.  1.
          3   -1    0    0  502    0 -0.00000000000E+00 -0.00000000000E+00 -0.32489895916E+02  0.32489895916E+02  0.00000000000E+00 0. -1.
        -24    2    1    2    0    0  0.30497042634E+02  0.38900148683E+02  0.11480748945E+03  0.14900646831E+03  0.81110275473E+02 0.  0.
         23    2    1    2    0    0  0.28087561516E+01 -0.27711425788E+02  0.16590314134E+03  0.19167920169E+03  0.91876285434E+02 0.  0.
         13    1    3    3    0    0  0.49470990268E+02  0.52103352989E+02  0.88204952651E+02  0.11376401867E+03  0.00000000000E+00 0. -1.
        -14    1    3    3    0    0 -0.18973947635E+02 -0.13203204305E+02  0.26602536799E+02  0.35242449644E+02  0.00000000000E+00 0.  1.
        -11    1    4    4    0    0  0.43191984015E+02 -0.15527872835E+02  0.12400141663E+03  0.13222334758E+03  0.00000000000E+00 0.  1.
         11    1    4    4    0    0 -0.40383227863E+02 -0.12183552953E+02  0.41901724711E+02  0.59455854119E+02  0.00000000000E+00 0. -1.
          4    1    1    2  501    0 -0.33305798785E+02 -0.11188722896E+02  0.12082677169E+03  0.12583152430E+03  0.00000000000E+00 0. -1.
<scales pt_clust_5="13000.00000" pt_clust_6="13000.00000" pt_clust_7="13000.00000" pt_clust_8="13000.00000" pt_clust_9="35.13494"></scales>
<clustering>
<clus scale="   35.135">  1  9  2 -1</clus>
<clus scale="   81.110">  5  6 -1 -1</clus>
<clus scale="   89.513">  2  5  1 -1</clus>
<clus scale="   91.876">  7  8 -1 -1</clus>
<clus scale="   35.135">  1  5  2 -1</clus>
</clustering>
</event>
<event>
 9    1  0.4731329E-005  0.9106134E+02  0.7546771E-02  0.1306485E+00
         21   -1    0    0  501  502  0.00000000000E+00  0.00000000000E+00  0.16351979418E+03  0.16351979418E+03  0.00000000000E+00 0. -1.
          1   -1    0    0  502    0 -0.00000000000E+00 -0.00000000000E+00 -0.81099203122E+02  0.81099203122E+02  0.00000000000E+00 0. -1.
         23    2    1    2    0    0  0.65244631515E+01 -0.86649102043E+01  0.81829725905E+01  0.92027997420E+02  0.91019459351E+02 0.  0.
        -24    2    1    2    0    0  0.20463195297E+02 -0.17496010669E+02  0.76686918403E+02  0.11492501311E+03  0.81252830303E+02 0.  0.
         11    1    4    4    0    0  0.91500653893E+01 -0.35325855246E+02  0.11689196685E+01  0.36510356321E+02  0.00000000000E+00 0. -1.
        -12    1    4    4    0    0  0.11313129907E+02  0.17829844577E+02  0.75517998735E+02  0.78414656786E+02  0.00000000000E+00 0.  1.
        -13    1    3    3    0    0  0.44005966184E+02 -0.22989318052E+02  0.13750692118E+02  0.51518106894E+02  0.00000000000E+00 0.  1.
         13    1    3    3    0    0 -0.37481503032E+02  0.14324407847E+02 -0.55677195272E+01  0.40509890526E+02  0.00000000000E+00 0. -1.
          2    1    1    2  501    0 -0.26987658448E+02  0.26160920874E+02 -0.24492999370E+01  0.37665986774E+02  0.00000000000E+00 0. -1.
<scales pt_clust_5="13000.00000" pt_clust_6="13000.00000" pt_clust_7="13000.00000" pt_clust_8="13000.00000" pt_clust_9="37.58629"></scales>
<clustering>
<clus scale="   37.586">  1  9  2 -1</clus>
<clus scale="   81.253">  5  6 -1 -1</clus>
<clus scale="   81.300">  1  5  2 -1</clus>
<clus scale="   91.019">  7  8 -1 -1</clus>
<clus scale="   37.586">  1  5  2 -1</clus>
</clustering>
</event>
<event>
 9    1  0.4731329E-005  0.1474016E+03  0.7546771E-02  0.1206575E+00
         21   -1    0    0  501  502  0.00000000000E+00  0.00000000000E+00  0.73149603944E+02  0.73149603944E+02  0.00000000000E+00 0. -1.
          1   -1    0    0  502    0 -0.00000000000E+00 -0.00000000000E+00 -0.53664428706E+03  0.53664428706E+03  0.00000000000E+00 0. -1.
         23    2    1    2    0    0 -0.65550289187E+02 -0.89505089833E+02 -0.20831251387E+03  0.25422527143E+03  0.94490124791E+02 0.  0.
        -24    2    1    2    0    0  0.12298392110E+03  0.35579155635E+02 -0.22552241385E+03  0.27138828015E+03  0.80001989289E+02 0.  0.
         11    1    4    4    0    0  0.12903435528E+03  0.39828187833E+02 -0.22672804741E+03  0.26389724680E+03  0.00000000000E+00 0. -1.
        -12    1    4    4    0    0 -0.60504341748E+01 -0.42490321984E+01  0.12056335629E+01  0.74910333476E+01  0.00000000000E+00 0.  1.
        -11    1    3    3    0    0 -0.61542719018E+02 -0.10935149606E+03 -0.17938867012E+03  0.21891905108E+03  0.00000000000E+00 0. -1.
         11    1    3    3    0    0 -0.40075701691E+01  0.19846406231E+02 -0.28923843744E+02  0.35306220357E+02  0.00000000000E+00 0.  1.
          2    1    1    2  501    0 -0.57433631916E+02  0.53925934198E+02 -0.29659755402E+02  0.84180339420E+02  0.00000000000E+00 0. -1.
<scales pt_clust_5="13000.00000" pt_clust_6="13000.00000" pt_clust_7="13000.00000" pt_clust_8="13000.00000" pt_clust_9="78.78216"></scales>
<clustering>
<clus scale="   78.782">  1  9  2 -1</clus>
<clus scale="   80.002">  5  6 -1 -1</clus>
<clus scale="   94.490">  7  8 -1 -1</clus>
<clus scale="  138.561">  1  5  2 -1</clus>
<clus scale="   78.782">  1  5  2 -1</clus>
</clustering>
</event>
<event>
 9    1  0.4731329E-005  0.1000432E+03  0.7546771E-02  0.1284013E+00
         21   -1    0    0  501  502  0.00000000000E+00  0.00000000000E+00  0.69407660287E+02  0.69407660287E+02  0.00000000000E+00 0.  1.
          1   -1    0    0  502    0 -0.00000000000E+00 -0.00000000000E+00 -0.19336050007E+03  0.19336050007E+03  0.00000000000E+00 0. -1.
         23    2    1    2    0    0  0.53007745127E+01 -0.60362050477E+02 -0.92322152986E+02  0.14075224062E+03  0.87270487341E+02 0.  0.
        -24    2    1    2    0    0  0.80408509971E+01  0.34821030265E+02 -0.33568703084E+02  0.93135154645E+02  0.79184214150E+02 0.  0.
         13    1    4    4    0    0 -0.26000886081E+02  0.57282304968E+01  0.12038167284E+02  0.29219448543E+02  0.00000000000E+00 0. -1.
        -14    1    4    4    0    0  0.34041737078E+02  0.29092799768E+02 -0.45606870369E+02  0.63915706102E+02  0.00000000000E+00 0.  1.
        -11    1    3    3    0    0 -0.22781345817E+02 -0.59343634738E+01  0.65608796223E+01  0.24438730091E+02  0.00000000000E+00 0.  1.
         11    1    3    3    0    0  0.28082120330E+02 -0.54427687003E+02 -0.98883032609E+02  0.11631351053E+03  0.00000000000E+00 0. -1.
          2    1    1    2  501    0 -0.13341625510E+02  0.25541020212E+02  0.19380162904E+01  0.28880765085E+02  0.00000000000E+00 0. -1.
<scales pt_clust_5="13000.00000" pt_clust_6="13000.00000" pt_clust_7="13000.00000" pt_clust_8="13000.00000" pt_clust_9="28.81567"></scales>
<clustering>
<clus scale="   28.816">  1  9  2 -1</clus>
<clus scale="   79.184">  5  6 -1 -1</clus>
<clus scale="   87.270">  7  8 -1 -1</clus>
<clus scale="   93.073">  1  5  2 -1</clus>
<clus scale="   28.816">  1  5  2 -1</clus>
</clustering>
</event>
<event>
 9    1  0.4731329E-005  0.9695692E+02  0.7546771E-02  0.1292981E+00
          3   -1    0    0  502    0 -0.00000000000E+00  0.00000000000E+00  0.48410069247E+02  0.48410069247E+02  0.00000000000E+00 0. -1.
         21   -1    0    0  501  502  0.00000000000E+00 -0.00000000000E+00 -0.29351878875E+03  0.29351878875E+03  0.00000000000E+00 0.  1.
         23    2    1    2    0    0  0.19499376537E+02  0.19167432718E+02 -0.97010002676E+02  0.13617427631E+03  0.91568972624E+02 0.  0.
        -24    2    1    2    0    0  0.21780040357E+02 -0.43215237103E+02 -0.84569243853E+02  0.12626696572E+03  0.80308547188E+02 0.  0.
         13    1    4    4    0    0  0.36555592923E+02 -0.49700898364E+02 -0.28572747862E+02  0.67991856810E+02  0.00000000000E+00 0. -1.
        -14    1    4    4    0    0 -0.14775552566E+02  0.64856612611E+01 -0.55996495991E+02  0.58275108914E+02  0.00000000000E+00 0.  1.
        -13    1    3    3    0    0  0.39241744938E+02  0.46493478358E+02 -0.71604905159E+02  0.93961803508E+02  0.00000000000E+00 0.  1.
         13    1    3    3    0    0 -0.19742368400E+02 -0.27326045640E+02 -0.25405097517E+02  0.42212472804E+02  0.00000000000E+00 0. -1.
          4    1    1    2  501    0 -0.41279416894E+02  0.24047804385E+02 -0.63529472976E+02  0.79487615963E+02  0.00000000000E+00 0. -1.
<scales pt_clust_5="13000.00000" pt_clust_6="13000.00000" pt_clust_7="13000.00000" pt_clust_8="13000.00000" pt_clust_9="47.77329"></scales>
<clustering>
<clus scale="   47.773">  2  9  1 -1</clus>
<clus scale="   80.309">  5  6 -1 -1</clus>
<clus scale="   86.402">  2  5  1 -1</clus>
<clus scale="   91.569">  7  8 -1 -1</clus>
<clus scale="   47.773">  2  5  1 -1</clus>
</clustering>
</event>
<event>
 9    1  0.4731329E-005  0.2133032E+03  0.7546771E-02  0.1178623E+00
          1   -1    0    0  502    0 -0.00000000000E+00  0.00000000000E+00  0.50138844645E+03  0.50138844645E+03  0.00000000000E+00 0. -1.
         21   -1    0    0  501  502  0.00000000000E+00 -0.00000000000E+00 -0.15795910036E+03  0.15795910036E+03  0.00000000000E+00 0. -1.
        -24    2    1    2    0    0  0.32386157232E+02 -0.46153886484E+01  0.13769765175E+02  0.85683350192E+02  0.77986313380E+02 0.  0.
         23    2    1    2    0    0  0.11259541543E+03  0.13857820709E+03  0.31790906804E+03  0.37591747050E+03  0.91466507685E+02 0.  0.
         11    1    3    3    0    0  0.47952423629E+02 -0.24528540399E+02  0.23280792390E+02  0.58677760014E+02  0.00000000000E+00 0. -1.
        -12    1    3    3    0    0 -0.15566266397E+02  0.19913151750E+02 -0.95110272149E+01  0.27005590178E+02  0.00000000000E+00 0.  1.
        -13    1    4    4    0    0  0.57045558131E+02  0.20458656504E+02  0.15970009362E+03  0.17081238898E+03  0.00000000000E+00 0.  1.
         13    1    4    4    0    0  0.55549857303E+02  0.11811955058E+03  0.15820897442E+03  0.20510508152E+03  0.00000000000E+00 0. -1.
          2    1    1    2  501    0 -0.14498157267E+03 -0.13396281844E+03  0.11750512873E+02  0.19774672612E+03  0.00000000000E+00 0. -1.
<scales pt_clust_5="13000.00000" pt_clust_6="13000.00000" pt_clust_7="13000.00000" pt_clust_8="13000.00000" pt_clust_9="192.69702"></scales>
<clustering>
<clus scale="   77.986">  5  6 -1 -1</clus>
<clus scale="   84.570">  1  5  2 -1</clus>
<clus scale="   91.467">  7  8 -1 -1</clus>
<clus scale="  192.697">  2  9  1 -1</clus>
<clus scale="  192.697">  2  5  1 -1</clus>
</clustering>
</event>
<event>
 9    1  0.4731329E-005  0.1191090E+03  0.7546771E-02  0.1247889E+00
         21   -1    0    0  501  502  0.00000000000E+00  0.00000000000E+00  0.14468136103E+03  0.14468136103E+03  0.00000000000E+00 0. -1.
          1   -1    0    0  502    0 -0.00000000000E+00 -0.00000000000E+00 -0.17163703688E+03  0.17163703688E+03  0.00000000000E+00 0. -1.
        -24    2    1    2    0    0 -0.55297368677E+02 -0.41145973778E+02  0.45314719476E+01  0.10633288850E+03  0.80841566033E+02 0.  0.
         23    2    1    2    0    0  0.11055224400E+02  0.98646422602E+02 -0.15020603512E+02  0.13558916524E+03  0.91134343264E+02 0.  0.
         13    1    3    3    0    0 -0.73278964603E+02 -0.47154175285E+02  0.16418868298E+01  0.87155141514E+02  0.00000000000E+00 0. -1.
        -14    1    3    3    0    0  0.17981595926E+02  0.60082015068E+01  0.28895851178E+01  0.19177746989E+02  0.00000000000E+00 0.  1.
        -11    1    4    4    0    0 -0.14572583908E+01  0.24290651005E+02 -0.47592999481E+02  0.53453277990E+02  0.00000000000E+00 0.  1.
         11    1    4    4    0    0  0.12512482791E+02  0.74355771597E+02  0.32572395969E+02  0.82135887251E+02  0.00000000000E+00 0. -1.
          2    1    1    2  501    0  0.44242144276E+02 -0.57500448824E+02 -0.16466544287E+02  0.74396344170E+02  0.00000000000E+00 0. -1.
<scales pt_clust_5="13000.00000" pt_clust_6="13000.00000" pt_clust_7="13000.00000" pt_clust_8="13000.00000" pt_clust_9="72.55118"></scales>
<clustering>
<clus scale="   72.551">  1  9  2 -1</clus>
<clus scale="   80.842">  5  6 -1 -1</clus>
<clus scale="   91.134">  7  8 -1 -1</clus>
<clus scale="  111.431">  2  5  1 -1</clus>
<clus scale="   72.551">  1  5  2 -1</clus>
</clustering>
</event>
<event>
 9    1  0.4731329E-005  0.1319577E+03  0.7546771E-02  0.1227249E+00
         21   -1    0    0  501  502  0.00000000000E+00  0.00000000000E+00  0.46519193449E+03  0.46519193449E+03  0.00000000000E+00 0. -1.
          3   -1    0    0  502    0 -0.00000000000E+00 -0.00000000000E+00 -0.32461178039E+03  0.32461178039E+03  0.00000000000E+00 0. -1.
         23    2    1    2    0    0 -0.94986898674E+02 -0.29582801581E+01 -0.28004450301E+03  0.30936442107E+03  0.90830385975E+02 0.  0.
        -24    2    1    2    0    0  0.11677719804E+03 -0.64954485630E+01  0.43158882384E+03  0.45427819510E+03  0.80129026246E+02 0.  0.
         11    1    4    4    0    0  0.41892517569E+02 -0.36449123285E+02  0.11690307899E+03  0.12942121733E+03  0.00000000000E+00 0. -1.
        -12    1    4    4    0    0  0.74884680474E+02  0.29953674722E+02  0.31468574485E+03  0.32485697778E+03  0.00000000000E+00 0.  1.
        -13    1    3    3    0    0 -0.37428489309E+02 -0.44838265701E+02 -0.10073542825E+03  0.11644306930E+03  0.00000000000E+00 0.  1.
         13    1    3    3    0    0 -0.57558409365E+02  0.41879985543E+02 -0.17930907476E+03  0.19292135177E+03  0.00000000000E+00 0. -1.
          4    1    1    2  501    0 -0.21790299369E+02  0.94537287210E+01 -0.10964166725E+02  0.26161098703E+02  0.00000000000E+00 0. -1.
<scales pt_clust_5="13000.00000" pt_clust_6="13000.00000" pt_clust_7="13000.00000" pt_clust_8="13000.00000" pt_clust_9="23.75270"></scales>
<clustering>
<clus scale="   23.753">  1  9  2 -1</clus>
<clus scale="   80.129">  5  6 -1 -1</clus>
<clus scale="   90.830">  7  8 -1 -1</clus>
<clus scale="  124.833">  1  5  2 -1</clus>
<clus scale="   23.753">  1  5  2 -1</clus>
</clustering>
</event>
<event>
 9    1  0.4731329E-005  0.2330041E+03  0.7546771E-02  0.1164993E+00
         21   -1    0    0  501  502  0.00000000000E+00  0.00000000000E+00  0.15874407844E+03  0.15874407844E+03  0.00000000000E+00 0. -1.
          1   -1    0    0  502    0 -0.00000000000E+00 -0.00000000000E+00 -0.57915925236E+03  0.57915925236E+03  0.00000000000E+00 0. -1.
        -24    2    1    2    0    0 -0.29515973230E+00 -0.38893860547E+02 -0.88159993921E+02  0.12493939630E+03  0.79528917458E+02 0.  0.
         23    2    1    2    0    0  0.18461721499E+03 -0.79235817155E+02 -0.32618794685E+03  0.39395240027E+03  0.91859056273E+02 0.  0.
         11    1    3    3    0    0 -0.34541871180E+02 -0.16826578477E+02 -0.71005410729E+02  0.80734397630E+02  0.00000000000E+00 0. -1.
        -12    1    3    3    0    0  0.34246711447E+02 -0.22067282069E+02 -0.17154583191E+02  0.44204998669E+02  0.00000000000E+00 0.  1.
        -11    1    4    4    0    0  0.15421092287E+03 -0.44360818551E+02 -0.18256964195E+03  0.24306494012E+03  0.00000000000E+00 0.  1.
         11    1    4    4    0    0  0.30406292119E+02 -0.34874998604E+02 -0.14361830490E+03  0.15088746015E+03  0.00000000000E+00 0. -1.
          2    1    1    2  501    0 -0.18432205526E+03  0.11812967770E+03 -0.60672331471E+01  0.21901153423E+03  0.00000000000E+00 0. -1.
<scales pt_clust_5="13000.00000" pt_clust_6="13000.00000" pt_clust_7="13000.00000" pt_clust_8="13000.00000" pt_clust_9="214.13269"></scales>
<clustering>
<clus scale="   79.529">  5  6 -1 -1</clus>
<clus scale="   88.531">  2  5  1 -1</clus>
<clus scale="   91.859">  7  8 -1 -1</clus>
<clus scale="  214.133">  1  9  2 -1</clus>
<clus scale="  214.133">  1  5  2 -1</clus>
</clustering>
</event>
<event>
 9    1  0.4731329E-005  0.9417329E+02  0.7546771E-02  0.1298998E+00
         -2   -1    0    0    0  501 -0.00000000000E+00  0.00000000000E+00  0.28375774252E+03  0.28375774252E+03  0.00000000000E+00 0.  1.
         21   -1    0    0  501  502  0.00000000000E+00 -0.00000000000E+00 -0.72382041701E+02  0.72382041701E+02  0.00000000000E+00 0. -1.
        -24    2    1    2    0    0  0.22096428956E+02 -0.71282664497E+01  0.20271903489E+03  0.21942797501E+03  0.80712853717E+02 0.  0.
         23    2    1    2    0    0 -0.37803838745E+02 -0.17097322339E+02 -0.12745998111E+02  0.10077191630E+03  0.90945423148E+02 0.  0.
         13    1    3    3    0    0 -0.16977832481E+02 -0.26683767999E+02  0.40268442422E+02  0.51203688593E+02  0.00000000000E+00 0. -1.
        -14    1    3    3    0    0  0.39074261437E+02  0.19555501549E+02  0.16245059247E+03  0.16822428642E+03  0.00000000000E+00 0.  1.
        -11    1    4    4    0    0 -0.25198535866E-01 -0.49809482518E+02 -0.93848922410E+01  0.50685909147E+02  0.00000000000E+00 0. -1.
         11    1    4    4    0    0 -0.37778640209E+02  0.32712160180E+02 -0.33611058702E+01  0.50086007151E+02  0.00000000000E+00 0.  1.
         -1    1    1    2    0  502  0.15707409788E+02  0.24225588788E+02  0.21402664034E+02  0.35939892907E+02  0.00000000000E+00 0.  1.
<scales pt_clust_5="13000.00000" pt_clust_6="13000.00000" pt_clust_7="13000.00000" pt_clust_8="13000.00000" pt_clust_9="28.87218"></scales>
<clustering>
<clus scale="   28.872">  2  9  1 -1</clus>
<clus scale="   80.713">  5  6 -1 -1</clus>
<clus scale="   84.333">  1  5  2 -1</clus>
<clus scale="   90.945">  7  8 -1 -1</clus>
<clus scale="   28.872">  2  5  1 -1</clus>
</clustering>
</event>
<event>
 9    1  0.4731329E-005  0.2157782E+03  0.7546771E-02  0.1170304E+00
         21   -1    0    0  501  502  0.00000000000E+00  0.00000000000E+00  0.11501350245E+04  0.11501350245E+04  0.00000000000E+00 0. -1.
          3   -1    0    0  502    0 -0.00000000000E+00 -0.00000000000E+00 -0.67554704747E+02  0.67554704747E+02  0.00000000000E+00 0. -1.
         23    2    1    2    0    0  0.31570581206E+02 -0.20919269363E+02  0.11542098332E+03  0.15184708888E+03  0.91111017900E+02 0.  0.
        -24    2    1    2    0    0 -0.15060127103E+03  0.16833335671E+03  0.38325606263E+03  0.45196785556E+03  0.79830264293E+02 0.  0.
         11    1    4    4    0    0 -0.14006590858E+03  0.17437225048E+03  0.33945202019E+03  0.40651176428E+03  0.00000000000E+00 0. -1.
        -12    1    4    4    0    0 -0.10535362446E+02 -0.60388937788E+01  0.43804042446E+02  0.45456091281E+02  0.00000000000E+00 0.  1.
        -13    1    3    3    0    0  0.61304927454E+02 -0.41402505409E+01  0.55087001813E+02  0.82522806383E+02  0.00000000000E+00 0.  1.
         13    1    3    3    0    0 -0.29734346248E+02 -0.16779018822E+02  0.60333981502E+02  0.69324282494E+02  0.00000000000E+00 0. -1.
          4    1    1    2  501    0  0.11903068982E+03 -0.14741408734E+03  0.58390327378E+03  0.61387478479E+03  0.00000000000E+00 0. -1.
<scales pt_clust_5="13000.00000" pt_clust_6="13000.00000" pt_clust_7="13000.00000" pt_clust_8="13000.00000" pt_clust_9="200.46781"></scales>
<clustering>
<clus scale="   79.830">  5  6 -1 -1</clus>
<clus scale="   91.111">  7  8 -1 -1</clus>
<clus scale="   98.669">  2  7  1 -1</clus>
<clus scale="  200.468">  1  9  2 -1</clus>
<clus scale="  200.468">  1  5  2 -1</clus>
</clustering>
</event>
<event>
 9    1  0.4731329E-005  0.1018240E+03  0.7546771E-02  0.1279590E+00
         21   -1    0    0  501  502  0.00000000000E+00  0.00000000000E+00  0.14281705298E+03  0.14281705298E+03  0.00000000000E+00 0. -1.
          1   -1    0    0  502    0 -0.00000000000E+00 -0.00000000000E+00 -0.17832182721E+03  0.17832182721E+03  0.00000000000E+00 0. -1.
        -24    2    1    2    0    0  0.21741613480E+02  0.51424998166E+02 -0.10361096551E+03  0.14343181761E+03  0.81976984186E+02 0.  0.
         23    2    1    2    0    0  0.13863975675E+02 -0.41805684029E+02 -0.13538682002E+01  0.99062361258E+02  0.88722000768E+02 0.  0.
         11    1    3    3    0    0  0.13366792626E+02  0.20237980673E+02 -0.10813764485E+03  0.11082417264E+03  0.00000000000E+00 0. -1.
        -12    1    3    3    0    0  0.83748208542E+01  0.31187017493E+02  0.45266793477E+01  0.32607644968E+02  0.00000000000E+00 0.  1.
        -11    1    4    4    0    0  0.51726762134E+02 -0.27130267690E+02 -0.21102712084E+01  0.58447947700E+02  0.00000000000E+00 0. -1.
         11    1    4    4    0    0 -0.37862786459E+02 -0.14675416338E+02  0.75640300812E+00  0.40614413558E+02  0.00000000000E+00 0.  1.
          2    1    1    2  501    0 -0.35605589154E+02 -0.96193141374E+01  0.69460059476E+02  0.78644701321E+02  0.00000000000E+00 0. -1.
<scales pt_clust_5="13000.00000" pt_clust_6="13000.00000" pt_clust_7="13000.00000" pt_clust_8="13000.00000" pt_clust_9="36.88210"></scales>
<clustering>
<clus scale="   36.882">  1  9  2 -1</clus>
<clus scale="   81.977">  5  6 -1 -1</clus>
<clus scale="   88.722">  7  8 -1 -1</clus>
<clus scale="   96.004">  2  5  1 -1</clus>
<clus scale="   36.882">  1  5  2 -1</clus>
</clustering>
</event>
<event>
 9    1  0.4731329E-005  0.9074562E+02  0.7546771E-02  0.1306096E+00
         21   -1    0    0  501  502  0.00000000000E+00  0.00000000000E+00  0.90563295513E+02  0.90563295513E+02  0.00000000000E+00 0.  1.
          1   -1    0    0  502    0 -0.00000000000E+00 -0.00000000000E+00 -0.42417004597E+03  0.42417004597E+03  0.00000000000E+00 0. -1.
        -24    2    1    2    0    0 -0.16892449821E+02 -0.14702518936E+02 -0.24835663540E+03  0.26209523631E+03  0.80693095271E+02 0.  0.
         23    2    1    2    0    0  0.64531079895E+00 -0.46890359566E+02  0.43100453931E+02  0.10934986153E+03  0.88885436603E+02 0.  0.
         11    1    3    3    0    0  0.93859066440E+00 -0.46501434466E+02 -0.15660819339E+03  0.16336887891E+03  0.00000000000E+00 0. -1.
        -12    1    3    3    0    0 -0.17831040485E+02  0.31798915530E+02 -0.91748442009E+02  0.98726357396E+02  0.00000000000E+00 0.  1.
        -13    1    4    4    0    0 -0.42449480607E+02 -0.32352650120E+02  0.33033103796E+02  0.62768131405E+02  0.00000000000E+00 0.  1.
         13    1    4    4    0    0  0.43094791406E+02 -0.14537709446E+02  0.10067350135E+02  0.46581730121E+02  0.00000000000E+00 0. -1.
          2    1    1    2  501    0  0.16247139022E+02  0.61592878503E+02 -0.12835056899E+03  0.14328824365E+03  0.00000000000E+00 0. -1.
<scales pt_clust_5="13000.00000" pt_clust_6="13000.00000" pt_clust_7="13000.00000" pt_clust_8="13000.00000" pt_clust_9="63.69974"></scales>
<clustering>
<clus scale="   63.700">  1  9  2 -1</clus>
<clus scale="   80.693">  5  6 -1 -1</clus>
<clus scale="   82.738">  2  5  1 -1</clus>
<clus scale="   88.885">  7  8 -1 -1</clus>
<clus scale="   63.700">  1  5  2 -1</clus>
</clustering>
</event>
<event>
 9    1  0.4731329E-005  0.4113216E+03  0.7546771E-02  0.1077763E+00
         21   -1    0    0  501  502  0.00000000000E+00  0.00000000000E+00  0.11774423649E+04  0.11774423649E+04  0.00000000000E+00 0. -1.
          1   -1    0    0  502    0 -0.00000000000E+00 -0.00000000000E+00 -0.54879878476E+03  0.54879878476E+03  0.00000000000E+00 0. -1.
         23    2    1    2    0    0  0.88794486550E+02  0.63836842278E+02  0.46431618823E+02  0.14967351598E+03  0.91031109445E+02 0.  0.
        -24    2    1    2    0    0 -0.19311004858E+03  0.32829392909E+03 -0.37240792437E+03  0.53928878761E+03  0.84120981740E+02 0.  0.
         11    1    4    4    0    0 -0.14102164134E+03  0.28404366969E+03 -0.33532137475E+03  0.46152825914E+03  0.00000000000E+00 0. -1.
        -12    1    4    4    0    0 -0.52088407243E+02  0.44250259399E+02 -0.37086549623E+02  0.77760528476E+02  0.00000000000E+00 0.  1.
        -13    1    3    3    0    0  0.78562076935E+02  0.88859864946E+01  0.34061315439E+01  0.79136353343E+02  0.00000000000E+00 0. -1.
         13    1    3    3    0    0  0.10232409616E+02  0.54950855784E+02  0.43025487280E+02  0.70537162642E+02  0.00000000000E+00 0.  1.
          2    1    1    2  501    0  0.10431556203E+03 -0.39213077137E+03  0.95461988566E+03  0.10372788460E+04  0.00000000000E+00 0. -1.
<scales pt_clust_5="13000.00000" pt_clust_6="13000.00000" pt_clust_7="13000.00000" pt_clust_8="13000.00000" pt_clust_9="402.62775"></scales>
<clustering>
<clus scale="   84.121">  5  6 -1 -1</clus>
<clus scale="   91.031">  7  8 -1 -1</clus>
<clus scale="  142.289">  2  7  1 -1</clus>
<clus scale="  402.628">  1  9  2 -1</clus>
<clus scale="  402.628">  1  5  2 -1</clus>
</clustering>
</event>
<event>
 9    1  0.4731329E-005  0.1027362E+03  0.7546771E-02  0.1282387E+00
          1   -1    0    0  502    0 -0.00000000000E+00  0.00000000000E+00  0.17779774050E+03  0.17779774050E+03  0.00000000000E+00 0. -1.
         21   -1    0    0  501  502  0.00000000000E+00 -0.00000000000E+00 -0.26198832434E+03  0.26198832434E+03  0.00000000000E+00 0. -1.
        -24    2    1    2    0    0  0.83271016732E+01 -0.53543389864E+02  0.80476062035E+02  0.12222719955E+03  0.74342831058E+02 0.  0.
         23    2    1    2    0    0  0.77233927206E+02  0.25378376942E+02  0.87809268018E+01  0.12211573268E+03  0.90697331635E+02 0.  0.
         13    1    3    3    0    0 -0.19537876824E+02 -0.20377380891E+02  0.73000447222E+02  0.78268969441E+02  0.00000000000E+00 0. -1.
        -14    1    3    3    0    0  0.27864978497E+02 -0.33166008973E+02  0.74756148131E+01  0.43958230113E+02  0.00000000000E+00 0.  1.
        -11    1    4    4    0    0 -0.95327826556E+00  0.41390228745E+02 -0.26764953923E+01  0.41487629513E+02  0.00000000000E+00 0.  1.
         11    1    4    4    0    0  0.78187205472E+02 -0.16011851803E+02  0.11457422194E+02  0.80628103171E+02  0.00000000000E+00 0. -1.
          2    1    1    2  501    0 -0.85561028880E+02  0.28165012922E+02 -0.17344757268E+03  0.19544313261E+03  0.00000000000E+00 0. -1.
<scales pt_clust_5="13000.00000" pt_clust_6="13000.00000" pt_clust_7="13000.00000" pt_clust_8="13000.00000" pt_clust_9="90.07751"></scales>
<clustering>
<clus scale="   74.343">  5  6 -1 -1</clus>
<clus scale="   90.078">  2  9  1 -1</clus>
<clus scale="   88.632">  1  5  2 -1</clus>
<clus scale="   90.697">  7  8 -1 -1</clus>
<clus scale="   90.078">  2  5  1 -1</clus>
</clustering>
</event>
<event>
 9    1  0.4731329E-005  0.1013501E+03  0.7546771E-02  0.1283043E+00
         21   -1    0    0  501  502  0.00000000000E+00  0.00000000000E+00  0.84004596522E+02  0.84004596522E+02  0.00000000000E+00 0.  1.
          1   -1    0    0  502    0 -0.00000000000E+00 -0.00000000000E+00 -0.18159847204E+03  0.18159847204E+03  0.00000000000E+00 0. -1.
         23    2    1    2    0    0  0.44773137943E+02  0.23992107577E+02 -0.11372337201E+03  0.15394909649E+03  0.90482395313E+02 0.  0.
        -24    2    1    2    0    0 -0.22126822591E+02 -0.28337469996E+02  0.75534731671E+01  0.87051412249E+02  0.78919483868E+02 0.  0.
         11    1    4    4    0    0 -0.35870841642E+01  0.20292118547E+02 -0.19522225279E+02  0.28385815609E+02  0.00000000000E+00 0. -1.
        -12    1    4    4    0    0 -0.18539738426E+02 -0.48629588543E+02  0.27075698446E+02  0.58665596640E+02  0.00000000000E+00 0.  1.
        -13    1    3    3    0    0 -0.24254117230E+01  0.42746942644E+02 -0.19797531798E+02  0.47171241161E+02  0.00000000000E+00 0.  1.
         13    1    3    3    0    0  0.47198549666E+02 -0.18754835067E+02 -0.93925840212E+02  0.10677785533E+03  0.00000000000E+00 0. -1.
          2    1    1    2  501    0 -0.22646315352E+02  0.43453624192E+01  0.85760233278E+01  0.24602559820E+02  0.00000000000E+00 0. -1.
<scales pt_clust_5="13000.00000" pt_clust_6="13000.00000" pt_clust_7="13000.00000" pt_clust_8="13000.00000" pt_clust_9="23.05944"></scales>
<clustering>
<clus scale="   23.059">  1  9  2 -1</clus>
<clus scale="   78.919">  5  6 -1 -1</clus>
<clus scale="   90.482">  7  8 -1 -1</clus>
<clus scale="   91.176">  1  5  2 -1</clus>
<clus scale="   23.059">  1  5  2 -1</clus>
</clustering>
</event>
<event>
 9    1  0.4731329E-005  0.1265822E+03  0.7546771E-02  0.1247330E+00
         21   -1    0    0  501  502  0.00000000000E+00  0.00000000000E+00  0.76595839280E+02  0.76595839280E+02  0.00000000000E+00 0. -1.
          1   -1    0    0  502    0 -0.00000000000E+00 -0.00000000000E+00 -0.36335824710E+03  0.36335824710E+03  0.00000000000E+00 0. -1.
         23    2    1    2    0    0  0.18956715053E+02 -0.13457432363E+02 -0.51966796519E+02  0.10730570248E+03  0.90958816578E+02 0.  0.
        -24    2    1    2    0    0 -0.92432624219E+02 -0.48908122274E+02 -0.17623299054E+03  0.21987537213E+03  0.79695155881E+02 0.  0.
         13    1    4    4    0    0 -0.62164925439E+02 -0.55964948180E+02 -0.16808205494E+03  0.18774485498E+03  0.00000000000E+00 0. -1.
        -14    1    4    4    0    0 -0.30267698781E+02  0.70568259062E+01 -0.81509356062E+01  0.32130517154E+02  0.00000000000E+00 0.  1.
        -13    1    3    3    0    0  0.11311854572E+02 -0.48649707183E+02 -0.50846904678E+02  0.71275239587E+02  0.00000000000E+00 0.  1.
         13    1    3    3    0    0  0.76448604810E+01  0.35192274819E+02 -0.11198918414E+01  0.36030462896E+02  0.00000000000E+00 0. -1.
          2    1    1    2  501    0  0.73475909166E+02  0.62365554637E+02 -0.58562620763E+02  0.11277301177E+03  0.00000000000E+00 0. -1.
<scales pt_clust_5="13000.00000" pt_clust_6="13000.00000" pt_clust_7="13000.00000" pt_clust_8="13000.00000" pt_clust_9="98.34503"></scales>
<clustering>
<clus scale="   79.695">  5  6 -1 -1</clus>
<clus scale="   90.959">  7  8 -1 -1</clus>
<clus scale="   93.883">  2  7  1 -1</clus>
<clus scale="   98.345">  1  9  2 -1</clus>
<clus scale="   98.345">  1  5  2 -1</clus>
</clustering>
</event>
<event>
 9    1  0.4731329E-005  0.9972406E+02  0.7546771E-02  0.1289717E+00
          1   -1    0    0  502    0 -0.00000000000E+00  0.00000000000E+00  0.68878835406E+03  0.68878835406E+03  0.00000000000E+00 0. -1.
         21   -1    0    0  501  502  0.00000000000E+00 -0.00000000000E+00 -0.75572498088E+02  0.75572498088E+02  0.00000000000E+00 0. -1.
        -24    2    1    2    0    0 -0.25967353157E+02  0.12838762120E+02  0.56675091259E+03  0.57315104500E+03  0.80351641052E+02 0.  0.
         23    2    1    2    0    0 -0.31749956767E+01 -0.16936330460E+02  0.93751567240E+02  0.13551338575E+03  0.96320306631E+02 0.  0.
         11    1    3    3    0    0  0.14576466205E+02  0.28277032967E+02  0.11491840225E+03  0.11924052640E+03  0.00000000000E+00 0. -1.
        -12    1    3    3    0    0 -0.40543819362E+02 -0.15438270846E+02  0.45183251034E+03  0.45391051860E+03  0.00000000000E+00 0.  1.
        -13    1    4    4    0    0 -0.36865441592E+02  0.16472060857E+02  0.73633628854E+02  0.83977978488E+02  0.00000000000E+00 0. -1.
         13    1    4    4    0    0  0.33690445915E+02 -0.33408391318E+02  0.20117938385E+02  0.51535407258E+02  0.00000000000E+00 0.  1.
          2    1    1    2  501    0  0.29142348834E+02  0.40975683396E+01 -0.47286623854E+02  0.55696421406E+02  0.00000000000E+00 0. -1.
<scales pt_clust_5="13000.00000" pt_clust_6="13000.00000" pt_clust_7="13000.00000" pt_clust_8="13000.00000" pt_clust_9="29.42901"></scales>
<clustering>
<clus scale="   29.429">  2  9  1 -1</clus>
<clus scale="   80.352">  5  6 -1 -1</clus>
<clus scale="   84.402">  1  5  2 -1</clus>
<clus scale="   96.320">  7  8 -1 -1</clus>
<clus scale="   29.429">  2  5  1 -1</clus>
</clustering>
</event>
<event>
 9    1  0.4731329E-005  0.1237230E+03  0.7546771E-02  0.1246059E+00
         21   -1    0    0  501  502  0.00000000000E+00  0.00000000000E+00  0.12304977528E+03  0.12304977528E+03  0.00000000000E+00 0.  1.
         -4   -1    0    0    0  501 -0.00000000000E+00 -0.00000000000E+00 -0.37931941349E+03  0.37931941349E+03  0.00000000000E+00 0.  1.
         23    2    1    2    0    0 -0.22435465136E+02 -0.38279452267E+02 -0.20787470656E+03  0.23205695114E+03  0.93112128016E+02 0.  0.
        -24    2    1    2    0    0 -0.84218536684E+02  0.40079412306E+02  0.43162033693E+02  0.12973843544E+03  0.79183200648E+02 0.  0.
         11    1    4    4    0    0 -0.90183505734E+01 -0.22450077609E+02  0.46977955686E+01  0.24645606401E+02  0.00000000000E+00 0. -1.
        -12    1    4    4    0    0 -0.75200186111E+02  0.62529489914E+02  0.38464238125E+02  0.10509282903E+03  0.00000000000E+00 0.  1.
        -13    1    3    3    0    0 -0.41637862616E+02  0.15707901969E+02 -0.72707421285E+02  0.85245638583E+02  0.00000000000E+00 0.  1.
         13    1    3    3    0    0  0.19202397480E+02 -0.53987354236E+02 -0.13516728527E+03  0.14681131256E+03  0.00000000000E+00 0. -1.
         -3    1    1    2    0  502  0.10665400182E+03 -0.17999600392E+01 -0.91556965348E+02  0.14057380220E+03  0.00000000000E+00 0.  1.
<scales pt_clust_5="13000.00000" pt_clust_6="13000.00000" pt_clust_7="13000.00000" pt_clust_8="13000.00000" pt_clust_9="95.06534"></scales>
<clustering>
<clus scale="   79.183">  5  6 -1 -1</clus>
<clus scale="   93.112">  7  8 -1 -1</clus>
<clus scale="  103.143">  2  7  1 -1</clus>
<clus scale="   95.065">  1  9  2 -1</clus>
<clus scale="   95.065">  1  5  2 -1</clus>
</clustering>
</event>
<event>
 9    1  0.4731329E-005  0.1728908E+03  0.7546771E-02  0.1190675E+00
         -4   -1    0    0    0  501 -0.00000000000E+00  0.00000000000E+00  0.13162502471E+03  0.13162502471E+03  0.00000000000E+00 0.  1.
         21   -1    0    0  501  502  0.00000000000E+00 -0.00000000000E+00 -0.69707271645E+03  0.69707271645E+03  0.00000000000E+00 0.  1.
         23    2    1    2    0    0 -0.81337638973E+02 -0.18837591329E+02  0.78855888789E+00  0.12138956829E+03  0.88114352428E+02 0.  0.
        -24    2    1    2    0    0 -0.73426274956E+02  0.75873166746E+02 -0.16814645009E+02  0.13366278882E+03  0.80217538876E+02 0.  0.
         13    1    4    4    0    0 -0.56237103614E+02  0.85699634607E+02 -0.33427646122E+02  0.10781672746E+03  0.00000000000E+00 0. -1.
        -14    1    4    4    0    0 -0.17189171342E+02 -0.98264678612E+01  0.16613001113E+02  0.25846061364E+02  0.00000000000E+00 0.  1.
        -13    1    3    3    0    0 -0.68201264775E+02  0.24744770582E+02 -0.13257102875E+02  0.73752742083E+02  0.00000000000E+00 0.  1.
         13    1    3    3    0    0 -0.13136374197E+02 -0.43582361911E+02  0.14045661763E+02  0.47636826208E+02  0.00000000000E+00 0. -1.
         -3    1    1    2    0  502  0.15476391393E+03 -0.57035575417E+02 -0.54942160562E+03  0.57364538405E+03  0.00000000000E+00 0.  1.
<scales pt_clust_5="13000.00000" pt_clust_6="13000.00000" pt_clust_7="13000.00000" pt_clust_8="13000.00000" pt_clust_9="153.15470"></scales>
<clustering>
<clus scale="   80.218">  5  6 -1 -1</clus>
<clus scale="   88.114">  7  8 -1 -1</clus>
<clus scale="  121.387">  1  7  2 -1</clus>
<clus scale="  153.155">  2  9  1 -1</clus>
<clus scale="  153.155">  2  5  1 -1</clus>
</clustering>
</event>
<event>
 9    1  0.4731329E-005  0.1065748E+03  0.7546771E-02  0.1270883E+00
         -2   -1    0    0    0  501 -0.00000000000E+00  0.00000000000E+00  0.38237048534E+03  0.38237048534E+03  0.00000000000E+00 0.  1.
         21   -1    0    0  501  502  0.00000000000E+00 -0.00000000000E+00 -0.52288680763E+02  0.52288680763E+02  0.00000000000E+00 0.  1.
        -24    2    1    2    0    0  0.77441152440E+01 -0.46399518352E+02  0.19934718083E+03  0.22060776325E+03  0.81948764953E+02 0.  0.
         23    2    1    2    0    0 -0.20019700682E+02  0.69020952267E+02  0.14416556087E+03  0.18502022406E+03  0.91016998982E+02 0.  0.
         13    1    3    3    0    0  0.52364020375E+01  0.23737631694E+02  0.51014048115E+02  0.56509540520E+02  0.00000000000E+00 0. -1.
        -14    1    3    3    0    0  0.25077132065E+01 -0.70137150046E+02  0.14833313271E+03  0.16409822273E+03  0.00000000000E+00 0.  1.
        -11    1    4    4    0    0  0.26983724784E+02  0.14205113595E+02  0.89209183339E+02  0.94277171402E+02  0.00000000000E+00 0.  1.
         11    1    4    4    0    0 -0.47003425466E+02  0.54815838672E+02  0.54956377532E+02  0.90743052661E+02  0.00000000000E+00 0. -1.
         -1    1    1    2    0  502  0.12275585438E+02 -0.22621433915E+02 -0.13430937121E+02  0.29031178794E+02  0.00000000000E+00 0.  1.
<scales pt_clust_5="13000.00000" pt_clust_6="13000.00000" pt_clust_7="13000.00000" pt_clust_8="13000.00000" pt_clust_9="25.73751"></scales>
<clustering>
<clus scale="   25.738">  2  9  1 -1</clus>
<clus scale="   81.949">  5  6 -1 -1</clus>
<clus scale="   91.017">  7  8 -1 -1</clus>
<clus scale="   98.943">  1  5  2 -1</clus>
<clus scale="   25.738">  2  5  1 -1</clus>
</clustering>
</event>
<event>
 9    1  0.4731329E-005  0.1230547E+03  0.7546771E-02  0.1240125E+00
          3   -1    0    0  502    0 -0.00000000000E+00  0.00000000000E+00  0.15783024143E+03  0.15783024143E+03  0.00000000000E+00 0. -1.
         21   -1    0    0  501  502  0.00000000000E+00 -0.00000000000E+00 -0.16027895208E+03  0.16027895208E+03  0.00000000000E+00 0. -1.
         23    2    1    2    0    0  0.21690811071E+02 -0.80973459021E+02  0.71619967879E+02  0.14363068979E+03  0.92049784899E+02 0.  0.
        -24    2    1    2    0    0 -0.55197139248E+02  0.61621420521E+02 -0.50748524887E+02  0.12930102052E+03  0.85436628446E+02 0.  0.
         13    1    4    4    0    0 -0.65818566816E+02  0.38911139372E+02 -0.43764225287E+01  0.76585335274E+02  0.00000000000E+00 0. -1.
        -14    1    4    4    0    0  0.10621427568E+02  0.22710281150E+02 -0.46372102358E+02  0.52715685243E+02  0.00000000000E+00 0.  1.
        -13    1    3    3    0    0 -0.30413332624E+02 -0.37345872808E+02  0.49272668490E+01  0.48414491380E+02  0.00000000000E+00 0.  1.
         13    1    3    3    0    0  0.52104143694E+02 -0.43627586214E+02  0.66692701030E+02  0.95216198410E+02  0.00000000000E+00 0. -1.
          4    1    1    2  501    0  0.33506328177E+02  0.19352038500E+02 -0.23320153644E+02  0.45177483197E+02  0.00000000000E+00 0. -1.
<scales pt_clust_5="13000.00000" pt_clust_6="13000.00000" pt_clust_7="13000.00000" pt_clust_8="13000.00000" pt_clust_9="38.69335"></scales>
<clustering>
<clus scale="   38.693">  2  9  1 -1</clus>
<clus scale="   85.437">  5  6 -1 -1</clus>
<clus scale="   92.050">  7  8 -1 -1</clus>
<clus scale="  118.189">  2  5  1 -1</clus>
<clus scale="   38.693">  2  5  1 -1</clus>
</clustering>
</event>
<event>
 9    1  0.4731329E-005  0.9004509E+02  0.7546771E-02  0.1306310E+00
         21   -1    0    0  501  502  0.00000000000E+00  0.00000000000E+00  0.21355374362E+02  0.21355374362E+02  0.00000000000E+00 0. -1.
         -2   -1    0    0    0  501 -0.00000000000E+00 -0.00000000000E+00 -0.75484201542E+03  0.75484201542E+03  0.00000000000E+00 0.  1.
         23    2    1    2    0    0 -0.26885888239E+02 -0.37528246606E+01 -0.36216721880E+03  0.37329078250E+03  0.86278498176E+02 0.  0.
        -24    2    1    2    0    0 -0.87117758428E+01  0.51796145231E+02 -0.24587562941E+03  0.26394078593E+03  0.80319223357E+02 0.  0.
         13    1    4    4    0    0 -0.58276349966E+01  0.46298834495E+02 -0.51618838734E+02  0.69584825339E+02  0.00000000000E+00 0. -1.
        -14    1    4    4    0    0 -0.28841408461E+01  0.54973107360E+01 -0.19425679067E+03  0.19435596059E+03  0.00000000000E+00 0.  1.
        -13    1    3    3    0    0 -0.91044190960E+01  0.40738811870E+02 -0.14426189157E+03  0.15018000733E+03  0.00000000000E+00 0.  1.
         13    1    3    3    0    0 -0.17781469143E+02 -0.44491636531E+02 -0.21790532723E+03  0.22311077518E+03  0.00000000000E+00 0. -1.
         -1    1    1    2    0  502  0.35597664082E+02 -0.48043320570E+02 -0.12544379285E+03  0.13896582135E+03  0.00000000000E+00 0.  1.
<scales pt_clust_5="13000.00000" pt_clust_6="13000.00000" pt_clust_7="13000.00000" pt_clust_8="13000.00000" pt_clust_9="59.79427"></scales>
<clustering>
<clus scale="   59.794">  1  9  2 -1</clus>
<clus scale="   80.319">  5  6 -1 -1</clus>
<clus scale="   84.352">  1  5  2 -1</clus>
<clus scale="   86.278">  7  8 -1 -1</clus>
<clus scale="   59.794">  1  5  2 -1</clus>
</clustering>
</event>
<event>
 9    1  0.4731329E-005  0.1026091E+03  0.7546771E-02  0.1278045E+00
         21   -1    0    0  501  502  0.00000000000E+00  0.00000000000E+00  0.44595817100E+03  0.44595817100E+03  0.00000000000E+00 0.  1.
          1   -1    0    0  502    0 -0.00000000000E+00 -0.00000000000E+00 -0.50858039976E+02  0.50858039976E+02  0.00000000000E+00 0. -1.
         23    2    1    2    0    0 -0.25059217135E+02  0.43011196931E+02  0.21651041335E+02  0.10637209892E+03  0.91478568055E+02 0.  0.
        -24    2    1    2    0    0  0.26442251330E+02 -0.20295613890E+02  0.29035660575E+03  0.30429150685E+03  0.84706894871E+02 0.  0.
         13    1    4    4    0    0 -0.88761257611E+00 -0.47387764323E+02  0.10837868115E+03  0.11828916515E+03  0.00000000000E+00 0. -1.
        -14    1    4    4    0    0  0.27329863906E+02  0.27092150433E+02  0.18197792460E+03  0.18600234170E+03  0.00000000000E+00 0.  1.
        -13    1    3    3    0    0 -0.25967632580E+02  0.65162482722E+02 -0.66055466726E+01  0.70456371913E+02  0.00000000000E+00 0. -1.
         13    1    3    3    0    0  0.90841544457E+00 -0.22151285790E+02  0.28256588008E+02  0.35915727010E+02  0.00000000000E+00 0.  1.
          2    1    1    2  501    0 -0.13830341949E+01 -0.22715583041E+02  0.83092483939E+02  0.86152605206E+02  0.00000000000E+00 0. -1.
<scales pt_clust_5="13000.00000" pt_clust_6="13000.00000" pt_clust_7="13000.00000" pt_clust_8="13000.00000" pt_clust_9="22.75765"></scales>
<clustering>
<clus scale="   22.758">  1  9  2 -1</clus>
<clus scale="   84.707">  5  6 -1 -1</clus>
<clus scale="   91.479">  7  8 -1 -1</clus>
<clus scale="   96.621">  1  5  2 -1</clus>
<clus scale="   22.758">  1  5  2 -1</clus>
</clustering>
</event>
<event>
 9    1  0.4731329E-005  0.1966929E+03  0.7546771E-02  0.1152849E+00
         21   -1    0    0  501  502  0.00000000000E+00  0.00000000000E+00  0.38868536988E+03  0.38868536988E+03  0.00000000000E+00 0.  1.
          1   -1    0    0  502    0 -0.00000000000E+00 -0.00000000000E+00 -0.16804426914E+03  0.16804426914E+03  0.00000000000E+00 0. -1.
         23    2    1    2    0    0  0.18173027417E+03  0.81826676339E+02 -0.15989934476E+02  0.21751277689E+03  0.85642469574E+02 0.  0.
        -24    2    1    2    0    0 -0.10249087657E+03 -0.80925750834E+02  0.19778291305E+03  0.25096228494E+03  0.82526546282E+02 0.  0.
         11    1    4    4    0    0 -0.23012269575E+02 -0.24925283993E+02  0.40030750348E+01  0.34159317073E+02  0.00000000000E+00 0. -1.
        -12    1    4    4    0    0 -0.79478606996E+02 -0.56000466840E+02  0.19377983802E+03  0.21680296787E+03  0.00000000000E+00 0.  1.
        -13    1    3    3    0    0  0.75393717354E+02  0.36711663005E+01  0.24686686763E+02  0.79417394705E+02  0.00000000000E+00 0.  1.
         13    1    3    3    0    0  0.10633655681E+03  0.78155510039E+02 -0.40676621239E+02  0.13809538218E+03  0.00000000000E+00 0. -1.
          2    1    1    2  501    0 -0.79239397594E+02 -0.90092550571E+00  0.38848122165E+02  0.88254577182E+02  0.00000000000E+00 0. -1.
<scales pt_clust_5="13000.00000" pt_clust_6="13000.00000" pt_clust_7="13000.00000" pt_clust_8="13000.00000" pt_clust_9="79.24452"></scales>
<clustering>
<clus scale="   79.245">  1  9  2 -1</clus>
<clus scale="   82.527">  5  6 -1 -1</clus>
<clus scale="   85.642">  7  8 -1 -1</clus>
<clus scale="  195.356">  1  5  2 -1</clus>
<clus scale="   79.245">  1  5  2 -1</clus>
</clustering>
</event>
<event>
 9    1  0.4731329E-005  0.1051053E+03  0.7546771E-02  0.1277036E+00
         -2   -1    0    0    0  501 -0.00000000000E+00  0.00000000000E+00  0.24527163723E+03  0.24527163723E+03  0.00000000000E+00 0.  1.
         21   -1    0    0  501  502  0.00000000000E+00 -0.00000000000E+00 -0.13599269210E+03  0.13599269210E+03  0.00000000000E+00 0. -1.
         23    2    1    2    0    0 -0.52686741371E+02 -0.16576332036E+02  0.10055614234E+03  0.14696340519E+03  0.91847902556E+02 0.  0.
        -24    2    1    2    0    0  0.44836641525E+02 -0.71260323203E+02 -0.54409438782E+02  0.12584548630E+03  0.76081149495E+02 0.  0.
         13    1    4    4    0    0  0.31015161935E+02 -0.78844133584E+02 -0.65057193635E+02  0.10682123438E+03  0.00000000000E+00 0. -1.
        -14    1    4    4    0    0  0.13821479590E+02  0.75838103809E+01  0.10647754853E+02  0.19024251926E+02  0.00000000000E+00 0.  1.
        -13    1    3    3    0    0 -0.14690879438E+02  0.26852365285E+02 -0.47796972648E+00  0.30612087729E+02  0.00000000000E+00 0.  1.
         13    1    3    3    0    0 -0.37995861933E+02 -0.43428697321E+02  0.10103411206E+03  0.11635131746E+03  0.00000000000E+00 0. -1.
         -1    1    1    2    0  502  0.78500998462E+01  0.87836655239E+02  0.63132241574E+02  0.10845543784E+03  0.00000000000E+00 0.  1.
<scales pt_clust_5="13000.00000" pt_clust_6="13000.00000" pt_clust_7="13000.00000" pt_clust_8="13000.00000" pt_clust_9="88.18679"></scales>
<clustering>
<clus scale="   76.081">  5  6 -1 -1</clus>
<clus scale="   88.187">  2  9  1 -1</clus>
<clus scale="   91.648">  2  5  1 -1</clus>
<clus scale="   91.848">  7  8 -1 -1</clus>
<clus scale="   88.187">  2  5  1 -1</clus>
</clustering>
</event>
<event>
 9    1  0.4731329E-005  0.1158419E+03  0.7546771E-02  0.1254287E+00
         21   -1    0    0  501  502  0.00000000000E+00  0.00000000000E+00  0.95879043408E+02  0.95879043408E+02  0.00000000000E+00 0. -1.
          1   -1    0    0  502    0 -0.00000000000E+00 -0.00000000000E+00 -0.37982561344E+03  0.37982561344E+03  0.00000000000E+00 0. -1.
        -24    2    1    2    0    0  0.24371018904E+02  0.69449992489E+02 -0.23204093259E+03  0.25617811264E+03  0.79793376806E+02 0.  0.
         23    2    1    2    0    0  0.57449953229E+02 -0.72757697787E+02 -0.21601518335E+02  0.13221129908E+03  0.91755230358E+02 0.  0.
         13    1    3    3    0    0  0.38725390985E+02  0.19038339319E+02 -0.16783635927E+03  0.17329500213E+03  0.00000000000E+00 0. -1.
        -14    1    3    3    0    0 -0.14354372081E+02  0.50411653171E+02 -0.64204573323E+02  0.82883110516E+02  0.00000000000E+00 0.  1.
        -13    1    4    4    0    0  0.20890937199E+02 -0.82261684965E+02 -0.35449622486E+02  0.91978757355E+02  0.00000000000E+00 0.  1.
         13    1    4    4    0    0  0.36559016030E+02  0.95039871780E+01  0.13848104151E+02  0.40232541729E+02  0.00000000000E+00 0. -1.
          2    1    1    2  501    0 -0.81820972133E+02  0.33077052971E+01 -0.30304119106E+02  0.87315245117E+02  0.00000000000E+00 0. -1.
<scales pt_clust_5="13000.00000" pt_clust_6="13000.00000" pt_clust_7="13000.00000" pt_clust_8="13000.00000" pt_clust_9="81.88780"></scales>
<clustering>
<clus scale="   79.793">  5  6 -1 -1</clus>
<clus scale="   81.888">  1  9  2 -1</clus>
<clus scale="   91.755">  7  8 -1 -1</clus>
<clus scale="  106.618">  2  5  1 -1</clus>
<clus scale="   81.888">  1  5  2 -1</clus>
</clustering>
</event>
<event>
 9    1  0.4731329E-005  0.1921365E+03  0.7546771E-02  0.1171659E+00
         21   -1    0    0  501  502  0.00000000000E+00  0.00000000000E+00  0.99491563994E+02  0.99491563994E+02  0.00000000000E+00 0.  1.
          3   -1    0    0  502    0 -0.00000000000E+00 -0.00000000000E+00 -0.10512168557E+04  0.10512168557E+04  0.00000000000E+00 0. -1.
        -24    2    1    2    0    0 -0.10188163673E+03  0.30653092758E+02 -0.48037772615E+03  0.49912192374E+03  0.83907419114E+02 0.  0.
         23    2    1    2    0    0  0.15474093257E+02  0.15803107272E+03 -0.68680887324E+02  0.19858712329E+03  0.97501352544E+02 0.  0.
         11    1    3    3    0    0 -0.37111265003E+02 -0.26893861379E+02 -0.11945666776E+03  0.12794694698E+03  0.00000000000E+00 0. -1.
        -12    1    3    3    0    0 -0.64770371725E+02  0.57546954136E+02 -0.36092105839E+03  0.37117497676E+03  0.00000000000E+00 0.  1.
        -13    1    4    4    0    0  0.31882125582E+02  0.32822177041E+02 -0.55035145069E+02  0.71572567580E+02  0.00000000000E+00 0. -1.
         13    1    4    4    0    0 -0.16408032325E+02  0.12520889568E+03 -0.13645742256E+02  0.12701455571E+03  0.00000000000E+00 0.  1.
          4    1    1    2  501    0  0.86407543472E+02 -0.18868416547E+03 -0.40266667821E+03  0.45299937264E+03  0.00000000000E+00 0. -1.
<scales pt_clust_5="13000.00000" pt_clust_6="13000.00000" pt_clust_7="13000.00000" pt_clust_8="13000.00000" pt_clust_9="165.55955"></scales>
<clustering>
<clus scale="   83.907">  5  6 -1 -1</clus>
<clus scale="   97.501">  7  8 -1 -1</clus>
<clus scale="  135.499">  2  5  1 -1</clus>
<clus scale="  165.560">  1  9  2 -1</clus>
<clus scale="  165.560">  1  5  2 -1</clus>
</clustering>
</event>
<event>
 9    1  0.4731329E-005  0.9759765E+02  0.7546771E-02  0.1287579E+00
         21   -1    0    0  501  502  0.00000000000E+00  0.00000000000E+00  0.78912085080E+02  0.78912085080E+02  0.00000000000E+00 0.  1.
         -2   -1    0    0    0  501 -0.00000000000E+00 -0.00000000000E+00 -0.39645989018E+03  0.39645989018E+03  0.00000000000E+00 0.  1.
        -24    2    1    2    0    0  0.74554032645E+01 -0.14544647047E+02 -0.28046819824E+03  0.29669995954E+03  0.95400869872E+02 0.  0.
         23    2    1    2    0    0 -0.37916977048E+02  0.12329859658E+02 -0.78691099421E+02  0.12705487637E+03  0.91438120577E+02 0.  0.
         11    1    3    3    0    0  0.50132875838E+02 -0.83938605398E+01 -0.18664921501E+03  0.19344687022E+03  0.00000000000E+00 0. -1.
        -12    1    3    3    0    0 -0.42677472574E+02 -0.61507865076E+01 -0.93818983236E+02  0.10325308933E+03  0.00000000000E+00 0.  1.
        -11    1    4    4    0    0  0.13978624576E+02 -0.29795644447E+02 -0.25821629940E+02  0.41832271584E+02  0.00000000000E+00 0. -1.
         11    1    4    4    0    0 -0.51895601624E+02  0.42125504105E+02 -0.52869469481E+02  0.85222604790E+02  0.00000000000E+00 0.  1.
         -1    1    1    2    0  502  0.30461573783E+02  0.22147873897E+01  0.41611492563E+02  0.51617139342E+02  0.00000000000E+00 0.  1.
<scales pt_clust_5="13000.00000" pt_clust_6="13000.00000" pt_clust_7="13000.00000" pt_clust_8="13000.00000" pt_clust_9="30.54198"></scales>
<clustering>
<clus scale="   30.542">  1  9  2 -1</clus>
<clus scale="   91.438">  7  8 -1 -1</clus>
<clus scale="   93.728">  1  7  2 -1</clus>
<clus scale="   95.401">  5  6 -1 -1</clus>
<clus scale="   30.542">  1  5  2 -1</clus>
</clustering>
</event>
<event>
 9    1  0.4731329E-005  0.1295476E+03  0.7546771E-02  0.1233564E+00
         -2   -1    0    0    0  501 -0.00000000000E+00  0.00000000000E+00  0.19239160729E+03  0.19239160729E+03  0.00000000000E+00 0.  1.
         21   -1    0    0  501  502  0.00000000000E+00 -0.00000000000E+00 -0.22731235676E+03  0.22731235676E+03  0.00000000000E+00 0. -1.
        -24    2    1    2    0    0  0.43387629880E+02  0.98152692429E+02  0.33377093814E+02  0.13597006288E+03  0.76533588390E+02 0.  0.
         23    2    1    2    0    0  0.74374992729E+02 -0.59066510677E+02 -0.83373204728E+02  0.15874177578E+03  0.96059189484E+02 0.  0.
         13    1    3    3    0    0 -0.14310529283E+02  0.59738869310E+02  0.70892251837E+01  0.61836727505E+02  0.00000000000E+00 0. -1.
        -14    1    3    3    0    0  0.57698159163E+02  0.38413823119E+02  0.26287868631E+02  0.74133335380E+02  0.00000000000E+00 0.  1.
        -13    1    4    4    0    0 -0.21314744001E+02 -0.19588623947E+02 -0.32100620071E+02  0.43225944859E+02  0.00000000000E+00 0.  1.
         13    1    4    4    0    0  0.95689736730E+02 -0.39477886730E+02 -0.51272584657E+02  0.11551583092E+03  0.00000000000E+00 0. -1.
         -1    1    1    2    0  502 -0.11776262261E+03 -0.39086181751E+02  0.15075361444E+02  0.12499212539E+03  0.00000000000E+00 0.  1.
<scales pt_clust_5="13000.00000" pt_clust_6="13000.00000" pt_clust_7="13000.00000" pt_clust_8="13000.00000" pt_clust_9="124.07973"></scales>
<clustering>
<clus scale="   76.534">  5  6 -1 -1</clus>
<clus scale="   96.059">  7  8 -1 -1</clus>
<clus scale="  124.080">  2  9  1 -1</clus>
<clus scale="  115.813">  1  5  2 -1</clus>
<clus scale="  124.080">  2  5  1 -1</clus>
</clustering>
</event>
<event>
 9    1  0.4731329E-005  0.9393198E+02  0.7546771E-02  0.1299301E+00
         21   -1    0    0  501  502  0.00000000000E+00  0.00000000000E+00  0.97763743050E+02  0.97763743050E+02  0.00000000000E+00 0.  1.
          3   -1    0    0  502    0 -0.00000000000E+00 -0.00000000000E+00 -0.18737301834E+03  0.18737301834E+03  0.00000000000E+00 0. -1.
         23    2    1    2    0    0 -0.30815304868E+02  0.37189139119E+02 -0.29723536690E+02  0.10716276634E+03  0.90927194907E+02 0.  0.
        -24    2    1    2    0    0  0.32472970544E-01  0.11016253935E+02  0.15490908399E+02  0.83353798624E+02  0.81157430940E+02 0.  0.
         13    1    4    4    0    0 -0.29016968482E+02  0.16647431612E+02 -0.18548199265E+02  0.38251237041E+02  0.00000000000E+00 0. -1.
        -14    1    4    4    0    0  0.29049441453E+02 -0.56311776767E+01  0.34039107665E+02  0.45102561583E+02  0.00000000000E+00 0.  1.
        -11    1    3    3    0    0 -0.29394150651E+02 -0.17495906974E+02 -0.38784169912E+02  0.51713969960E+02  0.00000000000E+00 0. -1.
         11    1    3    3    0    0 -0.14211542176E+01  0.54685046093E+02  0.90606332218E+01  0.55448796379E+02  0.00000000000E+00 0.  1.
          4    1    1    2  501    0  0.30782831898E+02 -0.48205393054E+02 -0.75376647002E+02  0.94620196430E+02  0.00000000000E+00 0. -1.
<scales pt_clust_5="13000.00000" pt_clust_6="13000.00000" pt_clust_7="13000.00000" pt_clust_8="13000.00000" pt_clust_9="57.19568"></scales>
<clustering>
<clus scale="   57.196">  1  9  2 -1</clus>
<clus scale="   81.157">  5  6 -1 -1</clus>
<clus scale="   84.510">  1  5  2 -1</clus>
<clus scale="   90.927">  7  8 -1 -1</clus>
<clus scale="   57.196">  1  5  2 -1</clus>
</clustering>
</event>
<event>
 9    1  0.4731329E-005  0.1588919E+03  0.7546771E-02  0.1191818E+00
         21   -1    0    0  501  502  0.00000000000E+00  0.00000000000E+00  0.13269324123E+03  0.13269324123E+03  0.00000000000E+00 0.  1.
          3   -1    0    0  502    0 -0.00000000000E+00 -0.00000000000E+00 -0.47024914244E+03  0.47024914244E+03  0.00000000000E+00 0. -1.
         23    2    1    2    0    0  0.22307778539E+02  0.12393453999E+03 -0.36386503276E+03  0.39587803128E+03  0.92001339081E+02 0.  0.
        -24    2    1    2    0    0 -0.24877592981E+02 -0.14592024730E+03 -0.52087491457E+01  0.16855004238E+03  0.80438625761E+02 0.  0.
         11    1    4    4    0    0  0.18766724343E+02 -0.40532345593E+02 -0.27320376873E+02  0.52358991341E+02  0.00000000000E+00 0. -1.
        -12    1    4    4    0    0 -0.43644317324E+02 -0.10538790171E+03  0.22111627727E+02  0.11619105104E+03  0.00000000000E+00 0.  1.
        -11    1    3    3    0    0  0.44882765228E+02  0.93728049823E+02 -0.17705215425E+03  0.20529704154E+03  0.00000000000E+00 0.  1.
         11    1    3    3    0    0 -0.22574986688E+02  0.30206490165E+02 -0.18681287851E+03  0.19058098974E+03  0.00000000000E+00 0. -1.
          4    1    1    2  501    0  0.25698144414E+01  0.21985707311E+02  0.31517880703E+02  0.38514310019E+02  0.00000000000E+00 0. -1.
<scales pt_clust_5="13000.00000" pt_clust_6="13000.00000" pt_clust_7="13000.00000" pt_clust_8="13000.00000" pt_clust_9="22.13539"></scales>
<clustering>
<clus scale="   22.135">  1  9  2 -1</clus>
<clus scale="   80.439">  5  6 -1 -1</clus>
<clus scale="   92.001">  7  8 -1 -1</clus>
<clus scale="  152.489">  1  5  2 -1</clus>
<clus scale="   22.135">  1  5  2 -1</clus>
</clustering>
</event>
<event>
 9    1  0.4731329E-005  0.1251238E+03  0.7546771E-02  0.1238136E+00
         21   -1    0    0  501  502  0.00000000000E+00  0.00000000000E+00  0.28672836804E+03  0.28672836804E+03  0.00000000000E+00 0. -1.
          3   -1    0    0  502    0 -0.00000000000E+00 -0.00000000000E+00 -0.97940341404E+02  0.97940341404E+02  0.00000000000E+00 0. -1.
         23    2    1    2    0    0  0.12282639931E+02  0.81725962229E+02  0.16112401316E+02  0.12363692456E+03  0.90534432633E+02 0.  0.
        -24    2    1    2    0    0  0.38535764021E+02 -0.92603762099E+02  0.69189775980E+02  0.14522954949E+03  0.79018574272E+02 0.  0.
         13    1    4    4    0    0  0.29415716003E+02 -0.10081590809E+03  0.37950957356E+02  0.11166649827E+03  0.00000000000E+00 0. -1.
        -14    1    4    4    0    0  0.91200480180E+01  0.82121459924E+01  0.31238818624E+02  0.33563051213E+02  0.00000000000E+00 0.  1.
        -11    1    3    3    0    0 -0.37184973555E+02  0.18955441703E+02 -0.16372953143E+01  0.41769746999E+02  0.00000000000E+00 0.  1.
         11    1    3    3    0    0  0.49467613486E+02  0.62770520526E+02  0.17749696630E+02  0.81867177559E+02  0.00000000000E+00 0. -1.
          4    1    1    2  501    0 -0.50818403952E+02  0.10877799870E+02  0.10348584934E+03  0.11580223540E+03  0.00000000000E+00 0. -1.
<scales pt_clust_5="13000.00000" pt_clust_6="13000.00000" pt_clust_7="13000.00000" pt_clust_8="13000.00000" pt_clust_9="51.96957"></scales>
<clustering>
<clus scale="   51.970">  1  9  2 -1</clus>
<clus scale="   79.019">  5  6 -1 -1</clus>
<clus scale="   90.534">  7  8 -1 -1</clus>
<clus scale="  117.062">  1  5  2 -1</clus>
<clus scale="   51.970">  1  5  2 -1</clus>
</clustering>
</event>
<event>
 9    1  0.4731329E-005  0.1025269E+03  0.7546771E-02  0.1280126E+00
          1   -1    0    0  502    0 -0.00000000000E+00  0.00000000000E+00  0.62165585060E+02  0.62165585060E+02  0.00000000000E+00 0. -1.
         21   -1    0    0  501  502  0.00000000000E+00 -0.00000000000E+00 -0.37559952144E+03  0.37559952144E+03  0.00000000000E+00 0. -1.
        -24    2    1    2    0    0 -0.33799394604E+00  0.72263389094E+02 -0.60677611763E+02  0.12466528706E+03  0.81471157998E+02 0.  0.
         23    2    1    2    0    0 -0.38519031213E+02  0.66146936637E+00 -0.11340712563E+03  0.15109332993E+03  0.92107898127E+02 0.  0.
         11    1    3    3    0    0  0.20863532328E+02  0.34368315012E+02  0.10258960135E+02  0.41493545534E+02  0.00000000000E+00 0. -1.
        -12    1    3    3    0    0 -0.21201526274E+02  0.37895074082E+02 -0.70936571898E+02  0.83171741527E+02  0.00000000000E+00 0.  1.
        -13    1    4    4    0    0 -0.59388148526E+02  0.17879891059E+02 -0.42461633300E+02  0.75164040552E+02  0.00000000000E+00 0. -1.
         13    1    4    4    0    0  0.20869117312E+02 -0.17218421693E+02 -0.70945492330E+02  0.75929289375E+02  0.00000000000E+00 0.  1.
          2    1    1    2  501    0  0.38857025159E+02 -0.72924858460E+02 -0.13934919899E+03  0.16200648952E+03  0.00000000000E+00 0. -1.
<scales pt_clust_5="13000.00000" pt_clust_6="13000.00000" pt_clust_7="13000.00000" pt_clust_8="13000.00000" pt_clust_9="82.63113"></scales>
<clustering>
<clus scale="   81.471">  5  6 -1 -1</clus>
<clus scale="   82.631">  2  9  1 -1</clus>
<clus scale="   92.108">  7  8 -1 -1</clus>
<clus scale="   93.088">  1  5  2 -1</clus>
<clus scale="   82.631">  2  5  1 -1</clus>
</clustering>
</event>
<event>
 9    1  0.4731329E-005  0.1392771E+03  0.7546771E-02  0.1216883E+00
          1   -1    0    0  502    0 -0.00000000000E+00  0.00000000000E+00  0.49074046648E+03  0.49074046648E+03  0.00000000000E+00 0. -1.
         21   -1    0    0  501  502  0.00000000000E+00 -0.00000000000E+00 -0.81562819220E+02  0.81562819220E+02  0.00000000000E+00 0. -1.
        -24    2    1    2    0    0  0.11062374590E+03 -0.17554059301E+01  0.35356993387E+03  0.37894391520E+03  0.79662400938E+02 0.  0.
         23    2    1    2    0    0 -0.79200633158E+02 -0.36108867569E+02  0.10551850832E+02  0.12664246130E+03  0.91380418251E+02 0.  0.
         11    1    3    3    0    0  0.69264014371E+02  0.15951860056E+02  0.10802442621E+03  0.12931064219E+03  0.00000000000E+00 0. -1.
        -12    1    3    3    0    0  0.41359731528E+02 -0.17707265986E+02  0.24554550766E+03  0.24963327300E+03  0.00000000000E+00 0.  1.
        -13    1    4    4    0    0 -0.53072303690E+02 -0.54223624473E+02 -0.24105212462E+02  0.79611130740E+02  0.00000000000E+00 0. -1.
         13    1    4    4    0    0 -0.26128329468E+02  0.18114756904E+02  0.34657063294E+02  0.47031330565E+02  0.00000000000E+00 0.  1.
          2    1    1    2  501    0 -0.31423112742E+02  0.37864273499E+02  0.45055862564E+02  0.66716909201E+02  0.00000000000E+00 0. -1.
<scales pt_clust_5="13000.00000" pt_clust_6="13000.00000" pt_clust_7="13000.00000" pt_clust_8="13000.00000" pt_clust_9="49.20483"></scales>
<clustering>
<clus scale="   49.205">  2  9  1 -1</clus>
<clus scale="   79.662">  5  6 -1 -1</clus>
<clus scale="   91.380">  7  8 -1 -1</clus>
<clus scale="  131.886">  1  5  2 -1</clus>
<clus scale="   49.205">  2  5  1 -1</clus>
</clustering>
</event>
<event>
 9    1  0.4731329E-005  0.8844512E+02  0.7546771E-02  0.1307318E+00
         21   -1    0    0  501  502  0.00000000000E+00  0.00000000000E+00  0.38477272428E+03  0.38477272428E+03  0.00000000000E+00 0.  1.
         -2   -1    0    0    0  501 -0.00000000000E+00 -0.00000000000E+00 -0.39871925172E+02  0.39871925172E+02  0.00000000000E+00 0.  1.
        -24    2    1    2    0    0 -0.31317955359E+02  0.37400659016E+02  0.62162553875E+02  0.11350699055E+03  0.81486380315E+02 0.  0.
         23    2    1    2    0    0  0.53162337126E+01  0.32496222782E+01  0.19521263288E+03  0.21119133472E+03  0.80342924036E+02 0.  0.
         11    1    3    3    0    0  0.23997747204E+02 -0.41347439475E+01  0.79357078446E+01  0.25611783174E+02  0.00000000000E+00 0. -1.
        -12    1    3    3    0    0 -0.55315702563E+02  0.41535402964E+02  0.54226846031E+02  0.87895207377E+02  0.00000000000E+00 0.  1.
        -11    1    4    4    0    0  0.34780197699E+02 -0.79145291674E+01  0.16005288407E+03  0.16397935121E+03  0.00000000000E+00 0. -1.
         11    1    4    4    0    0 -0.29463963987E+02  0.11164151446E+02  0.35159748804E+02  0.47211983514E+02  0.00000000000E+00 0.  1.
         -1    1    1    2    0  502  0.26001721646E+02 -0.40650281295E+02  0.87525612356E+02  0.99946324175E+02  0.00000000000E+00 0.  1.
<scales pt_clust_5="13000.00000" pt_clust_6="13000.00000" pt_clust_7="13000.00000" pt_clust_8="13000.00000" pt_clust_9="48.25490"></scales>
<clustering>
<clus scale="   48.255">  1  9  2 -1</clus>
<clus scale="   80.343">  7  8 -1 -1</clus>
<clus scale="   81.486">  5  6 -1 -1</clus>
<clus scale="   87.393">  1  7  2 -1</clus>
<clus scale="   48.255">  1  5  2 -1</clus>
</clustering>
</event>
<event>
 9    1  0.4731329E-005  0.1376860E+03  0.7546771E-02  0.1218646E+00
         21   -1    0    0  501  502  0.00000000000E+00  0.00000000000E+00  0.14727594963E+03  0.14727594963E+03  0.00000000000E+00 0. -1.
          1   -1    0    0  502    0 -0.00000000000E+00 -0.00000000000E+00 -0.35833346316E+03  0.35833346316E+03  0.00000000000E+00 0. -1.
         23    2    1    2    0    0  0.22547575874E+02  0.83097416144E+02 -0.69679180645E+02  0.14692387596E+03  0.96529080410E+02 0.  0.
        -24    2    1    2    0    0 -0.66134377438E+02 -0.11612457157E+03  0.43764592433E+02  0.16563501220E+03  0.87526828532E+02 0.  0.
         13    1    4    4    0    0  0.19992045555E+02 -0.34875683262E+02  0.19884139841E+02  0.44848346522E+02  0.00000000000E+00 0. -1.
        -14    1    4    4    0    0 -0.86126422993E+02 -0.81248888308E+02  0.23880452592E+02  0.12078666568E+03  0.00000000000E+00 0.  1.
        -13    1    3    3    0    0  0.35668367680E+02 -0.84125082558E+01 -0.15662442846E+02  0.39853668137E+02  0.00000000000E+00 0.  1.
         13    1    3    3    0    0 -0.13120791806E+02  0.91509924400E+02 -0.54016737799E+02  0.10707020782E+03  0.00000000000E+00 0. -1.
          2    1    1    2  501    0  0.43586801565E+02  0.33027155427E+02 -0.18514292532E+03  0.19305052463E+03  0.00000000000E+00 0. -1.
<scales pt_clust_5="13000.00000" pt_clust_6="13000.00000" pt_clust_7="13000.00000" pt_clust_8="13000.00000" pt_clust_9="54.68643"></scales>
<clustering>
<clus scale="   54.686">  1  9  2 -1</clus>
<clus scale="   87.527">  5  6 -1 -1</clus>
<clus scale="   96.529">  7  8 -1 -1</clus>
<clus scale="  131.531">  1  5  2 -1</clus>
<clus scale="   54.686">  1  5  2 -1</clus>
</clustering>
</event>
<event>
 9    1  0.4731329E-005  0.1592076E+03  0.7546771E-02  0.1190778E+00
         21   -1    0    0  501  502  0.00000000000E+00  0.00000000000E+00  0.44152343704E+02  0.44152343704E+02  0.00000000000E+00 0. -1.
          1   -1    0    0  502    0 -0.00000000000E+00 -0.00000000000E+00 -0.75170904078E+03  0.75170904078E+03  0.00000000000E+00 0. -1.
        -24    2    1    2    0    0 -0.55013536435E+02  0.11095450941E+03 -0.39750896295E+03  0.42423174112E+03  0.81374456688E+02 0.  0.
         23    2    1    2    0    0  0.48811939461E+02 -0.13892915523E+03 -0.28801656378E+03  0.33548530659E+03  0.88954675630E+02 0.  0.
         13    1    3    3    0    0 -0.39444520106E+02  0.18685634542E+02 -0.21214581159E+03  0.21658916981E+03  0.00000000000E+00 0. -1.
        -14    1    3    3    0    0 -0.15569016328E+02  0.92268874866E+02 -0.18536315136E+03  0.20764257131E+03  0.00000000000E+00 0.  1.
        -11    1    4    4    0    0  0.60239890623E+02 -0.10733891804E+03 -0.27139821428E+03  0.29800583629E+03  0.00000000000E+00 0.  1.
         11    1    4    4    0    0 -0.11427951162E+02 -0.31590237195E+02 -0.16618349502E+02  0.37479470300E+02  0.00000000000E+00 0. -1.
          2    1    1    2  501    0  0.62015969740E+01  0.27974645827E+02 -0.22031170351E+02  0.36144336780E+02  0.00000000000E+00 0. -1.
<scales pt_clust_5="13000.00000" pt_clust_6="13000.00000" pt_clust_7="13000.00000" pt_clust_8="13000.00000" pt_clust_9="28.65381"></scales>
<clustering>
<clus scale="   28.654">  1  9  2 -1</clus>
<clus scale="   81.374">  5  6 -1 -1</clus>
<clus scale="   88.955">  7  8 -1 -1</clus>
<clus scale="  155.100">  2  5  1 -1</clus>
<clus scale="   28.654">  1  5  2 -1</clus>
</clustering>
</event>
<event>
 9    1  0.4731329E-005  0.1292580E+03  0.7546771E-02  0.1232867E+00
          1   -1    0    0  502    0 -0.00000000000E+00  0.00000000000E+00  0.26223039808E+03  0.26223039808E+03  0.00000000000E+00 0. -1.
         21   -1    0    0  501  502  0.00000000000E+00 -0.00000000000E+00 -0.11418814026E+03  0.11418814026E+03  0.00000000000E+00 0.  1.
         23    2    1    2    0    0  0.99112570039E+02 -0.26199590904E+01  0.18938861159E+03  0.23306884963E+03  0.92859446168E+02 0.  0.
        -24    2    1    2    0    0 -0.60431657712E+02  0.63187987331E+01 -0.34735887937E+02  0.10393404902E+03  0.76836138401E+02 0.  0.
         11    1    4    4    0    0 -0.73318391950E+02 -0.13047079406E+02 -0.29432429366E+02  0.80075469262E+02  0.00000000000E+00 0. -1.
        -12    1    4    4    0    0  0.12886734238E+02  0.19365878139E+02 -0.53034585708E+01  0.23858579761E+02  0.00000000000E+00 0.  1.
        -13    1    3    3    0    0  0.10972459239E+03  0.16541424019E+02  0.17372992133E+03  0.20614361608E+03  0.00000000000E+00 0. -1.
         13    1    3    3    0    0 -0.10612022355E+02 -0.19161383110E+02  0.15658690260E+02  0.26925233551E+02  0.00000000000E+00 0.  1.
          2    1    1    2  501    0 -0.38680912328E+02 -0.36988396428E+01 -0.66104658274E+01  0.39415639683E+02  0.00000000000E+00 0. -1.
<scales pt_clust_5="13000.00000" pt_clust_6="13000.00000" pt_clust_7="13000.00000" pt_clust_8="13000.00000" pt_clust_9="38.85736"></scales>
<clustering>
<clus scale="   38.857">  2  9  1 -1</clus>
<clus scale="   76.836">  5  6 -1 -1</clus>
<clus scale="   92.859">  7  8 -1 -1</clus>
<clus scale="  118.273">  2  5  1 -1</clus>
<clus scale="   38.857">  2  5  1 -1</clus>
</clustering>
</event>
<event>
 9    1  0.4731329E-005  0.1529254E+03  0.7546771E-02  0.1198276E+00
         21   -1    0    0  501  502  0.00000000000E+00  0.00000000000E+00  0.13519341522E+04  0.13519341522E+04  0.00000000000E+00 0. -1.
         -4   -1    0    0    0  501 -0.00000000000E+00 -0.00000000000E+00 -0.36439599744E+02  0.36439599744E+02  0.00000000000E+00 0.  1.
         23    2    1    2    0    0  0.90971603275E+02 -0.66084311849E+02  0.28680659929E+03  0.32110367024E+03  0.90590136141E+02 0.  0.
        -24    2    1    2    0    0 -0.16351467560E+03  0.26768437584E+02  0.85685115332E+03  0.87664972316E+03  0.82868810678E+02 0.  0.
         11    1    4    4    0    0 -0.15053401381E+03  0.49172305972E+02  0.70124249726E+03  0.71890155442E+03  0.00000000000E+00 0. -1.
        -12    1    4    4    0    0 -0.12980661796E+02 -0.22403868388E+02  0.15560865606E+03  0.15774816874E+03  0.00000000000E+00 0.  1.
        -13    1    3    3    0    0  0.93989791878E+02 -0.31671675851E+02  0.25700990466E+03  0.27548369665E+03  0.00000000000E+00 0. -1.
         13    1    3    3    0    0 -0.30181886028E+01 -0.34412635998E+02  0.29796694639E+02  0.45619973588E+02  0.00000000000E+00 0.  1.
         -3    1    1    2    0  502  0.72543072327E+02  0.39315874265E+02  0.17183679982E+03  0.19062035852E+03  0.00000000000E+00 0.  1.
<scales pt_clust_5="13000.00000" pt_clust_6="13000.00000" pt_clust_7="13000.00000" pt_clust_8="13000.00000" pt_clust_9="82.51207"></scales>
<clustering>
<clus scale="   82.512">  1  9  2 -1</clus>
<clus scale="   82.869">  5  6 -1 -1</clus>
<clus scale="   90.590">  7  8 -1 -1</clus>
<clus scale="  148.482">  1  5  2 -1</clus>
<clus scale="   82.512">  1  5  2 -1</clus>
</clustering>
</event>
<event>
 9    1  0.4731329E-005  0.1204553E+03  0.7546771E-02  0.1255500E+00
          3   -1    0    0  502    0 -0.00000000000E+00  0.00000000000E+00  0.76907534709E+02  0.76907534709E+02  0.00000000000E+00 0. -1.
         21   -1    0    0  501  502  0.00000000000E+00 -0.00000000000E+00 -0.41293001248E+03  0.41293001248E+03  0.00000000000E+00 0. -1.
         23    2    1    2    0    0 -0.13268469629E+02  0.25526782940E+02 -0.11648869306E+02  0.93308919400E+02  0.87995393913E+02 0.  0.
        -24    2    1    2    0    0 -0.84220923045E+02  0.36356131868E+01 -0.23061224865E+03  0.25816020788E+03  0.79738962539E+02 0.  0.
         13    1    4    4    0    0 -0.96393304831E+02  0.15698754571E+02 -0.20800522908E+03  0.22979185241E+03  0.00000000000E+00 0. -1.
        -14    1    4    4    0    0  0.12172381785E+02 -0.12063141384E+02 -0.22607019570E+02  0.28368355473E+02  0.00000000000E+00 0.  1.
        -11    1    3    3    0    0  0.33819513909E+02 -0.69749773903E+01 -0.10460191564E+02  0.36080818147E+02  0.00000000000E+00 0.  1.
         11    1    3    3    0    0 -0.47087983537E+02  0.32501760331E+02 -0.11886777420E+01  0.57228101253E+02  0.00000000000E+00 0. -1.
          4    1    1    2  501    0  0.97489392674E+02 -0.29162396127E+02 -0.93761359816E+02  0.13836841990E+03  0.00000000000E+00 0. -1.
<scales pt_clust_5="13000.00000" pt_clust_6="13000.00000" pt_clust_7="13000.00000" pt_clust_8="13000.00000" pt_clust_9="90.28389"></scales>
<clustering>
<clus scale="   79.739">  5  6 -1 -1</clus>
<clus scale="   87.995">  7  8 -1 -1</clus>
<clus scale="   92.579">  1  7  2 -1</clus>
<clus scale="   90.284">  2  9  1 -1</clus>
<clus scale="   90.284">  2  5  1 -1</clus>
</clustering>
</event>
<event>
 9    1  0.4731329E-005  0.1310239E+03  0.7546771E-02  0.1228803E+00
         21   -1    0    0  501  502  0.00000000000E+00  0.00000000000E+00  0.17969054726E+03  0.17969054726E+03  0.00000000000E+00 0.  1.
         -2   -1    0    0    0  501 -0.00000000000E+00 -0.00000000000E+00 -0.22805222814E+03  0.22805222814E+03  0.00000000000E+00 0.  1.
         23    2    1    2    0    0  0.52113224806E+02 -0.98959546778E+02 -0.13667559052E+03  0.19898566271E+03  0.91685859439E+02 0.  0.
        -24    2    1    2    0    0  0.17640004568E+02  0.48003564955E+02  0.74994586496E+02  0.12135328291E+03  0.80541413318E+02 0.  0.
         13    1    4    4    0    0 -0.14804577075E+02  0.40614739340E+02  0.45781979590E+01  0.43470592940E+02  0.00000000000E+00 0. -1.
        -14    1    4    4    0    0  0.32444581643E+02  0.73888256146E+01  0.70416388537E+02  0.77882689967E+02  0.00000000000E+00 0.  1.
        -11    1    3    3    0    0  0.75865269967E+02 -0.58463296622E+02 -0.76002070300E+02  0.12226941943E+03  0.00000000000E+00 0. -1.
         11    1    3    3    0    0 -0.23752045161E+02 -0.40496250157E+02 -0.60673520218E+02  0.76716243272E+02  0.00000000000E+00 0.  1.
         -1    1    1    2    0  502 -0.69753229374E+02  0.50955981824E+02  0.13319323146E+02  0.87403829783E+02  0.00000000000E+00 0.  1.
<scales pt_clust_5="13000.00000" pt_clust_6="13000.00000" pt_clust_7="13000.00000" pt_clust_8="13000.00000" pt_clust_9="86.38301"></scales>
<clustering>
<clus scale="   80.541">  5  6 -1 -1</clus>
<clus scale="   86.383">  1  9  2 -1</clus>
<clus scale="   91.686">  7  8 -1 -1</clus>
<clus scale="  123.482">  1  5  2 -1</clus>
<clus scale="   86.383">  1  5  2 -1</clus>
</clustering>
</event>
<event>
 9    1  0.4731329E-005  0.1095229E+03  0.7546771E-02  0.1264931E+00
          1   -1    0    0  502    0 -0.00000000000E+00  0.00000000000E+00  0.33708983026E+03  0.33708983026E+03  0.00000000000E+00 0. -1.
         21   -1    0    0  501  502  0.00000000000E+00 -0.00000000000E+00 -0.46668741079E+02  0.46668741079E+02  0.00000000000E+00 0.  1.
        -24    2    1    2    0    0  0.61357484314E+02  0.26821911670E+02  0.14739931368E+03  0.18046437477E+03  0.79728771856E+02 0.  0.
         23    2    1    2    0    0 -0.45444813855E+02 -0.41275785622E+02  0.73651370228E+02  0.13066926503E+03  0.88775057877E+02 0.  0.
         13    1    3    3    0    0  0.55097154063E+02  0.35933797378E+02  0.15408940854E+03  0.16754247223E+03  0.00000000000E+00 0. -1.
        -14    1    3    3    0    0  0.62603302514E+01 -0.91118857080E+01 -0.66900948553E+01  0.12921902537E+02  0.00000000000E+00 0.  1.
        -13    1    4    4    0    0  0.10760330383E+02  0.18191279745E+02  0.86079563929E+00  0.21152974681E+02  0.00000000000E+00 0.  1.
         13    1    4    4    0    0 -0.56205144238E+02 -0.59467065367E+02  0.72790574589E+02  0.10951629035E+03  0.00000000000E+00 0. -1.
          2    1    1    2  501    0 -0.15912670460E+02  0.14453873952E+02  0.69370405278E+02  0.72624931544E+02  0.00000000000E+00 0. -1.
<scales pt_clust_5="13000.00000" pt_clust_6="13000.00000" pt_clust_7="13000.00000" pt_clust_8="13000.00000" pt_clust_9="21.49716"></scales>
<clustering>
<clus scale="   21.497">  2  9  1 -1</clus>
<clus scale="   79.729">  5  6 -1 -1</clus>
<clus scale="   88.775">  7  8 -1 -1</clus>
<clus scale="  102.328">  1  5  2 -1</clus>
<clus scale="   21.497">  2  5  1 -1</clus>
</clustering>
</event>
<event>
 9    1  0.4731329E-005  0.9702296E+02  0.7546771E-02  0.1291320E+00
         21   -1    0    0  501  502  0.00000000000E+00  0.00000000000E+00  0.98616210135E+02  0.98616210135E+02  0.00000000000E+00 0.  1.
          1   -1    0    0  502    0 -0.00000000000E+00 -0.00000000000E+00 -0.34823823586E+03  0.34823823586E+03  0.00000000000E+00 0. -1.
        -24    2    1    2    0    0 -0.11246736356E+02 -0.31543790144E+02 -0.11389004427E+03  0.14408420909E+03  0.81656704255E+02 0.  0.
         23    2    1    2    0    0 -0.19871394108E+02  0.51569056665E+02  0.47305785525E+02  0.11602931080E+03  0.90392055574E+02 0.  0.
         13    1    3    3    0    0 -0.17303916975E+02 -0.18766973732E+02 -0.12406500390E+03  0.12666392556E+03  0.00000000000E+00 0. -1.
        -14    1    3    3    0    0  0.60571806187E+01 -0.12776816411E+02  0.10174959632E+02  0.17420283527E+02  0.00000000000E+00 0.  1.
        -11    1    4    4    0    0 -0.43713879966E+02  0.46286591538E+02  0.99443873793E+00  0.63673705454E+02  0.00000000000E+00 0. -1.
         11    1    4    4    0    0  0.23842485857E+02  0.52824651268E+01  0.46311346787E+02  0.52355605343E+02  0.00000000000E+00 0.  1.
          2    1    1    2  501    0  0.31118130464E+02 -0.20025266521E+02 -0.18303776698E+03  0.18674092611E+03  0.00000000000E+00 0. -1.
<scales pt_clust_5="13000.00000" pt_clust_6="13000.00000" pt_clust_7="13000.00000" pt_clust_8="13000.00000" pt_clust_9="37.00474"></scales>
<clustering>
<clus scale="   37.005">  1  9  2 -1</clus>
<clus scale="   81.657">  5  6 -1 -1</clus>
<clus scale="   88.941">  2  5  1 -1</clus>
<clus scale="   90.392">  7  8 -1 -1</clus>
<clus scale="   37.005">  1  5  2 -1</clus>
</clustering>
</event>
<event>
 9    1  0.4731329E-005  0.2204596E+03  0.7546771E-02  0.1134346E+00
         21   -1    0    0  501  502  0.00000000000E+00  0.00000000000E+00  0.56070946730E+03  0.56070946730E+03  0.00000000000E+00 0.  1.
         -4   -1    0    0    0  501 -0.00000000000E+00 -0.00000000000E+00 -0.38586215954E+03  0.38586215954E+03  0.00000000000E+00 0.  1.
        -24    2    1    2    0    0  0.14120765823E+03 -0.14685207246E+03 -0.29383418626E+03  0.36676904858E+03  0.81706009877E+02 0.  0.
         23    2    1    2    0    0 -0.15948028661E+03  0.95398172407E+02  0.14903718051E+03  0.25552818838E+03  0.92454317185E+02 0.  0.
         11    1    3    3    0    0 -0.12114747569E+01 -0.42618544262E+02 -0.48950537024E+02  0.64915044952E+02  0.00000000000E+00 0. -1.
        -12    1    3    3    0    0  0.14241913299E+03 -0.10423352820E+03 -0.24488364924E+03  0.30185400363E+03  0.00000000000E+00 0.  1.
        -11    1    4    4    0    0 -0.12984304498E+03  0.37702398134E+02  0.66851892618E+02  0.15083057615E+03  0.00000000000E+00 0.  1.
         11    1    4    4    0    0 -0.29637241626E+02  0.57695774272E+02  0.82185287897E+02  0.10469761223E+03  0.00000000000E+00 0. -1.
         -3    1    1    2    0  502  0.18272628376E+02  0.51453900057E+02  0.31964431350E+03  0.32427438988E+03  0.00000000000E+00 0.  1.
<scales pt_clust_5="13000.00000" pt_clust_6="13000.00000" pt_clust_7="13000.00000" pt_clust_8="13000.00000" pt_clust_9="54.60213"></scales>
<clustering>
<clus scale="   54.602">  1  9  2 -1</clus>
<clus scale="   81.706">  5  6 -1 -1</clus>
<clus scale="   92.454">  7  8 -1 -1</clus>
<clus scale="  216.172">  2  5  1 -1</clus>
<clus scale="   54.602">  1  5  2 -1</clus>
</clustering>
</event>
<event>
 9    1  0.4731329E-005  0.1111396E+03  0.7546771E-02  0.1264181E+00
         21   -1    0    0  501  502  0.00000000000E+00  0.00000000000E+00  0.23790156369E+03  0.23790156369E+03  0.00000000000E+00 0. -1.
          3   -1    0    0  502    0 -0.00000000000E+00 -0.00000000000E+00 -0.15882796164E+03  0.15882796164E+03  0.00000000000E+00 0. -1.
        -24    2    1    2    0    0  0.55621710299E+02 -0.28217252853E+02 -0.83741367116E+02  0.13242275701E+03  0.81444349046E+02 0.  0.
         23    2    1    2    0    0 -0.34920146561E+02  0.28896405569E+02  0.56850584713E+01  0.10581757365E+03  0.95449568429E+02 0.  0.
         13    1    3    3    0    0  0.71877447625E+02 -0.29335654266E+02 -0.86130523223E+02  0.11595436654E+03  0.00000000000E+00 0. -1.
        -14    1    3    3    0    0 -0.16255737326E+02  0.11184014138E+01  0.23891561070E+01  0.16468390469E+02  0.00000000000E+00 0.  1.
        -13    1    4    4    0    0 -0.67305640083E+02  0.28000157825E+02  0.80101719028E+01  0.73336354416E+02  0.00000000000E+00 0.  1.
         13    1    4    4    0    0  0.32385493521E+02  0.89624774464E+00 -0.23251134315E+01  0.32481219237E+02  0.00000000000E+00 0. -1.
          4    1    1    2  501    0 -0.20701563738E+02 -0.67915271657E+00  0.15712991070E+03  0.15848919467E+03  0.00000000000E+00 0. -1.
<scales pt_clust_5="13000.00000" pt_clust_6="13000.00000" pt_clust_7="13000.00000" pt_clust_8="13000.00000" pt_clust_9="20.71270"></scales>
<clustering>
<clus scale="   20.713">  1  9  2 -1</clus>
<clus scale="   81.444">  5  6 -1 -1</clus>
<clus scale="   95.450">  7  8 -1 -1</clus>
<clus scale="   99.371">  2  5  1 -1</clus>
<clus scale="   20.713">  1  5  2 -1</clus>
</clustering>
</event>
<event>
 9    1  0.4731329E-005  0.9328330E+02  0.7546771E-02  0.1304743E+00
         -2   -1    0    0    0  501 -0.00000000000E+00  0.00000000000E+00  0.22441379097E+03  0.22441379097E+03  0.00000000000E+00 0.  1.
         21   -1    0    0  501  502  0.00000000000E+00 -0.00000000000E+00 -0.93568578603E+02  0.93568578603E+02  0.00000000000E+00 0. -1.
        -24    2    1    2    0    0  0.14451596015E+02  0.99847368358E+01  0.16102737271E+03  0.17919839320E+03  0.76640105471E+02 0.  0.
         23    2    1    2    0    0  0.16566603595E+02 -0.19112926834E+02 -0.14177194938E+01  0.95507590004E+02  0.92086554355E+02 0.  0.
         13    1    3    3    0    0 -0.23864764000E+02  0.22917841280E+02  0.41867833807E+02  0.53363563575E+02  0.00000000000E+00 0. -1.
        -14    1    3    3    0    0  0.38316360015E+02 -0.12933104444E+02  0.11915953890E+03  0.12583482962E+03  0.00000000000E+00 0.  1.
        -13    1    4    4    0    0  0.38376095472E+02  0.14225208871E+02 -0.26194995484E+02  0.48592788143E+02  0.00000000000E+00 0.  1.
         13    1    4    4    0    0 -0.21809491877E+02 -0.33338135705E+02  0.24777275990E+02  0.46914801861E+02  0.00000000000E+00 0. -1.
         -1    1    1    2    0  502 -0.31018199611E+02  0.91281899978E+01 -0.28764440849E+02  0.43276386368E+02  0.00000000000E+00 0.  1.
<scales pt_clust_5="13000.00000" pt_clust_6="13000.00000" pt_clust_7="13000.00000" pt_clust_8="13000.00000" pt_clust_9="32.33346"></scales>
<clustering>
<clus scale="   32.333">  2  9  1 -1</clus>
<clus scale="   76.640">  5  6 -1 -1</clus>
<clus scale="   78.074">  1  5  2 -1</clus>
<clus scale="   92.087">  7  8 -1 -1</clus>
<clus scale="   32.333">  2  5  1 -1</clus>
</clustering>
</event>
<event>
 9    1  0.4731329E-005  0.1404792E+03  0.7546771E-02  0.1214901E+00
         21   -1    0    0  501  502  0.00000000000E+00  0.00000000000E+00  0.16173115828E+03  0.16173115828E+03  0.00000000000E+00 0. -1.
          1   -1    0    0  502    0 -0.00000000000E+00 -0.00000000000E+00 -0.20275397881E+03  0.20275397881E+03  0.00000000000E+00 0. -1.
         23    2    1    2    0    0  0.65576739396E+02 -0.82756602795E+02 -0.63662293169E+02  0.15409838847E+03  0.92436257502E+02 0.  0.
        -24    2    1    2    0    0 -0.46113929516E+02  0.97997665577E+02  0.72932150838E+02  0.15434708014E+03  0.82303618194E+02 0.  0.
         13    1    4    4    0    0 -0.68024144884E+02  0.77453455543E+02  0.42236599739E+02  0.11140131247E+03  0.00000000000E+00 0. -1.
        -14    1    4    4    0    0  0.21910215368E+02  0.20544210033E+02  0.30695551099E+02  0.42945767668E+02  0.00000000000E+00 0.  1.
        -13    1    3    3    0    0 -0.20159405773E+02 -0.18440829011E+02  0.36067357372E+01  0.27558562343E+02  0.00000000000E+00 0.  1.
         13    1    3    3    0    0  0.85736145169E+02 -0.64315773784E+02 -0.67269028906E+02  0.12653982613E+03  0.00000000000E+00 0. -1.
          2    1    1    2  501    0 -0.19462809880E+02 -0.15241062781E+02 -0.50292678204E+02  0.56039668487E+02  0.00000000000E+00 0. -1.
<scales pt_clust_5="13000.00000" pt_clust_6="13000.00000" pt_clust_7="13000.00000" pt_clust_8="13000.00000" pt_clust_9="24.72027"></scales>
<clustering>
<clus scale="   24.720">  1  9  2 -1</clus>
<clus scale="   82.304">  5  6 -1 -1</clus>
<clus scale="   92.436">  7  8 -1 -1</clus>
<clus scale="  134.029">  1  5  2 -1</clus>
<clus scale="   24.720">  1  5  2 -1</clus>
</clustering>
</event>
<event>
 9    1  0.4731329E-005  0.1014874E+03  0.7546771E-02  0.1285829E+00
         21   -1    0    0  501  502  0.00000000000E+00  0.00000000000E+00  0.55712863738E+02  0.55712863738E+02  0.00000000000E+00 0. -1.
          1   -1    0    0  502    0 -0.00000000000E+00 -0.00000000000E+00 -0.40176773883E+03  0.40176773883E+03  0.00000000000E+00 0. -1.
         23    2    1    2    0    0 -0.27919239592E+02  0.94801397341E+01 -0.29273128449E+03  0.30997141009E+03  0.97577216417E+02 0.  0.
        -24    2    1    2    0    0  0.16848358364E+01 -0.43466598635E+02 -0.48386238377E+02  0.10429228866E+03  0.81507481503E+02 0.  0.
         11    1    4    4    0    0 -0.58765239779E+01 -0.67194909335E+02 -0.34088754072E+02  0.75576004981E+02  0.00000000000E+00 0. -1.
        -12    1    4    4    0    0  0.75613598143E+01  0.23728310700E+02 -0.14297484304E+02  0.28716283679E+02  0.00000000000E+00 0.  1.
        -13    1    3    3    0    0 -0.17695112792E+02  0.53486421117E+02 -0.14837331833E+03  0.15870902889E+03  0.00000000000E+00 0.  1.
         13    1    3    3    0    0 -0.10224126800E+02 -0.44006281383E+02 -0.14435796617E+03  0.15126238120E+03  0.00000000000E+00 0. -1.
          2    1    1    2  501    0  0.26234403755E+02  0.33986458901E+02 -0.49373522282E+01  0.43216903823E+02  0.00000000000E+00 0. -1.
<scales pt_clust_5="13000.00000" pt_clust_6="13000.00000" pt_clust_7="13000.00000" pt_clust_8="13000.00000" pt_clust_9="42.93394"></scales>
<clustering>
<clus scale="   42.934">  1  9  2 -1</clus>
<clus scale="   81.507">  5  6 -1 -1</clus>
<clus scale="   86.150">  1  5  2 -1</clus>
<clus scale="   97.577">  7  8 -1 -1</clus>
<clus scale="   42.934">  1  5  2 -1</clus>
</clustering>
</event>
<event>
 9    1  0.4731329E-005  0.1100021E+03  0.7546771E-02  0.1265887E+00
          1   -1    0    0  502    0 -0.00000000000E+00  0.00000000000E+00  0.53401061452E+03  0.53401061452E+03  0.00000000000E+00 0. -1.
         21   -1    0    0  501  502  0.00000000000E+00 -0.00000000000E+00 -0.62051274577E+02  0.62051274577E+02  0.00000000000E+00 0. -1.
         23    2    1    2    0    0 -0.20883192319E+02  0.81121197921E+02  0.28314137408E+03  0.30977212775E+03  0.93664171064E+02 0.  0.
        -24    2    1    2    0    0  0.56618624874E+02 -0.49813847978E+01  0.17523560064E+03  0.20109132869E+03  0.80620864954E+02 0.  0.
         13    1    4    4    0    0  0.26063619136E+02  0.36803040074E+02  0.62831226306E+02  0.77340409879E+02  0.00000000000E+00 0. -1.
        -14    1    4    4    0    0  0.30555005738E+02 -0.41784424871E+02  0.11240437433E+03  0.12375091881E+03  0.00000000000E+00 0.  1.
        -11    1    3    3    0    0  0.35513468859E+02  0.21119249994E+02  0.70111301916E+02  0.81380733881E+02  0.00000000000E+00 0.  1.
         11    1    3    3    0    0 -0.56396661178E+02  0.60001947927E+02  0.21303007217E+03  0.22839139387E+03  0.00000000000E+00 0. -1.
          2    1    1    2  501    0 -0.35735432555E+02 -0.76139813123E+02  0.13582365226E+02  0.85198432659E+02  0.00000000000E+00 0. -1.
<scales pt_clust_5="13000.00000" pt_clust_6="13000.00000" pt_clust_7="13000.00000" pt_clust_8="13000.00000" pt_clust_9="84.10881"></scales>
<clustering>
<clus scale="   80.621">  5  6 -1 -1</clus>
<clus scale="   84.109">  2  9  1 -1</clus>
<clus scale="   93.664">  7  8 -1 -1</clus>
<clus scale="   99.132">  2  5  1 -1</clus>
<clus scale="   84.109">  2  5  1 -1</clus>
</clustering>
</event>
<event>
 9    1  0.4731329E-005  0.1003765E+03  0.7546771E-02  0.1284616E+00
          1   -1    0    0  502    0 -0.00000000000E+00  0.00000000000E+00  0.20334595499E+03  0.20334595499E+03  0.00000000000E+00 0. -1.
         21   -1    0    0  501  502  0.00000000000E+00 -0.00000000000E+00 -0.17544589108E+03  0.17544589108E+03  0.00000000000E+00 0.  1.
         23    2    1    2    0    0  0.21935078473E+02 -0.35000793630E+02  0.82205103213E+02  0.12952978776E+03  0.91181597379E+02 0.  0.
        -24    2    1    2    0    0  0.28719506914E+02  0.65066600001E+02 -0.11985879693E+03  0.16113070819E+03  0.80861000526E+02 0.  0.
         11    1    4    4    0    0 -0.18754079083E+02 -0.78044581413E+01 -0.17489762276E+02  0.26805164308E+02  0.00000000000E+00 0. -1.
        -12    1    4    4    0    0  0.47473585997E+02  0.72871058143E+02 -0.10236903466E+03  0.13432554388E+03  0.00000000000E+00 0.  1.
        -13    1    3    3    0    0  0.51397198560E+02 -0.24596904550E+02  0.79985806317E+02  0.98205951681E+02  0.00000000000E+00 0. -1.
         13    1    3    3    0    0 -0.29462120087E+02 -0.10403889079E+02  0.22192968954E+01  0.31323836079E+02  0.00000000000E+00 0.  1.
          2    1    1    2  501    0 -0.50654585387E+02 -0.30065806371E+02  0.65553757632E+02  0.88131350115E+02  0.00000000000E+00 0. -1.
<scales pt_clust_5="13000.00000" pt_clust_6="13000.00000" pt_clust_7="13000.00000" pt_clust_8="13000.00000" pt_clust_9="58.90537"></scales>
<clustering>
<clus scale="   58.905">  2  9  1 -1</clus>
<clus scale="   80.861">  5  6 -1 -1</clus>
<clus scale="   91.104">  2  5  1 -1</clus>
<clus scale="   91.182">  7  8 -1 -1</clus>
<clus scale="   58.905">  2  5  1 -1</clus>
</clustering>
</event>
<event>
 9    1  0.4731329E-005  0.9158846E+02  0.7546771E-02  0.1304963E+00
         21   -1    0    0  501  502  0.00000000000E+00  0.00000000000E+00  0.53921684914E+02  0.53921684914E+02  0.00000000000E+00 0. -1.
          1   -1    0    0  502    0 -0.00000000000E+00 -0.00000000000E+00 -0.29163704892E+03  0.29163704892E+03  0.00000000000E+00 0. -1.
        -24    2    1    2    0    0  0.60607518698E+01  0.15539061047E+02 -0.19490338614E+03  0.21158609088E+03  0.80642103124E+02 0.  0.
         23    2    1    2    0    0  0.25292989935E+02 -0.16325328176E+02 -0.37059890415E+02  0.10208593959E+03  0.90232211012E+02 0.  0.
         13    1    3    3    0    0 -0.16759314572E+02 -0.19281697463E+02 -0.14192985719E+03  0.14421075842E+03  0.00000000000E+00 0. -1.
        -14    1    3    3    0    0  0.22820066442E+02  0.34820758510E+02 -0.52973528949E+02  0.67375332466E+02  0.00000000000E+00 0.  1.
        -13    1    4    4    0    0  0.13996824891E+02 -0.41811497021E+02 -0.53806880812E+02  0.69565025788E+02  0.00000000000E+00 0. -1.
         13    1    4    4    0    0  0.11296165044E+02  0.25486168844E+02  0.16746990397E+02  0.32520913800E+02  0.00000000000E+00 0.  1.
          2    1    1    2  501    0 -0.31353741805E+02  0.78626712957E+00 -0.57520874514E+01  0.31886703360E+02  0.00000000000E+00 0. -1.
<scales pt_clust_5="13000.00000" pt_clust_6="13000.00000" pt_clust_7="13000.00000" pt_clust_8="13000.00000" pt_clust_9="31.36360"></scales>
<clustering>
<clus scale="   31.364">  1  9  2 -1</clus>
<clus scale="   80.642">  5  6 -1 -1</clus>
<clus scale="   82.157">  2  5  1 -1</clus>
<clus scale="   90.232">  7  8 -1 -1</clus>
<clus scale="   31.364">  1  5  2 -1</clus>
</clustering>
</event>
<event>
 9    1  0.4731329E-005  0.2687468E+03  0.7546771E-02  0.1137493E+00
         21   -1    0    0  501  502  0.00000000000E+00  0.00000000000E+00  0.80114060823E+02  0.80114060823E+02  0.00000000000E+00 0. -1.
          1   -1    0    0  502    0 -0.00000000000E+00 -0.00000000000E+00 -0.13124051972E+04  0.13124051972E+04  0.00000000000E+00 0. -1.
         23    2    1    2    0    0  0.45558359786E+02 -0.39165369897E+02 -0.13909368978E+03  0.17767277046E+03  0.92795843002E+02 0.  0.
        -24    2    1    2    0    0  0.23332093226E+03 -0.94557600060E+01 -0.54075176866E+03  0.59409379859E+03  0.77504176550E+02 0.  0.
         13    1    4    4    0    0  0.16335208164E+03  0.24656933067E+02 -0.32201739853E+03  0.36192136146E+03  0.00000000000E+00 0. -1.
        -14    1    4    4    0    0  0.69968850619E+02 -0.34112693073E+02 -0.21873437013E+03  0.23217243713E+03  0.00000000000E+00 0.  1.
        -13    1    3    3    0    0 -0.83569695072E+01  0.24693470967E+02 -0.43337324301E+02  0.50574006419E+02  0.00000000000E+00 0.  1.
         13    1    3    3    0    0  0.53915329293E+02 -0.63858840864E+02 -0.95756365484E+02  0.12709876404E+03  0.00000000000E+00 0. -1.
          2    1    1    2  501    0 -0.27887929204E+03  0.48621129903E+02 -0.55244567789E+03  0.62075268894E+03  0.00000000000E+00 0. -1.
<scales pt_clust_5="13000.00000" pt_clust_6="13000.00000" pt_clust_7="13000.00000" pt_clust_8="13000.00000" pt_clust_9="257.32865"></scales>
<clustering>
<clus scale="   77.504">  5  6 -1 -1</clus>
<clus scale="   92.796">  7  8 -1 -1</clus>
<clus scale="  110.547">  2  7  1 -1</clus>
<clus scale="  257.329">  1  9  2 -1</clus>
<clus scale="  257.329">  1  5  2 -1</clus>
</clustering>
</event>
<event>
 9    1  0.4731329E-005  0.8883255E+02  0.7546771E-02  0.1309314E+00
         -2   -1    0    0    0  501 -0.00000000000E+00  0.00000000000E+00  0.50750212594E+03  0.50750212594E+03  0.00000000000E+00 0.  1.
         21   -1    0    0  501  502  0.00000000000E+00 -0.00000000000E+00 -0.45910038196E+02  0.45910038196E+02  0.00000000000E+00 0. -1.
        -24    2    1    2    0    0 -0.62839475881E+01 -0.22368072605E+01  0.35031180737E+03  0.35990224786E+03  0.82260405589E+02 0.  0.
         23    2    1    2    0    0  0.53117251503E+02  0.22409327853E+01  0.44655152930E+02  0.11207119097E+03  0.87973888029E+02 0.  0.
         13    1    3    3    0    0 -0.22544166686E+02  0.29704691134E+02  0.94498602593E+02  0.10159032444E+03  0.00000000000E+00 0. -1.
        -14    1    3    3    0    0  0.16260219098E+02 -0.31941498394E+02  0.25581320478E+03  0.25831192342E+03  0.00000000000E+00 0.  1.
        -13    1    4    4    0    0  0.68607790803E+01 -0.29763003581E+02  0.46681624330E+02  0.55786026224E+02  0.00000000000E+00 0.  1.
         13    1    4    4    0    0  0.46256472423E+02  0.32003936366E+02 -0.20264714003E+01  0.56285164744E+02  0.00000000000E+00 0. -1.
         -1    1    1    2    0  502 -0.46833303915E+02 -0.41255248528E-02  0.66625127443E+02  0.81438725306E+02  0.00000000000E+00 0.  1.
<scales pt_clust_5="13000.00000" pt_clust_6="13000.00000" pt_clust_7="13000.00000" pt_clust_8="13000.00000" pt_clust_9="46.83330"></scales>
<clustering>
<clus scale="   46.833">  2  9  1 -1</clus>
<clus scale="   82.260">  5  6 -1 -1</clus>
<clus scale="   83.178">  1  5  2 -1</clus>
<clus scale="   87.974">  7  8 -1 -1</clus>
<clus scale="   46.833">  2  5  1 -1</clus>
</clustering>
</event>
<event>
 9    1  0.4731329E-005  0.9996572E+02  0.7546771E-02  0.1285684E+00
         21   -1    0    0  501  502  0.00000000000E+00  0.00000000000E+00  0.45005796182E+02  0.45005796182E+02  0.00000000000E+00 0. -1.
          1   -1    0    0  502    0 -0.00000000000E+00 -0.00000000000E+00 -0.58001571106E+03  0.58001571106E+03  0.00000000000E+00 0. -1.
        -24    2    1    2    0    0  0.35914891103E+02  0.18785562733E+02 -0.42930326684E+03  0.43863548586E+03  0.80355570846E+02 0.  0.
         23    2    1    2    0    0 -0.54228452063E+02  0.11256595268E+02 -0.10725968192E+03  0.15116770673E+03  0.90992308699E+02 0.  0.
         11    1    3    3    0    0 -0.11043049325E+02  0.37766421054E+02 -0.18916047131E+03  0.19320956344E+03  0.00000000000E+00 0. -1.
        -12    1    3    3    0    0  0.46957940428E+02 -0.18980858321E+02 -0.24014279553E+03  0.24542592242E+03  0.00000000000E+00 0.  1.
        -13    1    4    4    0    0  0.10649755511E+02 -0.24592671103E+02 -0.52720956479E+02  0.59141491497E+02  0.00000000000E+00 0.  1.
         13    1    4    4    0    0 -0.64878207574E+02  0.35849266371E+02 -0.54538725437E+02  0.92026215231E+02  0.00000000000E+00 0. -1.
          2    1    1    2  501    0  0.18313560960E+02 -0.30042158001E+02  0.15530338842E+01  0.35218314648E+02  0.00000000000E+00 0. -1.
<scales pt_clust_5="13000.00000" pt_clust_6="13000.00000" pt_clust_7="13000.00000" pt_clust_8="13000.00000" pt_clust_9="35.18406"></scales>
<clustering>
<clus scale="   35.184">  1  9  2 -1</clus>
<clus scale="   80.356">  5  6 -1 -1</clus>
<clus scale="   90.391">  2  5  1 -1</clus>
<clus scale="   90.992">  7  8 -1 -1</clus>
<clus scale="   35.184">  1  5  2 -1</clus>
</clustering>
</event>
<event>
 9    1  0.4731329E-005  0.1131314E+03  0.7546771E-02  0.1258392E+00
          1   -1    0    0  502    0 -0.00000000000E+00  0.00000000000E+00  0.54626204537E+03  0.54626204537E+03  0.00000000000E+00 0. -1.
         21   -1    0    0  501  502  0.00000000000E+00 -0.00000000000E+00 -0.65756099287E+02  0.65756099287E+02  0.00000000000E+00 0. -1.
        -24    2    1    2    0    0  0.32546131484E+02  0.65992669347E+02  0.10111031527E+03  0.14908450532E+03  0.81170258053E+02 0.  0.
         23    2    1    2    0    0 -0.60205294786E+02 -0.28748151972E+02  0.38785475195E+02  0.11917869536E+03  0.90819131138E+02 0.  0.
         13    1    3    3    0    0  0.51846030701E+02  0.43726921865E+02  0.98378328843E+02  0.11949205070E+03  0.00000000000E+00 0. -1.
        -14    1    3    3    0    0 -0.19299899217E+02  0.22265747482E+02  0.27319864238E+01  0.29592454622E+02  0.00000000000E+00 0.  1.
        -13    1    4    4    0    0  0.15802589005E+02 -0.32319466282E+02  0.18375956496E+02  0.40397345175E+02  0.00000000000E+00 0.  1.
         13    1    4    4    0    0 -0.76007883791E+02  0.35713143100E+01  0.20409518699E+02  0.78781350190E+02  0.00000000000E+00 0. -1.
          2    1    1    2  501    0  0.27659163302E+02 -0.37244517375E+02  0.34061015563E+03  0.34375494397E+03  0.00000000000E+00 0. -1.
<scales pt_clust_5="13000.00000" pt_clust_6="13000.00000" pt_clust_7="13000.00000" pt_clust_8="13000.00000" pt_clust_9="46.39165"></scales>
<clustering>
<clus scale="   46.392">  2  9  1 -1</clus>
<clus scale="   81.170">  5  6 -1 -1</clus>
<clus scale="   90.819">  7  8 -1 -1</clus>
<clus scale="  105.542">  1  5  2 -1</clus>
<clus scale="   46.392">  2  5  1 -1</clus>
</clustering>
</event>
<event>
 9    1  0.4731329E-005  0.1136580E+03  0.7546771E-02  0.1266523E+00
         21   -1    0    0  501  502  0.00000000000E+00  0.00000000000E+00  0.30424488491E+02  0.30424488491E+02  0.00000000000E+00 0. -1.
          1   -1    0    0  502    0 -0.00000000000E+00 -0.00000000000E+00 -0.70791539321E+03  0.70791539321E+03  0.00000000000E+00 0. -1.
         23    2    1    2    0    0  0.20705142437E+02  0.18821930128E+02 -0.33885314859E+03  0.35670777701E+03  0.10787035686E+03 0.  0.
        -24    2    1    2    0    0 -0.51536535435E+02  0.40572277740E+02 -0.24702932650E+03  0.26818453486E+03  0.81223964339E+02 0.  0.
         13    1    4    4    0    0 -0.24315747073E+02  0.63941501649E+02 -0.15596814899E+03  0.17031099403E+03  0.00000000000E+00 0. -1.
        -14    1    4    4    0    0 -0.27220788362E+02 -0.23369223910E+02 -0.91061177510E+02  0.97873540831E+02  0.00000000000E+00 0.  1.
        -13    1    3    3    0    0  0.55613162684E+02  0.41865166558E+02 -0.21292968353E+03  0.22401912008E+03  0.00000000000E+00 0.  1.
         13    1    3    3    0    0 -0.34908020247E+02 -0.23043236430E+02 -0.12592346506E+03  0.13268865692E+03  0.00000000000E+00 0. -1.
          2    1    1    2  501    0  0.30831392997E+02 -0.59394207868E+02 -0.91608429629E+02  0.11344756984E+03  0.00000000000E+00 0. -1.
<scales pt_clust_5="13000.00000" pt_clust_6="13000.00000" pt_clust_7="13000.00000" pt_clust_8="13000.00000" pt_clust_9="66.91970"></scales>
<clustering>
<clus scale="   66.920">  1  9  2 -1</clus>
<clus scale="   81.224">  5  6 -1 -1</clus>
<clus scale="   88.766">  1  5  2 -1</clus>
<clus scale="  107.870">  7  8 -1 -1</clus>
<clus scale="   66.920">  1  5  2 -1</clus>
</clustering>
</event>
<event>
 9    1  0.4731329E-005  0.1217473E+03  0.7546771E-02  0.1244423E+00
          3   -1    0    0  502    0 -0.00000000000E+00  0.00000000000E+00  0.48447220283E+03  0.48447220283E+03  0.00000000000E+00 0. -1.
         21   -1    0    0  501  502  0.00000000000E+00 -0.00000000000E+00 -0.78974974298E+02  0.78974974298E+02  0.00000000000E+00 0.  1.
         23    2    1    2    0    0  0.19955732209E+02 -0.78794752726E+02  0.17692497214E+03  0.21573237105E+03  0.92904067973E+02 0.  0.
        -24    2    1    2    0    0  0.37133974319E+02  0.77682129667E+02  0.53766880674E+01  0.11733092157E+03  0.79524782705E+02 0.  0.
         13    1    4    4    0    0 -0.12411579089E+02  0.59456010347E+02 -0.11683468601E+02  0.61851175416E+02  0.00000000000E+00 0. -1.
        -14    1    4    4    0    0  0.49545553409E+02  0.18226119320E+02  0.17060156669E+02  0.55479746157E+02  0.00000000000E+00 0.  1.
        -13    1    3    3    0    0 -0.10966309598E+02 -0.26057973413E+02 -0.28590286672E+00  0.28272949352E+02  0.00000000000E+00 0.  1.
         13    1    3    3    0    0  0.30922041806E+02 -0.52736779313E+02  0.17721087501E+03  0.18745942170E+03  0.00000000000E+00 0. -1.
          4    1    1    2  501    0 -0.57089706528E+02  0.11126230594E+01  0.22319556832E+03  0.23038388451E+03  0.00000000000E+00 0. -1.
<scales pt_clust_5="13000.00000" pt_clust_6="13000.00000" pt_clust_7="13000.00000" pt_clust_8="13000.00000" pt_clust_9="57.10058"></scales>
<clustering>
<clus scale="   57.101">  2  9  1 -1</clus>
<clus scale="   79.525">  5  6 -1 -1</clus>
<clus scale="   92.904">  7  8 -1 -1</clus>
<clus scale="  111.872">  2  5  1 -1</clus>
<clus scale="   57.101">  2  5  1 -1</clus>
</clustering>
</event>
<event>
 9    1  0.4731329E-005  0.9558681E+02  0.7546771E-02  0.1300038E+00
          1   -1    0    0  502    0 -0.00000000000E+00  0.00000000000E+00  0.33319892691E+03  0.33319892691E+03  0.00000000000E+00 0. -1.
         21   -1    0    0  501  502  0.00000000000E+00 -0.00000000000E+00 -0.47330250464E+02  0.47330250464E+02  0.00000000000E+00 0. -1.
        -24    2    1    2    0    0 -0.72085015046E+01  0.10965574047E+02  0.13891364088E+03  0.15840537444E+03  0.74987043703E+02 0.  0.
         23    2    1    2    0    0  0.52820266009E+02 -0.34679062953E+02  0.78816543635E+02  0.13676797887E+03  0.92199862179E+02 0.  0.
         11    1    3    3    0    0  0.11803411709E+02  0.34214045235E+02  0.11327845251E+03  0.11891984369E+03  0.00000000000E+00 0. -1.
        -12    1    3    3    0    0 -0.19011913214E+02 -0.23248471188E+02  0.25635188365E+02  0.39485530757E+02  0.00000000000E+00 0.  1.
        -11    1    4    4    0    0  0.74194236831E+02 -0.38720449580E+02  0.78895035132E+02  0.11501514928E+03  0.00000000000E+00 0. -1.
         11    1    4    4    0    0 -0.21373970822E+02  0.40413866268E+01 -0.78491496364E-01  0.21752829597E+02  0.00000000000E+00 0.  1.
          2    1    1    2  501    0 -0.45611764504E+02  0.23713488906E+02  0.68138491936E+02  0.85355824058E+02  0.00000000000E+00 0. -1.
<scales pt_clust_5="13000.00000" pt_clust_6="13000.00000" pt_clust_7="13000.00000" pt_clust_8="13000.00000" pt_clust_9="51.40783"></scales>
<clustering>
<clus scale="   51.408">  2  9  1 -1</clus>
<clus scale="   74.987">  5  6 -1 -1</clus>
<clus scale="   79.114">  1  5  2 -1</clus>
<clus scale="   92.200">  7  8 -1 -1</clus>
<clus scale="   51.408">  2  5  1 -1</clus>
</clustering>
</event>
<event>
 9    1  0.4731329E-005  0.9710311E+02  0.7546771E-02  0.1295526E+00
         -2   -1    0    0    0  501 -0.00000000000E+00  0.00000000000E+00  0.36380033595E+03  0.36380033595E+03  0.00000000000E+00 0.  1.
         21   -1    0    0  501  502  0.00000000000E+00 -0.00000000000E+00 -0.91365585148E+02  0.91365585148E+02  0.00000000000E+00 0. -1.
         23    2    1    2    0    0  0.14953334728E+02 -0.63879913009E+00  0.32086420789E+03  0.33532248116E+03  0.96246122936E+02 0.  0.
        -24    2    1    2    0    0  0.28509656291E+01  0.99827067491E+01 -0.18439678333E+02  0.83736812427E+02  0.81018822377E+02 0.  0.
         13    1    4    4    0    0  0.18931889069E+02  0.38176348185E+02 -0.26646279095E+02  0.50258075710E+02  0.00000000000E+00 0. -1.
        -14    1    4    4    0    0 -0.16080923440E+02 -0.28193641436E+02  0.82066007619E+01  0.33478736717E+02  0.00000000000E+00 0.  1.
        -13    1    3    3    0    0 -0.41020562541E+02  0.41177940706E+01  0.13525551988E+03  0.14139907509E+03  0.00000000000E+00 0. -1.
         13    1    3    3    0    0  0.55973897269E+02 -0.47565932007E+01  0.18560868801E+03  0.19392340607E+03  0.00000000000E+00 0.  1.
         -1    1    1    2    0  502 -0.17804300358E+02 -0.93439076190E+01 -0.29989778754E+02  0.36106627515E+02  0.00000000000E+00 0.  1.
<scales pt_clust_5="13000.00000" pt_clust_6="13000.00000" pt_clust_7="13000.00000" pt_clust_8="13000.00000" pt_clust_9="20.10726"></scales>
<clustering>
<clus scale="   20.107">  2  9  1 -1</clus>
<clus scale="   81.019">  5  6 -1 -1</clus>
<clus scale="   82.035">  2  5  1 -1</clus>
<clus scale="   96.246">  7  8 -1 -1</clus>
<clus scale="   20.107">  2  5  1 -1</clus>
</clustering>
</event>
<event>
 9    1  0.4731329E-005  0.1735642E+03  0.7546771E-02  0.1175409E+00
         21   -1    0    0  501  502  0.00000000000E+00  0.00000000000E+00  0.20672895107E+03  0.20672895107E+03  0.00000000000E+00 0.  1.
          1   -1    0    0  502    0 -0.00000000000E+00 -0.00000000000E+00 -0.35160724418E+03  0.35160724418E+03  0.00000000000E+00 0. -1.
         23    2    1    2    0    0  0.13428357540E+03 -0.17887704971E+02 -0.11458381845E+03  0.19917660797E+03  0.90497630362E+02 0.  0.
        -24    2    1    2    0    0 -0.15701841258E+03  0.35369685706E+02 -0.15100534912E+03  0.23508860887E+03  0.80982973533E+02 0.  0.
         13    1    4    4    0    0 -0.10226479987E+03 -0.51568459026E+00 -0.47834280653E+02  0.11290028179E+03  0.00000000000E+00 0. -1.
        -14    1    4    4    0    0 -0.54753612711E+02  0.35885370296E+02 -0.10317106846E+03  0.12218832708E+03  0.00000000000E+00 0.  1.
        -11    1    3    3    0    0  0.92660743424E+02  0.21251452094E+02 -0.35208414739E+02  0.10137687141E+03  0.00000000000E+00 0.  1.
         11    1    3    3    0    0  0.41622831974E+02 -0.39139157066E+02 -0.79375403712E+02  0.97799736563E+02  0.00000000000E+00 0. -1.
          2    1    1    2  501    0  0.22734837184E+02 -0.17481980734E+02  0.12071087446E+03  0.12407097841E+03  0.00000000000E+00 0. -1.
<scales pt_clust_5="13000.00000" pt_clust_6="13000.00000" pt_clust_7="13000.00000" pt_clust_8="13000.00000" pt_clust_9="28.67913"></scales>
<clustering>
<clus scale="   28.679">  1  9  2 -1</clus>
<clus scale="   80.983">  5  6 -1 -1</clus>
<clus scale="   90.498">  7  8 -1 -1</clus>
<clus scale="  168.799">  1  5  2 -1</clus>
<clus scale="   28.679">  1  5  2 -1</clus>
</clustering>
</event>
<event>
 9    1  0.4731329E-005  0.9294017E+02  0.7546771E-02  0.1300333E+00
         21   -1    0    0  501  502  0.00000000000E+00  0.00000000000E+00  0.64185766064E+02  0.64185766064E+02  0.00000000000E+00 0. -1.
          1   -1    0    0  502    0 -0.00000000000E+00 -0.00000000000E+00 -0.21927536281E+03  0.21927536281E+03  0.00000000000E+00 0. -1.
         23    2    1    2    0    0  0.31805767416E+02  0.57459362358E+01 -0.64519620987E+02  0.11497484946E+03  0.89508725232E+02 0.  0.
        -24    2    1    2    0    0  0.47466833504E+01 -0.36800879994E+02 -0.38748744363E+02  0.97875152721E+02  0.81861129722E+02 0.  0.
         13    1    4    4    0    0 -0.16064072985E+02 -0.18095777715E+02 -0.58711574306E+02  0.63502445382E+02  0.00000000000E+00 0. -1.
        -14    1    4    4    0    0  0.20810756335E+02 -0.18705102279E+02  0.19962829943E+02  0.34372707339E+02  0.00000000000E+00 0.  1.
        -11    1    3    3    0    0  0.24872849244E+02 -0.13153791020E+02 -0.83004870792E+02  0.87644106607E+02  0.00000000000E+00 0. -1.
         11    1    3    3    0    0  0.69329181718E+01  0.18899727255E+02  0.18485249806E+02  0.27330742856E+02  0.00000000000E+00 0.  1.
          2    1    1    2  501    0 -0.36552450767E+02  0.31054943759E+02 -0.51821231399E+02  0.70611126691E+02  0.00000000000E+00 0. -1.
<scales pt_clust_5="13000.00000" pt_clust_6="13000.00000" pt_clust_7="13000.00000" pt_clust_8="13000.00000" pt_clust_9="47.96346"></scales>
<clustering>
<clus scale="   47.963">  1  9  2 -1</clus>
<clus scale="   81.861">  5  6 -1 -1</clus>
<clus scale="   85.600">  1  5  2 -1</clus>
<clus scale="   89.509">  7  8 -1 -1</clus>
<clus scale="   47.963">  1  5  2 -1</clus>
</clustering>
</event>
<event>
 9    1  0.4731329E-005  0.1028809E+03  0.7546771E-02  0.1284690E+00
          1   -1    0    0  502    0 -0.00000000000E+00  0.00000000000E+00  0.12416479015E+03  0.12416479015E+03  0.00000000000E+00 0. -1.
         21   -1    0    0  501  502  0.00000000000E+00 -0.00000000000E+00 -0.10535364312E+03  0.10535364312E+03  0.00000000000E+00 0. -1.
         23    2    1    2    0    0 -0.23509678042E+01  0.56012090112E+02 -0.59274257380E+00  0.10634850646E+03  0.90370195280E+02 0.  0.
        -24    2    1    2    0    0 -0.21980764663E+02 -0.41095465980E+02 -0.82424903308E+01  0.83435040321E+02  0.68712997077E+02 0.  0.
         11    1    4    4    0    0  0.63180794729E+01 -0.37353753665E+02  0.20374233557E+02  0.43015467383E+02  0.00000000000E+00 0. -1.
        -12    1    4    4    0    0 -0.28298844135E+02 -0.37417123150E+01 -0.28616723888E+02  0.40419572939E+02  0.00000000000E+00 0.  1.
        -11    1    3    3    0    0  0.37147924055E+02  0.43352261912E+02  0.19408380190E+02  0.60299851543E+02  0.00000000000E+00 0.  1.
         11    1    3    3    0    0 -0.39498891859E+02  0.12659828200E+02 -0.20001122764E+02  0.46048654921E+02  0.00000000000E+00 0. -1.
          2    1    1    2  501    0  0.24331732467E+02 -0.14916624132E+02  0.27646379940E+02  0.39734886487E+02  0.00000000000E+00 0. -1.
<scales pt_clust_5="13000.00000" pt_clust_6="13000.00000" pt_clust_7="13000.00000" pt_clust_8="13000.00000" pt_clust_9="28.54014"></scales>
<clustering>
<clus scale="   28.540">  2  9  1 -1</clus>
<clus scale="   68.713">  5  6 -1 -1</clus>
<clus scale="   84.494">  2  5  1 -1</clus>
<clus scale="   90.370">  7  8 -1 -1</clus>
<clus scale="   28.540">  2  5  1 -1</clus>
</clustering>
</event>
<event>
 9    1  0.4731329E-005  0.9388421E+02  0.7546771E-02  0.1300584E+00
         21   -1    0    0  501  502  0.00000000000E+00  0.00000000000E+00  0.10843857238E+03  0.10843857238E+03  0.00000000000E+00 0. -1.
          1   -1    0    0  502    0 -0.00000000000E+00 -0.00000000000E+00 -0.44369851097E+03  0.44369851097E+03  0.00000000000E+00 0. -1.
         23    2    1    2    0    0 -0.14354224254E+02  0.25015094819E+02 -0.33326081534E+03  0.34683185389E+03  0.91639320762E+02 0.  0.
        -24    2    1    2    0    0  0.22836144037E+02  0.26356542457E+02 -0.75339188193E+02  0.11536217410E+03  0.80101692439E+02 0.  0.
         13    1    4    4    0    0  0.13213570778E+02  0.52626632417E+02 -0.29770631626E+02  0.61890640647E+02  0.00000000000E+00 0. -1.
        -14    1    4    4    0    0  0.96225732586E+01 -0.26270089960E+02 -0.45568556567E+02  0.53471533457E+02  0.00000000000E+00 0.  1.
        -13    1    3    3    0    0  0.38225014940E+02  0.18059692258E+02 -0.12652579966E+03  0.13340195737E+03  0.00000000000E+00 0. -1.
         13    1    3    3    0    0 -0.52579239194E+02  0.69554025617E+01 -0.20673501568E+03  0.21342989652E+03  0.00000000000E+00 0.  1.
          2    1    1    2  501    0 -0.84819197832E+01 -0.51371637276E+02  0.73340064942E+02  0.89943055348E+02  0.00000000000E+00 0. -1.
<scales pt_clust_5="13000.00000" pt_clust_6="13000.00000" pt_clust_7="13000.00000" pt_clust_8="13000.00000" pt_clust_9="52.06715"></scales>
<clustering>
<clus scale="   52.067">  1  9  2 -1</clus>
<clus scale="   80.102">  5  6 -1 -1</clus>
<clus scale="   82.661">  1  5  2 -1</clus>
<clus scale="   91.639">  7  8 -1 -1</clus>
<clus scale="   52.067">  1  5  2 -1</clus>
</clustering>
</event>
<event>
 9    1  0.4731329E-005  0.1448552E+03  0.7546771E-02  0.1208814E+00
          1   -1    0    0  502    0 -0.00000000000E+00  0.00000000000E+00  0.14325111794E+04  0.14325111794E+04  0.00000000000E+00 0. -1.
         21   -1    0    0  501  502  0.00000000000E+00 -0.00000000000E+00 -0.21323760886E+02  0.21323760886E+02  0.00000000000E+00 0. -1.
        -24    2    1    2    0    0  0.60410498854E+02  0.76417743389E+02  0.47820650460E+03  0.49417619235E+03  0.77714529962E+02 0.  0.
         23    2    1    2    0    0 -0.11211744136E+03 -0.87972655885E+02  0.61679084329E+03  0.63906042500E+03  0.87508705848E+02 0.  0.
         11    1    3    3    0    0  0.76239595525E+02  0.58054096274E+02  0.42555866591E+03  0.43621431905E+03  0.00000000000E+00 0. -1.
        -12    1    3    3    0    0 -0.15829096671E+02  0.18363647115E+02  0.52647838691E+02  0.57961873293E+02  0.00000000000E+00 0.  1.
        -13    1    4    4    0    0  0.13176529112E+02 -0.17975572833E+02  0.11541722967E+03  0.11754947487E+03  0.00000000000E+00 0.  1.
         13    1    4    4    0    0 -0.12529397047E+03 -0.69997083052E+02  0.50137361362E+03  0.52151095013E+03  0.00000000000E+00 0. -1.
          2    1    1    2  501    0  0.51706942506E+02  0.11554912496E+02  0.31619007067E+03  0.32059832298E+03  0.00000000000E+00 0. -1.
<scales pt_clust_5="13000.00000" pt_clust_6="13000.00000" pt_clust_7="13000.00000" pt_clust_8="13000.00000" pt_clust_9="52.98232"></scales>
<clustering>
<clus scale="   52.982">  2  9  1 -1</clus>
<clus scale="   77.715">  5  6 -1 -1</clus>
<clus scale="   87.509">  7  8 -1 -1</clus>
<clus scale="  139.157">  1  5  2 -1</clus>
<clus scale="   52.982">  2  5  1 -1</clus>
</clustering>
</event>
<event>
 9    1  0.4731329E-005  0.2630541E+03  0.7546771E-02  0.1135297E+00
         21   -1    0    0  501  502  0.00000000000E+00  0.00000000000E+00  0.13462405799E+03  0.13462405799E+03  0.00000000000E+00 0.  1.
         -4   -1    0    0    0  501 -0.00000000000E+00 -0.00000000000E+00 -0.82959420955E+03  0.82959420955E+03  0.00000000000E+00 0.  1.
         23    2    1    2    0    0 -0.59644515050E+01  0.81189258764E+02 -0.22293394472E+03  0.25526274635E+03  0.93980080593E+02 0.  0.
        -24    2    1    2    0    0  0.24455778457E+03 -0.11722981749E+03 -0.30150778109E+03  0.41348023551E+03  0.80669839452E+02 0.  0.
         11    1    4    4    0    0  0.14420180946E+03 -0.41845525802E+02 -0.20996290759E+03  0.25812716333E+03  0.00000000000E+00 0. -1.
        -12    1    4    4    0    0  0.10035597511E+03 -0.75384291690E+02 -0.91544873493E+02  0.15535307218E+03  0.00000000000E+00 0.  1.
        -13    1    3    3    0    0  0.15030457132E+02  0.63317730332E+02 -0.21767449388E+03  0.22719426687E+03  0.00000000000E+00 0.  1.
         13    1    3    3    0    0 -0.20994908637E+02  0.17871528432E+02 -0.52594508414E+01  0.28068479480E+02  0.00000000000E+00 0. -1.
         -3    1    1    2    0  502 -0.23859333307E+03  0.36040558728E+02 -0.17052842575E+03  0.29547528568E+03  0.00000000000E+00 0.  1.
<scales pt_clust_5="13000.00000" pt_clust_6="13000.00000" pt_clust_7="13000.00000" pt_clust_8="13000.00000" pt_clust_9="250.37935"></scales>
<clustering>
<clus scale="   80.670">  5  6 -1 -1</clus>
<clus scale="   93.980">  7  8 -1 -1</clus>
<clus scale="  124.336">  2  7  1 -1</clus>
<clus scale="  250.379">  1  9  2 -1</clus>
<clus scale="  250.379">  1  5  2 -1</clus>
</clustering>
</event>
<event>
 9    1  0.4731329E-005  0.1342153E+03  0.7546771E-02  0.1223896E+00
         21   -1    0    0  501  502  0.00000000000E+00  0.00000000000E+00  0.98696065965E+02  0.98696065965E+02  0.00000000000E+00 0. -1.
          1   -1    0    0  502    0 -0.00000000000E+00 -0.00000000000E+00 -0.10107724449E+04  0.10107724449E+04  0.00000000000E+00 0. -1.
        -24    2    1    2    0    0 -0.19841299011E+01 -0.10550486719E+03 -0.84511874098E+03  0.85544958520E+03  0.80206562667E+02 0.  0.
         23    2    1    2    0    0  0.24959495666E+02  0.68707423427E+02 -0.13179593989E+03  0.17600658886E+03  0.90909092452E+02 0.  0.
         11    1    3    3    0    0  0.34356191405E+02 -0.81855534767E+02 -0.53514216510E+03  0.54245535607E+03  0.00000000000E+00 0. -1.
        -12    1    3    3    0    0 -0.36340321306E+02 -0.23649332426E+02 -0.30997657588E+03  0.31299422914E+03  0.00000000000E+00 0.  1.
        -13    1    4    4    0    0  0.30835037348E+02  0.11781838278E+02 -0.10987092556E+03  0.11472241073E+03  0.00000000000E+00 0. -1.
         13    1    4    4    0    0 -0.58755416816E+01  0.56925585149E+02 -0.21925014335E+02  0.61284178123E+02  0.00000000000E+00 0.  1.
          2    1    1    2  501    0 -0.22975365765E+02  0.36797443767E+02  0.64838301924E+02  0.78012336821E+02  0.00000000000E+00 0. -1.
<scales pt_clust_5="13000.00000" pt_clust_6="13000.00000" pt_clust_7="13000.00000" pt_clust_8="13000.00000" pt_clust_9="43.38109"></scales>
<clustering>
<clus scale="   43.381">  1  9  2 -1</clus>
<clus scale="   80.207">  5  6 -1 -1</clus>
<clus scale="   90.909">  7  8 -1 -1</clus>
<clus scale="  127.210">  2  5  1 -1</clus>
<clus scale="   43.381">  1  5  2 -1</clus>
</clustering>
</event>
<event>
 9    1  0.4731329E-005  0.1425553E+03  0.7546771E-02  0.1226809E+00
         -2   -1    0    0    0  501 -0.00000000000E+00  0.00000000000E+00  0.24166820507E+03  0.24166820507E+03  0.00000000000E+00 0.  1.
         21   -1    0    0  501  502  0.00000000000E+00 -0.00000000000E+00 -0.15710178983E+03  0.15710178983E+03  0.00000000000E+00 0. -1.
         23    2    1    2    0    0 -0.14376715237E+02  0.31595355426E+02 -0.40272421908E+02  0.10773050201E+03  0.93696513654E+02 0.  0.
        -24    2    1    2    0    0 -0.10715497286E+03 -0.40317911983E+02  0.79524421980E+02  0.16104168359E+03  0.80638501515E+02 0.  0.
         11    1    4    4    0    0 -0.85414610260E+01 -0.39712436591E+02  0.15562623701E+02  0.43499763596E+02  0.00000000000E+00 0. -1.
        -12    1    4    4    0    0 -0.98613511830E+02 -0.60547539198E+00  0.63961798279E+02  0.11754191999E+03  0.00000000000E+00 0.  1.
        -11    1    3    3    0    0  0.26417734130E+01 -0.26460056816E+02 -0.39019612235E+02  0.47219103257E+02  0.00000000000E+00 0.  1.
         11    1    3    3    0    0 -0.17018488650E+02  0.58055412243E+02 -0.12528096731E+01  0.60511398750E+02  0.00000000000E+00 0. -1.
         -1    1    1    2    0  502  0.12153168809E+03  0.87225565565E+01  0.45314415165E+02  0.12999780931E+03  0.00000000000E+00 0.  1.
<scales pt_clust_5="13000.00000" pt_clust_6="13000.00000" pt_clust_7="13000.00000" pt_clust_8="13000.00000" pt_clust_9="117.55608"></scales>
<clustering>
<clus scale="   80.639">  5  6 -1 -1</clus>
<clus scale="   93.697">  7  8 -1 -1</clus>
<clus scale="   99.920">  1  7  2 -1</clus>
<clus scale="  117.556">  2  9  1 -1</clus>
<clus scale="  117.556">  2  5  1 -1</clus>
</clustering>
</event>
<event>
 9    1  0.4731329E-005  0.1121312E+03  0.7546771E-02  0.1262807E+00
         -2   -1    0    0    0  501 -0.00000000000E+00  0.00000000000E+00  0.15113898770E+03  0.15113898770E+03  0.00000000000E+00 0.  1.
         21   -1    0    0  501  502  0.00000000000E+00 -0.00000000000E+00 -0.14823808284E+03  0.14823808284E+03  0.00000000000E+00 0.  1.
        -24    2    1    2    0    0 -0.55497552261E+02  0.62341935643E+02  0.65107896447E+01  0.10957482515E+03  0.70694813659E+02 0.  0.
         23    2    1    2    0    0  0.67059024105E+02  0.38100635727E+01 -0.34707950406E+02  0.11579654077E+03  0.87708424536E+02 0.  0.
         13    1    3    3    0    0 -0.33543502330E+01  0.55121299933E+02  0.12422168904E+02  0.56603177049E+02  0.00000000000E+00 0. -1.
        -14    1    3    3    0    0 -0.52143202028E+02  0.72206357096E+01 -0.59113792589E+01  0.52971648101E+02  0.00000000000E+00 0.  1.
        -11    1    4    4    0    0  0.88297750632E+02  0.66221744674E+01 -0.23467618379E+02  0.91602811495E+02  0.00000000000E+00 0.  1.
         11    1    4    4    0    0 -0.21238726527E+02 -0.28121108946E+01 -0.11240332027E+02  0.24193729275E+02  0.00000000000E+00 0. -1.
         -1    1    1    2    0  502 -0.11561471844E+02 -0.66151999215E+02  0.31098065621E+02  0.74005704623E+02  0.00000000000E+00 0.  1.
<scales pt_clust_5="13000.00000" pt_clust_6="13000.00000" pt_clust_7="13000.00000" pt_clust_8="13000.00000" pt_clust_9="67.15474"></scales>
<clustering>
<clus scale="   67.155">  2  9  1 -1</clus>
<clus scale="   70.695">  5  6 -1 -1</clus>
<clus scale="   87.708">  7  8 -1 -1</clus>
<clus scale="   99.390">  1  5  2 -1</clus>
<clus scale="   67.155">  2  5  1 -1</clus>
</clustering>
</event>
<event>
 9    1  0.4731329E-005  0.9658966E+02  0.7546771E-02  0.1289831E+00
         21   -1    0    0  501  502  0.00000000000E+00  0.00000000000E+00  0.13279501415E+03  0.13279501415E+03  0.00000000000E+00 0.  1.
          1   -1    0    0  502    0 -0.00000000000E+00 -0.00000000000E+00 -0.26441471399E+03  0.26441471399E+03  0.00000000000E+00 0. -1.
         23    2    1    2    0    0  0.80553819383E+01 -0.35944193956E+02 -0.18990041569E+03  0.21411649717E+03  0.91797778966E+02 0.  0.
        -24    2    1    2    0    0 -0.52209393446E+01  0.11012765899E+02 -0.28305995919E+02  0.92944083310E+02  0.87685996584E+02 0.  0.
         13    1    4    4    0    0 -0.26784852546E+02 -0.22363561515E+02 -0.38460821111E+02  0.51930645770E+02  0.00000000000E+00 0. -1.
        -14    1    4    4    0    0  0.21563913202E+02  0.33376327413E+02  0.10154825192E+02  0.41013437540E+02  0.00000000000E+00 0.  1.
        -11    1    3    3    0    0 -0.24685203972E+02 -0.16844520190E+02 -0.11968885918E+02  0.32192411928E+02  0.00000000000E+00 0.  1.
         11    1    3    3    0    0  0.32740585911E+02 -0.19099673766E+02 -0.17793152977E+03  0.18192408524E+03  0.00000000000E+00 0. -1.
          2    1    1    2  501    0 -0.28344425937E+01  0.24931428058E+02  0.86586711767E+02  0.90149147664E+02  0.00000000000E+00 0. -1.
<scales pt_clust_5="13000.00000" pt_clust_6="13000.00000" pt_clust_7="13000.00000" pt_clust_8="13000.00000" pt_clust_9="25.09203"></scales>
<clustering>
<clus scale="   25.092">  1  9  2 -1</clus>
<clus scale="   87.686">  5  6 -1 -1</clus>
<clus scale="   91.798">  7  8 -1 -1</clus>
<clus scale="   92.691">  1  5  2 -1</clus>
<clus scale="   25.092">  1  5  2 -1</clus>
</clustering>
</event>
<event>
 9    1  0.4731329E-005  0.1078725E+03  0.7546771E-02  0.1269452E+00
          3   -1    0    0  502    0 -0.00000000000E+00  0.00000000000E+00  0.92748037649E+02  0.92748037649E+02  0.00000000000E+00 0. -1.
         21   -1    0    0  501  502  0.00000000000E+00 -0.00000000000E+00 -0.33467450216E+03  0.33467450216E+03  0.00000000000E+00 0.  1.
         23    2    1    2    0    0  0.45478976148E+02  0.58313614142E+01 -0.48116414228E+02  0.11384625343E+03  0.92430720294E+02 0.  0.
        -24    2    1    2    0    0 -0.74201909062E+02 -0.51687182125E+02 -0.22170180582E+03  0.25270171702E+03  0.80802097598E+02 0.  0.
         11    1    4    4    0    0 -0.88420158751E+01 -0.47936966754E+02 -0.54387260686E+02  0.73034978956E+02  0.00000000000E+00 0. -1.
        -12    1    4    4    0    0 -0.65359893187E+02 -0.37502153719E+01 -0.16731454514E+03  0.17966673807E+03  0.00000000000E+00 0.  1.
        -11    1    3    3    0    0  0.27106468104E+02  0.42361735489E+02  0.53311643680E+00  0.50294745847E+02  0.00000000000E+00 0.  1.
         11    1    3    3    0    0  0.18372508044E+02 -0.36530374075E+02 -0.48649530665E+02  0.63551507581E+02  0.00000000000E+00 0. -1.
          4    1    1    2  501    0  0.28722932915E+02  0.45855820711E+02  0.27891755535E+02  0.60874569363E+02  0.00000000000E+00 0. -1.
<scales pt_clust_5="13000.00000" pt_clust_6="13000.00000" pt_clust_7="13000.00000" pt_clust_8="13000.00000" pt_clust_9="54.10884"></scales>
<clustering>
<clus scale="   54.109">  2  9  1 -1</clus>
<clus scale="   80.802">  5  6 -1 -1</clus>
<clus scale="   92.431">  7  8 -1 -1</clus>
<clus scale="   98.092">  2  5  1 -1</clus>
<clus scale="   54.109">  2  5  1 -1</clus>
</clustering>
</event>
<event>
 9    1  0.4731329E-005  0.1535106E+03  0.7546771E-02  0.1198429E+00
         21   -1    0    0  501  502  0.00000000000E+00  0.00000000000E+00  0.31984368710E+03  0.31984368710E+03  0.00000000000E+00 0.  1.
          1   -1    0    0  502    0 -0.00000000000E+00 -0.00000000000E+00 -0.55634741547E+03  0.55634741547E+03  0.00000000000E+00 0. -1.
         23    2    1    2    0    0  0.35011668762E+02  0.11597682780E+03 -0.41512940375E+03  0.44214861114E+03  0.92122369367E+02 0.  0.
        -24    2    1    2    0    0  0.31415306310E+02 -0.17303767446E+03  0.25364598637E+03  0.31873190953E+03  0.79528520013E+02 0.  0.
         13    1    4    4    0    0 -0.19613402881E+02 -0.96862339923E+01  0.28394875665E+02  0.35843795356E+02  0.00000000000E+00 0. -1.
        -14    1    4    4    0    0  0.51028709191E+02 -0.16335144047E+03  0.22525111070E+03  0.28288811417E+03  0.00000000000E+00 0.  1.
        -13    1    3    3    0    0 -0.27049886910E+02  0.25284474974E+02 -0.16227490057E+03  0.16644561998E+03  0.00000000000E+00 0.  1.
         13    1    3    3    0    0  0.62061555672E+02  0.90692352824E+02 -0.25285450318E+03  0.27570299115E+03  0.00000000000E+00 0. -1.
          2    1    1    2  501    0 -0.66426975072E+02  0.57060846664E+02 -0.75020310983E+02  0.11531058190E+03  0.00000000000E+00 0. -1.
<scales pt_clust_5="13000.00000" pt_clust_6="13000.00000" pt_clust_7="13000.00000" pt_clust_8="13000.00000" pt_clust_9="87.56992"></scales>
<clustering>
<clus scale="   79.529">  5  6 -1 -1</clus>
<clus scale="   87.570">  1  9  2 -1</clus>
<clus scale="   92.122">  7  8 -1 -1</clus>
<clus scale="  146.300">  1  5  2 -1</clus>
<clus scale="   87.570">  1  5  2 -1</clus>
</clustering>
</event>
<event>
 9    1  0.4731329E-005  0.1009122E+03  0.7546771E-02  0.1289780E+00
         21   -1    0    0  501  502  0.00000000000E+00  0.00000000000E+00  0.24402859695E+03  0.24402859695E+03  0.00000000000E+00 0.  1.
          3   -1    0    0  502    0 -0.00000000000E+00 -0.00000000000E+00 -0.12819502874E+03  0.12819502874E+03  0.00000000000E+00 0. -1.
        -24    2    1    2    0    0 -0.10740357052E+02 -0.41179785127E+02  0.35668826671E+02  0.88582121938E+02  0.69017368525E+02 0.  0.
         23    2    1    2    0    0  0.37651673088E+02  0.33862376443E+02  0.16450159043E+03  0.19481320037E+03  0.91252949312E+02 0.  0.
         11    1    3    3    0    0 -0.16542567885E+01 -0.54939267093E+02  0.68630840715E+01  0.55390988050E+02  0.00000000000E+00 0. -1.
        -12    1    3    3    0    0 -0.90861002634E+01  0.13759481966E+02  0.28805742600E+02  0.33191133887E+02  0.00000000000E+00 0.  1.
        -13    1    4    4    0    0 -0.10760944896E+02  0.49979407844E+02  0.10227759702E+03  0.11434354374E+03  0.00000000000E+00 0.  1.
         13    1    4    4    0    0  0.48412617984E+02 -0.16117031401E+02  0.62223993418E+02  0.80469656630E+02  0.00000000000E+00 0. -1.
          4    1    1    2  501    0 -0.26911316036E+02  0.73174086838E+01 -0.84336848891E+02  0.88828303381E+02  0.00000000000E+00 0. -1.
<scales pt_clust_5="13000.00000" pt_clust_6="13000.00000" pt_clust_7="13000.00000" pt_clust_8="13000.00000" pt_clust_9="27.88842"></scales>
<clustering>
<clus scale="   27.888">  1  9  2 -1</clus>
<clus scale="   69.017">  5  6 -1 -1</clus>
<clus scale="   81.361">  2  5  1 -1</clus>
<clus scale="   91.253">  7  8 -1 -1</clus>
<clus scale="   27.888">  1  5  2 -1</clus>
</clustering>
</event>
<event>
 9    1  0.4731329E-005  0.1972219E+03  0.7546771E-02  0.1179825E+00
         21   -1    0    0  501  502  0.00000000000E+00  0.00000000000E+00  0.33713150451E+03  0.33713150451E+03  0.00000000000E+00 0. -1.
          1   -1    0    0  502    0 -0.00000000000E+00 -0.00000000000E+00 -0.21838619065E+03  0.21838619065E+03  0.00000000000E+00 0. -1.
        -24    2    1    2    0    0  0.18194382954E+02 -0.62147929857E+02  0.64264080362E+02  0.12236725597E+03  0.81550429498E+02 0.  0.
         23    2    1    2    0    0  0.96687914483E+02 -0.88119538134E+02 -0.10067220087E+03  0.18850612105E+03  0.91027797064E+02 0.  0.
         11    1    3    3    0    0 -0.49913580893E+01 -0.73084653014E+02  0.63133921053E+02  0.96706629294E+02  0.00000000000E+00 0. -1.
        -12    1    3    3    0    0  0.23185741043E+02  0.10936723157E+02  0.11301593088E+01  0.25660626672E+02  0.00000000000E+00 0.  1.
        -13    1    4    4    0    0 -0.15327248896E+02 -0.15186926993E+02 -0.69717021710E+00  0.21588268956E+02  0.00000000000E+00 0.  1.
         13    1    4    4    0    0  0.11201516338E+03 -0.72932611142E+02 -0.99975030648E+02  0.16691785209E+03  0.00000000000E+00 0. -1.
          2    1    1    2  501    0 -0.11488229744E+03  0.15026746799E+03  0.15515343436E+03  0.24464431814E+03  0.00000000000E+00 0. -1.
<scales pt_clust_5="13000.00000" pt_clust_6="13000.00000" pt_clust_7="13000.00000" pt_clust_8="13000.00000" pt_clust_9="174.95834"></scales>
<clustering>
<clus scale="   81.550">  5  6 -1 -1</clus>
<clus scale="   91.028">  7  8 -1 -1</clus>
<clus scale="  104.134">  2  5  1 -1</clus>
<clus scale="  174.958">  1  9  2 -1</clus>
<clus scale="  174.958">  1  5  2 -1</clus>
</clustering>
</event>
<event>
 9    1  0.4731329E-005  0.1513791E+03  0.7546771E-02  0.1219219E+00
          1   -1    0    0  502    0 -0.00000000000E+00  0.00000000000E+00  0.10468597774E+04  0.10468597774E+04  0.00000000000E+00 0. -1.
         21   -1    0    0  501  502  0.00000000000E+00 -0.00000000000E+00 -0.38107743022E+02  0.38107743022E+02  0.00000000000E+00 0. -1.
         23    2    1    2    0    0  0.15108964264E+02 -0.24914551758E+02  0.31496248146E+03  0.32979267426E+03  0.93342528236E+02 0.  0.
        -24    2    1    2    0    0 -0.80158045780E+02 -0.95330607079E+02  0.24768863664E+03  0.28859547592E+03  0.80152673388E+02 0.  0.
         13    1    4    4    0    0 -0.12064554932E+02 -0.69991358851E+02  0.87476623432E+02  0.11267876218E+03  0.00000000000E+00 0. -1.
        -14    1    4    4    0    0 -0.68093490848E+02 -0.25339248228E+02  0.16021201320E+03  0.17591671374E+03  0.00000000000E+00 0.  1.
        -11    1    3    3    0    0  0.44446775152E+02  0.27133904305E+01  0.24533952224E+03  0.24934786841E+03  0.00000000000E+00 0.  1.
         11    1    3    3    0    0 -0.29337810888E+02 -0.27627942188E+02  0.69622959221E+02  0.80444805848E+02  0.00000000000E+00 0. -1.
          2    1    1    2  501    0  0.65049081515E+02  0.12024515884E+03  0.44610091624E+03  0.46657937020E+03  0.00000000000E+00 0. -1.
<scales pt_clust_5="13000.00000" pt_clust_6="13000.00000" pt_clust_7="13000.00000" pt_clust_8="13000.00000" pt_clust_9="128.41805"></scales>
<clustering>
<clus scale="   80.153">  5  6 -1 -1</clus>
<clus scale="   93.343">  7  8 -1 -1</clus>
<clus scale="   97.785">  1  7  2 -1</clus>
<clus scale="  128.418">  2  9  1 -1</clus>
<clus scale="  128.418">  2  5  1 -1</clus>
</clustering>
</event>
<event>
 9    1  0.4731329E-005  0.1477262E+03  0.7546771E-02  0.1207195E+00
          1   -1    0    0  502    0 -0.00000000000E+00  0.00000000000E+00  0.25374168471E+03  0.25374168471E+03  0.00000000000E+00 0. -1.
         21   -1    0    0  501  502  0.00000000000E+00 -0.00000000000E+00 -0.20263784249E+03  0.20263784249E+03  0.00000000000E+00 0.  1.
         23    2    1    2    0    0  0.74511426631E+02 -0.67428435598E+02  0.18327501137E+03  0.22782748010E+03  0.90648134402E+02 0.  0.
        -24    2    1    2    0    0 -0.93598389010E+02  0.54536324034E+02 -0.13682804913E+03  0.20505300022E+03  0.10765662453E+03 0.  0.
         11    1    4    4    0    0 -0.20342772024E+02 -0.31224925052E+01  0.15977219026E+02  0.26054747377E+02  0.00000000000E+00 0. -1.
        -12    1    4    4    0    0 -0.73255616986E+02  0.57658816539E+02 -0.15280526816E+03  0.17899825284E+03  0.00000000000E+00 0.  1.
        -13    1    3    3    0    0  0.16806022729E+02 -0.29221739432E+02  0.19753982934E+01  0.33767656920E+02  0.00000000000E+00 0.  1.
         13    1    3    3    0    0  0.57705403902E+02 -0.38206696166E+02  0.18129961307E+03  0.19405982318E+03  0.00000000000E+00 0. -1.
          2    1    1    2  501    0  0.19086962378E+02  0.12892111564E+02  0.46568799761E+01  0.23499046885E+02  0.00000000000E+00 0. -1.
<scales pt_clust_5="13000.00000" pt_clust_6="13000.00000" pt_clust_7="13000.00000" pt_clust_8="13000.00000" pt_clust_9="23.03300"></scales>
<clustering>
<clus scale="   23.033">  2  9  1 -1</clus>
<clus scale="   90.648">  7  8 -1 -1</clus>
<clus scale="  107.657">  5  6 -1 -1</clus>
<clus scale="  135.831">  1  7  2 -1</clus>
<clus scale="   23.033">  2  5  1 -1</clus>
</clustering>
</event>
<event>
 9    1  0.4731329E-005  0.1166826E+03  0.7546771E-02  0.1253284E+00
          1   -1    0    0  502    0 -0.00000000000E+00  0.00000000000E+00  0.29152150045E+03  0.29152150045E+03  0.00000000000E+00 0. -1.
         21   -1    0    0  501  502  0.00000000000E+00 -0.00000000000E+00 -0.18285782392E+03  0.18285782392E+03  0.00000000000E+00 0. -1.
         23    2    1    2    0    0  0.41719985240E+02 -0.64060135939E+02  0.20739304529E+03  0.23923877482E+03  0.91537194396E+02 0.  0.
        -24    2    1    2    0    0 -0.65131015087E+02  0.27215961651E+02  0.21346198020E+02  0.10737626959E+03  0.78046431094E+02 0.  0.
         11    1    4    4    0    0 -0.42907066199E+02  0.28874861627E+02  0.49418821599E+02  0.71533166378E+02  0.00000000000E+00 0. -1.
        -12    1    4    4    0    0 -0.22223948888E+02 -0.16588999768E+01 -0.28072623579E+02  0.35843103213E+02  0.00000000000E+00 0.  1.
        -11    1    3    3    0    0  0.30781422304E+02  0.36896896430E+01  0.13973870725E+02  0.34005570599E+02  0.00000000000E+00 0.  1.
         11    1    3    3    0    0  0.10938562935E+02 -0.67749825582E+02  0.19341917457E+03  0.20523320422E+03  0.00000000000E+00 0. -1.
          2    1    1    2  501    0  0.23411029847E+02  0.36844174288E+02 -0.12007556678E+03  0.12776427996E+03  0.00000000000E+00 0. -1.
<scales pt_clust_5="13000.00000" pt_clust_6="13000.00000" pt_clust_7="13000.00000" pt_clust_8="13000.00000" pt_clust_9="43.65283"></scales>
<clustering>
<clus scale="   43.653">  2  9  1 -1</clus>
<clus scale="   78.046">  5  6 -1 -1</clus>
<clus scale="   91.537">  7  8 -1 -1</clus>
<clus scale="  106.429">  2  5  1 -1</clus>
<clus scale="   43.653">  2  5  1 -1</clus>
</clustering>
</event>
<event>
 9    1  0.4731329E-005  0.1057451E+03  0.7546771E-02  0.1274353E+00
          1   -1    0    0  502    0 -0.00000000000E+00  0.00000000000E+00  0.10734128765E+03  0.10734128765E+03  0.00000000000E+00 0. -1.
         21   -1    0    0  501  502  0.00000000000E+00 -0.00000000000E+00 -0.45772101793E+03  0.45772101793E+03  0.00000000000E+00 0. -1.
         23    2    1    2    0    0  0.30517616477E+02  0.34033142551E+02  0.46206462449E+02  0.11323969522E+03  0.92728699407E+02 0.  0.
        -24    2    1    2    0    0 -0.73987728075E+02 -0.21393628954E+02 -0.92837961502E+02  0.14471937710E+03  0.79955861237E+02 0.  0.
         13    1    4    4    0    0 -0.20887884140E+02  0.30261560405E+02 -0.34575475635E+02  0.50473054766E+02  0.00000000000E+00 0. -1.
        -14    1    4    4    0    0 -0.53099843935E+02 -0.51655189359E+02 -0.58262485867E+02  0.94246322332E+02  0.00000000000E+00 0.  1.
        -11    1    3    3    0    0  0.62958589499E+02  0.13160050033E+02  0.34153332456E+02  0.72824590808E+02  0.00000000000E+00 0.  1.
         11    1    3    3    0    0 -0.32440973022E+02  0.20873092517E+02  0.12053129994E+02  0.40415104410E+02  0.00000000000E+00 0. -1.
          2    1    1    2  501    0  0.43470111598E+02 -0.12639513596E+02 -0.30374823123E+03  0.30710323326E+03  0.00000000000E+00 0. -1.
<scales pt_clust_5="13000.00000" pt_clust_6="13000.00000" pt_clust_7="13000.00000" pt_clust_8="13000.00000" pt_clust_9="45.27039"></scales>
<clustering>
<clus scale="   45.270">  2  9  1 -1</clus>
<clus scale="   79.956">  5  6 -1 -1</clus>
<clus scale="   92.729">  7  8 -1 -1</clus>
<clus scale="   94.744">  2  5  1 -1</clus>
<clus scale="   45.270">  2  5  1 -1</clus>
</clustering>
</event>
<event>
 9    1  0.4731329E-005  0.9605809E+02  0.7546771E-02  0.1293629E+00
          1   -1    0    0  502    0 -0.00000000000E+00  0.00000000000E+00  0.45390641801E+03  0.45390641801E+03  0.00000000000E+00 0. -1.
         21   -1    0    0  501  502  0.00000000000E+00 -0.00000000000E+00 -0.58490821988E+02  0.58490821988E+02  0.00000000000E+00 0.  1.
         23    2    1    2    0    0 -0.35232996638E+02 -0.16009867255E+02  0.37139801999E+03  0.38369893834E+03  0.88264976818E+02 0.  0.
        -24    2    1    2    0    0  0.42148215110E+02 -0.17537345694E+02  0.23794323523E+02  0.94445045094E+02  0.79181223657E+02 0.  0.
         11    1    4    4    0    0  0.18039186063E+02  0.86983555248E+01  0.47567472769E+02  0.51611414322E+02  0.00000000000E+00 0. -1.
        -12    1    4    4    0    0  0.24109029047E+02 -0.26235701219E+02 -0.23773149246E+02  0.42833630772E+02  0.00000000000E+00 0.  1.
        -13    1    3    3    0    0  0.64314742380E+01 -0.44923797428E+02  0.19004787874E+03  0.19539116574E+03  0.00000000000E+00 0.  1.
         13    1    3    3    0    0 -0.41664470876E+02  0.28913930172E+02  0.18135014125E+03  0.18830777260E+03  0.00000000000E+00 0. -1.
          2    1    1    2  501    0 -0.69152184720E+01  0.33547212950E+02  0.22325250782E+00  0.34253256559E+02  0.00000000000E+00 0. -1.
<scales pt_clust_5="13000.00000" pt_clust_6="13000.00000" pt_clust_7="13000.00000" pt_clust_8="13000.00000" pt_clust_9="34.25253"></scales>
<clustering>
<clus scale="   34.253">  2  9  1 -1</clus>
<clus scale="   79.181">  5  6 -1 -1</clus>
<clus scale="   87.784">  2  5  1 -1</clus>
<clus scale="   88.265">  7  8 -1 -1</clus>
<clus scale="   34.253">  2  5  1 -1</clus>
</clustering>
</event>
<event>
 9    1  0.4731329E-005  0.9481342E+02  0.7546771E-02  0.1295802E+00
         21   -1    0    0  501  502  0.00000000000E+00  0.00000000000E+00  0.96307713694E+03  0.96307713694E+03  0.00000000000E+00 0. -1.
         -2   -1    0    0    0  501 -0.00000000000E+00 -0.00000000000E+00 -0.16218641741E+02  0.16218641741E+02  0.00000000000E+00 0.  1.
         23    2    1    2    0    0 -0.79054448675E+01  0.18245265517E+02  0.30566666038E+03  0.31891956484E+03  0.88781731229E+02 0.  0.
        -24    2    1    2    0    0 -0.40746754531E+02 -0.45767234867E+02  0.38895290336E+03  0.40201798609E+03  0.81112035560E+02 0.  0.
         13    1    4    4    0    0 -0.56115160376E+02 -0.18323576372E+02  0.15325876429E+03  0.16423432500E+03  0.00000000000E+00 0. -1.
        -14    1    4    4    0    0  0.15368405845E+02 -0.27443658495E+02  0.23569413907E+03  0.23778366109E+03  0.00000000000E+00 0.  1.
        -11    1    3    3    0    0 -0.31824333595E+01 -0.36190392597E+02  0.12450809144E+03  0.12970018208E+03  0.00000000000E+00 0. -1.
         11    1    3    3    0    0 -0.47230115079E+01  0.54435658113E+02  0.18115856894E+03  0.18921938276E+03  0.00000000000E+00 0.  1.
         -1    1    1    2    0  502  0.48652199398E+02  0.27521969350E+02  0.25223893146E+03  0.25835822775E+03  0.00000000000E+00 0.  1.
<scales pt_clust_5="13000.00000" pt_clust_6="13000.00000" pt_clust_7="13000.00000" pt_clust_8="13000.00000" pt_clust_9="55.89719"></scales>
<clustering>
<clus scale="   55.897">  1  9  2 -1</clus>
<clus scale="   81.112">  5  6 -1 -1</clus>
<clus scale="   87.673">  1  5  2 -1</clus>
<clus scale="   88.782">  7  8 -1 -1</clus>
<clus scale="   55.897">  1  5  2 -1</clus>
</clustering>
</event>
<event>
 9    1  0.4731329E-005  0.1597177E+03  0.7546771E-02  0.1207724E+00
         -4   -1    0    0    0  501 -0.00000000000E+00  0.00000000000E+00  0.21226571588E+03  0.21226571588E+03  0.00000000000E+00 0.  1.
         21   -1    0    0  501  502  0.00000000000E+00 -0.00000000000E+00 -0.21789256852E+03  0.21789256852E+03  0.00000000000E+00 0.  1.
         23    2    1    2    0    0  0.15638349187E+02  0.51182480655E+02  0.51667681258E+02  0.11815863400E+03  0.91802555583E+02 0.  0.
        -24    2    1    2    0    0  0.21642941492E+02  0.11111481641E+03 -0.30582324259E+02  0.14334660591E+03  0.82450297321E+02 0.  0.
         11    1    4    4    0    0 -0.15004423815E+02  0.10030080845E+03 -0.27120602358E+02  0.10498053144E+03  0.00000000000E+00 0. -1.
        -12    1    4    4    0    0  0.36647365307E+02  0.10814007962E+02 -0.34617219009E+01  0.38366074476E+02  0.00000000000E+00 0.  1.
        -13    1    3    3    0    0 -0.21915052621E+02  0.62842312546E+02  0.27556963351E+02  0.72033408962E+02  0.00000000000E+00 0.  1.
         13    1    3    3    0    0  0.37553401809E+02 -0.11659831891E+02  0.24110717907E+02  0.46125225041E+02  0.00000000000E+00 0. -1.
         -3    1    1    2    0  502 -0.37281290680E+02 -0.16229729706E+03 -0.26712209635E+02  0.16865304448E+03  0.00000000000E+00 0.  1.
<scales pt_clust_5="13000.00000" pt_clust_6="13000.00000" pt_clust_7="13000.00000" pt_clust_8="13000.00000" pt_clust_9="136.79070"></scales>
<clustering>
<clus scale="   82.450">  5  6 -1 -1</clus>
<clus scale="   91.803">  7  8 -1 -1</clus>
<clus scale="  106.263">  1  7  2 -1</clus>
<clus scale="  136.791">  2  9  1 -1</clus>
<clus scale="  136.791">  2  5  1 -1</clus>
</clustering>
</event>
<event>
 9    1  0.4731329E-005  0.2061845E+03  0.7546771E-02  0.1145322E+00
          1   -1    0    0  502    0 -0.00000000000E+00  0.00000000000E+00  0.10568422658E+04  0.10568422658E+04  0.00000000000E+00 0. -1.
         21   -1    0    0  501  502  0.00000000000E+00 -0.00000000000E+00 -0.13660577756E+03  0.13660577756E+03  0.00000000000E+00 0.  1.
         23    2    1    2    0    0  0.12440508258E+03  0.14913600162E+03  0.94236396340E+03  0.96626320073E+03  0.88862601885E+02 0.  0.
        -24    2    1    2    0    0 -0.66281963920E+02 -0.11732029382E+03  0.92503445945E+00  0.15702820080E+03  0.80620407301E+02 0.  0.
         13    1    4    4    0    0  0.18422239855E+02 -0.30368660148E+02 -0.23226667379E+01  0.35595353928E+02  0.00000000000E+00 0. -1.
        -14    1    4    4    0    0 -0.84704203775E+02 -0.86951633672E+02  0.32477011973E+01  0.12143284687E+03  0.00000000000E+00 0.  1.
        -11    1    3    3    0    0  0.28464249641E+02  0.41428163616E+02  0.10316731919E+03  0.11476062912E+03  0.00000000000E+00 0.  1.
         11    1    3    3    0    0  0.95940832939E+02  0.10770783801E+03  0.83919664421E+03  0.85150257161E+03  0.00000000000E+00 0. -1.
          2    1    1    2  501    0 -0.58123118660E+02 -0.31815707805E+02 -0.23052509669E+02  0.70156641795E+02  0.00000000000E+00 0. -1.
<scales pt_clust_5="13000.00000" pt_clust_6="13000.00000" pt_clust_7="13000.00000" pt_clust_8="13000.00000" pt_clust_9="66.26112"></scales>
<clustering>
<clus scale="   66.261">  2  9  1 -1</clus>
<clus scale="   80.620">  5  6 -1 -1</clus>
<clus scale="   88.863">  7  8 -1 -1</clus>
<clus scale="  202.769">  2  5  1 -1</clus>
<clus scale="   66.261">  2  5  1 -1</clus>
</clustering>
</event>
<event>
 9    1  0.4731329E-005  0.1395154E+03  0.7546771E-02  0.1230099E+00
         21   -1    0    0  501  502  0.00000000000E+00  0.00000000000E+00  0.30141924300E+03  0.30141924300E+03  0.00000000000E+00 0. -1.
          1   -1    0    0  502    0 -0.00000000000E+00 -0.00000000000E+00 -0.11446720191E+03  0.11446720191E+03  0.00000000000E+00 0. -1.
        -24    2    1    2    0    0 -0.61957411239E+02  0.13466691793E+01  0.19149806389E+02  0.10140026560E+03  0.77940775298E+02 0.  0.
         23    2    1    2    0    0 -0.22353421879E+02  0.69562075258E+02  0.11026753451E+02  0.12287480663E+03  0.98173677881E+02 0.  0.
         11    1    3    3    0    0 -0.55172032070E+02  0.34428741861E+02  0.18539453969E+02  0.67623980527E+02  0.00000000000E+00 0. -1.
        -12    1    3    3    0    0 -0.67853791697E+01 -0.33082072681E+02  0.61035241962E+00  0.33776285075E+02  0.00000000000E+00 0.  1.
        -11    1    4    4    0    0  0.23746155735E+02  0.22148572498E+02  0.39278009988E+02  0.50962743691E+02  0.00000000000E+00 0.  1.
         11    1    4    4    0    0 -0.46099577614E+02  0.47413502760E+02 -0.28251256537E+02  0.71912062939E+02  0.00000000000E+00 0. -1.
          2    1    1    2  501    0  0.84310833118E+02 -0.70908744438E+02  0.15677548125E+03  0.19161137268E+03  0.00000000000E+00 0. -1.
<scales pt_clust_5="13000.00000" pt_clust_6="13000.00000" pt_clust_7="13000.00000" pt_clust_8="13000.00000" pt_clust_9="99.12862"></scales>
<clustering>
<clus scale="   77.941">  5  6 -1 -1</clus>
<clus scale="   98.174">  7  8 -1 -1</clus>
<clus scale="   99.576">  2  5  1 -1</clus>
<clus scale="   99.129">  1  9  2 -1</clus>
<clus scale="   99.129">  1  5  2 -1</clus>
</clustering>
</event>
<event>
 9    1  0.4731329E-005  0.1186879E+03  0.7546771E-02  0.1249008E+00
         21   -1    0    0  501  502  0.00000000000E+00  0.00000000000E+00  0.43034007742E+03  0.43034007742E+03  0.00000000000E+00 0. -1.
          3   -1    0    0  502    0 -0.00000000000E+00 -0.00000000000E+00 -0.70370751403E+02  0.70370751403E+02  0.00000000000E+00 0. -1.
         23    2    1    2    0    0  0.64628269645E+02  0.58133675558E+02  0.63967724121E+02  0.14141845454E+03  0.91383653258E+02 0.  0.
        -24    2    1    2    0    0  0.13497550244E+02 -0.75878695329E+02  0.23032613220E+03  0.25569798844E+03  0.79947319209E+02 0.  0.
         11    1    4    4    0    0  0.21350372305E+01 -0.62179028324E+02  0.67103304579E+02  0.91507614069E+02  0.00000000000E+00 0. -1.
        -12    1    4    4    0    0  0.11362513014E+02 -0.13699667005E+02  0.16322282762E+03  0.16419037437E+03  0.00000000000E+00 0.  1.
        -13    1    3    3    0    0 -0.14510247998E+02  0.42025111746E+02  0.14754220231E+02  0.46843829144E+02  0.00000000000E+00 0.  1.
         13    1    3    3    0    0  0.79138517643E+02  0.16108563813E+02  0.49213503890E+02  0.94574625392E+02  0.00000000000E+00 0. -1.
          4    1    1    2  501    0 -0.78125819889E+02  0.17745019771E+02  0.65675469692E+02  0.10359438585E+03  0.00000000000E+00 0. -1.
<scales pt_clust_5="13000.00000" pt_clust_6="13000.00000" pt_clust_7="13000.00000" pt_clust_8="13000.00000" pt_clust_9="80.11577"></scales>
<clustering>
<clus scale="   79.947">  5  6 -1 -1</clus>
<clus scale="   80.116">  1  9  2 -1</clus>
<clus scale="   91.384">  7  8 -1 -1</clus>
<clus scale="  110.125">  1  5  2 -1</clus>
<clus scale="   80.116">  1  5  2 -1</clus>
</clustering>
</event>
<event>
 9    1  0.4731329E-005  0.1434988E+03  0.7546771E-02  0.1217188E+00
         21   -1    0    0  501  502  0.00000000000E+00  0.00000000000E+00  0.46399993408E+03  0.46399993408E+03  0.00000000000E+00 0. -1.
          1   -1    0    0  502    0 -0.00000000000E+00 -0.00000000000E+00 -0.16900120629E+03  0.16900120629E+03  0.00000000000E+00 0. -1.
         23    2    1    2    0    0  0.76643370777E+02 -0.15128136672E+01 -0.79137277372E+02  0.14358808412E+03  0.92077871082E+02 0.  0.
        -24    2    1    2    0    0 -0.56310895390E+02 -0.11797032016E+03  0.83355289214E+02  0.17438440106E+03  0.79836719081E+02 0.  0.
         11    1    4    4    0    0 -0.51143065124E+02 -0.73980621535E+02  0.92654741333E+02  0.12912647507E+03  0.00000000000E+00 0. -1.
        -12    1    4    4    0    0 -0.51678302659E+01 -0.43989698623E+02 -0.92994521190E+01  0.45257925983E+02  0.00000000000E+00 0.  1.
        -13    1    3    3    0    0  0.26115982404E+02  0.44063112072E+02 -0.27264771488E+02  0.58025599064E+02  0.00000000000E+00 0.  1.
         13    1    3    3    0    0  0.50527388373E+02 -0.45575925739E+02 -0.51872505884E+02  0.85562485059E+02  0.00000000000E+00 0. -1.
          2    1    1    2  501    0 -0.20332475387E+02  0.11948313383E+03  0.29078071595E+03  0.31502865519E+03  0.00000000000E+00 0. -1.
<scales pt_clust_5="13000.00000" pt_clust_6="13000.00000" pt_clust_7="13000.00000" pt_clust_8="13000.00000" pt_clust_9="119.23930"></scales>
<clustering>
<clus scale="   79.837">  5  6 -1 -1</clus>
<clus scale="   92.078">  7  8 -1 -1</clus>
<clus scale="  119.812">  2  7  1 -1</clus>
<clus scale="  119.239">  1  9  2 -1</clus>
<clus scale="  119.239">  1  5  2 -1</clus>
</clustering>
</event>
<event>
 9    1  0.4731329E-005  0.1564386E+03  0.7546771E-02  0.1194632E+00
          1   -1    0    0  502    0 -0.00000000000E+00  0.00000000000E+00  0.63464197796E+03  0.63464197796E+03  0.00000000000E+00 0. -1.
         21   -1    0    0  501  502  0.00000000000E+00 -0.00000000000E+00 -0.63438253144E+02  0.63438253144E+02  0.00000000000E+00 0. -1.
         23    2    1    2    0    0 -0.60888018373E+02  0.12208159052E+03  0.47904411837E+03  0.50645983231E+03  0.91689851498E+02 0.  0.
        -24    2    1    2    0    0  0.43270721019E+02 -0.87448746154E+02  0.55413018406E+02  0.13814035759E+03  0.80576158292E+02 0.  0.
         11    1    4    4    0    0  0.66673732885E+02 -0.73080376427E+02  0.40537515973E+02  0.10690845746E+03  0.00000000000E+00 0. -1.
        -12    1    4    4    0    0 -0.23403011867E+02 -0.14368369727E+02  0.14875502433E+02  0.31231900129E+02  0.00000000000E+00 0.  1.
        -11    1    3    3    0    0 -0.41480983628E+02  0.49185884649E+01  0.81870537077E+02  0.91911094850E+02  0.00000000000E+00 0. -1.
         11    1    3    3    0    0 -0.19407034745E+02  0.11716300206E+03  0.39717358129E+03  0.41454873746E+03  0.00000000000E+00 0.  1.
          2    1    1    2  501    0  0.17617297354E+02 -0.34632844367E+02  0.36746588035E+02  0.53480041205E+02  0.00000000000E+00 0. -1.
<scales pt_clust_5="13000.00000" pt_clust_6="13000.00000" pt_clust_7="13000.00000" pt_clust_8="13000.00000" pt_clust_9="38.85618"></scales>
<clustering>
<clus scale="   38.856">  2  9  1 -1</clus>
<clus scale="   80.576">  5  6 -1 -1</clus>
<clus scale="   91.690">  7  8 -1 -1</clus>
<clus scale="  150.195">  2  5  1 -1</clus>
<clus scale="   38.856">  2  5  1 -1</clus>
</clustering>
</event>
<event>
 9    1  0.4731329E-005  0.1116691E+03  0.7546771E-02  0.1261701E+00
         21   -1    0    0  501  502  0.00000000000E+00  0.00000000000E+00  0.83466418961E+02  0.83466418961E+02  0.00000000000E+00 0.  1.
         -2   -1    0    0    0  501 -0.00000000000E+00 -0.00000000000E+00 -0.50738943154E+03  0.50738943154E+03  0.00000000000E+00 0.  1.
        -24    2    1    2    0    0 -0.18099267757E+02  0.61866550236E+02 -0.30977324904E+03  0.32658248145E+03  0.80880144880E+02 0.  0.
         23    2    1    2    0    0 -0.31213549911E+02 -0.67039381460E+02 -0.15863275732E+03  0.19766069079E+03  0.91852232536E+02 0.  0.
         11    1    3    3    0    0 -0.30236126795E+01  0.68735136102E+02 -0.13989422419E+03  0.15589757898E+03  0.00000000000E+00 0. -1.
        -12    1    3    3    0    0 -0.15075655077E+02 -0.68685858665E+01 -0.16987902485E+03  0.17068490247E+03  0.00000000000E+00 0.  1.
        -13    1    4    4    0    0  0.29796773627E+02 -0.16866196030E+02 -0.75945610691E+02  0.83306974920E+02  0.00000000000E+00 0. -1.
         13    1    4    4    0    0 -0.61010323538E+02 -0.50173185430E+02 -0.82687146632E+02  0.11435371587E+03  0.00000000000E+00 0.  1.
         -1    1    1    2    0  502  0.49312817668E+02  0.51728312242E+01  0.44482993787E+02  0.66612678264E+02  0.00000000000E+00 0.  1.
<scales pt_clust_5="13000.00000" pt_clust_6="13000.00000" pt_clust_7="13000.00000" pt_clust_8="13000.00000" pt_clust_9="49.58339"></scales>
<clustering>
<clus scale="   49.583">  1  9  2 -1</clus>
<clus scale="   80.880">  5  6 -1 -1</clus>
<clus scale="   91.852">  7  8 -1 -1</clus>
<clus scale="  102.834">  2  5  1 -1</clus>
<clus scale="   49.583">  1  5  2 -1</clus>
</clustering>
</event>
<event>
 9    1  0.4731329E-005  0.1154666E+03  0.7546771E-02  0.1254778E+00
         21   -1    0    0  501  502  0.00000000000E+00  0.00000000000E+00  0.29932938027E+03  0.29932938027E+03  0.00000000000E+00 0. -1.
          3   -1    0    0  502    0 -0.00000000000E+00 -0.00000000000E+00 -0.14659524473E+03  0.14659524473E+03  0.00000000000E+00 0. -1.
         23    2    1    2    0    0  0.51569247144E+01  0.65955403884E+02 -0.96348155835E+02  0.14896690629E+03  0.92365918295E+02 0.  0.
        -24    2    1    2    0    0  0.42721636256E+01 -0.88861852621E+02  0.13777773358E+03  0.18293001293E+03  0.81030892425E+02 0.  0.
         11    1    4    4    0    0 -0.14462983839E+02 -0.19815684953E+02 -0.32955127203E+01  0.24752771073E+02  0.00000000000E+00 0. -1.
        -12    1    4    4    0    0  0.18735147464E+02 -0.69046167668E+02  0.14107324630E+03  0.15817724186E+03  0.00000000000E+00 0.  1.
        -11    1    3    3    0    0 -0.13232384916E+01  0.88017778009E+02 -0.62148668129E+02  0.10775591471E+03  0.00000000000E+00 0. -1.
         11    1    3    3    0    0  0.64801632061E+01 -0.22062374125E+02 -0.34199487707E+02  0.41210991575E+02  0.00000000000E+00 0.  1.
          4    1    1    2  501    0 -0.94290883401E+01  0.22906448737E+02  0.11130455779E+03  0.11402770578E+03  0.00000000000E+00 0. -1.
<scales pt_clust_5="13000.00000" pt_clust_6="13000.00000" pt_clust_7="13000.00000" pt_clust_8="13000.00000" pt_clust_9="24.77122"></scales>
<clustering>
<clus scale="   24.771">  1  9  2 -1</clus>
<clus scale="   81.031">  5  6 -1 -1</clus>
<clus scale="   92.366">  7  8 -1 -1</clus>
<clus scale="  106.617">  1  5  2 -1</clus>
<clus scale="   24.771">  1  5  2 -1</clus>
</clustering>
</event>
<event>
 9    1  0.4731329E-005  0.3059869E+03  0.7546771E-02  0.1128034E+00
         21   -1    0    0  501  502  0.00000000000E+00  0.00000000000E+00  0.40959982667E+03  0.40959982667E+03  0.00000000000E+00 0.  1.
          1   -1    0    0  502    0 -0.00000000000E+00 -0.00000000000E+00 -0.55497411386E+03  0.55497411386E+03  0.00000000000E+00 0. -1.
        -24    2    1    2    0    0  0.99717048176E+01  0.47817854706E+02  0.13503729390E+03  0.16474844518E+03  0.80752692336E+02 0.  0.
         23    2    1    2    0    0  0.27677750628E+03  0.76959715233E+02  0.90468564352E+02  0.31470011537E+03  0.91230563545E+02 0.  0.
         13    1    3    3    0    0 -0.14963838207E+02 -0.14890567025E+02  0.11648393482E+02  0.24110796563E+02  0.00000000000E+00 0. -1.
        -14    1    3    3    0    0  0.24935543024E+02  0.62708421731E+02  0.12338890041E+03  0.14063764861E+03  0.00000000000E+00 0.  1.
        -11    1    4    4    0    0  0.96007903142E+02 -0.10321547120E+02  0.54928727097E+01  0.96717234510E+02  0.00000000000E+00 0.  1.
         11    1    4    4    0    0  0.18076960314E+03  0.87281262353E+02  0.84975691642E+02  0.21798288086E+03  0.00000000000E+00 0. -1.
          2    1    1    2  501    0 -0.28674921110E+03 -0.12477756994E+03 -0.37088014544E+03  0.48512537998E+03  0.00000000000E+00 0. -1.
<scales pt_clust_5="13000.00000" pt_clust_6="13000.00000" pt_clust_7="13000.00000" pt_clust_8="13000.00000" pt_clust_9="292.07029"></scales>
<clustering>
<clus scale="   80.753">  5  6 -1 -1</clus>
<clus scale="   91.231">  7  8 -1 -1</clus>
<clus scale="   94.377">  2  5  1 -1</clus>
<clus scale="  292.070">  1  9  2 -1</clus>
<clus scale="  292.070">  1  5  2 -1</clus>
</clustering>
</event>
<event>
 9    1  0.4731329E-005  0.1809385E+03  0.7546771E-02  0.1168696E+00
          1   -1    0    0  502    0 -0.00000000000E+00  0.00000000000E+00  0.50265399795E+03  0.50265399795E+03  0.00000000000E+00 0. -1.
         21   -1    0    0  501  502  0.00000000000E+00 -0.00000000000E+00 -0.12086262243E+03  0.12086262243E+03  0.00000000000E+00 0. -1.
        -24    2    1    2    0    0  0.10567008906E+03  0.15004163994E+03  0.19899517773E+03  0.28129659377E+03  0.76485498435E+02 0.  0.
         23    2    1    2    0    0 -0.94041495220E+02 -0.64805416323E+02  0.72975320483E+01  0.14677126174E+03  0.91896705553E+02 0.  0.
         11    1    3    3    0    0  0.74917491990E+02  0.11098091307E+03  0.89538805264E+02  0.16107945654E+03  0.00000000000E+00 0. -1.
        -12    1    3    3    0    0  0.30752597069E+02  0.39060726865E+02  0.10945637247E+03  0.12021713723E+03  0.00000000000E+00 0.  1.
        -11    1    4    4    0    0  0.18306828668E+02 -0.94229561821E+01  0.62229448145E+01  0.21509465853E+02  0.00000000000E+00 0.  1.
         11    1    4    4    0    0 -0.11234832389E+03 -0.55382460141E+02  0.10745872338E+01  0.12526179589E+03  0.00000000000E+00 0. -1.
          2    1    1    2  501    0 -0.11628593839E+02 -0.85236223612E+02  0.17549866573E+03  0.19544876486E+03  0.00000000000E+00 0. -1.
<scales pt_clust_5="13000.00000" pt_clust_6="13000.00000" pt_clust_7="13000.00000" pt_clust_8="13000.00000" pt_clust_9="86.02584"></scales>
<clustering>
<clus scale="   76.485">  5  6 -1 -1</clus>
<clus scale="   86.026">  2  9  1 -1</clus>
<clus scale="   91.897">  7  8 -1 -1</clus>
<clus scale="  173.620">  1  5  2 -1</clus>
<clus scale="   86.026">  2  5  1 -1</clus>
</clustering>
</event>
<event>
 9    1  0.4731329E-005  0.1086330E+03  0.7546771E-02  0.1266231E+00
         -4   -1    0    0    0  501 -0.00000000000E+00  0.00000000000E+00  0.13156989468E+03  0.13156989468E+03  0.00000000000E+00 0.  1.
         21   -1    0    0  501  502  0.00000000000E+00 -0.00000000000E+00 -0.16592348699E+03  0.16592348699E+03  0.00000000000E+00 0.  1.
        -24    2    1    2    0    0 -0.68536081244E+02 -0.19822573994E+02  0.70109461447E+02  0.12860981186E+03  0.80839459738E+02 0.  0.
         23    2    1    2    0    0  0.32735629891E+02  0.12852362252E+02 -0.67410086665E+02  0.11689146907E+03  0.88784520478E+02 0.  0.
         11    1    3    3    0    0  0.10277292873E+02 -0.26257646756E+02  0.24300832665E+02  0.37223879838E+02  0.00000000000E+00 0. -1.
        -12    1    3    3    0    0 -0.78813374117E+02  0.64350727612E+01  0.45808628782E+02  0.91385932025E+02  0.00000000000E+00 0.  1.
        -11    1    4    4    0    0  0.23408103739E+02  0.50780905306E+02 -0.45623793135E+02  0.72167653173E+02  0.00000000000E+00 0. -1.
         11    1    4    4    0    0  0.93275261520E+01 -0.37928543054E+02 -0.21786293530E+02  0.44723815894E+02  0.00000000000E+00 0.  1.
         -3    1    1    2    0  502  0.35800451353E+02  0.69702117421E+01 -0.37052967090E+02  0.51992100736E+02  0.00000000000E+00 0.  1.
<scales pt_clust_5="13000.00000" pt_clust_6="13000.00000" pt_clust_7="13000.00000" pt_clust_8="13000.00000" pt_clust_9="36.47268"></scales>
<clustering>
<clus scale="   36.473">  2  9  1 -1</clus>
<clus scale="   80.839">  5  6 -1 -1</clus>
<clus scale="   88.785">  7  8 -1 -1</clus>
<clus scale="  102.242">  1  5  2 -1</clus>
<clus scale="   36.473">  2  5  1 -1</clus>
</clustering>
</event>
<event>
 9    1  0.4731329E-005  0.1431082E+03  0.7546771E-02  0.1211596E+00
         21   -1    0    0  501  502  0.00000000000E+00  0.00000000000E+00  0.41098533322E+03  0.41098533322E+03  0.00000000000E+00 0.  1.
          3   -1    0    0  502    0 -0.00000000000E+00 -0.00000000000E+00 -0.21026323700E+03  0.21026323700E+03  0.00000000000E+00 0. -1.
         23    2    1    2    0    0  0.38623976633E+02  0.10432303865E+03 -0.16320592440E+03  0.21772055565E+03  0.91602175904E+02 0.  0.
        -24    2    1    2    0    0 -0.60005649952E+02 -0.77120435269E+02  0.33634329822E+03  0.35927787905E+03  0.80034620937E+02 0.  0.
         11    1    4    4    0    0 -0.67905774386E+02 -0.30391103828E+02  0.15631632999E+03  0.17311732556E+03  0.00000000000E+00 0. -1.
        -12    1    4    4    0    0  0.79001244345E+01 -0.46729331441E+02  0.18002696823E+03  0.18616055348E+03  0.00000000000E+00 0.  1.
        -11    1    3    3    0    0  0.34144171672E+02  0.11801952028E+01 -0.15513349866E+02  0.37521744948E+02  0.00000000000E+00 0.  1.
         11    1    3    3    0    0  0.44798049615E+01  0.10314284345E+03 -0.14769257454E+03  0.18019881071E+03  0.00000000000E+00 0. -1.
          4    1    1    2  501    0  0.21381673318E+02 -0.27202603381E+02  0.27584722396E+02  0.44250135528E+02  0.00000000000E+00 0. -1.
<scales pt_clust_5="13000.00000" pt_clust_6="13000.00000" pt_clust_7="13000.00000" pt_clust_8="13000.00000" pt_clust_9="34.59997"></scales>
<clustering>
<clus scale="   34.600">  1  9  2 -1</clus>
<clus scale="   80.035">  5  6 -1 -1</clus>
<clus scale="   91.602">  7  8 -1 -1</clus>
<clus scale="  135.995">  1  5  2 -1</clus>
<clus scale="   34.600">  1  5  2 -1</clus>
</clustering>
</event>
<event>
 9    1  0.4731329E-005  0.1967510E+03  0.7546771E-02  0.1175961E+00
         -4   -1    0    0    0  501 -0.00000000000E+00  0.00000000000E+00  0.11907878185E+03  0.11907878185E+03  0.00000000000E+00 0.  1.
         21   -1    0    0  501  502  0.00000000000E+00 -0.00000000000E+00 -0.88336634931E+03  0.88336634931E+03  0.00000000000E+00 0.  1.
        -24    2    1    2    0    0  0.66606509549E+02  0.49670867931E+02  0.32613209805E+02  0.11899174907E+03  0.78687944805E+02 0.  0.
         23    2    1    2    0    0  0.22581442666E+02  0.13379058725E+03 -0.24369237572E+03  0.29383305349E+03  0.92423192690E+02 0.  0.
         11    1    3    3    0    0 -0.12330158448E+02  0.28163900270E+02  0.18750841961E+02  0.36011555923E+02  0.00000000000E+00 0. -1.
        -12    1    3    3    0    0  0.78936667997E+02  0.21506967661E+02  0.13862367844E+02  0.82980193147E+02  0.00000000000E+00 0.  1.
        -13    1    4    4    0    0 -0.65753957883E+01  0.99805840766E+02 -0.22320360019E+03  0.24459004236E+03  0.00000000000E+00 0.  1.
         13    1    4    4    0    0  0.29156838454E+02  0.33984746489E+02 -0.20488775524E+02  0.49243011129E+02  0.00000000000E+00 0. -1.
         -3    1    1    2    0  502 -0.89187952215E+02 -0.18346145519E+03 -0.55320840155E+03  0.58962032861E+03  0.00000000000E+00 0.  1.
<scales pt_clust_5="13000.00000" pt_clust_6="13000.00000" pt_clust_7="13000.00000" pt_clust_8="13000.00000" pt_clust_9="173.69202"></scales>
<clustering>
<clus scale="   78.688">  5  6 -1 -1</clus>
<clus scale="   92.423">  7  8 -1 -1</clus>
<clus scale="  114.435">  1  5  2 -1</clus>
<clus scale="  173.692">  2  9  1 -1</clus>
<clus scale="  173.692">  2  5  1 -1</clus>
</clustering>
</event>
<event>
 9    1  0.4731329E-005  0.1002054E+03  0.7546771E-02  0.1285534E+00
          1   -1    0    0  502    0 -0.00000000000E+00  0.00000000000E+00  0.44649533804E+03  0.44649533804E+03  0.00000000000E+00 0. -1.
         21   -1    0    0  501  502  0.00000000000E+00 -0.00000000000E+00 -0.31366118288E+02  0.31366118288E+02  0.00000000000E+00 0. -1.
        -24    2    1    2    0    0 -0.36786243005E+02 -0.32167174778E+02  0.20214435302E+03  0.22294588039E+03  0.80340346765E+02 0.  0.
         23    2    1    2    0    0  0.30995890653E+02  0.93557751958E+00  0.10686873190E+03  0.14414746266E+03  0.91629387151E+02 0.  0.
         11    1    3    3    0    0 -0.58739519833E+02 -0.30456123230E+02  0.11139919338E+03  0.12956730652E+03  0.00000000000E+00 0. -1.
        -12    1    3    3    0    0  0.21953276828E+02 -0.17110515488E+01  0.90745159638E+02  0.93378573874E+02  0.00000000000E+00 0.  1.
        -13    1    4    4    0    0  0.50880829491E+02 -0.23016225630E+01  0.19584651384E+02  0.54568441850E+02  0.00000000000E+00 0. -1.
         13    1    4    4    0    0 -0.19884938839E+02  0.32372000826E+01  0.87284080517E+02  0.89579020806E+02  0.00000000000E+00 0.  1.
          2    1    1    2  501    0  0.57903523521E+01  0.31231597259E+02  0.10611613482E+03  0.11076811327E+03  0.00000000000E+00 0. -1.
<scales pt_clust_5="13000.00000" pt_clust_6="13000.00000" pt_clust_7="13000.00000" pt_clust_8="13000.00000" pt_clust_9="31.76385"></scales>
<clustering>
<clus scale="   31.764">  2  9  1 -1</clus>
<clus scale="   80.340">  5  6 -1 -1</clus>
<clus scale="   89.999">  1  5  2 -1</clus>
<clus scale="   91.629">  7  8 -1 -1</clus>
<clus scale="   31.764">  2  5  1 -1</clus>
</clustering>
</event>
<event>
 9    1  0.4731329E-005  0.2336139E+03  0.7546771E-02  0.1155425E+00
         21   -1    0    0  501  502  0.00000000000E+00  0.00000000000E+00  0.13939884114E+03  0.13939884114E+03  0.00000000000E+00 0. -1.
          1   -1    0    0  502    0 -0.00000000000E+00 -0.00000000000E+00 -0.60938590446E+03  0.60938590446E+03  0.00000000000E+00 0. -1.
         23    2    1    2    0    0  0.26587475474E+02 -0.55840789914E+02 -0.47340983557E+02  0.11952063439E+03  0.90658290574E+02 0.  0.
        -24    2    1    2    0    0  0.73780824570E+02  0.23374119620E+03 -0.27362579615E+03  0.37642148202E+03  0.82118809817E+02 0.  0.
         11    1    4    4    0    0  0.91244089285E+02  0.18509240695E+03 -0.20962897981E+03  0.29415810734E+03  0.00000000000E+00 0. -1.
        -12    1    4    4    0    0 -0.17463264715E+02  0.48648789256E+02 -0.63996816347E+02  0.82263374676E+02  0.00000000000E+00 0.  1.
        -13    1    3    3    0    0  0.53637209326E+02 -0.95489918939E+01 -0.13533400518E+02  0.56136319794E+02  0.00000000000E+00 0. -1.
         13    1    3    3    0    0 -0.27049733852E+02 -0.46291798020E+02 -0.33807583039E+02  0.63384314592E+02  0.00000000000E+00 0.  1.
          2    1    1    2  501    0 -0.10036830004E+03 -0.17790040629E+03 -0.14902028361E+03  0.25284262920E+03  0.00000000000E+00 0. -1.
<scales pt_clust_5="13000.00000" pt_clust_6="13000.00000" pt_clust_7="13000.00000" pt_clust_8="13000.00000" pt_clust_9="218.70519"></scales>
<clustering>
<clus scale="   82.119">  5  6 -1 -1</clus>
<clus scale="   90.658">  7  8 -1 -1</clus>
<clus scale="  109.745">  2  7  1 -1</clus>
<clus scale="  218.705">  1  9  2 -1</clus>
<clus scale="  218.705">  1  5  2 -1</clus>
</clustering>
</event>
<event>
 9    1  0.4731329E-005  0.1265745E+03  0.7546771E-02  0.1248782E+00
          1   -1    0    0  502    0 -0.00000000000E+00  0.00000000000E+00  0.43848486815E+03  0.43848486815E+03  0.00000000000E+00 0. -1.
         21   -1    0    0  501  502  0.00000000000E+00 -0.00000000000E+00 -0.52022102565E+02  0.52022102565E+02  0.00000000000E+00 0. -1.
         23    2    1    2    0    0 -0.36517377358E+01  0.33456988762E+02  0.26265752274E+03  0.29013437286E+03  0.11855916149E+03 0.  0.
        -24    2    1    2    0    0 -0.55563658124E+01 -0.70782397544E+02  0.51588602693E+02  0.11856050568E+03  0.79713164388E+02 0.  0.
         13    1    4    4    0    0  0.79273075727E+01 -0.34455268064E+02  0.67872635418E+02  0.76529094737E+02  0.00000000000E+00 0. -1.
        -14    1    4    4    0    0 -0.13483673385E+02 -0.36327129480E+02 -0.16284032725E+02  0.42031410945E+02  0.00000000000E+00 0.  1.
        -13    1    3    3    0    0  0.44849035637E+02  0.15488639357E+02  0.41586206312E+02  0.63093157332E+02  0.00000000000E+00 0.  1.
         13    1    3    3    0    0 -0.48500773373E+02  0.17968349406E+02  0.22107131643E+03  0.22704121552E+03  0.00000000000E+00 0. -1.
          2    1    1    2  501    0  0.92081035482E+01  0.37325408782E+02  0.72216640150E+02  0.81812092176E+02  0.00000000000E+00 0. -1.
<scales pt_clust_5="13000.00000" pt_clust_6="13000.00000" pt_clust_7="13000.00000" pt_clust_8="13000.00000" pt_clust_9="38.44446"></scales>
<clustering>
<clus scale="   38.444">  2  9  1 -1</clus>
<clus scale="   79.713">  5  6 -1 -1</clus>
<clus scale="   91.209">  2  5  1 -1</clus>
<clus scale="  118.559">  7  8 -1 -1</clus>
<clus scale="   38.444">  2  5  1 -1</clus>
</clustering>
</event>
<event>
 9    1  0.7749394E-005  0.9677200E+02  0.7546771E-02  0.1289248E+00
         21   -1    0    0  501  502  0.00000000000E+00  0.00000000000E+00  0.13254939080E+03  0.13254939080E+03  0.00000000000E+00 0.  1.
         -2   -1    0    0    0  501 -0.00000000000E+00 -0.00000000000E+00 -0.39896032589E+03  0.39896032589E+03  0.00000000000E+00 0.  1.
        -24    2    1    2    0    0  0.40071324375E+02  0.32856830662E+01 -0.33464849725E+03  0.34727864794E+03  0.83644102332E+02 0.  0.
         23    2    1    2    0    0 -0.48284749524E+02  0.19064948163E+02 -0.10104736017E+02  0.10234989415E+03  0.87627084041E+02 0.  0.
         13    1    3    3    0    0  0.84869094893E+01 -0.18809120364E+02 -0.15493015072E+02  0.25803956239E+02  0.00000000000E+00 0. -1.
        -14    1    3    3    0    0  0.31584414886E+02  0.22094803430E+02 -0.31915548218E+03  0.32147469170E+03  0.00000000000E+00 0.  1.
        -13    1    4    4    0    0  0.10224630153E+02  0.38776944125E+02 -0.33971352554E+01  0.40245931290E+02  0.00000000000E+00 0.  1.
         13    1    4    4    0    0 -0.58509379676E+02 -0.19711995962E+02 -0.67076007620E+01  0.62103962860E+02  0.00000000000E+00 0. -1.
         -1    1    1    2    0  502  0.82134251487E+01 -0.22350631229E+02  0.78342298177E+02  0.81881174592E+02  0.00000000000E+00 0.  1.
<scales pt_clust_5="13000.00000" pt_clust_6="13000.00000" pt_clust_7="13000.00000" pt_clust_8="13000.00000" pt_clust_9="23.81199"></scales>
<clustering>
<clus scale="   23.812">  1  9  2 -1</clus>
<clus scale="   83.644">  5  6 -1 -1</clus>
<clus scale="   87.627">  7  8 -1 -1</clus>
<clus scale="   93.181">  2  5  1 -1</clus>
<clus scale="   23.812">  1  5  2 -1</clus>
</clustering>
</event>
<event>
 9    1  0.4731329E-005  0.1322322E+03  0.7546771E-02  0.1243203E+00
         21   -1    0    0  501  502  0.00000000000E+00  0.00000000000E+00  0.18105379343E+03  0.18105379343E+03  0.00000000000E+00 0.  1.
         -2   -1    0    0    0  501 -0.00000000000E+00 -0.00000000000E+00 -0.23445662865E+03  0.23445662865E+03  0.00000000000E+00 0.  1.
        -24    2    1    2    0    0  0.10618599437E+02  0.39918337652E+02 -0.99474310033E+02  0.13380561780E+03  0.79388769132E+02 0.  0.
         23    2    1    2    0    0 -0.80400767373E+02  0.27689189418E+02 -0.58571465717E+02  0.13890958839E+03  0.92920840206E+02 0.  0.
         13    1    3    3    0    0 -0.30506335651E+02 -0.11096625153E+01 -0.43443636323E+02  0.53096303099E+02  0.00000000000E+00 0. -1.
        -14    1    3    3    0    0  0.41124935088E+02  0.41028000167E+02 -0.56030673709E+02  0.80709314704E+02  0.00000000000E+00 0.  1.
        -13    1    4    4    0    0  0.13644570330E+01 -0.24014174660E+02 -0.29152832325E+02  0.37794575803E+02  0.00000000000E+00 0. -1.
         13    1    4    4    0    0 -0.81765224406E+02  0.51703364077E+02 -0.29418633393E+02  0.10111501258E+03  0.00000000000E+00 0.  1.
         -1    1    1    2    0  502  0.69782167935E+02 -0.67607527070E+02  0.10464294054E+03  0.14279521589E+03  0.00000000000E+00 0.  1.
<scales pt_clust_5="13000.00000" pt_clust_6="13000.00000" pt_clust_7="13000.00000" pt_clust_8="13000.00000" pt_clust_9="94.08014"></scales>
<clustering>
<clus scale="   79.389">  5  6 -1 -1</clus>
<clus scale="   89.492">  2  5  1 -1</clus>
<clus scale="   92.921">  7  8 -1 -1</clus>
<clus scale="   94.080">  1  9  2 -1</clus>
<clus scale="   94.080">  1  5  2 -1</clus>
</clustering>
</event>
<event>
 9    1  0.4731329E-005  0.1304209E+03  0.7546771E-02  0.1229712E+00
          1   -1    0    0  502    0 -0.00000000000E+00  0.00000000000E+00  0.26106077607E+03  0.26106077607E+03  0.00000000000E+00 0. -1.
         21   -1    0    0  501  502  0.00000000000E+00 -0.00000000000E+00 -0.75513252527E+02  0.75513252527E+02  0.00000000000E+00 0. -1.
        -24    2    1    2    0    0  0.38879935822E+02 -0.84053708317E+02  0.87139219245E+02  0.15007337421E+03  0.79700055359E+02 0.  0.
         23    2    1    2    0    0 -0.19054554235E+02  0.94219511620E+02  0.67869414505E+02  0.14869836475E+03  0.90909591620E+02 0.  0.
         11    1    3    3    0    0  0.61585525895E+02 -0.72128269317E+02  0.78162492031E+02  0.12290093325E+03  0.00000000000E+00 0. -1.
        -12    1    3    3    0    0 -0.22705590073E+02 -0.11925438999E+02  0.89767272145E+01  0.27172440953E+02  0.00000000000E+00 0.  1.
        -11    1    4    4    0    0 -0.30680626590E+02  0.23896628164E+00  0.39154262110E+02  0.49743483937E+02  0.00000000000E+00 0.  1.
         11    1    4    4    0    0  0.11626072356E+02  0.93980545338E+02  0.28715152395E+02  0.98954880817E+02  0.00000000000E+00 0. -1.
          2    1    1    2  501    0 -0.19825381587E+02 -0.10165803303E+02  0.30538889796E+02  0.37802289638E+02  0.00000000000E+00 0. -1.
<scales pt_clust_5="13000.00000" pt_clust_6="13000.00000" pt_clust_7="13000.00000" pt_clust_8="13000.00000" pt_clust_9="22.27981"></scales>
<clustering>
<clus scale="   22.280">  2  9  1 -1</clus>
<clus scale="   79.700">  5  6 -1 -1</clus>
<clus scale="   90.910">  7  8 -1 -1</clus>
<clus scale="  122.870">  1  5  2 -1</clus>
<clus scale="   22.280">  2  5  1 -1</clus>
</clustering>
</event>
<event>
 9    1  0.4731329E-005  0.9475829E+02  0.7546771E-02  0.1296729E+00
         21   -1    0    0  501  502  0.00000000000E+00  0.00000000000E+00  0.39300177276E+03  0.39300177276E+03  0.00000000000E+00 0. -1.
          1   -1    0    0  502    0 -0.00000000000E+00 -0.00000000000E+00 -0.38843519765E+02  0.38843519765E+02  0.00000000000E+00 0. -1.
         23    2    1    2    0    0 -0.23041860885E+02  0.95891168380E+00  0.63368866302E+02  0.11300105196E+03  0.90674018678E+02 0.  0.
        -24    2    1    2    0    0  0.33117330085E+02  0.20728166688E+02  0.14435624839E+03  0.17047137094E+03  0.81825102589E+02 0.  0.
         13    1    4    4    0    0 -0.41706347238E+01  0.38962991808E+02  0.10939609151E+03  0.11620246883E+03  0.00000000000E+00 0. -1.
        -14    1    4    4    0    0  0.37287964809E+02 -0.18234825120E+02  0.34960156880E+02  0.54268902106E+02  0.00000000000E+00 0.  1.
        -11    1    3    3    0    0  0.23467172482E+02 -0.20998212723E+02  0.51265330429E+02  0.60164501377E+02  0.00000000000E+00 0.  1.
         11    1    3    3    0    0 -0.46509033367E+02  0.21957124407E+02  0.12103535873E+02  0.52836550584E+02  0.00000000000E+00 0. -1.
          2    1    1    2  501    0 -0.10075469200E+02 -0.21687078372E+02  0.14643313830E+03  0.14837286962E+03  0.00000000000E+00 0. -1.
<scales pt_clust_5="13000.00000" pt_clust_6="13000.00000" pt_clust_7="13000.00000" pt_clust_8="13000.00000" pt_clust_9="23.91327"></scales>
<clustering>
<clus scale="   23.913">  1  9  2 -1</clus>
<clus scale="   81.825">  5  6 -1 -1</clus>
<clus scale="   86.329">  1  5  2 -1</clus>
<clus scale="   90.674">  7  8 -1 -1</clus>
<clus scale="   23.913">  1  5  2 -1</clus>
</clustering>
</event>
<event>
 9    1  0.4731329E-005  0.1282956E+03  0.7546771E-02  0.1235500E+00
         21   -1    0    0  501  502  0.00000000000E+00  0.00000000000E+00  0.15238851800E+03  0.15238851800E+03  0.00000000000E+00 0.  1.
          1   -1    0    0  502    0 -0.00000000000E+00 -0.00000000000E+00 -0.23700612718E+03  0.23700612718E+03  0.00000000000E+00 0. -1.
        -24    2    1    2    0    0  0.65980841719E+02  0.25623053699E+02 -0.30188589376E+01  0.10667100909E+03  0.79746964307E+02 0.  0.
         23    2    1    2    0    0 -0.10698962054E+03 -0.35629439584E+01  0.41408564371E+02  0.15119733519E+03  0.98419975057E+02 0.  0.
         13    1    3    3    0    0  0.18444866496E+02  0.45209189842E+02 -0.19653434598E+02  0.52634033075E+02  0.00000000000E+00 0. -1.
        -14    1    3    3    0    0  0.47535975223E+02 -0.19586136143E+02  0.16634575660E+02  0.54036976014E+02  0.00000000000E+00 0.  1.
        -11    1    4    4    0    0 -0.70798861717E+01  0.33901189167E+02  0.26177401678E+02  0.43412806564E+02  0.00000000000E+00 0.  1.
         11    1    4    4    0    0 -0.99909734373E+02 -0.37464133125E+02  0.15231162693E+02  0.10778452862E+03  0.00000000000E+00 0. -1.
          2    1    1    2  501    0  0.41008778826E+02 -0.22060109741E+02 -0.12300731461E+03  0.13152630090E+03  0.00000000000E+00 0. -1.
<scales pt_clust_5="13000.00000" pt_clust_6="13000.00000" pt_clust_7="13000.00000" pt_clust_8="13000.00000" pt_clust_9="46.56577"></scales>
<clustering>
<clus scale="   46.566">  1  9  2 -1</clus>
<clus scale="   79.747">  5  6 -1 -1</clus>
<clus scale="   98.420">  7  8 -1 -1</clus>
<clus scale="  114.599">  2  5  1 -1</clus>
<clus scale="   46.566">  1  5  2 -1</clus>
</clustering>
</event>
<event>
 9    1  0.4731329E-005  0.1228431E+03  0.7546771E-02  0.1241104E+00
          1   -1    0    0  502    0 -0.00000000000E+00  0.00000000000E+00  0.39434309931E+03  0.39434309931E+03  0.00000000000E+00 0. -1.
         21   -1    0    0  501  502  0.00000000000E+00 -0.00000000000E+00 -0.81153641752E+02  0.81153641752E+02  0.00000000000E+00 0.  1.
        -24    2    1    2    0    0  0.52902606427E+02  0.42714808458E+02  0.92981961726E+02  0.14120379929E+03  0.81667784960E+02 0.  0.
         23    2    1    2    0    0 -0.81101917593E+02 -0.84167647155E+02  0.48777417773E+02  0.15568216200E+03  0.90531680728E+02 0.  0.
         11    1    3    3    0    0  0.53019853124E+02  0.64928237533E+02  0.69619275901E+02  0.10896616186E+03  0.00000000000E+00 0. -1.
        -12    1    3    3    0    0 -0.11724669748E+00 -0.22213429076E+02  0.23362685825E+02  0.32237637429E+02  0.00000000000E+00 0.  1.
        -11    1    4    4    0    0 -0.39064878025E+02  0.91332284550E+01 -0.43958294096E+01  0.40358442405E+02  0.00000000000E+00 0.  1.
         11    1    4    4    0    0 -0.42037039567E+02 -0.93300875610E+02  0.53173247182E+02  0.11532371959E+03  0.00000000000E+00 0. -1.
          2    1    1    2  501    0  0.28199311166E+02  0.41452838698E+02  0.17143007806E+03  0.17861077977E+03  0.00000000000E+00 0. -1.
<scales pt_clust_5="13000.00000" pt_clust_6="13000.00000" pt_clust_7="13000.00000" pt_clust_8="13000.00000" pt_clust_9="50.13523"></scales>
<clustering>
<clus scale="   50.135">  2  9  1 -1</clus>
<clus scale="   81.668">  5  6 -1 -1</clus>
<clus scale="   90.532">  7  8 -1 -1</clus>
<clus scale="  116.465">  1  5  2 -1</clus>
<clus scale="   50.135">  2  5  1 -1</clus>
</clustering>
</event>
<event>
 9    1  0.4731329E-005  0.1246927E+03  0.7546771E-02  0.1239043E+00
          1   -1    0    0  502    0 -0.00000000000E+00  0.00000000000E+00  0.25990733796E+03  0.25990733796E+03  0.00000000000E+00 0. -1.
         21   -1    0    0  501  502  0.00000000000E+00 -0.00000000000E+00 -0.13496125137E+03  0.13496125137E+03  0.00000000000E+00 0. -1.
         23    2    1    2    0    0 -0.90442585103E+02  0.14432097618E+02  0.14772918573E+03  0.19686628555E+03  0.92435249925E+02 0.  0.
        -24    2    1    2    0    0  0.64621572701E+02  0.58961797100E+02 -0.14552927491E+02  0.11976469014E+03  0.80494422976E+02 0.  0.
         13    1    4    4    0    0  0.99841637998E+01  0.27766887579E+02 -0.41830352160E+02  0.51190447687E+02  0.00000000000E+00 0. -1.
        -14    1    4    4    0    0  0.54637408902E+02  0.31194909521E+02  0.27277424669E+02  0.68574242453E+02  0.00000000000E+00 0.  1.
        -13    1    3    3    0    0 -0.59203857123E-02  0.34410729055E+02  0.22518298730E+02  0.41123862743E+02  0.00000000000E+00 0.  1.
         13    1    3    3    0    0 -0.90436664717E+02 -0.19978631437E+02  0.12521088700E+03  0.15574242281E+03  0.00000000000E+00 0. -1.
          2    1    1    2  501    0  0.25821012402E+02 -0.73393894718E+02 -0.82301716477E+01  0.78237613644E+02  0.00000000000E+00 0. -1.
<scales pt_clust_5="13000.00000" pt_clust_6="13000.00000" pt_clust_7="13000.00000" pt_clust_8="13000.00000" pt_clust_9="77.80352"></scales>
<clustering>
<clus scale="   77.804">  2  9  1 -1</clus>
<clus scale="   80.494">  5  6 -1 -1</clus>
<clus scale="   92.435">  7  8 -1 -1</clus>
<clus scale="  116.118">  2  5  1 -1</clus>
<clus scale="   77.804">  2  5  1 -1</clus>
</clustering>
</event>
<event>
 9    1  0.4731329E-005  0.9594474E+02  0.7546771E-02  0.1295603E+00
         -2   -1    0    0    0  501 -0.00000000000E+00  0.00000000000E+00  0.25772016751E+03  0.25772016751E+03  0.00000000000E+00 0.  1.
         21   -1    0    0  501  502  0.00000000000E+00 -0.00000000000E+00 -0.48537998424E+02  0.48537998424E+02  0.00000000000E+00 0.  1.
        -24    2    1    2    0    0  0.24472685778E+02  0.19388308064E+02  0.13653205016E+03  0.16069763609E+03  0.78790295613E+02 0.  0.
         23    2    1    2    0    0 -0.97140531975E+01 -0.37077410667E+02  0.41311121806E+02  0.10666510175E+03  0.90563447018E+02 0.  0.
         11    1    3    3    0    0  0.72980723215E+01  0.41314686953E+02  0.32693382693E+02  0.53188556002E+02  0.00000000000E+00 0. -1.
        -12    1    3    3    0    0  0.17174613457E+02 -0.21926378888E+02  0.10383866747E+03  0.10750908008E+03  0.00000000000E+00 0.  1.
        -11    1    4    4    0    0 -0.23799012066E+02  0.42969785574E+01  0.55641280178E+02  0.60669671664E+02  0.00000000000E+00 0. -1.
         11    1    4    4    0    0  0.14084958869E+02 -0.41374389225E+02 -0.14330158372E+02  0.45995430088E+02  0.00000000000E+00 0.  1.
         -1    1    1    2    0  502 -0.14758632581E+02  0.17689102603E+02  0.31338997121E+02  0.38895428100E+02  0.00000000000E+00 0.  1.
<scales pt_clust_5="13000.00000" pt_clust_6="13000.00000" pt_clust_7="13000.00000" pt_clust_8="13000.00000" pt_clust_9="23.03741"></scales>
<clustering>
<clus scale="   23.037">  2  9  1 -1</clus>
<clus scale="   78.790">  5  6 -1 -1</clus>
<clus scale="   84.921">  1  5  2 -1</clus>
<clus scale="   90.563">  7  8 -1 -1</clus>
<clus scale="   23.037">  2  5  1 -1</clus>
</clustering>
</event>
<event>
 9    1  0.4731329E-005  0.1125764E+03  0.7546771E-02  0.1258956E+00
         21   -1    0    0  501  502  0.00000000000E+00  0.00000000000E+00  0.13336851007E+03  0.13336851007E+03  0.00000000000E+00 0. -1.
         -4   -1    0    0    0  501 -0.00000000000E+00 -0.00000000000E+00 -0.21322011712E+03  0.21322011712E+03  0.00000000000E+00 0.  1.
         23    2    1    2    0    0 -0.12838838133E+01  0.51527468372E+02  0.16230388450E+02  0.10495026804E+03  0.89968910735E+02 0.  0.
        -24    2    1    2    0    0  0.39891652274E+01 -0.86272224976E+02  0.20017065815E+02  0.12042157525E+03  0.81497623403E+02 0.  0.
         11    1    4    4    0    0  0.14237468762E+02 -0.94535294696E+02  0.33763311705E+02  0.10138830641E+03  0.00000000000E+00 0. -1.
        -12    1    4    4    0    0 -0.10248303535E+02  0.82630697207E+01 -0.13746245890E+02  0.19033268837E+02  0.00000000000E+00 0.  1.
        -11    1    3    3    0    0 -0.28812906676E+02  0.32174701812E+02 -0.26414672810E+02  0.50627363821E+02  0.00000000000E+00 0. -1.
         11    1    3    3    0    0  0.27529022863E+02  0.19352766560E+02  0.42645061260E+02  0.54322904223E+02  0.00000000000E+00 0.  1.
         -3    1    1    2    0  502 -0.27052814141E+01  0.34744756604E+02 -0.11609906131E+03  0.12121678389E+03  0.00000000000E+00 0.  1.
<scales pt_clust_5="13000.00000" pt_clust_6="13000.00000" pt_clust_7="13000.00000" pt_clust_8="13000.00000" pt_clust_9="34.84993"></scales>
<clustering>
<clus scale="   34.850">  1  9  2 -1</clus>
<clus scale="   81.498">  5  6 -1 -1</clus>
<clus scale="   89.969">  7  8 -1 -1</clus>
<clus scale="  105.929">  1  5  2 -1</clus>
<clus scale="   34.850">  1  5  2 -1</clus>
</clustering>
</event>
<event>
 9    1  0.4731329E-005  0.1157109E+03  0.7546771E-02  0.1256159E+00
          1   -1    0    0  502    0 -0.00000000000E+00  0.00000000000E+00  0.42716921018E+03  0.42716921018E+03  0.00000000000E+00 0. -1.
         21   -1    0    0  501  502  0.00000000000E+00 -0.00000000000E+00 -0.54192653226E+02  0.54192653226E+02  0.00000000000E+00 0. -1.
         23    2    1    2    0    0 -0.47431643395E+02  0.27602638516E+01  0.17449802549E+03  0.20411015823E+03  0.94625662177E+02 0.  0.
        -24    2    1    2    0    0  0.86783457258E+02  0.15202287089E+02  0.20183682530E+03  0.23386395772E+03  0.78687792511E+02 0.  0.
         13    1    4    4    0    0  0.79038118066E+02  0.36546377605E+02  0.11583463638E+03  0.14491488816E+03  0.00000000000E+00 0. -1.
        -14    1    4    4    0    0  0.77453391926E+01 -0.21344090516E+02  0.86002188913E+02  0.88949069567E+02  0.00000000000E+00 0.  1.
        -13    1    3    3    0    0 -0.72219658001E+02  0.20877171791E+02  0.12306094304E+03  0.14420655673E+03  0.00000000000E+00 0. -1.
         13    1    3    3    0    0  0.24788014606E+02 -0.18116907940E+02  0.51437082456E+02  0.59903601502E+02  0.00000000000E+00 0.  1.
          2    1    1    2  501    0 -0.39351813863E+02 -0.17962550941E+02 -0.33582938380E+01  0.43387747442E+02  0.00000000000E+00 0. -1.
<scales pt_clust_5="13000.00000" pt_clust_6="13000.00000" pt_clust_7="13000.00000" pt_clust_8="13000.00000" pt_clust_9="43.25758"></scales>
<clustering>
<clus scale="   43.258">  2  9  1 -1</clus>
<clus scale="   78.688">  5  6 -1 -1</clus>
<clus scale="   94.626">  7  8 -1 -1</clus>
<clus scale="  103.086">  2  5  1 -1</clus>
<clus scale="   43.258">  2  5  1 -1</clus>
</clustering>
</event>
<event>
 9    1  0.4731329E-005  0.1299089E+03  0.7546771E-02  0.1230095E+00
         21   -1    0    0  501  502  0.00000000000E+00  0.00000000000E+00  0.80456101332E+02  0.80456101332E+02  0.00000000000E+00 0. -1.
          1   -1    0    0  502    0 -0.00000000000E+00 -0.00000000000E+00 -0.34761402887E+03  0.34761402887E+03  0.00000000000E+00 0. -1.
         23    2    1    2    0    0 -0.43805278316E+02  0.66538047652E+02 -0.15716425647E+03  0.19752429133E+03  0.89269412235E+02 0.  0.
        -24    2    1    2    0    0  0.82794609362E+02 -0.98932087665E+02 -0.75788811773E+02  0.16939427173E+03  0.79422729728E+02 0.  0.
         11    1    4    4    0    0  0.83934337665E+02 -0.69009723981E+02 -0.26700637037E+02  0.11189387410E+03  0.00000000000E+00 0. -1.
        -12    1    4    4    0    0 -0.11397283033E+01 -0.29922363684E+02 -0.49088174736E+02  0.57500397633E+02  0.00000000000E+00 0.  1.
        -13    1    3    3    0    0  0.22437069966E+02 -0.28206832467E+01 -0.41563476402E+02  0.47317025828E+02  0.00000000000E+00 0.  1.
         13    1    3    3    0    0 -0.66242348281E+02  0.69358730899E+02 -0.11560078006E+03  0.15020726550E+03  0.00000000000E+00 0. -1.
          2    1    1    2  501    0 -0.38989331046E+02  0.32394040013E+02 -0.34204859299E+02  0.61151567138E+02  0.00000000000E+00 0. -1.
<scales pt_clust_5="13000.00000" pt_clust_6="13000.00000" pt_clust_7="13000.00000" pt_clust_8="13000.00000" pt_clust_9="50.69065"></scales>
<clustering>
<clus scale="   50.691">  1  9  2 -1</clus>
<clus scale="   79.423">  5  6 -1 -1</clus>
<clus scale="   89.269">  7  8 -1 -1</clus>
<clus scale="  123.350">  1  5  2 -1</clus>
<clus scale="   50.691">  1  5  2 -1</clus>
</clustering>
</event>
<event>
 9    1  0.4731329E-005  0.9757289E+02  0.7546771E-02  0.1293168E+00
          1   -1    0    0  502    0 -0.00000000000E+00  0.00000000000E+00  0.46977333205E+02  0.46977333205E+02  0.00000000000E+00 0. -1.
         21   -1    0    0  501  502  0.00000000000E+00 -0.00000000000E+00 -0.41220737413E+03  0.41220737413E+03  0.00000000000E+00 0.  1.
         23    2    1    2    0    0  0.28224287117E+02 -0.45012476252E+02 -0.59845558637E+02  0.12158568167E+03  0.91536078665E+02 0.  0.
        -24    2    1    2    0    0  0.15897549901E+02 -0.93137156579E+00 -0.19021286309E+03  0.20598566949E+03  0.77431022242E+02 0.  0.
         11    1    4    4    0    0 -0.21327470434E+02  0.21997828565E+01 -0.13431216946E+02  0.25300150758E+02  0.00000000000E+00 0. -1.
        -12    1    4    4    0    0  0.37225020335E+02 -0.31311544223E+01 -0.17678164615E+03  0.18068551874E+03  0.00000000000E+00 0.  1.
        -13    1    3    3    0    0  0.15721763543E+02 -0.70543824278E+02 -0.24692585086E+02  0.76376231583E+02  0.00000000000E+00 0. -1.
         13    1    3    3    0    0  0.12502523575E+02  0.25531348026E+02 -0.35152973552E+02  0.45209450089E+02  0.00000000000E+00 0.  1.
          2    1    1    2  501    0 -0.44121837018E+02  0.45943847818E+02 -0.11517161920E+03  0.13161335617E+03  0.00000000000E+00 0. -1.
<scales pt_clust_5="13000.00000" pt_clust_6="13000.00000" pt_clust_7="13000.00000" pt_clust_8="13000.00000" pt_clust_9="63.69909"></scales>
<clustering>
<clus scale="   63.699">  2  9  1 -1</clus>
<clus scale="   77.431">  5  6 -1 -1</clus>
<clus scale="   84.482">  2  5  1 -1</clus>
<clus scale="   91.536">  7  8 -1 -1</clus>
<clus scale="   63.699">  2  5  1 -1</clus>
</clustering>
</event>
<event>
 9    1  0.4731329E-005  0.1378368E+03  0.7546771E-02  0.1239285E+00
          1   -1    0    0  502    0 -0.00000000000E+00  0.00000000000E+00  0.63768766365E+03  0.63768766365E+03  0.00000000000E+00 0. -1.
         21   -1    0    0  501  502  0.00000000000E+00 -0.00000000000E+00 -0.17272366800E+03  0.17272366800E+03  0.00000000000E+00 0.  1.
        -24    2    1    2    0    0 -0.29200809884E+02 -0.61822128360E+01 -0.13196941345E+03  0.15726936059E+03  0.80167441260E+02 0.  0.
         23    2    1    2    0    0  0.42364392387E+02 -0.96269985544E+02  0.46563407224E+03  0.48608135716E+03  0.91637026833E+02 0.  0.
         11    1    3    3    0    0 -0.23421557262E+02 -0.40604808914E+02 -0.97653803224E+02  0.10832167436E+03  0.00000000000E+00 0. -1.
        -12    1    3    3    0    0 -0.57792526219E+01  0.34422596078E+02 -0.34315610231E+02  0.48947686229E+02  0.00000000000E+00 0.  1.
        -13    1    4    4    0    0  0.20362665450E+02 -0.92778603553E+02  0.44717003410E+03  0.45714718288E+03  0.00000000000E+00 0. -1.
         13    1    4    4    0    0  0.22001726938E+02 -0.34913819917E+01  0.18464038137E+02  0.28934174271E+02  0.00000000000E+00 0.  1.
          2    1    1    2  501    0 -0.13163582503E+02  0.10245219838E+03  0.13129933686E+03  0.16706061391E+03  0.00000000000E+00 0. -1.
<scales pt_clust_5="13000.00000" pt_clust_6="13000.00000" pt_clust_7="13000.00000" pt_clust_8="13000.00000" pt_clust_9="102.96420"></scales>
<clustering>
<clus scale="   80.167">  5  6 -1 -1</clus>
<clus scale="   85.544">  1  5  2 -1</clus>
<clus scale="   91.637">  7  8 -1 -1</clus>
<clus scale="  102.964">  2  9  1 -1</clus>
<clus scale="  102.964">  2  5  1 -1</clus>
</clustering>
</event>
<event>
 9    1  0.4731329E-005  0.9758292E+02  0.7546771E-02  0.1292062E+00
          3   -1    0    0  502    0 -0.00000000000E+00  0.00000000000E+00  0.52502685634E+03  0.52502685634E+03  0.00000000000E+00 0. -1.
         21   -1    0    0  501  502  0.00000000000E+00 -0.00000000000E+00 -0.39452094490E+02  0.39452094490E+02  0.00000000000E+00 0. -1.
         23    2    1    2    0    0  0.15812067175E+02  0.24716179236E+02  0.38167877908E+03  0.39358217452E+03  0.91473092842E+02 0.  0.
        -24    2    1    2    0    0 -0.13537646673E+02 -0.46066098662E+02  0.11422210681E+03  0.14707198070E+03  0.79234616801E+02 0.  0.
         11    1    4    4    0    0  0.14415689373E+02 -0.17178718576E+02  0.10289242443E+03  0.10530798392E+03  0.00000000000E+00 0. -1.
        -12    1    4    4    0    0 -0.27953336046E+02 -0.28887380086E+02  0.11329682381E+02  0.41763996782E+02  0.00000000000E+00 0.  1.
        -13    1    3    3    0    0  0.42210461398E+02  0.37567778174E+02  0.32367847522E+03  0.32857391304E+03  0.00000000000E+00 0. -1.
         13    1    3    3    0    0 -0.26398394223E+02 -0.12851598938E+02  0.58000303860E+02  0.65008261480E+02  0.00000000000E+00 0.  1.
          4    1    1    2  501    0 -0.22744205018E+01  0.21349919426E+02 -0.10326124042E+02  0.23824795610E+02  0.00000000000E+00 0. -1.
<scales pt_clust_5="13000.00000" pt_clust_6="13000.00000" pt_clust_7="13000.00000" pt_clust_8="13000.00000" pt_clust_9="21.47073"></scales>
<clustering>
<clus scale="   21.471">  2  9  1 -1</clus>
<clus scale="   79.235">  5  6 -1 -1</clus>
<clus scale="   86.216">  2  5  1 -1</clus>
<clus scale="   91.473">  7  8 -1 -1</clus>
<clus scale="   21.471">  2  5  1 -1</clus>
</clustering>
</event>
<event>
 9    1  0.4731329E-005  0.1067792E+03  0.7546771E-02  0.1276441E+00
          1   -1    0    0  502    0 -0.00000000000E+00  0.00000000000E+00  0.24380516300E+02  0.24380516300E+02  0.00000000000E+00 0. -1.
         21   -1    0    0  501  502  0.00000000000E+00 -0.00000000000E+00 -0.82202767051E+03  0.82202767051E+03  0.00000000000E+00 0. -1.
        -24    2    1    2    0    0  0.18251065570E+02  0.15408892064E+02 -0.19252951023E+03  0.20985150632E+03  0.79996918987E+02 0.  0.
         23    2    1    2    0    0 -0.76496909022E+02 -0.12882794747E+02 -0.50591017985E+03  0.52148678700E+03  0.99928051390E+02 0.  0.
         13    1    3    3    0    0  0.47280478946E+02  0.79458397292E+01 -0.15240248633E+03  0.15976575946E+03  0.00000000000E+00 0. -1.
        -14    1    3    3    0    0 -0.29029413376E+02  0.74630523348E+01 -0.40127023903E+02  0.50085746859E+02  0.00000000000E+00 0.  1.
        -11    1    4    4    0    0 -0.20152069073E+01 -0.44217382313E+02 -0.14320516552E+03  0.14988981749E+03  0.00000000000E+00 0.  1.
         11    1    4    4    0    0 -0.74481702114E+02  0.31334587566E+02 -0.36270501433E+03  0.37159696951E+03  0.00000000000E+00 0. -1.
          2    1    1    2  501    0  0.58245843451E+02 -0.25260973174E+01 -0.99207464133E+02  0.11506989349E+03  0.00000000000E+00 0. -1.
<scales pt_clust_5="13000.00000" pt_clust_6="13000.00000" pt_clust_7="13000.00000" pt_clust_8="13000.00000" pt_clust_9="58.30062"></scales>
<clustering>
<clus scale="   58.301">  2  9  1 -1</clus>
<clus scale="   79.997">  5  6 -1 -1</clus>
<clus scale="   88.406">  1  5  2 -1</clus>
<clus scale="   99.928">  7  8 -1 -1</clus>
<clus scale="   58.301">  2  5  1 -1</clus>
</clustering>
</event>
<event>
 9    1  0.4731329E-005  0.9740113E+02  0.7546771E-02  0.1292186E+00
          1   -1    0    0  502    0 -0.00000000000E+00  0.00000000000E+00  0.84039125009E+02  0.84039125009E+02  0.00000000000E+00 0. -1.
         21   -1    0    0  501  502  0.00000000000E+00 -0.00000000000E+00 -0.27592779025E+03  0.27592779025E+03  0.00000000000E+00 0.  1.
        -24    2    1    2    0    0 -0.53611222860E+02 -0.25473476073E+02 -0.76585562464E+02  0.12554403323E+03  0.79830412131E+02 0.  0.
         23    2    1    2    0    0  0.63513856595E+01 -0.45460984563E+02 -0.10807765102E+03  0.14888109650E+03  0.91530109957E+02 0.  0.
         11    1    3    3    0    0 -0.33154031150E+02  0.21123154350E+02 -0.60542357778E+02  0.72185556148E+02  0.00000000000E+00 0. -1.
        -12    1    3    3    0    0 -0.20457191710E+02 -0.46596630423E+02 -0.16043204686E+02  0.53358477077E+02  0.00000000000E+00 0.  1.
        -13    1    4    4    0    0 -0.57326873770E+01  0.22118398800E+02 -0.25542971023E+01  0.22991557227E+02  0.00000000000E+00 0. -1.
         13    1    4    4    0    0  0.12084073036E+02 -0.67579383363E+02 -0.10552335392E+03  0.12588953928E+03  0.00000000000E+00 0.  1.
          2    1    1    2  501    0  0.47259837200E+02  0.70934460636E+02 -0.72254517533E+01  0.85541785526E+02  0.00000000000E+00 0. -1.
<scales pt_clust_5="13000.00000" pt_clust_6="13000.00000" pt_clust_7="13000.00000" pt_clust_8="13000.00000" pt_clust_9="85.23613"></scales>
<clustering>
<clus scale="   79.830">  5  6 -1 -1</clus>
<clus scale="   85.236">  2  9  1 -1</clus>
<clus scale="   86.499">  1  5  2 -1</clus>
<clus scale="   91.530">  7  8 -1 -1</clus>
<clus scale="   85.236">  2  5  1 -1</clus>
</clustering>
</event>
<event>
 9    1  0.4731329E-005  0.1257860E+03  0.7546771E-02  0.1235261E+00
         -4   -1    0    0    0  501 -0.00000000000E+00  0.00000000000E+00  0.51305656597E+03  0.51305656597E+03  0.00000000000E+00 0.  1.
         21   -1    0    0  501  502  0.00000000000E+00 -0.00000000000E+00 -0.48771791565E+02  0.48771791565E+02  0.00000000000E+00 0.  1.
         23    2    1    2    0    0 -0.88367687878E+02 -0.42709615192E+02  0.34782125555E+03  0.37254260735E+03  0.90417968283E+02 0.  0.
        -24    2    1    2    0    0  0.47950963792E+02  0.46961301854E+02  0.84360154900E+02  0.13749565072E+03  0.85344943798E+02 0.  0.
         11    1    4    4    0    0  0.17900470096E+02 -0.14814669448E+02  0.60440906111E+02  0.64753412204E+02  0.00000000000E+00 0. -1.
        -12    1    4    4    0    0  0.30050493696E+02  0.61775971303E+02  0.23919248789E+02  0.72742238516E+02  0.00000000000E+00 0.  1.
        -11    1    3    3    0    0 -0.77215858661E+02  0.48988648258E+01  0.26790876006E+03  0.27885729580E+03  0.00000000000E+00 0.  1.
         11    1    3    3    0    0 -0.11151829217E+02 -0.47608480018E+02  0.79912495494E+02  0.93685311552E+02  0.00000000000E+00 0. -1.
         -3    1    1    2    0  502  0.40416724085E+02 -0.42516866620E+01  0.32103363953E+02  0.51790099463E+02  0.00000000000E+00 0.  1.
<scales pt_clust_5="13000.00000" pt_clust_6="13000.00000" pt_clust_7="13000.00000" pt_clust_8="13000.00000" pt_clust_9="40.63974"></scales>
<clustering>
<clus scale="   40.640">  2  9  1 -1</clus>
<clus scale="   85.345">  5  6 -1 -1</clus>
<clus scale="   90.418">  7  8 -1 -1</clus>
<clus scale="  122.190">  2  5  1 -1</clus>
<clus scale="   40.640">  2  5  1 -1</clus>
</clustering>
</event>
<event>
 9    1  0.4731329E-005  0.2128771E+03  0.7546771E-02  0.1173471E+00
          1   -1    0    0  502    0 -0.00000000000E+00  0.00000000000E+00  0.45346039775E+03  0.45346039775E+03  0.00000000000E+00 0. -1.
         21   -1    0    0  501  502  0.00000000000E+00 -0.00000000000E+00 -0.21729607960E+03  0.21729607960E+03  0.00000000000E+00 0. -1.
         23    2    1    2    0    0 -0.47757120449E+01 -0.61539419734E+01  0.20599214749E+03  0.22709513403E+03  0.95282509666E+02 0.  0.
        -24    2    1    2    0    0 -0.66345333466E+02 -0.18869582239E+03 -0.57899211070E+02  0.21831449495E+03  0.65582645599E+02 0.  0.
         13    1    4    4    0    0 -0.30681363884E+02 -0.16463902289E+03 -0.46620818035E+02  0.17384146405E+03  0.00000000000E+00 0. -1.
        -14    1    4    4    0    0 -0.35663969581E+02 -0.24056799502E+02 -0.11278393035E+02  0.44473030907E+02  0.00000000000E+00 0.  1.
        -13    1    3    3    0    0  0.28998880456E+02 -0.38057454544E+02  0.85856548875E+02  0.98288615306E+02  0.00000000000E+00 0.  1.
         13    1    3    3    0    0 -0.33774592501E+02  0.31903512571E+02  0.12013559861E+03  0.12880651873E+03  0.00000000000E+00 0. -1.
          2    1    1    2  501    0  0.71121045511E+02  0.19484976436E+03  0.88071381736E+02  0.22534684837E+03  0.00000000000E+00 0. -1.
<scales pt_clust_5="13000.00000" pt_clust_6="13000.00000" pt_clust_7="13000.00000" pt_clust_8="13000.00000" pt_clust_9="202.52310"></scales>
<clustering>
<clus scale="   65.583">  5  6 -1 -1</clus>
<clus scale="   95.283">  7  8 -1 -1</clus>
<clus scale="   95.600">  1  7  2 -1</clus>
<clus scale="  202.523">  2  9  1 -1</clus>
<clus scale="  202.523">  2  5  1 -1</clus>
</clustering>
</event>
<event>
 9    1  0.4731329E-005  0.1077090E+03  0.7546771E-02  0.1268887E+00
         21   -1    0    0  501  502  0.00000000000E+00  0.00000000000E+00  0.21717919415E+03  0.21717919415E+03  0.00000000000E+00 0.  1.
          1   -1    0    0  502    0 -0.00000000000E+00 -0.00000000000E+00 -0.16693927180E+03  0.16693927180E+03  0.00000000000E+00 0. -1.
        -24    2    1    2    0    0  0.38319490909E+02  0.51216308465E+02 -0.12196497539E+03  0.15859921339E+03  0.78655970087E+02 0.  0.
         23    2    1    2    0    0 -0.40898872028E+02 -0.25614950262E+02  0.77195164227E+02  0.12708687876E+03  0.88674336552E+02 0.  0.
         11    1    3    3    0    0  0.36820183112E+02  0.49439854353E+02 -0.13338725307E+03  0.14694279282E+03  0.00000000000E+00 0. -1.
        -12    1    3    3    0    0  0.14993077964E+01  0.17764541120E+01  0.11422277677E+02  0.11656420566E+02  0.00000000000E+00 0.  1.
        -11    1    4    4    0    0 -0.28324637442E+01 -0.53123524298E+02  0.48884270550E+02  0.72248208226E+02  0.00000000000E+00 0.  1.
         11    1    4    4    0    0 -0.38066408284E+02  0.27508574036E+02  0.28310893677E+02  0.54838670534E+02  0.00000000000E+00 0. -1.
          2    1    1    2  501    0  0.25793811194E+01 -0.25601358203E+02  0.95009733513E+02  0.98432373796E+02  0.00000000000E+00 0. -1.
<scales pt_clust_5="13000.00000" pt_clust_6="13000.00000" pt_clust_7="13000.00000" pt_clust_8="13000.00000" pt_clust_9="25.73097"></scales>
<clustering>
<clus scale="   25.731">  1  9  2 -1</clus>
<clus scale="   78.656">  5  6 -1 -1</clus>
<clus scale="   88.674">  7  8 -1 -1</clus>
<clus scale="   99.624">  2  5  1 -1</clus>
<clus scale="   25.731">  1  5  2 -1</clus>
</clustering>
</event>
<event>
 9    1  0.4731329E-005  0.9251407E+02  0.7546771E-02  0.1302532E+00
         21   -1    0    0  501  502  0.00000000000E+00  0.00000000000E+00  0.75768705758E+02  0.75768705758E+02  0.00000000000E+00 0. -1.
          3   -1    0    0  502    0 -0.00000000000E+00 -0.00000000000E+00 -0.42981950018E+03  0.42981950018E+03  0.00000000000E+00 0. -1.
         23    2    1    2    0    0  0.10244928754E+02 -0.20707103119E+01 -0.23437903367E+03  0.25168140990E+03  0.91108475230E+02 0.  0.
        -24    2    1    2    0    0  0.42553649652E+01  0.32317886699E+02 -0.17114845074E+03  0.19246576896E+03  0.81784632429E+02 0.  0.
         11    1    4    4    0    0  0.19559530450E+02  0.30488694466E+02 -0.21702639928E+02  0.42227245962E+02  0.00000000000E+00 0. -1.
        -12    1    4    4    0    0 -0.15304165485E+02  0.18291922331E+01 -0.14944581081E+03  0.15023852300E+03  0.00000000000E+00 0.  1.
        -11    1    3    3    0    0  0.20354457048E+02 -0.39870717562E+02 -0.17450633504E+03  0.18015670681E+03  0.00000000000E+00 0.  1.
         11    1    3    3    0    0 -0.10109528293E+02  0.37800007250E+02 -0.59872698632E+02  0.71524703088E+02  0.00000000000E+00 0. -1.
          4    1    1    2  501    0 -0.14500293719E+02 -0.30247176387E+02  0.51476689980E+02  0.61441027080E+02  0.00000000000E+00 0. -1.
<scales pt_clust_5="13000.00000" pt_clust_6="13000.00000" pt_clust_7="13000.00000" pt_clust_8="13000.00000" pt_clust_9="33.54326"></scales>
<clustering>
<clus scale="   33.543">  1  9  2 -1</clus>
<clus scale="   81.785">  5  6 -1 -1</clus>
<clus scale="   83.348">  1  5  2 -1</clus>
<clus scale="   91.108">  7  8 -1 -1</clus>
<clus scale="   33.543">  1  5  2 -1</clus>
</clustering>
</event>
<event>
 9    1  0.4731329E-005  0.3762537E+03  0.7546771E-02  0.1052550E+00
         21   -1    0    0  501  502  0.00000000000E+00  0.00000000000E+00  0.86582961151E+03  0.86582961151E+03  0.00000000000E+00 0. -1.
          3   -1    0    0  502    0 -0.00000000000E+00 -0.00000000000E+00 -0.19579495642E+03  0.19579495642E+03  0.00000000000E+00 0. -1.
        -24    2    1    2    0    0  0.37467428874E+03  0.36172847726E+02  0.24540461014E+03  0.45627068600E+03  0.79184712376E+02 0.  0.
         23    2    1    2    0    0 -0.34210676570E+03 -0.93217062000E+02  0.36098763815E+03  0.51389327904E+03  0.89709350433E+02 0.  0.
         13    1    3    3    0    0  0.20045526475E+03  0.50677971177E+01  0.86337613457E+02  0.21831669481E+03  0.00000000000E+00 0. -1.
        -14    1    3    3    0    0  0.17421902399E+03  0.31105050609E+02  0.15906699669E+03  0.23795399120E+03  0.00000000000E+00 0.  1.
        -11    1    4    4    0    0 -0.19166601198E+03 -0.75217723429E+02  0.26067370032E+03  0.33218119168E+03  0.00000000000E+00 0.  1.
         11    1    4    4    0    0 -0.15044075372E+03 -0.17999338571E+02  0.10031393784E+03  0.18171208736E+03  0.00000000000E+00 0. -1.
          4    1    1    2  501    0 -0.32567523035E+02  0.57044214274E+02  0.63642406785E+02  0.91460602885E+02  0.00000000000E+00 0. -1.
<scales pt_clust_5="13000.00000" pt_clust_6="13000.00000" pt_clust_7="13000.00000" pt_clust_8="13000.00000" pt_clust_9="65.68627"></scales>
<clustering>
<clus scale="   65.686">  1  9  2 -1</clus>
<clus scale="   79.185">  5  6 -1 -1</clus>
<clus scale="   89.709">  7  8 -1 -1</clus>
<clus scale="  373.884">  2  5  1 -1</clus>
<clus scale="   65.686">  1  5  2 -1</clus>
</clustering>
</event>
<event>
 9    1  0.4731329E-005  0.8157934E+02  0.7546771E-02  0.1326623E+00
         21   -1    0    0  501  502  0.00000000000E+00  0.00000000000E+00  0.35829581078E+02  0.35829581078E+02  0.00000000000E+00 0.  1.
          3   -1    0    0  502    0 -0.00000000000E+00 -0.00000000000E+00 -0.35887731477E+03  0.35887731477E+03  0.00000000000E+00 0. -1.
         23    2    1    2    0    0  0.74454399477E+01  0.24151948955E+01 -0.19973015087E+03  0.21479247875E+03  0.78628290182E+02 0.  0.
        -24    2    1    2    0    0  0.19251792108E+02 -0.98195386045E+01 -0.42321949097E+02  0.94311501337E+02  0.81464452807E+02 0.  0.
         11    1    4    4    0    0 -0.23169276882E+02  0.14504155278E+02 -0.35703535024E+02  0.44965857322E+02  0.00000000000E+00 0. -1.
        -12    1    4    4    0    0  0.42421068990E+02 -0.24323693882E+02 -0.66184140739E+01  0.49345644014E+02  0.00000000000E+00 0.  1.
        -13    1    3    3    0    0  0.89031219040E+01 -0.37007141388E+02 -0.11900163991E+03  0.12494072353E+03  0.00000000000E+00 0.  1.
         13    1    3    3    0    0 -0.14576819563E+01  0.39422336283E+02 -0.80728510962E+02  0.89851755224E+02  0.00000000000E+00 0. -1.
          4    1    1    2  501    0 -0.26697232056E+02  0.74043437090E+01 -0.80995633719E+02  0.85602915761E+02  0.00000000000E+00 0. -1.
<scales pt_clust_5="13000.00000" pt_clust_6="13000.00000" pt_clust_7="13000.00000" pt_clust_8="13000.00000" pt_clust_9="27.70500"></scales>
<clustering>
<clus scale="   27.705">  1  9  2 -1</clus>
<clus scale="   78.628">  7  8 -1 -1</clus>
<clus scale="   78.747">  2  7  1 -1</clus>
<clus scale="   81.464">  5  6 -1 -1</clus>
<clus scale="   27.705">  1  5  2 -1</clus>
</clustering>
</event>
<event>
 9    1  0.4731329E-005  0.1374489E+03  0.7546771E-02  0.1220124E+00
         -4   -1    0    0    0  501 -0.00000000000E+00  0.00000000000E+00  0.73855632850E+02  0.73855632850E+02  0.00000000000E+00 0.  1.
         21   -1    0    0  501  502  0.00000000000E+00 -0.00000000000E+00 -0.37945274317E+03  0.37945274317E+03  0.00000000000E+00 0. -1.
         23    2    1    2    0    0  0.38524784455E+02  0.10088069084E+03 -0.57254822385E+02  0.15427813240E+03  0.94141142163E+02 0.  0.
        -24    2    1    2    0    0 -0.64491771815E+02 -0.63651922905E+02 -0.18849143556E+03  0.22391439893E+03  0.79986754197E+02 0.  0.
         11    1    4    4    0    0 -0.31794501068E+02 -0.24838412517E+00 -0.12310243042E+03  0.12714228395E+03  0.00000000000E+00 0. -1.
        -12    1    4    4    0    0 -0.32697270747E+02 -0.63403538779E+02 -0.65389005136E+02  0.96772114975E+02  0.00000000000E+00 0.  1.
        -13    1    3    3    0    0 -0.19692395507E+02  0.75213334718E+02 -0.18991759609E+02  0.80034511889E+02  0.00000000000E+00 0. -1.
         13    1    3    3    0    0  0.58217179962E+02  0.25667356120E+02 -0.38263062776E+02  0.74243620507E+02  0.00000000000E+00 0.  1.
         -3    1    1    2    0  502  0.25966987360E+02 -0.37228767933E+02 -0.59850852378E+02  0.75115844699E+02  0.00000000000E+00 0.  1.
<scales pt_clust_5="13000.00000" pt_clust_6="13000.00000" pt_clust_7="13000.00000" pt_clust_8="13000.00000" pt_clust_9="45.39015"></scales>
<clustering>
<clus scale="   45.390">  2  9  1 -1</clus>
<clus scale="   79.987">  5  6 -1 -1</clus>
<clus scale="   94.141">  7  8 -1 -1</clus>
<clus scale="  128.170">  2  5  1 -1</clus>
<clus scale="   45.390">  2  5  1 -1</clus>
</clustering>
</event>
<event>
 9    1  0.4731329E-005  0.1106510E+03  0.7546771E-02  0.1270297E+00
         21   -1    0    0  501  502  0.00000000000E+00  0.00000000000E+00  0.92440389653E+02  0.92440389653E+02  0.00000000000E+00 0.  1.
         -2   -1    0    0    0  501 -0.00000000000E+00 -0.00000000000E+00 -0.23469452732E+03  0.23469452732E+03  0.00000000000E+00 0.  1.
        -24    2    1    2    0    0  0.29419862384E+02  0.15006930665E+02 -0.11500322864E+03  0.14414510636E+03  0.80382416100E+02 0.  0.
         23    2    1    2    0    0 -0.65422350557E+02  0.16568579202E+02 -0.45614701334E+02  0.13170218203E+03  0.10348991257E+03 0.  0.
         11    1    3    3    0    0  0.48056440389E+02 -0.17373695938E+01 -0.32800571221E+02  0.58209255178E+02  0.00000000000E+00 0. -1.
        -12    1    3    3    0    0 -0.18636578005E+02  0.16744300258E+02 -0.82202657420E+02  0.85935851178E+02  0.00000000000E+00 0.  1.
        -11    1    4    4    0    0 -0.30255274504E+02 -0.38159040960E+02  0.54490029276E+01  0.49001894608E+02  0.00000000000E+00 0. -1.
         11    1    4    4    0    0 -0.35167076053E+02  0.54727620163E+02 -0.51063704261E+02  0.82700287422E+02  0.00000000000E+00 0.  1.
         -1    1    1    2    0  502  0.36002488173E+02 -0.31575509867E+02  0.18363792308E+02  0.51287628585E+02  0.00000000000E+00 0.  1.
<scales pt_clust_5="13000.00000" pt_clust_6="13000.00000" pt_clust_7="13000.00000" pt_clust_8="13000.00000" pt_clust_9="47.88728"></scales>
<clustering>
<clus scale="   47.887">  1  9  2 -1</clus>
<clus scale="   80.382">  5  6 -1 -1</clus>
<clus scale="   89.414">  2  5  1 -1</clus>
<clus scale="  103.490">  7  8 -1 -1</clus>
<clus scale="   47.887">  1  5  2 -1</clus>
</clustering>
</event>
<event>
 9    1  0.4731329E-005  0.1157657E+03  0.7546771E-02  0.1257945E+00
          1   -1    0    0  502    0 -0.00000000000E+00  0.00000000000E+00  0.76911492234E+03  0.76911492234E+03  0.00000000000E+00 0. -1.
         21   -1    0    0  501  502  0.00000000000E+00 -0.00000000000E+00 -0.13497041110E+03  0.13497041110E+03  0.00000000000E+00 0. -1.
        -24    2    1    2    0    0 -0.26748814070E+02 -0.64431978093E+02  0.44747357785E+03  0.45813305706E+03  0.69183207810E+02 0.  0.
         23    2    1    2    0    0 -0.23864379418E+02  0.84611266174E+02  0.29701253681E+03  0.32289063140E+03  0.91177507403E+02 0.  0.
         11    1    3    3    0    0 -0.19953849662E+02  0.10340011631E+02  0.12780034296E+03  0.12976131788E+03  0.00000000000E+00 0. -1.
        -12    1    3    3    0    0 -0.67949644075E+01 -0.74771989724E+02  0.31967323489E+03  0.32837173918E+03  0.00000000000E+00 0.  1.
        -13    1    4    4    0    0  0.32211653692E+02  0.13619595713E+02  0.63995940121E+02  0.72928488075E+02  0.00000000000E+00 0.  1.
         13    1    4    4    0    0 -0.56076033110E+02  0.70991670461E+02  0.23301659668E+03  0.24996214332E+03  0.00000000000E+00 0. -1.
          2    1    1    2  501    0  0.50613193488E+02 -0.20179288081E+02 -0.11034160342E+03  0.12306164499E+03  0.00000000000E+00 0. -1.
<scales pt_clust_5="13000.00000" pt_clust_6="13000.00000" pt_clust_7="13000.00000" pt_clust_8="13000.00000" pt_clust_9="54.48760"></scales>
<clustering>
<clus scale="   54.488">  2  9  1 -1</clus>
<clus scale="   69.183">  5  6 -1 -1</clus>
<clus scale="   91.178">  7  8 -1 -1</clus>
<clus scale="   99.371">  1  5  2 -1</clus>
<clus scale="   54.488">  2  5  1 -1</clus>
</clustering>
</event>
<event>
 9    1  0.4731329E-005  0.9118487E+02  0.7546771E-02  0.1306021E+00
          1   -1    0    0  502    0 -0.00000000000E+00  0.00000000000E+00  0.25323129844E+03  0.25323129844E+03  0.00000000000E+00 0. -1.
         21   -1    0    0  501  502  0.00000000000E+00 -0.00000000000E+00 -0.60320705502E+02  0.60320705502E+02  0.00000000000E+00 0. -1.
         23    2    1    2    0    0 -0.57213030634E+01 -0.26738768257E+00  0.15200565481E+03  0.17731484457E+03  0.91115477313E+02 0.  0.
        -24    2    1    2    0    0 -0.19109538968E+02 -0.66388646724E+00  0.61519300292E+02  0.10395109559E+03  0.81581803978E+02 0.  0.
         13    1    4    4    0    0 -0.51384601691E+02 -0.33956597583E+00  0.40583764811E+02  0.65479268187E+02  0.00000000000E+00 0. -1.
        -14    1    4    4    0    0  0.32275062723E+02 -0.32432049140E+00  0.20935535480E+02  0.38471827399E+02  0.00000000000E+00 0.  1.
        -11    1    3    3    0    0  0.33259042198E+02  0.13380693601E+02  0.24850617699E+02  0.43620637882E+02  0.00000000000E+00 0.  1.
         11    1    3    3    0    0 -0.38980345261E+02 -0.13648081284E+02  0.12715503711E+03  0.13369420669E+03  0.00000000000E+00 0. -1.
          2    1    1    2  501    0  0.24830842032E+02  0.93127414980E+00 -0.20614362163E+02  0.32286063788E+02  0.00000000000E+00 0. -1.
<scales pt_clust_5="13000.00000" pt_clust_6="13000.00000" pt_clust_7="13000.00000" pt_clust_8="13000.00000" pt_clust_9="24.84830"></scales>
<clustering>
<clus scale="   24.848">  2  9  1 -1</clus>
<clus scale="   81.582">  5  6 -1 -1</clus>
<clus scale="   81.659">  2  5  1 -1</clus>
<clus scale="   91.115">  7  8 -1 -1</clus>
<clus scale="   24.848">  2  5  1 -1</clus>
</clustering>
</event>
<event>
 9    1  0.4731329E-005  0.1311616E+03  0.7546771E-02  0.1240913E+00
         21   -1    0    0  501  502  0.00000000000E+00  0.00000000000E+00  0.24765607442E+02  0.24765607442E+02  0.00000000000E+00 0.  1.
          1   -1    0    0  502    0 -0.00000000000E+00 -0.00000000000E+00 -0.13400159205E+04  0.13400159205E+04  0.00000000000E+00 0. -1.
         23    2    1    2    0    0 -0.21545347253E+02  0.18755602015E+02 -0.37026268485E+03  0.38251860157E+03  0.91706325632E+02 0.  0.
        -24    2    1    2    0    0 -0.86304170349E+01  0.96759077102E+02 -0.28583386972E+03  0.31238391105E+03  0.80286385529E+02 0.  0.
         11    1    4    4    0    0  0.13566127966E+02  0.34471784972E+02 -0.20320535814E+03  0.20655449974E+03  0.00000000000E+00 0. -1.
        -12    1    4    4    0    0 -0.22196545001E+02  0.62287292130E+02 -0.82628511581E+02  0.10582941130E+03  0.00000000000E+00 0.  1.
        -13    1    3    3    0    0 -0.21267804970E+01 -0.36926196944E+02 -0.15104166355E+03  0.15550450587E+03  0.00000000000E+00 0.  1.
         13    1    3    3    0    0 -0.19418566757E+02  0.55681798959E+02 -0.21922102130E+03  0.22701409571E+03  0.00000000000E+00 0. -1.
          2    1    1    2  501    0  0.30175764288E+02 -0.11551467912E+03 -0.65915375847E+03  0.66987901530E+03  0.00000000000E+00 0. -1.
<scales pt_clust_5="13000.00000" pt_clust_6="13000.00000" pt_clust_7="13000.00000" pt_clust_8="13000.00000" pt_clust_9="103.71826"></scales>
<clustering>
<clus scale="   80.286">  5  6 -1 -1</clus>
<clus scale="   91.706">  7  8 -1 -1</clus>
<clus scale="   96.052">  2  7  1 -1</clus>
<clus scale="  103.718">  1  9  2 -1</clus>
<clus scale="  103.718">  1  5  2 -1</clus>
</clustering>
</event>
<event>
 9    1  0.4731329E-005  0.9144731E+02  0.7546771E-02  0.1303269E+00
          1   -1    0    0  502    0 -0.00000000000E+00  0.00000000000E+00  0.51352911502E+03  0.51352911502E+03  0.00000000000E+00 0. -1.
         21   -1    0    0  501  502  0.00000000000E+00 -0.00000000000E+00 -0.40189236342E+02  0.40189236342E+02  0.00000000000E+00 0. -1.
        -24    2    1    2    0    0 -0.37835186146E+02  0.26203006743E+02  0.26522316204E+03  0.28122696261E+03  0.81407493142E+02 0.  0.
         23    2    1    2    0    0 -0.35185290932E+02 -0.15508842124E+02  0.15196635287E+03  0.17975941703E+03  0.87983786715E+02 0.  0.
         11    1    3    3    0    0 -0.37388092499E+02  0.49772060681E+02  0.23379444046E+03  0.24194000883E+03  0.00000000000E+00 0. -1.
        -12    1    3    3    0    0 -0.44709364619E+00 -0.23569053938E+02  0.31428721583E+02  0.39286953771E+02  0.00000000000E+00 0.  1.
        -11    1    4    4    0    0  0.87068556084E+00 -0.24444333340E+02  0.12053998445E+01  0.24489518463E+02  0.00000000000E+00 0. -1.
         11    1    4    4    0    0 -0.36055976493E+02  0.89354912159E+01  0.15076095302E+03  0.15526989857E+03  0.00000000000E+00 0.  1.
          2    1    1    2  501    0  0.73020477078E+02 -0.10694164618E+02  0.56150363772E+02  0.92731971732E+02  0.00000000000E+00 0. -1.
<scales pt_clust_5="13000.00000" pt_clust_6="13000.00000" pt_clust_7="13000.00000" pt_clust_8="13000.00000" pt_clust_9="73.79943"></scales>
<clustering>
<clus scale="   73.799">  2  9  1 -1</clus>
<clus scale="   81.407">  5  6 -1 -1</clus>
<clus scale="   85.139">  1  5  2 -1</clus>
<clus scale="   87.984">  7  8 -1 -1</clus>
<clus scale="   73.799">  2  5  1 -1</clus>
</clustering>
</event>
<event>
 9    1  0.4731329E-005  0.2605660E+03  0.7546771E-02  0.1137643E+00
         21   -1    0    0  501  502  0.00000000000E+00  0.00000000000E+00  0.25845420491E+03  0.25845420491E+03  0.00000000000E+00 0.  1.
          1   -1    0    0  502    0 -0.00000000000E+00 -0.00000000000E+00 -0.41337979040E+03  0.41337979040E+03  0.00000000000E+00 0. -1.
         23    2    1    2    0    0 -0.68018348592E+02  0.33780067270E+02 -0.62659820210E+02  0.13612997013E+03  0.94008122041E+02 0.  0.
        -24    2    1    2    0    0  0.93449273021E+02 -0.25240480563E+03  0.32591057586E+02  0.28265712368E+03  0.79949484038E+02 0.  0.
         13    1    4    4    0    0  0.18601796800E+02 -0.73542158877E+02 -0.25862652572E+02  0.80145821940E+02  0.00000000000E+00 0. -1.
        -14    1    4    4    0    0  0.74847476220E+02 -0.17886264676E+03  0.58453710158E+02  0.20251130174E+03  0.00000000000E+00 0.  1.
        -11    1    3    3    0    0 -0.52631510854E+02  0.15927268906E+02 -0.86569151746E+02  0.10255716388E+03  0.00000000000E+00 0. -1.
         11    1    3    3    0    0 -0.15386837738E+02  0.17852798363E+02  0.23909331536E+02  0.33572806250E+02  0.00000000000E+00 0.  1.
          2    1    1    2  501    0 -0.25430924429E+02  0.21862473836E+03 -0.12485682287E+03  0.25304690150E+03  0.00000000000E+00 0. -1.
<scales pt_clust_5="13000.00000" pt_clust_6="13000.00000" pt_clust_7="13000.00000" pt_clust_8="13000.00000" pt_clust_9="247.99751"></scales>
<clustering>
<clus scale="   79.949">  5  6 -1 -1</clus>
<clus scale="   94.008">  7  8 -1 -1</clus>
<clus scale="  120.852">  2  7  1 -1</clus>
<clus scale="  247.998">  1  9  2 -1</clus>
<clus scale="  247.998">  1  5  2 -1</clus>
</clustering>
</event>
<event>
 9    1  0.4731329E-005  0.9890918E+02  0.7546771E-02  0.1290775E+00
         21   -1    0    0  501  502  0.00000000000E+00  0.00000000000E+00  0.75071844860E+02  0.75071844860E+02  0.00000000000E+00 0.  1.
         -2   -1    0    0    0  501 -0.00000000000E+00 -0.00000000000E+00 -0.21033713499E+03  0.21033713499E+03  0.00000000000E+00 0.  1.
         23    2    1    2    0    0 -0.23530323819E+02 -0.63051094156E+01 -0.10991434436E+03  0.14552730228E+03  0.92214977458E+02 0.  0.
        -24    2    1    2    0    0  0.49980799806E+02  0.29199356791E+02 -0.36843818566E+02  0.10305966828E+03  0.76896979611E+02 0.  0.
         11    1    4    4    0    0  0.47044773220E+02 -0.10732242927E+02  0.57538594311E+00  0.48256841946E+02  0.00000000000E+00 0. -1.
        -12    1    4    4    0    0  0.29360265861E+01  0.39931599718E+02 -0.37419204509E+02  0.54802826335E+02  0.00000000000E+00 0.  1.
        -11    1    3    3    0    0 -0.44203587056E+02 -0.51999257134E+01 -0.12916505721E+02  0.46344713357E+02  0.00000000000E+00 0. -1.
         11    1    3    3    0    0  0.20673263237E+02 -0.11051837022E+01 -0.96997838643E+02  0.99182588922E+02  0.00000000000E+00 0.  1.
         -1    1    1    2    0  502 -0.26450475987E+02 -0.22894247376E+02  0.11492872802E+02  0.36822009289E+02  0.00000000000E+00 0.  1.
<scales pt_clust_5="13000.00000" pt_clust_6="13000.00000" pt_clust_7="13000.00000" pt_clust_8="13000.00000" pt_clust_9="34.98248"></scales>
<clustering>
<clus scale="   34.982">  1  9  2 -1</clus>
<clus scale="   76.897">  5  6 -1 -1</clus>
<clus scale="   84.809">  1  5  2 -1</clus>
<clus scale="   92.215">  7  8 -1 -1</clus>
<clus scale="   34.982">  1  5  2 -1</clus>
</clustering>
</event>
<event>
 9    1  0.4731329E-005  0.3025855E+03  0.7546771E-02  0.1119829E+00
         21   -1    0    0  501  502  0.00000000000E+00  0.00000000000E+00  0.41852810727E+03  0.41852810727E+03  0.00000000000E+00 0.  1.
          3   -1    0    0  502    0 -0.00000000000E+00 -0.00000000000E+00 -0.46660666088E+03  0.46660666088E+03  0.00000000000E+00 0. -1.
         23    2    1    2    0    0 -0.13057059485E+02  0.76729414390E+02 -0.85009396699E+02  0.14677330871E+03  0.90873080662E+02 0.  0.
        -24    2    1    2    0    0  0.20198095424E+03  0.19652697890E+03  0.21295979797E+03  0.36239937698E+03  0.81007861176E+02 0.  0.
         11    1    4    4    0    0  0.10684122562E+03  0.63770508854E+02  0.58079763081E+02  0.13731345226E+03  0.00000000000E+00 0. -1.
        -12    1    4    4    0    0  0.95139728625E+02  0.13275647005E+03  0.15488003489E+03  0.22508592472E+03  0.00000000000E+00 0.  1.
        -11    1    3    3    0    0  0.35485796081E+02  0.41569047281E+02 -0.19623220699E+02  0.58071492197E+02  0.00000000000E+00 0. -1.
         11    1    3    3    0    0 -0.48542855566E+02  0.35160367109E+02 -0.65386175999E+02  0.88701816518E+02  0.00000000000E+00 0.  1.
          4    1    1    2  501    0 -0.18892389476E+03 -0.27325639329E+03 -0.17602895489E+03  0.37596208246E+03  0.00000000000E+00 0. -1.
<scales pt_clust_5="13000.00000" pt_clust_6="13000.00000" pt_clust_7="13000.00000" pt_clust_8="13000.00000" pt_clust_9="291.54038"></scales>
<clustering>
<clus scale="   81.008">  5  6 -1 -1</clus>
<clus scale="   90.873">  7  8 -1 -1</clus>
<clus scale="  119.649">  2  7  1 -1</clus>
<clus scale="  291.540">  1  9  2 -1</clus>
<clus scale="  291.540">  1  5  2 -1</clus>
</clustering>
</event>
<event>
 9    1  0.4731329E-005  0.2649302E+03  0.7546771E-02  0.1104218E+00
          1   -1    0    0  502    0 -0.00000000000E+00  0.00000000000E+00  0.35504593813E+03  0.35504593813E+03  0.00000000000E+00 0. -1.
         21   -1    0    0  501  502  0.00000000000E+00 -0.00000000000E+00 -0.63117224380E+03  0.63117224380E+03  0.00000000000E+00 0. -1.
        -24    2    1    2    0    0  0.24226039057E+03 -0.87053391361E+02  0.24597559702E+03  0.36754417805E+03  0.91193961994E+02 0.  0.
         23    2    1    2    0    0 -0.19569245028E+03 -0.44571400233E+01 -0.42801029494E+03  0.47940454898E+03  0.91216817613E+02 0.  0.
         13    1    3    3    0    0  0.16315073536E+03 -0.98266559924E+02  0.19603300064E+03  0.27331925763E+03  0.00000000000E+00 0. -1.
        -14    1    3    3    0    0  0.79109655211E+02  0.11213168563E+02  0.49942596378E+02  0.94224920428E+02  0.00000000000E+00 0.  1.
        -11    1    4    4    0    0 -0.11810184582E+03 -0.13516638144E+02 -0.34730355236E+03  0.36708378196E+03  0.00000000000E+00 0. -1.
         11    1    4    4    0    0 -0.77590604468E+02  0.90594981204E+01 -0.80706742577E+02  0.11232076703E+03  0.00000000000E+00 0.  1.
          2    1    1    2  501    0 -0.46567940291E+02  0.91510531384E+02 -0.94091607748E+02  0.13926945489E+03  0.00000000000E+00 0. -1.
<scales pt_clust_5="13000.00000" pt_clust_6="13000.00000" pt_clust_7="13000.00000" pt_clust_8="13000.00000" pt_clust_9="102.67790"></scales>
<clustering>
<clus scale="   91.194">  5  6 -1 -1</clus>
<clus scale="   91.217">  7  8 -1 -1</clus>
<clus scale="  102.678">  2  9  1 -1</clus>
<clus scale="  264.922">  1  5  2 -1</clus>
<clus scale="  102.678">  2  5  1 -1</clus>
</clustering>
</event>
<event>
 9    1  0.4731329E-005  0.1094366E+03  0.7546771E-02  0.1265050E+00
         -2   -1    0    0    0  501 -0.00000000000E+00  0.00000000000E+00  0.27225600777E+03  0.27225600777E+03  0.00000000000E+00 0.  1.
         21   -1    0    0  501  502  0.00000000000E+00 -0.00000000000E+00 -0.21187735401E+03  0.21187735401E+03  0.00000000000E+00 0.  1.
         23    2    1    2    0    0  0.38807204325E+02 -0.57481126678E+02  0.21298244708E+03  0.24161022734E+03  0.90575383847E+02 0.  0.
        -24    2    1    2    0    0 -0.52285589197E+02 -0.94568149983E+01 -0.29836254429E+02  0.10204458270E+03  0.81851576603E+02 0.  0.
         13    1    4    4    0    0  0.12383943281E+02  0.19338443833E+02 -0.20232593165E+02  0.30605478059E+02  0.00000000000E+00 0. -1.
        -14    1    4    4    0    0 -0.64669532478E+02 -0.28795258831E+02 -0.96036612644E+01  0.71439104640E+02  0.00000000000E+00 0.  1.
        -13    1    3    3    0    0  0.19056631226E+02  0.12264343032E+02  0.12764679606E+03  0.12964287041E+03  0.00000000000E+00 0. -1.
         13    1    3    3    0    0  0.19750573099E+02 -0.69745469711E+02  0.85335651023E+02  0.11196735693E+03  0.00000000000E+00 0.  1.
         -1    1    1    2    0  502  0.13478384872E+02  0.66937941677E+02 -0.12276753889E+03  0.14047855174E+03  0.00000000000E+00 0.  1.
<scales pt_clust_5="13000.00000" pt_clust_6="13000.00000" pt_clust_7="13000.00000" pt_clust_8="13000.00000" pt_clust_9="68.28144"></scales>
<clustering>
<clus scale="   68.281">  2  9  1 -1</clus>
<clus scale="   81.852">  5  6 -1 -1</clus>
<clus scale="   90.575">  7  8 -1 -1</clus>
<clus scale="  102.333">  2  5  1 -1</clus>
<clus scale="   68.281">  2  5  1 -1</clus>
</clustering>
</event>
<event>
 9    1  0.4731329E-005  0.9975784E+02  0.7546771E-02  0.1289555E+00
         21   -1    0    0  501  502  0.00000000000E+00  0.00000000000E+00  0.56666761962E+03  0.56666761962E+03  0.00000000000E+00 0.  1.
          1   -1    0    0  502    0 -0.00000000000E+00 -0.00000000000E+00 -0.32933714078E+02  0.32933714078E+02  0.00000000000E+00 0. -1.
        -24    2    1    2    0    0 -0.90628418245E+01  0.36099961871E+02  0.60435500480E+02  0.10658039548E+03  0.79508418631E+02 0.  0.
         23    2    1    2    0    0  0.13358278367E+01 -0.91896461036E+00  0.26629251773E+03  0.28290466873E+03  0.95502448442E+02 0.  0.
         11    1    3    3    0    0  0.19613169980E+02 -0.12309008212E+02  0.40937869698E+02  0.47032938408E+02  0.00000000000E+00 0. -1.
        -12    1    3    3    0    0 -0.28676011804E+02  0.48408970084E+02  0.19497630781E+02  0.59547457071E+02  0.00000000000E+00 0.  1.
        -11    1    4    4    0    0  0.23484898222E+02  0.39910413681E+02  0.99203447354E+02  0.10947924704E+03  0.00000000000E+00 0.  1.
         11    1    4    4    0    0 -0.22149070386E+02 -0.40829378292E+02  0.16708907038E+03  0.17342542170E+03  0.00000000000E+00 0. -1.
          2    1    1    2  501    0  0.77270139878E+01 -0.35180997261E+02  0.20700588733E+03  0.21011626949E+03  0.00000000000E+00 0. -1.
<scales pt_clust_5="13000.00000" pt_clust_6="13000.00000" pt_clust_7="13000.00000" pt_clust_8="13000.00000" pt_clust_9="36.01957"></scales>
<clustering>
<clus scale="   36.020">  1  9  2 -1</clus>
<clus scale="   79.508">  5  6 -1 -1</clus>
<clus scale="   84.572">  2  5  1 -1</clus>
<clus scale="   95.502">  7  8 -1 -1</clus>
<clus scale="   36.020">  1  5  2 -1</clus>
</clustering>
</event>
<event>
 9    1  0.4731329E-005  0.1017158E+03  0.7546771E-02  0.1283483E+00
          3   -1    0    0  502    0 -0.00000000000E+00  0.00000000000E+00  0.27380902966E+03  0.27380902966E+03  0.00000000000E+00 0. -1.
         21   -1    0    0  501  502  0.00000000000E+00 -0.00000000000E+00 -0.53099259631E+02  0.53099259631E+02  0.00000000000E+00 0.  1.
         23    2    1    2    0    0 -0.32352254331E+02 -0.10997745964E+02  0.14343723924E+03  0.17356781096E+03  0.91563773529E+02 0.  0.
        -24    2    1    2    0    0  0.55377634097E+02  0.22818707934E+02  0.80951020822E+02  0.12719789728E+03  0.77710112022E+02 0.  0.
         11    1    4    4    0    0  0.35645563360E+02 -0.13522278854E+02  0.76668558284E+02  0.85624330899E+02  0.00000000000E+00 0. -1.
        -12    1    4    4    0    0  0.19732070737E+02  0.36340986787E+02  0.42824625380E+01  0.41573566381E+02  0.00000000000E+00 0.  1.
        -13    1    3    3    0    0 -0.24493213156E+02  0.37475807634E+02  0.92773206509E+02  0.10301078339E+03  0.00000000000E+00 0.  1.
         13    1    3    3    0    0 -0.78590411750E+01 -0.48473553597E+02  0.50664032731E+02  0.70557027567E+02  0.00000000000E+00 0. -1.
          4    1    1    2  501    0 -0.23025379766E+02 -0.11820961970E+02 -0.36784900334E+01  0.26142581054E+02  0.00000000000E+00 0. -1.
<scales pt_clust_5="13000.00000" pt_clust_6="13000.00000" pt_clust_7="13000.00000" pt_clust_8="13000.00000" pt_clust_9="25.88249"></scales>
<clustering>
<clus scale="   25.882">  2  9  1 -1</clus>
<clus scale="   77.710">  5  6 -1 -1</clus>
<clus scale="   89.449">  2  5  1 -1</clus>
<clus scale="   91.564">  7  8 -1 -1</clus>
<clus scale="   25.882">  2  5  1 -1</clus>
</clustering>
</event>
<event>
 9    1  0.4731329E-005  0.9263214E+02  0.7546771E-02  0.1303218E+00
          1   -1    0    0  502    0 -0.00000000000E+00  0.00000000000E+00  0.20727106316E+03  0.20727106316E+03  0.00000000000E+00 0. -1.
         21   -1    0    0  501  502  0.00000000000E+00 -0.00000000000E+00 -0.13567717012E+03  0.13567717012E+03  0.00000000000E+00 0.  1.
         23    2    1    2    0    0  0.21327136526E+02 -0.99875015016E+00  0.16167974362E+03  0.18634479173E+03  0.90156517533E+02 0.  0.
        -24    2    1    2    0    0 -0.17378734497E+02  0.24767823254E+02 -0.26826593244E+02  0.88910810090E+02  0.79183335143E+02 0.  0.
         11    1    4    4    0    0  0.20453722721E+02 -0.20115012140E+01  0.15811823071E+02  0.25930959471E+02  0.00000000000E+00 0. -1.
        -12    1    4    4    0    0 -0.37832457218E+02  0.26779324468E+02 -0.42638416315E+02  0.62979850619E+02  0.00000000000E+00 0.  1.
        -13    1    3    3    0    0  0.11242426176E+01  0.20722196565E+02 -0.11985608881E+01  0.20787253309E+02  0.00000000000E+00 0.  1.
         13    1    3    3    0    0  0.20202893909E+02 -0.21720946715E+02  0.16287830451E+03  0.16555753842E+03  0.00000000000E+00 0. -1.
          2    1    1    2  501    0 -0.39484020294E+01 -0.23769073104E+02 -0.63259257336E+02  0.67692631456E+02  0.00000000000E+00 0. -1.
<scales pt_clust_5="13000.00000" pt_clust_6="13000.00000" pt_clust_7="13000.00000" pt_clust_8="13000.00000" pt_clust_9="24.09479"></scales>
<clustering>
<clus scale="   24.095">  2  9  1 -1</clus>
<clus scale="   79.183">  5  6 -1 -1</clus>
<clus scale="   81.991">  2  5  1 -1</clus>
<clus scale="   90.157">  7  8 -1 -1</clus>
<clus scale="   24.095">  2  5  1 -1</clus>
</clustering>
</event>
<event>
 9    1  0.4731329E-005  0.9507036E+02  0.7546771E-02  0.1297207E+00
         21   -1    0    0  501  502  0.00000000000E+00  0.00000000000E+00  0.51311177789E+02  0.51311177789E+02  0.00000000000E+00 0. -1.
          1   -1    0    0  502    0 -0.00000000000E+00 -0.00000000000E+00 -0.51471532014E+03  0.51471532014E+03  0.00000000000E+00 0. -1.
         23    2    1    2    0    0 -0.22368265988E+02 -0.21075251426E+02 -0.34282460462E+03  0.35593359484E+03  0.90639444275E+02 0.  0.
        -24    2    1    2    0    0 -0.14917350233E+02  0.38607371328E+02 -0.13856701124E+03  0.16513579455E+03  0.79724259656E+02 0.  0.
         11    1    4    4    0    0 -0.47969341571E+02  0.24414373520E+02 -0.80879121224E+02  0.97152208493E+02  0.00000000000E+00 0. -1.
        -12    1    4    4    0    0  0.33051991338E+02  0.14192997808E+02 -0.57687890017E+02  0.67983586054E+02  0.00000000000E+00 0.  1.
        -13    1    3    3    0    0  0.28380501428E+02 -0.64722087581E+01 -0.45917972829E+02  0.54367293259E+02  0.00000000000E+00 0.  1.
         13    1    3    3    0    0 -0.50748767416E+02 -0.14603042668E+02 -0.29690663179E+03  0.30156630159E+03  0.00000000000E+00 0. -1.
          2    1    1    2  501    0  0.37285616221E+02 -0.17532119902E+02  0.17987473508E+02  0.44957108542E+02  0.00000000000E+00 0. -1.
<scales pt_clust_5="13000.00000" pt_clust_6="13000.00000" pt_clust_7="13000.00000" pt_clust_8="13000.00000" pt_clust_9="41.20185"></scales>
<clustering>
<clus scale="   41.202">  1  9  2 -1</clus>
<clus scale="   79.724">  5  6 -1 -1</clus>
<clus scale="   84.728">  1  5  2 -1</clus>
<clus scale="   90.639">  7  8 -1 -1</clus>
<clus scale="   41.202">  1  5  2 -1</clus>
</clustering>
</event>
<event>
 9    1  0.4731329E-005  0.8797543E+02  0.7546771E-02  0.1310588E+00
          1   -1    0    0  502    0 -0.00000000000E+00  0.00000000000E+00  0.61786085082E+02  0.61786085082E+02  0.00000000000E+00 0. -1.
         21   -1    0    0  501  502  0.00000000000E+00 -0.00000000000E+00 -0.29662183997E+03  0.29662183997E+03  0.00000000000E+00 0.  1.
         23    2    1    2    0    0 -0.35200197729E+01 -0.24342710228E+02  0.14032405227E+01  0.89937268369E+02  0.86497312543E+02 0.  0.
        -24    2    1    2    0    0 -0.12516310202E+02 -0.15572543637E+02 -0.15843898648E+03  0.17957052868E+03  0.82118817550E+02 0.  0.
         13    1    4    4    0    0 -0.39580787863E+02  0.12734722050E+02 -0.54870335722E+02  0.68844503454E+02  0.00000000000E+00 0. -1.
        -14    1    4    4    0    0  0.27064477661E+02 -0.28307265687E+02 -0.10356865076E+03  0.11072602522E+03  0.00000000000E+00 0.  1.
        -13    1    3    3    0    0  0.36616458331E+02 -0.23115198041E+02  0.17461367276E+02  0.46690221121E+02  0.00000000000E+00 0.  1.
         13    1    3    3    0    0 -0.40136478104E+02 -0.12275121871E+01 -0.16058126753E+02  0.43247047247E+02  0.00000000000E+00 0. -1.
          2    1    1    2  501    0  0.16036329975E+02  0.39915253865E+02 -0.77800008933E+02  0.88900128009E+02  0.00000000000E+00 0. -1.
<scales pt_clust_5="13000.00000" pt_clust_6="13000.00000" pt_clust_7="13000.00000" pt_clust_8="13000.00000" pt_clust_9="43.01618"></scales>
<clustering>
<clus scale="   43.016">  2  9  1 -1</clus>
<clus scale="   82.119">  5  6 -1 -1</clus>
<clus scale="   83.674">  2  5  1 -1</clus>
<clus scale="   86.497">  7  8 -1 -1</clus>
<clus scale="   43.016">  2  5  1 -1</clus>
</clustering>
</event>
<event>
 9    1  0.4731329E-005  0.8742130E+02  0.7546771E-02  0.1311466E+00
          1   -1    0    0  502    0 -0.00000000000E+00  0.00000000000E+00  0.35801276445E+03  0.35801276445E+03  0.00000000000E+00 0. -1.
         21   -1    0    0  501  502  0.00000000000E+00 -0.00000000000E+00 -0.48221732481E+02  0.48221732481E+02  0.00000000000E+00 0.  1.
        -24    2    1    2    0    0 -0.13462833611E+02  0.18116602908E+02  0.27130685724E+03  0.28417362874E+03  0.81472580029E+02 0.  0.
         23    2    1    2    0    0  0.18231620685E+02  0.67941284865E+01  0.17175990908E+02  0.88934978519E+02  0.85063879326E+02 0.  0.
         13    1    3    3    0    0 -0.47119087574E+02  0.15144701586E+02  0.18450269149E+03  0.19102568824E+03  0.00000000000E+00 0. -1.
        -14    1    3    3    0    0  0.33656253963E+02  0.29719013224E+01  0.86804165745E+02  0.93147940497E+02  0.00000000000E+00 0.  1.
        -13    1    4    4    0    0 -0.32056193060E+01 -0.33912721651E+02  0.25019079303E+02  0.42264678091E+02  0.00000000000E+00 0.  1.
         13    1    4    4    0    0  0.21437239991E+02  0.40706850137E+02 -0.78430883957E+01  0.46670300429E+02  0.00000000000E+00 0. -1.
          2    1    1    2  501    0 -0.47687870736E+01 -0.24910731395E+02  0.21308183826E+02  0.33125889674E+02  0.00000000000E+00 0. -1.
<scales pt_clust_5="13000.00000" pt_clust_6="13000.00000" pt_clust_7="13000.00000" pt_clust_8="13000.00000" pt_clust_9="25.36308"></scales>
<clustering>
<clus scale="   25.363">  2  9  1 -1</clus>
<clus scale="   81.473">  5  6 -1 -1</clus>
<clus scale="   83.931">  1  5  2 -1</clus>
<clus scale="   85.064">  7  8 -1 -1</clus>
<clus scale="   25.363">  2  5  1 -1</clus>
</clustering>
</event>
<event>
 9    1  0.4731329E-005  0.1648997E+03  0.7546771E-02  0.1194477E+00
         21   -1    0    0  501  502  0.00000000000E+00  0.00000000000E+00  0.17432332977E+03  0.17432332977E+03  0.00000000000E+00 0. -1.
          1   -1    0    0  502    0 -0.00000000000E+00 -0.00000000000E+00 -0.16673045067E+04  0.16673045067E+04  0.00000000000E+00 0. -1.
         23    2    1    2    0    0  0.30068106952E+02  0.85276768226E+02 -0.23431901430E+03  0.26732678505E+03  0.91553215611E+02 0.  0.
        -24    2    1    2    0    0  0.14233356725E+03 -0.56737357756E+01  0.10671089719E+03  0.19578642599E+03  0.81572503794E+02 0.  0.
         13    1    4    4    0    0  0.35068190711E+02  0.34892419651E+02  0.32163340354E+02  0.59006265867E+02  0.00000000000E+00 0. -1.
        -14    1    4    4    0    0  0.10726537654E+03 -0.40566155427E+02  0.74547556840E+02  0.13678016012E+03  0.00000000000E+00 0.  1.
        -11    1    3    3    0    0  0.94523350661E+01 -0.19545006684E+02 -0.35099092648E+02  0.41271058009E+02  0.00000000000E+00 0. -1.
         11    1    3    3    0    0  0.20615771885E+02  0.10482177491E+03 -0.19921992165E+03  0.22605572704E+03  0.00000000000E+00 0.  1.
          2    1    1    2  501    0 -0.17240167421E+03 -0.79603032450E+02 -0.13653730599E+04  0.13785146255E+04  0.00000000000E+00 0. -1.
<scales pt_clust_5="13000.00000" pt_clust_6="13000.00000" pt_clust_7="13000.00000" pt_clust_8="13000.00000" pt_clust_9="143.31030"></scales>
<clustering>
<clus scale="   81.573">  5  6 -1 -1</clus>
<clus scale="   91.553">  7  8 -1 -1</clus>
<clus scale="  128.679">  2  7  1 -1</clus>
<clus scale="  143.310">  1  9  2 -1</clus>
<clus scale="  143.310">  1  5  2 -1</clus>
</clustering>
</event>
<event>
 9    1  0.4731329E-005  0.1031101E+03  0.7546771E-02  0.1285324E+00
          1   -1    0    0  502    0 -0.00000000000E+00  0.00000000000E+00  0.25990176103E+03  0.25990176103E+03  0.00000000000E+00 0. -1.
         21   -1    0    0  501  502  0.00000000000E+00 -0.00000000000E+00 -0.17887320314E+03  0.17887320314E+03  0.00000000000E+00 0. -1.
         23    2    1    2    0    0  0.11477131162E+02  0.50491147160E+01  0.16774511342E+03  0.19648763710E+03  0.10154678901E+03 0.  0.
        -24    2    1    2    0    0  0.20858836889E+02 -0.45593983413E+02  0.41563951494E+02  0.10392046076E+03  0.80981465167E+02 0.  0.
         11    1    4    4    0    0  0.51648145954E+01 -0.55447364064E+02 -0.28863808158E+01  0.55762143840E+02  0.00000000000E+00 0. -1.
        -12    1    4    4    0    0  0.15694022294E+02  0.98533806504E+01  0.44450332310E+02  0.48158316919E+02  0.00000000000E+00 0.  1.
        -13    1    3    3    0    0  0.43095002712E+02  0.35271273284E+02  0.70363336697E+02  0.89734280679E+02  0.00000000000E+00 0.  1.
         13    1    3    3    0    0 -0.31617871550E+02 -0.30222158568E+02  0.97381776723E+02  0.10675335642E+03  0.00000000000E+00 0. -1.
          2    1    1    2  501    0 -0.32335968051E+02  0.40544868697E+02 -0.12828050702E+03  0.13836686630E+03  0.00000000000E+00 0. -1.
<scales pt_clust_5="13000.00000" pt_clust_6="13000.00000" pt_clust_7="13000.00000" pt_clust_8="13000.00000" pt_clust_9="51.86040"></scales>
<clustering>
<clus scale="   51.860">  2  9  1 -1</clus>
<clus scale="   80.981">  5  6 -1 -1</clus>
<clus scale="   82.933">  2  5  1 -1</clus>
<clus scale="  101.547">  7  8 -1 -1</clus>
<clus scale="   51.860">  2  5  1 -1</clus>
</clustering>
</event>
<event>
 9    1  0.4731329E-005  0.1515025E+03  0.7546771E-02  0.1200623E+00
         -2   -1    0    0    0  501 -0.00000000000E+00  0.00000000000E+00  0.13340975408E+04  0.13340975408E+04  0.00000000000E+00 0.  1.
         21   -1    0    0  501  502  0.00000000000E+00 -0.00000000000E+00 -0.77995271749E+02  0.77995271749E+02  0.00000000000E+00 0.  1.
        -24    2    1    2    0    0 -0.94342211618E+02 -0.72674777159E+02  0.10268315032E+04  0.10367730262E+04  0.79582006301E+02 0.  0.
         23    2    1    2    0    0  0.91973912381E+02  0.94856034350E+02  0.27847082385E+03  0.32129883932E+03  0.90719769627E+02 0.  0.
         13    1    3    3    0    0 -0.74108884363E+02 -0.16124595929E+02  0.40439920404E+03  0.41144968776E+03  0.00000000000E+00 0. -1.
        -14    1    3    3    0    0 -0.20233327255E+02 -0.56550181230E+02  0.62243229918E+03  0.62532333843E+03  0.00000000000E+00 0.  1.
        -11    1    4    4    0    0  0.50649775947E+02  0.24081411487E+02  0.20043661804E+03  0.20813493708E+03  0.00000000000E+00 0.  1.
         11    1    4    4    0    0  0.41324136434E+02  0.70774622863E+02  0.78034205811E+02  0.11316390224E+03  0.00000000000E+00 0. -1.
         -1    1    1    2    0  502  0.23682992373E+01 -0.22181257191E+02 -0.49200058003E+02  0.54020947042E+02  0.00000000000E+00 0.  1.
<scales pt_clust_5="13000.00000" pt_clust_6="13000.00000" pt_clust_7="13000.00000" pt_clust_8="13000.00000" pt_clust_9="22.30733"></scales>
<clustering>
<clus scale="   22.307">  2  9  1 -1</clus>
<clus scale="   79.582">  5  6 -1 -1</clus>
<clus scale="   90.720">  7  8 -1 -1</clus>
<clus scale="  145.108">  1  5  2 -1</clus>
<clus scale="   22.307">  2  5  1 -1</clus>
</clustering>
</event>
<event>
 9    1  0.4731329E-005  0.1011838E+03  0.7546771E-02  0.1285539E+00
         21   -1    0    0  501  502  0.00000000000E+00  0.00000000000E+00  0.79911667085E+02  0.79911667085E+02  0.00000000000E+00 0. -1.
          1   -1    0    0  502    0 -0.00000000000E+00 -0.00000000000E+00 -0.34399305448E+03  0.34399305448E+03  0.00000000000E+00 0. -1.
         23    2    1    2    0    0 -0.17336030257E+01  0.20950672032E+02 -0.13965694165E+03  0.16861559639E+03  0.92115264515E+02 0.  0.
        -24    2    1    2    0    0 -0.79731070378E+02 -0.52476228531E+02 -0.11400906492E+03  0.16731848301E+03  0.76724244713E+02 0.  0.
         13    1    4    4    0    0 -0.68248254399E+02 -0.26732092955E+01 -0.46425158847E+02  0.82584899652E+02  0.00000000000E+00 0. -1.
        -14    1    4    4    0    0 -0.11482815979E+02 -0.49803019236E+02 -0.67583906078E+02  0.84733583357E+02  0.00000000000E+00 0.  1.
        -13    1    3    3    0    0 -0.79601260979E+01 -0.32478625805E+02 -0.87575927643E+02  0.93743094915E+02  0.00000000000E+00 0. -1.
         13    1    3    3    0    0  0.62265230722E+01  0.53429297838E+02 -0.52081014005E+02  0.74872501473E+02  0.00000000000E+00 0.  1.
          2    1    1    2  501    0  0.81464673404E+02  0.31525556499E+02 -0.10415380820E+02  0.87970642166E+02  0.00000000000E+00 0. -1.
<scales pt_clust_5="13000.00000" pt_clust_6="13000.00000" pt_clust_7="13000.00000" pt_clust_8="13000.00000" pt_clust_9="87.35190"></scales>
<clustering>
<clus scale="   76.724">  5  6 -1 -1</clus>
<clus scale="   87.352">  1  9  2 -1</clus>
<clus scale="   87.405">  1  5  2 -1</clus>
<clus scale="   92.115">  7  8 -1 -1</clus>
<clus scale="   87.352">  1  5  2 -1</clus>
</clustering>
</event>
<event>
 9    1  0.4731329E-005  0.1099347E+03  0.7546771E-02  0.1268672E+00
          1   -1    0    0  502    0 -0.00000000000E+00  0.00000000000E+00  0.37262060902E+03  0.37262060902E+03  0.00000000000E+00 0. -1.
         21   -1    0    0  501  502  0.00000000000E+00 -0.00000000000E+00 -0.42474457923E+02  0.42474457923E+02  0.00000000000E+00 0.  1.
        -24    2    1    2    0    0  0.73242150511E+02 -0.22462312025E+01  0.19065482575E+03  0.21636922597E+03  0.71392725125E+02 0.  0.
         23    2    1    2    0    0 -0.45428558084E+02  0.29692305916E+01  0.13699005144E+03  0.17079064770E+03  0.91272125695E+02 0.  0.
         11    1    3    3    0    0  0.27489610870E+02 -0.34203872898E+02  0.10863781450E+03  0.11716551696E+03  0.00000000000E+00 0. -1.
        -12    1    3    3    0    0  0.45752539641E+02  0.31957641695E+02  0.82017011253E+02  0.99203709009E+02  0.00000000000E+00 0.  1.
        -11    1    4    4    0    0 -0.45588703706E+02 -0.38543457730E+02  0.91013929603E+02  0.10884605377E+03  0.00000000000E+00 0. -1.
         11    1    4    4    0    0  0.16014562133E+00  0.41512688322E+02  0.45976121838E+02  0.61944593933E+02  0.00000000000E+00 0.  1.
          2    1    1    2  501    0 -0.27813592427E+02 -0.72299938907E+00  0.25012739096E+01  0.27935193269E+02  0.00000000000E+00 0. -1.
<scales pt_clust_5="13000.00000" pt_clust_6="13000.00000" pt_clust_7="13000.00000" pt_clust_8="13000.00000" pt_clust_9="27.82299"></scales>
<clustering>
<clus scale="   27.823">  2  9  1 -1</clus>
<clus scale="   71.393">  5  6 -1 -1</clus>
<clus scale="   91.272">  7  8 -1 -1</clus>
<clus scale="   94.085">  1  5  2 -1</clus>
<clus scale="   27.823">  2  5  1 -1</clus>
</clustering>
</event>
<event>
 9    1  0.4731329E-005  0.1448530E+03  0.7546771E-02  0.1208265E+00
         21   -1    0    0  501  502  0.00000000000E+00  0.00000000000E+00  0.41976981242E+02  0.41976981242E+02  0.00000000000E+00 0. -1.
          1   -1    0    0  502    0 -0.00000000000E+00 -0.00000000000E+00 -0.81125690773E+03  0.81125690773E+03  0.00000000000E+00 0. -1.
         23    2    1    2    0    0 -0.51955194785E+02 -0.95651949941E+02 -0.32223869724E+03  0.35138567826E+03  0.88235361908E+02 0.  0.
        -24    2    1    2    0    0 -0.87655281858E+01  0.13183208882E+03 -0.33762383033E+03  0.37158625989E+03  0.81424588464E+02 0.  0.
         13    1    4    4    0    0  0.11228849887E+02  0.12924938916E+03 -0.31802381728E+03  0.34346854299E+03  0.00000000000E+00 0. -1.
        -14    1    4    4    0    0 -0.19994378073E+02  0.25826996597E+01 -0.19600013049E+02  0.28117716898E+02  0.00000000000E+00 0.  1.
        -13    1    3    3    0    0 -0.77041730971E+02 -0.68839971751E+02 -0.23220792327E+03  0.25415524714E+03  0.00000000000E+00 0. -1.
         13    1    3    3    0    0  0.25086536186E+02 -0.26811978190E+02 -0.90030773971E+02  0.97230431112E+02  0.00000000000E+00 0.  1.
          2    1    1    2  501    0  0.60720722970E+02 -0.36180138877E+02 -0.10941739893E+03  0.13026195083E+03  0.00000000000E+00 0. -1.
<scales pt_clust_5="13000.00000" pt_clust_6="13000.00000" pt_clust_7="13000.00000" pt_clust_8="13000.00000" pt_clust_9="70.68245"></scales>
<clustering>
<clus scale="   70.682">  1  9  2 -1</clus>
<clus scale="   81.425">  5  6 -1 -1</clus>
<clus scale="   88.235">  7  8 -1 -1</clus>
<clus scale="  140.808">  1  5  2 -1</clus>
<clus scale="   70.682">  1  5  2 -1</clus>
</clustering>
</event>
<event>
 9    1  0.4731329E-005  0.1042146E+03  0.7546771E-02  0.1277015E+00
         21   -1    0    0  501  502  0.00000000000E+00  0.00000000000E+00  0.11467224936E+03  0.11467224936E+03  0.00000000000E+00 0.  1.
          3   -1    0    0  502    0 -0.00000000000E+00 -0.00000000000E+00 -0.12920110890E+03  0.12920110890E+03  0.00000000000E+00 0. -1.
        -24    2    1    2    0    0  0.28525926550E+02 -0.45594074715E+02 -0.41322065016E+02  0.10522574831E+03  0.80451208288E+02 0.  0.
         23    2    1    2    0    0 -0.77914734534E+01  0.42243697905E+02 -0.35928529894E+01  0.10170907832E+03  0.92122695084E+02 0.  0.
         11    1    3    3    0    0 -0.77953792706E+01 -0.57335514269E+02 -0.18484868049E+02  0.60743884311E+02  0.00000000000E+00 0. -1.
        -12    1    3    3    0    0  0.36321305820E+02  0.11741439553E+02 -0.22837196967E+02  0.44481863996E+02  0.00000000000E+00 0.  1.
        -11    1    4    4    0    0 -0.24085490270E+02  0.26271154386E+02 -0.43196985256E+02  0.56002356464E+02  0.00000000000E+00 0. -1.
         11    1    4    4    0    0  0.16294016817E+02  0.15972543520E+02  0.39604132267E+02  0.45706721859E+02  0.00000000000E+00 0.  1.
          4    1    1    2  501    0 -0.20734453096E+02  0.33503768099E+01  0.30386058469E+02  0.36938531634E+02  0.00000000000E+00 0. -1.
<scales pt_clust_5="13000.00000" pt_clust_6="13000.00000" pt_clust_7="13000.00000" pt_clust_8="13000.00000" pt_clust_9="21.00339"></scales>
<clustering>
<clus scale="   21.003">  1  9  2 -1</clus>
<clus scale="   80.451">  5  6 -1 -1</clus>
<clus scale="   92.123">  7  8 -1 -1</clus>
<clus scale="   94.056">  2  5  1 -1</clus>
<clus scale="   21.003">  1  5  2 -1</clus>
</clustering>
</event>
<event>
 9    1  0.4731329E-005  0.8991087E+02  0.7546771E-02  0.1307609E+00
         21   -1    0    0  501  502  0.00000000000E+00  0.00000000000E+00  0.50691994894E+02  0.50691994894E+02  0.00000000000E+00 0. -1.
          1   -1    0    0  502    0 -0.00000000000E+00 -0.00000000000E+00 -0.43496115340E+03  0.43496115340E+03  0.00000000000E+00 0. -1.
         23    2    1    2    0    0 -0.27200572720E+02  0.53657348804E+02 -0.28431382900E+03  0.30217967660E+03  0.82820416307E+02 0.  0.
        -24    2    1    2    0    0  0.53977189471E+01  0.64751076927E+01 -0.92049653993E+02  0.11902367369E+03  0.74982889435E+02 0.  0.
         13    1    4    4    0    0  0.67340989814E+01  0.33867841945E+02 -0.15765885363E+02  0.37959741153E+02  0.00000000000E+00 0. -1.
        -14    1    4    4    0    0 -0.13363800344E+01 -0.27392734252E+02 -0.76283768630E+02  0.81063932533E+02  0.00000000000E+00 0.  1.
        -13    1    3    3    0    0 -0.22154629552E+02 -0.84628367612E+01 -0.21282207192E+02  0.31865020941E+02  0.00000000000E+00 0.  1.
         13    1    3    3    0    0 -0.50459431676E+01  0.62120185566E+02 -0.26303162180E+03  0.27031465566E+03  0.00000000000E+00 0. -1.
          2    1    1    2  501    0  0.21802853773E+02 -0.60132456497E+02 -0.79056755144E+01  0.64449798001E+02  0.00000000000E+00 0. -1.
<scales pt_clust_5="13000.00000" pt_clust_6="13000.00000" pt_clust_7="13000.00000" pt_clust_8="13000.00000" pt_clust_9="63.96309"></scales>
<clustering>
<clus scale="   63.963">  1  9  2 -1</clus>
<clus scale="   74.983">  5  6 -1 -1</clus>
<clus scale="   82.748">  1  5  2 -1</clus>
<clus scale="   82.820">  7  8 -1 -1</clus>
<clus scale="   63.963">  1  5  2 -1</clus>
</clustering>
</event>
<event>
 9    1  0.4731329E-005  0.1263652E+03  0.7546771E-02  0.1234386E+00
         21   -1    0    0  501  502  0.00000000000E+00  0.00000000000E+00  0.37532957312E+03  0.37532957312E+03  0.00000000000E+00 0.  1.
         -4   -1    0    0    0  501 -0.00000000000E+00 -0.00000000000E+00 -0.17915114184E+03  0.17915114184E+03  0.00000000000E+00 0.  1.
         23    2    1    2    0    0 -0.40458734827E+02  0.41345815629E+02  0.95304627482E+02  0.14426282554E+03  0.91555475645E+02 0.  0.
        -24    2    1    2    0    0  0.82700909721E+02 -0.12092212195E+03  0.20900717118E+03  0.26947125531E+03  0.86424300925E+02 0.  0.
         11    1    4    4    0    0 -0.38923237881E+01 -0.22729941196E+02  0.88767000250E+02  0.91713579935E+02  0.00000000000E+00 0. -1.
        -12    1    4    4    0    0  0.86593233509E+02 -0.98192180753E+02  0.12024017093E+03  0.17775767538E+03  0.00000000000E+00 0.  1.
        -11    1    3    3    0    0  0.90428477882E+01  0.33785057955E+02  0.86653535017E+02  0.93445376387E+02  0.00000000000E+00 0. -1.
         11    1    3    3    0    0 -0.49501582615E+02  0.75607576736E+01  0.86510924650E+01  0.50817449157E+02  0.00000000000E+00 0.  1.
         -3    1    1    2    0  502 -0.42242174895E+02  0.79576306321E+02 -0.10813336738E+03  0.14074663410E+03  0.00000000000E+00 0.  1.
<scales pt_clust_5="13000.00000" pt_clust_6="13000.00000" pt_clust_7="13000.00000" pt_clust_8="13000.00000" pt_clust_9="90.09327"></scales>
<clustering>
<clus scale="   86.424">  5  6 -1 -1</clus>
<clus scale="   90.093">  1  9  2 -1</clus>
<clus scale="   91.555">  7  8 -1 -1</clus>
<clus scale="  122.698">  1  5  2 -1</clus>
<clus scale="   90.093">  1  5  2 -1</clus>
</clustering>
</event>
<event>
 9    1  0.4731329E-005  0.9321138E+02  0.7546771E-02  0.1308676E+00
          3   -1    0    0  502    0 -0.00000000000E+00  0.00000000000E+00  0.37741575038E+03  0.37741575038E+03  0.00000000000E+00 0. -1.
         21   -1    0    0  501  502  0.00000000000E+00 -0.00000000000E+00 -0.41318589224E+02  0.41318589224E+02  0.00000000000E+00 0.  1.
         23    2    1    2    0    0 -0.13112100086E+02  0.93509038235E+00  0.23094103279E+03  0.24925442274E+03  0.92850444604E+02 0.  0.
        -24    2    1    2    0    0 -0.11069429228E+02  0.18001712586E+02  0.18629897399E+02  0.77664136573E+02  0.72374381607E+02 0.  0.
         11    1    4    4    0    0 -0.80775408092E+01 -0.28032898060E+02  0.90849155406E+01  0.30555289714E+02  0.00000000000E+00 0. -1.
        -12    1    4    4    0    0 -0.29918884184E+01  0.46034610646E+02  0.95449818588E+01  0.47108846858E+02  0.00000000000E+00 0.  1.
        -11    1    3    3    0    0 -0.13945873182E+02  0.35719715125E+02  0.40938728613E+02  0.56092467658E+02  0.00000000000E+00 0.  1.
         11    1    3    3    0    0  0.83377309642E+00 -0.34784624743E+02  0.19000230418E+03  0.19316195508E+03  0.00000000000E+00 0. -1.
          4    1    1    2  501    0  0.24181529314E+02 -0.18936802969E+02  0.86526230965E+02  0.91815780297E+02  0.00000000000E+00 0. -1.
<scales pt_clust_5="13000.00000" pt_clust_6="13000.00000" pt_clust_7="13000.00000" pt_clust_8="13000.00000" pt_clust_9="30.71400"></scales>
<clustering>
<clus scale="   30.714">  2  9  1 -1</clus>
<clus scale="   72.374">  5  6 -1 -1</clus>
<clus scale="   72.837">  2  5  1 -1</clus>
<clus scale="   92.850">  7  8 -1 -1</clus>
<clus scale="   30.714">  2  5  1 -1</clus>
</clustering>
</event>
<event>
 9    1  0.4731329E-005  0.1755594E+03  0.7546771E-02  0.1173381E+00
         21   -1    0    0  501  502  0.00000000000E+00  0.00000000000E+00  0.70285088806E+02  0.70285088806E+02  0.00000000000E+00 0.  1.
          1   -1    0    0  502    0 -0.00000000000E+00 -0.00000000000E+00 -0.76855401882E+03  0.76855401882E+03  0.00000000000E+00 0. -1.
         23    2    1    2    0    0 -0.90114265225E+02  0.11369877486E+03 -0.50927883826E+03  0.53752797907E+03  0.92322266993E+02 0.  0.
        -24    2    1    2    0    0  0.84649721758E+02 -0.13608277435E+03 -0.20511943257E+03  0.27318533426E+03  0.82898422001E+02 0.  0.
         11    1    4    4    0    0  0.85910871365E+02 -0.66928395356E+02 -0.10335587617E+03  0.15014168329E+03  0.00000000000E+00 0. -1.
        -12    1    4    4    0    0 -0.12611496071E+01 -0.69154378998E+02 -0.10176355640E+03  0.12304365097E+03  0.00000000000E+00 0.  1.
        -13    1    3    3    0    0 -0.70134841215E+02  0.31978607241E+02 -0.33833668605E+03  0.34700611003E+03  0.00000000000E+00 0. -1.
         13    1    3    3    0    0 -0.19979424011E+02  0.81720167617E+02 -0.17094215221E+03  0.19052186904E+03  0.00000000000E+00 0.  1.
          2    1    1    2  501    0  0.54645434670E+01  0.22383999495E+02  0.16129340822E+02  0.28125794283E+02  0.00000000000E+00 0. -1.
<scales pt_clust_5="13000.00000" pt_clust_6="13000.00000" pt_clust_7="13000.00000" pt_clust_8="13000.00000" pt_clust_9="23.04137"></scales>
<clustering>
<clus scale="   23.041">  1  9  2 -1</clus>
<clus scale="   82.898">  5  6 -1 -1</clus>
<clus scale="   92.322">  7  8 -1 -1</clus>
<clus scale="  170.792">  1  5  2 -1</clus>
<clus scale="   23.041">  1  5  2 -1</clus>
</clustering>
</event>
<event>
 9    1  0.4731329E-005  0.1490346E+03  0.7546771E-02  0.1213380E+00
          1   -1    0    0  502    0 -0.00000000000E+00  0.00000000000E+00  0.10253252167E+03  0.10253252167E+03  0.00000000000E+00 0. -1.
         21   -1    0    0  501  502  0.00000000000E+00 -0.00000000000E+00 -0.47023840101E+03  0.47023840101E+03  0.00000000000E+00 0.  1.
         23    2    1    2    0    0  0.65896439611E+02  0.29283214893E+02 -0.14357474662E+03  0.18453290435E+03  0.90768042244E+02 0.  0.
        -24    2    1    2    0    0  0.70902166600E+02 -0.56833928358E+02  0.37587292048E+01  0.12101771663E+03  0.79837003021E+02 0.  0.
         11    1    4    4    0    0  0.69024842344E+02 -0.30799557503E+02  0.32426931238E+02  0.82246869075E+02  0.00000000000E+00 0. -1.
        -12    1    4    4    0    0  0.18773242554E+01 -0.26034370855E+02 -0.28668202033E+02  0.38770847553E+02  0.00000000000E+00 0.  1.
        -11    1    3    3    0    0  0.51787357005E+02 -0.89640763301E+01 -0.13211630324E+03  0.14218650636E+03  0.00000000000E+00 0.  1.
         11    1    3    3    0    0  0.14109082606E+02  0.38247291223E+02 -0.11458443384E+02  0.42346397990E+02  0.00000000000E+00 0. -1.
          2    1    1    2  501    0 -0.13679860621E+03  0.27550713465E+02 -0.22788986193E+03  0.26722030170E+03  0.00000000000E+00 0. -1.
<scales pt_clust_5="13000.00000" pt_clust_6="13000.00000" pt_clust_7="13000.00000" pt_clust_8="13000.00000" pt_clust_9="125.84660"></scales>
<clustering>
<clus scale="   79.837">  5  6 -1 -1</clus>
<clus scale="   90.768">  7  8 -1 -1</clus>
<clus scale="  115.925">  1  7  2 -1</clus>
<clus scale="  125.847">  2  9  1 -1</clus>
<clus scale="  125.847">  2  5  1 -1</clus>
</clustering>
</event>
<event>
 9    1  0.4731329E-005  0.9982390E+02  0.7546771E-02  0.1286801E+00
         21   -1    0    0  501  502  0.00000000000E+00  0.00000000000E+00  0.20373474627E+03  0.20373474627E+03  0.00000000000E+00 0. -1.
         -2   -1    0    0    0  501 -0.00000000000E+00 -0.00000000000E+00 -0.12345992745E+03  0.12345992745E+03  0.00000000000E+00 0.  1.
         23    2    1    2    0    0  0.37124734317E+02 -0.12090739218E+02 -0.74191406460E+02  0.12317652098E+03  0.90242222127E+02 0.  0.
        -24    2    1    2    0    0 -0.66051251784E+02  0.30063978535E+01  0.12764087266E+03  0.16353521543E+03  0.77972867212E+02 0.  0.
         13    1    4    4    0    0 -0.55106779206E+02 -0.11401733449E+02  0.13320617648E+03  0.14460512471E+03  0.00000000000E+00 0. -1.
        -14    1    4    4    0    0 -0.10944472577E+02  0.14408131303E+02 -0.55653038270E+01  0.18930090711E+02  0.00000000000E+00 0.  1.
        -11    1    3    3    0    0 -0.18348289851E+02 -0.25698070630E+02 -0.27306217581E+01  0.31693956360E+02  0.00000000000E+00 0. -1.
         11    1    3    3    0    0  0.55473024168E+02  0.13607331413E+02 -0.71460784702E+02  0.91482564616E+02  0.00000000000E+00 0.  1.
         -1    1    1    2    0  502  0.28926517467E+02  0.90843413640E+01  0.26825352626E+02  0.40482937322E+02  0.00000000000E+00 0.  1.
<scales pt_clust_5="13000.00000" pt_clust_6="13000.00000" pt_clust_7="13000.00000" pt_clust_8="13000.00000" pt_clust_9="30.31944"></scales>
<clustering>
<clus scale="   30.319">  1  9  2 -1</clus>
<clus scale="   77.973">  5  6 -1 -1</clus>
<clus scale="   88.887">  1  5  2 -1</clus>
<clus scale="   90.242">  7  8 -1 -1</clus>
<clus scale="   30.319">  1  5  2 -1</clus>
</clustering>
</event>
<event>
 9    1  0.4731329E-005  0.1182641E+03  0.7546771E-02  0.1249531E+00
          3   -1    0    0  502    0 -0.00000000000E+00  0.00000000000E+00  0.30962624674E+03  0.30962624674E+03  0.00000000000E+00 0. -1.
         21   -1    0    0  501  502  0.00000000000E+00 -0.00000000000E+00 -0.87102177950E+02  0.87102177950E+02  0.00000000000E+00 0.  1.
         23    2    1    2    0    0  0.55260539338E+02  0.47711546784E+02  0.22590778541E+03  0.25440989326E+03  0.91432747815E+02 0.  0.
        -24    2    1    2    0    0 -0.76526441559E+02 -0.37302356912E+02  0.44813143811E+01  0.11736961275E+03  0.80670823280E+02 0.  0.
         13    1    4    4    0    0  0.14325674934E+01 -0.29028275363E+02  0.22706788484E+02  0.36882126612E+02  0.00000000000E+00 0. -1.
        -14    1    4    4    0    0 -0.77959009052E+02 -0.82740815491E+01 -0.18225474103E+02  0.80487486134E+02  0.00000000000E+00 0.  1.
        -11    1    3    3    0    0  0.19804614401E+02 -0.11687377277E+02  0.58403888149E+01  0.23726097039E+02  0.00000000000E+00 0.  1.
         11    1    3    3    0    0  0.35455924937E+02  0.59398924061E+02  0.22006739660E+03  0.23068379622E+03  0.00000000000E+00 0. -1.
          4    1    1    2  501    0  0.21265902221E+02 -0.10409189872E+02 -0.78650310025E+01  0.24948918688E+02  0.00000000000E+00 0. -1.
<scales pt_clust_5="13000.00000" pt_clust_6="13000.00000" pt_clust_7="13000.00000" pt_clust_8="13000.00000" pt_clust_9="23.67678"></scales>
<clustering>
<clus scale="   23.677">  2  9  1 -1</clus>
<clus scale="   80.671">  5  6 -1 -1</clus>
<clus scale="   91.433">  7  8 -1 -1</clus>
<clus scale="  110.156">  2  5  1 -1</clus>
<clus scale="   23.677">  2  5  1 -1</clus>
</clustering>
</event>
<event>
 9    1  0.4731329E-005  0.1220518E+03  0.7546771E-02  0.1241923E+00
          3   -1    0    0  502    0 -0.00000000000E+00  0.00000000000E+00  0.66227197846E+03  0.66227197846E+03  0.00000000000E+00 0. -1.
         21   -1    0    0  501  502  0.00000000000E+00 -0.00000000000E+00 -0.65607229221E+02  0.65607229221E+02  0.00000000000E+00 0.  1.
        -24    2    1    2    0    0 -0.25136913378E+02 -0.87146773883E+02  0.46959557081E+03  0.48556056770E+03  0.83801194292E+02 0.  0.
         23    2    1    2    0    0 -0.45146663766E+02  0.42913441115E+02  0.29409194048E+02  0.11412409450E+03  0.90992436898E+02 0.  0.
         13    1    3    3    0    0 -0.37922868652E+02 -0.74418846953E+02  0.45428190022E+03  0.46189647500E+03  0.00000000000E+00 0. -1.
        -14    1    3    3    0    0  0.12785955274E+02 -0.12727926930E+02  0.15313670586E+02  0.23664092694E+02  0.00000000000E+00 0.  1.
        -13    1    4    4    0    0 -0.71662061789E+02  0.42760589574E+02  0.18651155221E+02  0.85508974451E+02  0.00000000000E+00 0.  1.
         13    1    4    4    0    0  0.26515398022E+02  0.15285154074E+00  0.10758038828E+02  0.28615120047E+02  0.00000000000E+00 0. -1.
          4    1    1    2  501    0  0.70283577144E+02  0.44233332768E+02  0.97659984386E+02  0.12819454549E+03  0.00000000000E+00 0. -1.
<scales pt_clust_5="13000.00000" pt_clust_6="13000.00000" pt_clust_7="13000.00000" pt_clust_8="13000.00000" pt_clust_9="83.04438"></scales>
<clustering>
<clus scale="   83.044">  2  9  1 -1</clus>
<clus scale="   83.801">  5  6 -1 -1</clus>
<clus scale="   90.992">  7  8 -1 -1</clus>
<clus scale="  116.789">  1  5  2 -1</clus>
<clus scale="   83.044">  2  5  1 -1</clus>
</clustering>
</event>
<event>
 9    1  0.4731329E-005  0.9473210E+02  0.7546771E-02  0.1298949E+00
         21   -1    0    0  501  502  0.00000000000E+00  0.00000000000E+00  0.29510836658E+03  0.29510836658E+03  0.00000000000E+00 0.  1.
          3   -1    0    0  502    0 -0.00000000000E+00 -0.00000000000E+00 -0.38056585367E+02  0.38056585367E+02  0.00000000000E+00 0. -1.
         23    2    1    2    0    0 -0.98692110288E+01 -0.14352151283E+02  0.10199265852E+03  0.13777280914E+03  0.90969549696E+02 0.  0.
        -24    2    1    2    0    0  0.24147228630E+02  0.30143076248E+02  0.14970703286E+03  0.17344083389E+03  0.78599195139E+02 0.  0.
         13    1    4    4    0    0  0.14365978951E+02  0.37245758091E+02  0.22826171308E+02  0.45985453609E+02  0.00000000000E+00 0. -1.
        -14    1    4    4    0    0  0.97812496787E+01 -0.71026818426E+01  0.12688086155E+03  0.12745538028E+03  0.00000000000E+00 0.  1.
        -13    1    3    3    0    0 -0.19066498855E+02 -0.50837802531E+02  0.51792826695E+02  0.75036727286E+02  0.00000000000E+00 0. -1.
         13    1    3    3    0    0  0.91972878266E+01  0.36485651248E+02  0.50199831829E+02  0.62736081851E+02  0.00000000000E+00 0.  1.
          4    1    1    2  501    0 -0.14278017601E+02 -0.15790924965E+02  0.53520898334E+01  0.21951308924E+02  0.00000000000E+00 0. -1.
<scales pt_clust_5="13000.00000" pt_clust_6="13000.00000" pt_clust_7="13000.00000" pt_clust_8="13000.00000" pt_clust_9="21.28886"></scales>
<clustering>
<clus scale="   21.289">  1  9  2 -1</clus>
<clus scale="   78.599">  5  6 -1 -1</clus>
<clus scale="   82.925">  1  5  2 -1</clus>
<clus scale="   90.970">  7  8 -1 -1</clus>
<clus scale="   21.289">  1  5  2 -1</clus>
</clustering>
</event>
<event>
 9    1  0.4731329E-005  0.9698809E+02  0.7546771E-02  0.1292355E+00
         21   -1    0    0  501  502  0.00000000000E+00  0.00000000000E+00  0.15648136825E+03  0.15648136825E+03  0.00000000000E+00 0.  1.
          1   -1    0    0  502    0 -0.00000000000E+00 -0.00000000000E+00 -0.27354757575E+03  0.27354757575E+03  0.00000000000E+00 0. -1.
        -24    2    1    2    0    0 -0.25469988754E+02 -0.17907349680E+02 -0.21886916408E+03  0.23560800717E+03  0.81474097467E+02 0.  0.
         23    2    1    2    0    0  0.51784373948E+02 -0.20297753559E+02  0.34543432855E+02  0.11271463160E+03  0.91748129347E+02 0.  0.
         13    1    3    3    0    0 -0.55188121397E+02 -0.14864410854E+02 -0.13616560753E+03  0.14767448028E+03  0.00000000000E+00 0. -1.
        -14    1    3    3    0    0  0.29718132643E+02 -0.30429388265E+01 -0.82703556552E+02  0.87933526887E+02  0.00000000000E+00 0.  1.
        -13    1    4    4    0    0  0.60775738423E+02 -0.39097117132E+02  0.49036074458E+02  0.87331618255E+02  0.00000000000E+00 0.  1.
         13    1    4    4    0    0 -0.89913644743E+01  0.18799363573E+02 -0.14492641603E+02  0.25383013345E+02  0.00000000000E+00 0. -1.
          2    1    1    2  501    0 -0.26314385195E+02  0.38205103239E+02  0.67259523728E+02  0.81706305226E+02  0.00000000000E+00 0. -1.
<scales pt_clust_5="13000.00000" pt_clust_6="13000.00000" pt_clust_7="13000.00000" pt_clust_8="13000.00000" pt_clust_9="46.39048"></scales>
<clustering>
<clus scale="   46.390">  1  9  2 -1</clus>
<clus scale="   81.474">  5  6 -1 -1</clus>
<clus scale="   87.333">  2  5  1 -1</clus>
<clus scale="   91.748">  7  8 -1 -1</clus>
<clus scale="   46.390">  1  5  2 -1</clus>
</clustering>
</event>
<event>
 9    1  0.4731329E-005  0.2100406E+03  0.7546771E-02  0.1166618E+00
         21   -1    0    0  501  502  0.00000000000E+00  0.00000000000E+00  0.10063413979E+04  0.10063413979E+04  0.00000000000E+00 0.  1.
          3   -1    0    0  502    0 -0.00000000000E+00 -0.00000000000E+00 -0.12288545588E+03  0.12288545588E+03  0.00000000000E+00 0. -1.
        -24    2    1    2    0    0 -0.14275750775E+02  0.83619661712E+02  0.43297473581E+03  0.44835183826E+03  0.79725805989E+02 0.  0.
         23    2    1    2    0    0  0.17609810541E+03  0.59155631601E+02  0.41295029963E+03  0.46183203388E+03  0.90834718443E+02 0.  0.
         11    1    3    3    0    0 -0.26777590382E+02 -0.55292854377E+00  0.58644967689E+02  0.64471523263E+02  0.00000000000E+00 0. -1.
        -12    1    3    3    0    0  0.12501839607E+02  0.84172590256E+02  0.37432976812E+03  0.38388031500E+03  0.00000000000E+00 0.  1.
        -11    1    4    4    0    0  0.92551370348E+02 -0.16503092392E+02  0.19345919336E+03  0.21509199824E+03  0.00000000000E+00 0.  1.
         11    1    4    4    0    0  0.83546735059E+02  0.75658723993E+02  0.21949110628E+03  0.24674003564E+03  0.00000000000E+00 0. -1.
          4    1    1    2  501    0 -0.16182235463E+03 -0.14277529331E+03  0.37530906530E+02  0.21904298159E+03  0.00000000000E+00 0. -1.
<scales pt_clust_5="13000.00000" pt_clust_6="13000.00000" pt_clust_7="13000.00000" pt_clust_8="13000.00000" pt_clust_9="189.38358"></scales>
<clustering>
<clus scale="   79.726">  5  6 -1 -1</clus>
<clus scale="   90.835">  7  8 -1 -1</clus>
<clus scale="  116.414">  2  5  1 -1</clus>
<clus scale="  189.384">  1  9  2 -1</clus>
<clus scale="  189.384">  1  5  2 -1</clus>
</clustering>
</event>
<event>
 9    1  0.4731329E-005  0.9315022E+02  0.7546771E-02  0.1302486E+00
          1   -1    0    0  502    0 -0.00000000000E+00  0.00000000000E+00  0.64646902294E+03  0.64646902294E+03  0.00000000000E+00 0. -1.
         21   -1    0    0  501  502  0.00000000000E+00 -0.00000000000E+00 -0.82925783697E+02  0.82925783697E+02  0.00000000000E+00 0. -1.
        -24    2    1    2    0    0 -0.15863610941E+01  0.82689879061E+01  0.51107674195E+03  0.51749443203E+03  0.80809394982E+02 0.  0.
         23    2    1    2    0    0  0.30002741928E+02 -0.26872793585E+02  0.10743419253E+03  0.14728582667E+03  0.92350947242E+02 0.  0.
         11    1    3    3    0    0  0.25991512274E+02  0.30062594840E+02  0.16867812987E+03  0.17329636412E+03  0.00000000000E+00 0. -1.
        -12    1    3    3    0    0 -0.27577873368E+02 -0.21793606934E+02  0.34239861207E+03  0.34419806791E+03  0.00000000000E+00 0.  1.
        -13    1    4    4    0    0  0.23826653912E+02  0.12741515710E+02 -0.53880723937E+01  0.27551533231E+02  0.00000000000E+00 0. -1.
         13    1    4    4    0    0  0.61760880151E+01 -0.39614309295E+02  0.11282226492E+03  0.11973429344E+03  0.00000000000E+00 0.  1.
          2    1    1    2  501    0 -0.28416380834E+02  0.18603805679E+02 -0.54967695234E+02  0.64614547934E+02  0.00000000000E+00 0. -1.
<scales pt_clust_5="13000.00000" pt_clust_6="13000.00000" pt_clust_7="13000.00000" pt_clust_8="13000.00000" pt_clust_9="33.96457"></scales>
<clustering>
<clus scale="   33.965">  2  9  1 -1</clus>
<clus scale="   80.809">  5  6 -1 -1</clus>
<clus scale="   81.722">  1  5  2 -1</clus>
<clus scale="   92.351">  7  8 -1 -1</clus>
<clus scale="   33.965">  2  5  1 -1</clus>
</clustering>
</event>
<event>
 9    1  0.4731329E-005  0.1318439E+03  0.7546771E-02  0.1227501E+00
         21   -1    0    0  501  502  0.00000000000E+00  0.00000000000E+00  0.52516164582E+03  0.52516164582E+03  0.00000000000E+00 0.  1.
          1   -1    0    0  502    0 -0.00000000000E+00 -0.00000000000E+00 -0.11138693826E+03  0.11138693826E+03  0.00000000000E+00 0. -1.
        -24    2    1    2    0    0 -0.72874465311E+02  0.54972579932E+02 -0.53506379305E+02  0.13448430837E+03  0.83008579871E+02 0.  0.
         23    2    1    2    0    0  0.10552100785E+03 -0.38422348924E+02  0.39120926589E+03  0.41764491280E+03  0.93656945709E+02 0.  0.
         11    1    3    3    0    0 -0.54488497912E+02  0.29248646858E+02 -0.74278228880E+02  0.96652651455E+02  0.00000000000E+00 0. -1.
        -12    1    3    3    0    0 -0.18385967399E+02  0.25723933074E+02  0.20771849575E+02  0.37831656913E+02  0.00000000000E+00 0.  1.
        -13    1    4    4    0    0  0.95907774248E+02 -0.52728172753E+01  0.35439525540E+03  0.36718129148E+03  0.00000000000E+00 0.  1.
         13    1    4    4    0    0  0.96132336006E+01 -0.33149531648E+02  0.36814010487E+02  0.50463621322E+02  0.00000000000E+00 0. -1.
          2    1    1    2  501    0 -0.32646542538E+02 -0.16550231008E+02  0.76071820974E+02  0.84419362899E+02  0.00000000000E+00 0. -1.
<scales pt_clust_5="13000.00000" pt_clust_6="13000.00000" pt_clust_7="13000.00000" pt_clust_8="13000.00000" pt_clust_9="36.60201"></scales>
<clustering>
<clus scale="   36.602">  1  9  2 -1</clus>
<clus scale="   83.009">  5  6 -1 -1</clus>
<clus scale="   93.657">  7  8 -1 -1</clus>
<clus scale="  124.505">  2  5  1 -1</clus>
<clus scale="   36.602">  1  5  2 -1</clus>
</clustering>
</event>
<event>
 9    1  0.4731329E-005  0.3533279E+03  0.7546771E-02  0.1105844E+00
         21   -1    0    0  501  502  0.00000000000E+00  0.00000000000E+00  0.10887920516E+03  0.10887920516E+03  0.00000000000E+00 0. -1.
          1   -1    0    0  502    0 -0.00000000000E+00 -0.00000000000E+00 -0.18273278288E+04  0.18273278288E+04  0.00000000000E+00 0. -1.
         23    2    1    2    0    0  0.13150319238E+02 -0.50708113688E+02 -0.31199667375E+03  0.32986990836E+03  0.93423703205E+02 0.  0.
        -24    2    1    2    0    0 -0.68101362110E+01  0.38284855652E+03 -0.10465413853E+04  0.11165483076E+04  0.69367550123E+02 0.  0.
         11    1    4    4    0    0  0.94642813536E+00  0.24553865883E+03 -0.57186554000E+03  0.62235064437E+03  0.00000000000E+00 0. -1.
        -12    1    4    4    0    0 -0.77565643464E+01  0.13730989770E+03 -0.47467584526E+03  0.49419766325E+03  0.00000000000E+00 0.  1.
        -13    1    3    3    0    0 -0.14951441233E+02 -0.69106323066E+02 -0.17340168417E+03  0.18726284617E+03  0.00000000000E+00 0.  1.
         13    1    3    3    0    0  0.28101760471E+02  0.18398209377E+02 -0.13859498958E+03  0.14260706219E+03  0.00000000000E+00 0. -1.
          2    1    1    2  501    0 -0.63401830267E+01 -0.33214044284E+03 -0.35991056464E+03  0.48978881799E+03  0.00000000000E+00 0. -1.
<scales pt_clust_5="13000.00000" pt_clust_6="13000.00000" pt_clust_7="13000.00000" pt_clust_8="13000.00000" pt_clust_9="346.45169"></scales>
<clustering>
<clus scale="   69.368">  5  6 -1 -1</clus>
<clus scale="   93.424">  7  8 -1 -1</clus>
<clus scale="  107.109">  2  7  1 -1</clus>
<clus scale="  346.452">  1  9  2 -1</clus>
<clus scale="  346.452">  1  5  2 -1</clus>
</clustering>
</event>
<event>
 9    1  0.4731329E-005  0.1228195E+03  0.7546771E-02  0.1241855E+00
          1   -1    0    0  502    0 -0.00000000000E+00  0.00000000000E+00  0.49165493298E+03  0.49165493298E+03  0.00000000000E+00 0. -1.
         21   -1    0    0  501  502  0.00000000000E+00 -0.00000000000E+00 -0.69440333052E+02  0.69440333052E+02  0.00000000000E+00 0. -1.
         23    2    1    2    0    0  0.89087839995E+02 -0.10806765162E+02  0.38917190302E+03  0.40987707513E+03  0.92146715652E+02 0.  0.
        -24    2    1    2    0    0 -0.56662970947E+02  0.44153799401E+01  0.53283056748E+02  0.11246391238E+03  0.81110169490E+02 0.  0.
         11    1    4    4    0    0 -0.14979592813E+01 -0.30605607508E+02  0.30577293216E+02  0.43288773988E+02  0.00000000000E+00 0. -1.
        -12    1    4    4    0    0 -0.55165011665E+02  0.35020987448E+02  0.22705763533E+02  0.69175138392E+02  0.00000000000E+00 0.  1.
        -11    1    3    3    0    0  0.40777383886E+02  0.40108481698E+02  0.20337754613E+03  0.21126739363E+03  0.00000000000E+00 0. -1.
         11    1    3    3    0    0  0.48310456109E+02 -0.50915246861E+02  0.18579435689E+03  0.19860968149E+03  0.00000000000E+00 0.  1.
          2    1    1    2  501    0 -0.32424869048E+02  0.63913852221E+01 -0.20240359838E+02  0.38754278528E+02  0.00000000000E+00 0. -1.
<scales pt_clust_5="13000.00000" pt_clust_6="13000.00000" pt_clust_7="13000.00000" pt_clust_8="13000.00000" pt_clust_9="33.04878"></scales>
<clustering>
<clus scale="   33.049">  2  9  1 -1</clus>
<clus scale="   81.110">  5  6 -1 -1</clus>
<clus scale="   92.147">  7  8 -1 -1</clus>
<clus scale="  114.771">  2  5  1 -1</clus>
<clus scale="   33.049">  2  5  1 -1</clus>
</clustering>
</event>
<event>
 9    1  0.4731329E-005  0.1061557E+03  0.7546771E-02  0.1272801E+00
         21   -1    0    0  501  502  0.00000000000E+00  0.00000000000E+00  0.40446208850E+02  0.40446208850E+02  0.00000000000E+00 0.  1.
          1   -1    0    0  502    0 -0.00000000000E+00 -0.00000000000E+00 -0.53604871236E+03  0.53604871236E+03  0.00000000000E+00 0. -1.
         23    2    1    2    0    0  0.31741168812E+02 -0.37618496677E+02 -0.34012286381E+03  0.35580352210E+03  0.92140820303E+02 0.  0.
        -24    2    1    2    0    0 -0.62971792720E+02  0.20224531218E+02 -0.15249065619E+03  0.18481890370E+03  0.80809334844E+02 0.  0.
         13    1    4    4    0    0 -0.26821659551E+02  0.42693680040E+02 -0.12329021469E+03  0.13320145935E+03  0.00000000000E+00 0. -1.
        -14    1    4    4    0    0 -0.36150133169E+02 -0.22469148822E+02 -0.29200441508E+02  0.51617444350E+02  0.00000000000E+00 0.  1.
        -13    1    3    3    0    0 -0.29301469297E+02 -0.21003256478E+02 -0.74688895218E+02  0.82934576351E+02  0.00000000000E+00 0.  1.
         13    1    3    3    0    0  0.61042638110E+02 -0.16615240199E+02 -0.26543396859E+03  0.27286894575E+03  0.00000000000E+00 0. -1.
          2    1    1    2  501    0  0.31230623908E+02  0.17393965458E+02 -0.29889835068E+01  0.35872495403E+02  0.00000000000E+00 0. -1.
<scales pt_clust_5="13000.00000" pt_clust_6="13000.00000" pt_clust_7="13000.00000" pt_clust_8="13000.00000" pt_clust_9="35.74775"></scales>
<clustering>
<clus scale="   35.748">  1  9  2 -1</clus>
<clus scale="   80.809">  5  6 -1 -1</clus>
<clus scale="   92.141">  7  8 -1 -1</clus>
<clus scale="   96.484">  1  5  2 -1</clus>
<clus scale="   35.748">  1  5  2 -1</clus>
</clustering>
</event>
<event>
 9    1  0.4731329E-005  0.1002983E+03  0.7546771E-02  0.1289263E+00
          1   -1    0    0  502    0 -0.00000000000E+00  0.00000000000E+00  0.67947924717E+02  0.67947924717E+02  0.00000000000E+00 0. -1.
         21   -1    0    0  501  502  0.00000000000E+00 -0.00000000000E+00 -0.28994248008E+03  0.28994248008E+03  0.00000000000E+00 0. -1.
        -24    2    1    2    0    0  0.13926046512E+02  0.35377374682E+02  0.69479310019E+01  0.85922255257E+02  0.76738952251E+02 0.  0.
         23    2    1    2    0    0 -0.35938444052E+02  0.16257442921E+01 -0.13586989296E+03  0.16941921438E+03  0.94594014520E+02 0.  0.
         13    1    3    3    0    0 -0.24956577100E+02 -0.53771921994E+01  0.14064157068E+02  0.29146962973E+02  0.00000000000E+00 0. -1.
        -14    1    3    3    0    0  0.38882623612E+02  0.40754566881E+02 -0.71162260658E+01  0.56775292285E+02  0.00000000000E+00 0.  1.
        -13    1    4    4    0    0 -0.44738242150E+02  0.32047268743E+02 -0.38855573507E+02  0.67366856369E+02  0.00000000000E+00 0. -1.
         13    1    4    4    0    0  0.87997980982E+01 -0.30421524451E+02 -0.97014319457E+02  0.10205235801E+03  0.00000000000E+00 0.  1.
          2    1    1    2  501    0  0.22012397540E+02 -0.37003118974E+02 -0.93072593398E+02  0.10254893515E+03  0.00000000000E+00 0. -1.
<scales pt_clust_5="13000.00000" pt_clust_6="13000.00000" pt_clust_7="13000.00000" pt_clust_8="13000.00000" pt_clust_9="43.05550"></scales>
<clustering>
<clus scale="   43.056">  2  9  1 -1</clus>
<clus scale="   76.739">  5  6 -1 -1</clus>
<clus scale="   83.669">  1  5  2 -1</clus>
<clus scale="   94.594">  7  8 -1 -1</clus>
<clus scale="   43.056">  2  5  1 -1</clus>
</clustering>
</event>
<event>
 9    1  0.4731329E-005  0.9103189E+02  0.7546771E-02  0.1305249E+00
         -2   -1    0    0    0  501 -0.00000000000E+00  0.00000000000E+00  0.80662942836E+02  0.80662942836E+02  0.00000000000E+00 0.  1.
         21   -1    0    0  501  502  0.00000000000E+00 -0.00000000000E+00 -0.32515319891E+03  0.32515319891E+03  0.00000000000E+00 0.  1.
        -24    2    1    2    0    0 -0.15084313198E+02 -0.12900180773E+02  0.37530735453E+02  0.91683490887E+02  0.81261031429E+02 0.  0.
         23    2    1    2    0    0 -0.15906370741E+02  0.24741437084E+02 -0.14223185801E+03  0.17046066440E+03  0.89228836915E+02 0.  0.
         13    1    3    3    0    0 -0.21031621026E+02  0.12016408841E+02 -0.18232752290E+02  0.30317592591E+02  0.00000000000E+00 0. -1.
        -14    1    3    3    0    0  0.59473078283E+01 -0.24916589614E+02  0.55763487743E+02  0.61365898296E+02  0.00000000000E+00 0.  1.
        -11    1    4    4    0    0  0.29389117644E+02 -0.12320969704E+02 -0.29421734817E+02  0.43372399173E+02  0.00000000000E+00 0.  1.
         11    1    4    4    0    0 -0.45295488385E+02  0.37062406788E+02 -0.11281012319E+03  0.12708826523E+03  0.00000000000E+00 0. -1.
         -1    1    1    2    0  502  0.30990683939E+02 -0.11841256311E+02 -0.13978913352E+03  0.14367198645E+03  0.00000000000E+00 0.  1.
<scales pt_clust_5="13000.00000" pt_clust_6="13000.00000" pt_clust_7="13000.00000" pt_clust_8="13000.00000" pt_clust_9="33.17586"></scales>
<clustering>
<clus scale="   33.176">  2  9  1 -1</clus>
<clus scale="   81.261">  5  6 -1 -1</clus>
<clus scale="   83.237">  1  5  2 -1</clus>
<clus scale="   89.229">  7  8 -1 -1</clus>
<clus scale="   33.176">  2  5  1 -1</clus>
</clustering>
</event>
<event>
 9    1  0.4731329E-005  0.9388303E+02  0.7546771E-02  0.1307795E+00
         -2   -1    0    0    0  501 -0.00000000000E+00  0.00000000000E+00  0.25823699614E+03  0.25823699614E+03  0.00000000000E+00 0.  1.
         21   -1    0    0  501  502  0.00000000000E+00 -0.00000000000E+00 -0.47135793451E+02  0.47135793451E+02  0.00000000000E+00 0. -1.
        -24    2    1    2    0    0 -0.18130067020E+02  0.23162612204E+02  0.11099810027E+03  0.14142951124E+03  0.82562233821E+02 0.  0.
         23    2    1    2    0    0  0.20547670054E+02 -0.57475580086E+02  0.99005981597E+02  0.12952775505E+03  0.57005314544E+02 0.  0.
         11    1    3    3    0    0 -0.41917179065E+02  0.22837916682E+02  0.28557327786E+02  0.55625006152E+02  0.00000000000E+00 0. -1.
        -12    1    3    3    0    0  0.23787112045E+02  0.32469552141E+00  0.82440772482E+02  0.85804505092E+02  0.00000000000E+00 0.  1.
        -13    1    4    4    0    0 -0.50534223777E+01 -0.47603350613E+02  0.87571938040E+02  0.99802106187E+02  0.00000000000E+00 0.  1.
         13    1    4    4    0    0  0.25601092432E+02 -0.98722294730E+01  0.11434043558E+02  0.29725648867E+02  0.00000000000E+00 0. -1.
         -1    1    1    2    0  502 -0.24176030340E+01  0.34312967883E+02  0.10971208221E+01  0.34415523292E+02  0.00000000000E+00 0.  1.
<scales pt_clust_5="13000.00000" pt_clust_6="13000.00000" pt_clust_7="13000.00000" pt_clust_8="13000.00000" pt_clust_9="34.39803"></scales>
<clustering>
<clus scale="   34.398">  2  9  1 -1</clus>
<clus scale="   57.005">  7  8 -1 -1</clus>
<clus scale="   72.437">  2  7  1 -1</clus>
<clus scale="   82.562">  5  6 -1 -1</clus>
<clus scale="   34.398">  2  5  1 -1</clus>
</clustering>
</event>
<event>
 9    1  0.4731329E-005  0.2341418E+03  0.7546771E-02  0.1144472E+00
         21   -1    0    0  501  502  0.00000000000E+00  0.00000000000E+00  0.73392110648E+03  0.73392110648E+03  0.00000000000E+00 0. -1.
          1   -1    0    0  502    0 -0.00000000000E+00 -0.00000000000E+00 -0.22679662179E+03  0.22679662179E+03  0.00000000000E+00 0. -1.
        -24    2    1    2    0    0  0.88138510212E+02  0.75402363599E+02 -0.11076581451E+03  0.17954467011E+03  0.80705077175E+02 0.  0.
         23    2    1    2    0    0  0.11292973759E+03  0.84399076341E+02  0.82602810652E+02  0.18745794476E+03  0.91874517725E+02 0.  0.
         11    1    3    3    0    0  0.41713101305E+02  0.83997569679E+02 -0.68018077008E+02  0.11585349944E+03  0.00000000000E+00 0. -1.
        -12    1    3    3    0    0  0.46425408906E+02 -0.85952060799E+01 -0.42747737507E+02  0.63691170673E+02  0.00000000000E+00 0.  1.
        -11    1    4    4    0    0  0.10535766275E+03  0.31613178978E+02  0.76055381730E+02  0.13373126514E+03  0.00000000000E+00 0. -1.
         11    1    4    4    0    0  0.75720748374E+01  0.52785897363E+02  0.65474289223E+01  0.53726679622E+02  0.00000000000E+00 0.  1.
          2    1    1    2  501    0 -0.20106824780E+03 -0.15980143994E+03  0.53528748855E+03  0.59371511340E+03  0.00000000000E+00 0. -1.
<scales pt_clust_5="13000.00000" pt_clust_6="13000.00000" pt_clust_7="13000.00000" pt_clust_8="13000.00000" pt_clust_9="215.36356"></scales>
<clustering>
<clus scale="   80.705">  5  6 -1 -1</clus>
<clus scale="   91.875">  7  8 -1 -1</clus>
<clus scale="  141.305">  2  5  1 -1</clus>
<clus scale="  215.364">  1  9  2 -1</clus>
<clus scale="  215.364">  1  5  2 -1</clus>
</clustering>
</event>
<event>
 9    1  0.4731329E-005  0.1138396E+03  0.7546771E-02  0.1255533E+00
         21   -1    0    0  501  502  0.00000000000E+00  0.00000000000E+00  0.71226342937E+03  0.71226342937E+03  0.00000000000E+00 0.  1.
         -2   -1    0    0    0  501 -0.00000000000E+00 -0.00000000000E+00 -0.89487969082E+02  0.89487969082E+02  0.00000000000E+00 0.  1.
         23    2    1    2    0    0  0.24909377624E+02 -0.67856411706E+02 -0.21087014901E+02  0.11486945000E+03  0.86748825020E+02 0.  0.
        -24    2    1    2    0    0 -0.10446375478E+03  0.42278960477E+02  0.26789064491E+03  0.30173532429E+03  0.81108703205E+02 0.  0.
         11    1    4    4    0    0 -0.48699069766E+02  0.42669562581E+02  0.21623627778E+03  0.22572199449E+03  0.00000000000E+00 0. -1.
        -12    1    4    4    0    0 -0.55764685014E+02 -0.39060210396E+00  0.51654367123E+02  0.76013329802E+02  0.00000000000E+00 0.  1.
        -11    1    3    3    0    0 -0.28684292866E+02 -0.39701155570E+01 -0.10538855558E+02  0.30815871742E+02  0.00000000000E+00 0. -1.
         11    1    3    3    0    0  0.53593670490E+02 -0.63886296149E+02 -0.10548159343E+02  0.84053578257E+02  0.00000000000E+00 0.  1.
         -1    1    1    2    0  502  0.79554377157E+02  0.25577451229E+02  0.37597183028E+03  0.38514662416E+03  0.00000000000E+00 0.  1.
<scales pt_clust_5="13000.00000" pt_clust_6="13000.00000" pt_clust_7="13000.00000" pt_clust_8="13000.00000" pt_clust_9="83.56497"></scales>
<clustering>
<clus scale="   81.109">  5  6 -1 -1</clus>
<clus scale="   83.565">  1  9  2 -1</clus>
<clus scale="   86.749">  7  8 -1 -1</clus>
<clus scale="  109.603">  1  5  2 -1</clus>
<clus scale="   83.565">  1  5  2 -1</clus>
</clustering>
</event>
<event>
 9    1  0.4731329E-005  0.9986618E+02  0.7546771E-02  0.1285004E+00
          3   -1    0    0  502    0 -0.00000000000E+00  0.00000000000E+00  0.11105337243E+03  0.11105337243E+03  0.00000000000E+00 0. -1.
         21   -1    0    0  501  502  0.00000000000E+00 -0.00000000000E+00 -0.14911186504E+03  0.14911186504E+03  0.00000000000E+00 0.  1.
        -24    2    1    2    0    0  0.14358719723E+02  0.35989522679E+02  0.52238645063E+02  0.10487275019E+03  0.82267849852E+02 0.  0.
         23    2    1    2    0    0 -0.10442106170E+01 -0.51715472520E+02 -0.82037692914E+02  0.13309338642E+03  0.91148702549E+02 0.  0.
         13    1    3    3    0    0  0.44035418431E+02  0.16442779620E+02  0.50939786916E+02  0.69313382324E+02  0.00000000000E+00 0. -1.
        -14    1    3    3    0    0 -0.29676698708E+02  0.19546743059E+02  0.12988581469E+01  0.35559367865E+02  0.00000000000E+00 0.  1.
        -11    1    4    4    0    0 -0.19275438375E+02 -0.21075685796E+02 -0.91789455368E+02  0.96130282289E+02  0.00000000000E+00 0.  1.
         11    1    4    4    0    0  0.18231227758E+02 -0.30639786724E+02  0.97517624538E+01  0.36963104131E+02  0.00000000000E+00 0. -1.
          4    1    1    2  501    0 -0.13314509106E+02  0.15725949841E+02 -0.82594447642E+01  0.22199100859E+02  0.00000000000E+00 0. -1.
<scales pt_clust_5="13000.00000" pt_clust_6="13000.00000" pt_clust_7="13000.00000" pt_clust_8="13000.00000" pt_clust_9="20.60538"></scales>
<clustering>
<clus scale="   20.605">  2  9  1 -1</clus>
<clus scale="   82.268">  5  6 -1 -1</clus>
<clus scale="   91.149">  7  8 -1 -1</clus>
<clus scale="   91.832">  1  5  2 -1</clus>
<clus scale="   20.605">  2  5  1 -1</clus>
</clustering>
</event>
<event>
 9    1  0.4731329E-005  0.1267845E+03  0.7546771E-02  0.1235513E+00
         21   -1    0    0  501  502  0.00000000000E+00  0.00000000000E+00  0.11001455845E+03  0.11001455845E+03  0.00000000000E+00 0.  1.
          1   -1    0    0  502    0 -0.00000000000E+00 -0.00000000000E+00 -0.21556931042E+03  0.21556931042E+03  0.00000000000E+00 0. -1.
        -24    2    1    2    0    0 -0.18223005464E+02  0.93113984408E+02 -0.12584190311E+03  0.17693631372E+03  0.80423768341E+02 0.  0.
         23    2    1    2    0    0  0.23212883110E+02 -0.66529252105E+02  0.17118385999E+01  0.11583461400E+03  0.91922511290E+02 0.  0.
         13    1    3    3    0    0 -0.20759521201E+02  0.49828861996E+02 -0.12253533118E+02  0.55353611284E+02  0.00000000000E+00 0. -1.
        -14    1    3    3    0    0  0.25365157369E+01  0.43285122412E+02 -0.11358836999E+03  0.12158270243E+03  0.00000000000E+00 0.  1.
        -11    1    4    4    0    0  0.50901649227E+02 -0.17743348415E+02  0.18966967984E+02  0.57144992620E+02  0.00000000000E+00 0. -1.
         11    1    4    4    0    0 -0.27688766118E+02 -0.48785903690E+02 -0.17255129385E+02  0.58689621383E+02  0.00000000000E+00 0.  1.
          2    1    1    2  501    0 -0.49898776458E+01 -0.26584732304E+02  0.18575312546E+02  0.32812941148E+02  0.00000000000E+00 0. -1.
<scales pt_clust_5="13000.00000" pt_clust_6="13000.00000" pt_clust_7="13000.00000" pt_clust_8="13000.00000" pt_clust_9="27.04897"></scales>
<clustering>
<clus scale="   27.049">  1  9  2 -1</clus>
<clus scale="   80.424">  5  6 -1 -1</clus>
<clus scale="   91.923">  7  8 -1 -1</clus>
<clus scale="  118.712">  2  5  1 -1</clus>
<clus scale="   27.049">  1  5  2 -1</clus>
</clustering>
</event>
<event>
 9    1  0.4731329E-005  0.9684834E+02  0.7546771E-02  0.1289444E+00
          1   -1    0    0  502    0 -0.00000000000E+00  0.00000000000E+00  0.24634595463E+03  0.24634595463E+03  0.00000000000E+00 0. -1.
         21   -1    0    0  501  502  0.00000000000E+00 -0.00000000000E+00 -0.64466080585E+03  0.64466080585E+03  0.00000000000E+00 0. -1.
         23    2    1    2    0    0  0.30732193980E+02 -0.19482732534E+02  0.22520803660E+03  0.24528222756E+03  0.90114742385E+02 0.  0.
        -24    2    1    2    0    0 -0.34164611953E+02 -0.39327268376E+02 -0.28441618693E+03  0.30153889655E+03  0.85552814072E+02 0.  0.
         11    1    4    4    0    0 -0.36482958383E+02 -0.64887483334E+02 -0.21596785596E+03  0.22843709539E+03  0.00000000000E+00 0. -1.
        -12    1    4    4    0    0  0.23183464295E+01  0.25560214957E+02 -0.68448330975E+02  0.73101801155E+02  0.00000000000E+00 0.  1.
        -13    1    3    3    0    0  0.16935109493E+02  0.30154567719E+02  0.39219916523E+02  0.52290512905E+02  0.00000000000E+00 0.  1.
         13    1    3    3    0    0  0.13797084487E+02 -0.49637300252E+02  0.18598812007E+03  0.19299171465E+03  0.00000000000E+00 0. -1.
          2    1    1    2  501    0  0.34324179734E+01  0.58810000910E+02 -0.33910670089E+03  0.34418563637E+03  0.00000000000E+00 0. -1.
<scales pt_clust_5="13000.00000" pt_clust_6="13000.00000" pt_clust_7="13000.00000" pt_clust_8="13000.00000" pt_clust_9="58.91008"></scales>
<clustering>
<clus scale="   58.910">  2  9  1 -1</clus>
<clus scale="   85.553">  5  6 -1 -1</clus>
<clus scale="   90.115">  7  8 -1 -1</clus>
<clus scale="   92.619">  2  5  1 -1</clus>
<clus scale="   58.910">  2  5  1 -1</clus>
</clustering>
</event>
<event>
 9    1  0.4731329E-005  0.1208275E+03  0.7546771E-02  0.1243761E+00
         -4   -1    0    0    0  501 -0.00000000000E+00  0.00000000000E+00  0.10311028520E+04  0.10311028520E+04  0.00000000000E+00 0.  1.
         21   -1    0    0  501  502  0.00000000000E+00 -0.00000000000E+00 -0.19255231302E+02  0.19255231302E+02  0.00000000000E+00 0.  1.
        -24    2    1    2    0    0 -0.72921948465E+02 -0.62938875651E+01  0.53357471438E+03  0.54467628882E+03  0.81320724256E+02 0.  0.
         23    2    1    2    0    0  0.10054584515E+03  0.57706475207E+00  0.42310977381E+03  0.44372428549E+03  0.88088369601E+02 0.  0.
         13    1    3    3    0    0 -0.75600169618E+02  0.77251759962E+01  0.26389280230E+03  0.27461696068E+03  0.00000000000E+00 0. -1.
        -14    1    3    3    0    0  0.26782211537E+01 -0.14019063561E+02  0.26968191208E+03  0.27005932814E+03  0.00000000000E+00 0.  1.
        -11    1    4    4    0    0  0.86038783556E+02  0.35103990638E+02  0.34176073910E+03  0.35416855483E+03  0.00000000000E+00 0. -1.
         11    1    4    4    0    0  0.14507061598E+02 -0.34526925886E+02  0.81349034711E+02  0.89555730669E+02  0.00000000000E+00 0.  1.
         -3    1    1    2    0  502 -0.27623896689E+02  0.57168228130E+01  0.55163132470E+02  0.61957508950E+02  0.00000000000E+00 0.  1.
<scales pt_clust_5="13000.00000" pt_clust_6="13000.00000" pt_clust_7="13000.00000" pt_clust_8="13000.00000" pt_clust_9="28.20925"></scales>
<clustering>
<clus scale="   28.209">  2  9  1 -1</clus>
<clus scale="   81.321">  5  6 -1 -1</clus>
<clus scale="   88.088">  7  8 -1 -1</clus>
<clus scale="  115.986">  1  5  2 -1</clus>
<clus scale="   28.209">  2  5  1 -1</clus>
</clustering>
</event>
<event>
 9    1  0.4731329E-005  0.2462463E+03  0.7546771E-02  0.1115925E+00
         21   -1    0    0  501  502  0.00000000000E+00  0.00000000000E+00  0.61816569895E+03  0.61816569895E+03  0.00000000000E+00 0. -1.
          3   -1    0    0  502    0 -0.00000000000E+00 -0.00000000000E+00 -0.25963035055E+03  0.25963035055E+03  0.00000000000E+00 0. -1.
         23    2    1    2    0    0  0.25716700872E+03 -0.43437371743E+02  0.12836543015E+03  0.30426680871E+03  0.89882877066E+02 0.  0.
        -24    2    1    2    0    0 -0.10340868976E+03  0.23667111027E+03  0.16983090187E+03  0.31932126441E+03  0.80105949342E+02 0.  0.
         11    1    4    4    0    0 -0.93061601085E+01  0.50191742728E+02  0.15186292286E+01  0.51069774708E+02  0.00000000000E+00 0. -1.
        -12    1    4    4    0    0 -0.94102529651E+02  0.18647936755E+03  0.16831227264E+03  0.26825148970E+03  0.00000000000E+00 0.  1.
        -13    1    3    3    0    0  0.96618205027E+02 -0.42347641217E+02  0.12408422082E+02  0.10621849744E+03  0.00000000000E+00 0. -1.
         13    1    3    3    0    0  0.16054880369E+03 -0.10897305268E+01  0.11595700806E+03  0.19804831127E+03  0.00000000000E+00 0.  1.
          4    1    1    2  501    0 -0.15375831896E+03 -0.19323373853E+03  0.60339016383E+02  0.25420797638E+03  0.00000000000E+00 0. -1.
<scales pt_clust_5="13000.00000" pt_clust_6="13000.00000" pt_clust_7="13000.00000" pt_clust_8="13000.00000" pt_clust_9="246.94323"></scales>
<clustering>
<clus scale="   80.106">  5  6 -1 -1</clus>
<clus scale="   89.883">  7  8 -1 -1</clus>
<clus scale="  246.943">  1  9  2 -1</clus>
<clus scale="  246.943">  1  5  2 -1</clus>
<clus scale="  246.246">  1  5  2 -1</clus>
</clustering>
</event>
<event>
 9    1  0.4731329E-005  0.1259553E+03  0.7546771E-02  0.1234390E+00
         21   -1    0    0  501  502  0.00000000000E+00  0.00000000000E+00  0.23125489346E+02  0.23125489346E+02  0.00000000000E+00 0. -1.
          1   -1    0    0  502    0 -0.00000000000E+00 -0.00000000000E+00 -0.91724022303E+03  0.91724022303E+03  0.00000000000E+00 0. -1.
         23    2    1    2    0    0 -0.97843636067E+02  0.94905637175E+01 -0.44059219719E+03  0.45957195291E+03  0.86147825064E+02 0.  0.
        -24    2    1    2    0    0  0.78651355165E+02 -0.41197874283E+02 -0.36838327651E+03  0.38793692999E+03  0.83099474842E+02 0.  0.
         13    1    4    4    0    0  0.66828711096E+02 -0.96927052632E+01 -0.12353213090E+03  0.14078427656E+03  0.00000000000E+00 0. -1.
        -14    1    4    4    0    0  0.11822644069E+02 -0.31505169020E+02 -0.24485114562E+03  0.24715265343E+03  0.00000000000E+00 0.  1.
        -13    1    3    3    0    0 -0.14022240730E+02 -0.33560756526E+02 -0.11456219763E+03  0.12019752385E+03  0.00000000000E+00 0. -1.
         13    1    3    3    0    0 -0.83821395337E+02  0.43051320243E+02 -0.32602999955E+03  0.33937442906E+03  0.00000000000E+00 0.  1.
          2    1    1    2  501    0  0.19192280903E+02  0.31707310565E+02 -0.85139259979E+02  0.92856829471E+02  0.00000000000E+00 0. -1.
<scales pt_clust_5="13000.00000" pt_clust_6="13000.00000" pt_clust_7="13000.00000" pt_clust_8="13000.00000" pt_clust_9="37.06342"></scales>
<clustering>
<clus scale="   37.063">  1  9  2 -1</clus>
<clus scale="   83.099">  5  6 -1 -1</clus>
<clus scale="   86.148">  7  8 -1 -1</clus>
<clus scale="  123.890">  1  5  2 -1</clus>
<clus scale="   37.063">  1  5  2 -1</clus>
</clustering>
</event>
<event>
 9    1  0.4731329E-005  0.1721246E+03  0.7546771E-02  0.1177092E+00
          1   -1    0    0  502    0 -0.00000000000E+00  0.00000000000E+00  0.13394028054E+04  0.13394028054E+04  0.00000000000E+00 0. -1.
         21   -1    0    0  501  502  0.00000000000E+00 -0.00000000000E+00 -0.30781050596E+02  0.30781050596E+02  0.00000000000E+00 0. -1.
         23    2    1    2    0    0 -0.15754606925E+03  0.14432277958E+01  0.79990226308E+03  0.82036549491E+03  0.91285639161E+02 0.  0.
        -24    2    1    2    0    0  0.12404271662E+03  0.14762049091E+02  0.26956596310E+03  0.30778634690E+03  0.80387270365E+02 0.  0.
         11    1    4    4    0    0  0.90235004141E+02 -0.25960370220E+02  0.14903741353E+03  0.17614893535E+03  0.00000000000E+00 0. -1.
        -12    1    4    4    0    0  0.33807712481E+02  0.40722419311E+02  0.12052854957E+03  0.13163741155E+03  0.00000000000E+00 0.  1.
        -13    1    3    3    0    0 -0.13227248307E+03  0.28134022533E+02  0.71755332594E+03  0.73018511939E+03  0.00000000000E+00 0. -1.
         13    1    3    3    0    0 -0.25273586180E+02 -0.26690794737E+02  0.82348937134E+02  0.90180375521E+02  0.00000000000E+00 0.  1.
          2    1    1    2  501    0  0.33503352627E+02 -0.16205276886E+02  0.23915352860E+03  0.24203201416E+03  0.00000000000E+00 0. -1.
<scales pt_clust_5="13000.00000" pt_clust_6="13000.00000" pt_clust_7="13000.00000" pt_clust_8="13000.00000" pt_clust_9="37.21676"></scales>
<clustering>
<clus scale="   37.217">  2  9  1 -1</clus>
<clus scale="   80.387">  5  6 -1 -1</clus>
<clus scale="   91.286">  7  8 -1 -1</clus>
<clus scale="  166.601">  2  5  1 -1</clus>
<clus scale="   37.217">  2  5  1 -1</clus>
</clustering>
</event>
<event>
 9    1  0.4731329E-005  0.1014928E+03  0.7546771E-02  0.1279924E+00
          1   -1    0    0  502    0 -0.00000000000E+00  0.00000000000E+00  0.72751401102E+02  0.72751401102E+02  0.00000000000E+00 0. -1.
         21   -1    0    0  501  502  0.00000000000E+00 -0.00000000000E+00 -0.20139553452E+03  0.20139553452E+03  0.00000000000E+00 0.  1.
        -24    2    1    2    0    0 -0.98098170781E+00 -0.46935238733E+02 -0.19904686010E+02  0.95087367043E+02  0.80259154531E+02 0.  0.
         23    2    1    2    0    0  0.28708230799E+02  0.62537467141E+02 -0.84059451746E+02  0.13879380074E+03  0.86386517381E+02 0.  0.
         13    1    3    3    0    0 -0.64215303392E+01 -0.47376223414E+02  0.22142001836E+02  0.52687862380E+02  0.00000000000E+00 0. -1.
        -14    1    3    3    0    0  0.54405486314E+01  0.44098468143E+00 -0.42046687845E+02  0.42399504663E+02  0.00000000000E+00 0.  1.
        -13    1    4    4    0    0  0.98620239933E+00  0.45922705529E+02  0.28977890255E+01  0.46024609282E+02  0.00000000000E+00 0. -1.
         13    1    4    4    0    0  0.27722028399E+02  0.16614761612E+02 -0.86957240772E+02  0.92769191463E+02  0.00000000000E+00 0.  1.
          2    1    1    2  501    0 -0.27727249091E+02 -0.15602228408E+02 -0.24679995662E+02  0.40265767835E+02  0.00000000000E+00 0. -1.
<scales pt_clust_5="13000.00000" pt_clust_6="13000.00000" pt_clust_7="13000.00000" pt_clust_8="13000.00000" pt_clust_9="31.81556"></scales>
<clustering>
<clus scale="   31.816">  2  9  1 -1</clus>
<clus scale="   80.259">  5  6 -1 -1</clus>
<clus scale="   86.387">  7  8 -1 -1</clus>
<clus scale="   96.331">  1  5  2 -1</clus>
<clus scale="   31.816">  2  5  1 -1</clus>
</clustering>
</event>
<event>
 9    1  0.4731329E-005  0.2498442E+03  0.7546771E-02  0.1114825E+00
         -4   -1    0    0    0  501 -0.00000000000E+00  0.00000000000E+00  0.49033620605E+03  0.49033620605E+03  0.00000000000E+00 0.  1.
         21   -1    0    0  501  502  0.00000000000E+00 -0.00000000000E+00 -0.17231874290E+03  0.17231874290E+03  0.00000000000E+00 0.  1.
         23    2    1    2    0    0  0.17919836824E+03  0.13316861793E+03  0.12341949753E+03  0.27582654780E+03  0.10489030516E+03 0.  0.
        -24    2    1    2    0    0 -0.15645190309E+03 -0.17320273807E+03  0.74587948546E+02  0.25828838152E+03  0.81689286352E+02 0.  0.
         13    1    4    4    0    0 -0.88704168234E+02 -0.12652223217E+03  0.83322336829E+02  0.17555317288E+03  0.00000000000E+00 0. -1.
        -14    1    4    4    0    0 -0.67747734855E+02 -0.46680505897E+02 -0.87343882834E+01  0.82735208633E+02  0.00000000000E+00 0.  1.
        -11    1    3    3    0    0  0.51336451680E+02 -0.39858727908E+01  0.57212496477E+02  0.76971346656E+02  0.00000000000E+00 0. -1.
         11    1    3    3    0    0  0.12786191656E+03  0.13715449072E+03  0.66207001054E+02  0.19885520114E+03  0.00000000000E+00 0.  1.
         -3    1    1    2    0  502 -0.22746465153E+02  0.40034120134E+02  0.12001001707E+03  0.12854001964E+03  0.00000000000E+00 0.  1.
<scales pt_clust_5="13000.00000" pt_clust_6="13000.00000" pt_clust_7="13000.00000" pt_clust_8="13000.00000" pt_clust_9="46.04492"></scales>
<clustering>
<clus scale="   46.045">  2  9  1 -1</clus>
<clus scale="   81.689">  5  6 -1 -1</clus>
<clus scale="  104.890">  7  8 -1 -1</clus>
<clus scale="  241.026">  2  5  1 -1</clus>
<clus scale="   46.045">  2  5  1 -1</clus>
</clustering>
</event>
<event>
 9    1  0.4731329E-005  0.1031154E+03  0.7546771E-02  0.1279005E+00
         21   -1    0    0  501  502  0.00000000000E+00  0.00000000000E+00  0.23143932425E+03  0.23143932425E+03  0.00000000000E+00 0. -1.
          1   -1    0    0  502    0 -0.00000000000E+00 -0.00000000000E+00 -0.14037201900E+03  0.14037201900E+03  0.00000000000E+00 0. -1.
        -24    2    1    2    0    0  0.36355559590E+02  0.43846983318E+02 -0.16845658830E+02  0.99317340625E+02  0.79598198901E+02 0.  0.
         23    2    1    2    0    0  0.57304106647E+02 -0.55669131087E+02 -0.10170208158E+02  0.12131354151E+03  0.90723367575E+02 0.  0.
         13    1    3    3    0    0  0.28889212207E+02  0.27167582444E+02  0.29547879769E+02  0.49454436774E+02  0.00000000000E+00 0. -1.
        -14    1    3    3    0    0  0.74663473824E+01  0.16679400875E+02 -0.46393538599E+02  0.49862903852E+02  0.00000000000E+00 0.  1.
        -11    1    4    4    0    0  0.79955707966E+02 -0.56588937262E+02 -0.11362062634E+02  0.98611964406E+02  0.00000000000E+00 0. -1.
         11    1    4    4    0    0 -0.22651601319E+02  0.91980617481E+00  0.11918544762E+01  0.22701577100E+02  0.00000000000E+00 0.  1.
          2    1    1    2  501    0 -0.93659666236E+02  0.11822147769E+02  0.11808317224E+03  0.15118046112E+03  0.00000000000E+00 0. -1.
<scales pt_clust_5="13000.00000" pt_clust_6="13000.00000" pt_clust_7="13000.00000" pt_clust_8="13000.00000" pt_clust_9="94.40284"></scales>
<clustering>
<clus scale="   79.598">  5  6 -1 -1</clus>
<clus scale="   90.723">  7  8 -1 -1</clus>
<clus scale="   94.403">  1  9  2 -1</clus>
<clus scale="   93.477">  2  5  1 -1</clus>
<clus scale="   94.403">  1  5  2 -1</clus>
</clustering>
</event>
<event>
 9    1  0.4731329E-005  0.1219069E+03  0.7546771E-02  0.1244298E+00
         -2   -1    0    0    0  501 -0.00000000000E+00  0.00000000000E+00  0.14901829227E+03  0.14901829227E+03  0.00000000000E+00 0.  1.
         21   -1    0    0  501  502  0.00000000000E+00 -0.00000000000E+00 -0.22106804475E+03  0.22106804475E+03  0.00000000000E+00 0.  1.
         23    2    1    2    0    0  0.11669783353E+02 -0.68336322982E+02 -0.49912740750E+02  0.12604872282E+03  0.92687442267E+02 0.  0.
        -24    2    1    2    0    0  0.49144245281E+02  0.90874768052E+02 -0.83744011115E+02  0.15458511307E+03  0.78804298568E+02 0.  0.
         11    1    4    4    0    0  0.18565909481E+02 -0.10390038407E+02 -0.27537264663E+02  0.34798661440E+02  0.00000000000E+00 0. -1.
        -12    1    4    4    0    0  0.30578335800E+02  0.10126480646E+03 -0.56206746452E+02  0.11978645163E+03  0.00000000000E+00 0.  1.
        -11    1    3    3    0    0 -0.23055382939E+02  0.12795264803E+02 -0.43297586204E+01  0.26721083315E+02  0.00000000000E+00 0. -1.
         11    1    3    3    0    0  0.34725166292E+02 -0.81131587785E+02 -0.45582982129E+02  0.99327639508E+02  0.00000000000E+00 0.  1.
         -1    1    1    2    0  502 -0.60814028634E+02 -0.22538445070E+02  0.61606999385E+02  0.89452501128E+02  0.00000000000E+00 0.  1.
<scales pt_clust_5="13000.00000" pt_clust_6="13000.00000" pt_clust_7="13000.00000" pt_clust_8="13000.00000" pt_clust_9="64.85624"></scales>
<clustering>
<clus scale="   64.856">  2  9  1 -1</clus>
<clus scale="   78.804">  5  6 -1 -1</clus>
<clus scale="   92.687">  7  8 -1 -1</clus>
<clus scale="  111.716">  2  5  1 -1</clus>
<clus scale="   64.856">  2  5  1 -1</clus>
</clustering>
</event>
<event>
 9    1  0.4731329E-005  0.9565946E+02  0.7546771E-02  0.1295056E+00
          1   -1    0    0  502    0 -0.00000000000E+00  0.00000000000E+00  0.48814418414E+03  0.48814418414E+03  0.00000000000E+00 0. -1.
         21   -1    0    0  501  502  0.00000000000E+00 -0.00000000000E+00 -0.22879380125E+02  0.22879380125E+02  0.00000000000E+00 0. -1.
        -24    2    1    2    0    0 -0.75613093578E+01 -0.30277475798E+02  0.22654813007E+03  0.24281423741E+03  0.81613722566E+02 0.  0.
         23    2    1    2    0    0  0.28078713428E+02  0.14996797982E+02  0.19268896757E+03  0.21554992372E+03  0.91210817862E+02 0.  0.
         11    1    3    3    0    0 -0.35071290060E+02 -0.43479322667E+02  0.12821122439E+03  0.13985193937E+03  0.00000000000E+00 0. -1.
        -12    1    3    3    0    0  0.27509980702E+02  0.13201846869E+02  0.98336905681E+02  0.10296229804E+03  0.00000000000E+00 0.  1.
        -11    1    4    4    0    0  0.50166254315E+02  0.33683459177E+02  0.86673588386E+02  0.10565765196E+03  0.00000000000E+00 0. -1.
         11    1    4    4    0    0 -0.22087540886E+02 -0.18686661195E+02  0.10601537918E+03  0.10989227176E+03  0.00000000000E+00 0.  1.
          2    1    1    2  501    0 -0.20517404070E+02  0.15280677815E+02  0.46027706371E+02  0.52659403130E+02  0.00000000000E+00 0. -1.
<scales pt_clust_5="13000.00000" pt_clust_6="13000.00000" pt_clust_7="13000.00000" pt_clust_8="13000.00000" pt_clust_9="25.58247"></scales>
<clustering>
<clus scale="   25.582">  2  9  1 -1</clus>
<clus scale="   81.614">  5  6 -1 -1</clus>
<clus scale="   86.557">  1  5  2 -1</clus>
<clus scale="   91.211">  7  8 -1 -1</clus>
<clus scale="   25.582">  2  5  1 -1</clus>
</clustering>
</event>
<event>
 9    1  0.4731329E-005  0.1235098E+03  0.7546771E-02  0.1239769E+00
         -2   -1    0    0    0  501 -0.00000000000E+00  0.00000000000E+00  0.81912480345E+03  0.81912480345E+03  0.00000000000E+00 0.  1.
         21   -1    0    0  501  502  0.00000000000E+00 -0.00000000000E+00 -0.59124654398E+02  0.59124654398E+02  0.00000000000E+00 0. -1.
        -24    2    1    2    0    0 -0.18812267872E+02 -0.83920431582E+02  0.72901957564E+03  0.73877484322E+03  0.83199681788E+02 0.  0.
         23    2    1    2    0    0  0.17685392531E+02  0.56895645103E+02  0.25599065848E+02  0.11189618907E+03  0.91189678233E+02 0.  0.
         11    1    3    3    0    0  0.19201057157E+02  0.74105822581E+01  0.11203280450E+03  0.11390762314E+03  0.00000000000E+00 0. -1.
        -12    1    3    3    0    0 -0.38013325029E+02 -0.91331013840E+02  0.61698677114E+03  0.62486722008E+03  0.00000000000E+00 0.  1.
        -13    1    4    4    0    0  0.39999556513E+02 -0.18310049927E+01  0.28271511039E+02  0.49016277266E+02  0.00000000000E+00 0.  1.
         13    1    4    4    0    0 -0.22314163982E+02  0.58726650096E+02 -0.26724451913E+01  0.62879911808E+02  0.00000000000E+00 0. -1.
         -1    1    1    2    0  502  0.11268753412E+01  0.27024786479E+02  0.53815075608E+01  0.27578425551E+02  0.00000000000E+00 0.  1.
<scales pt_clust_5="13000.00000" pt_clust_6="13000.00000" pt_clust_7="13000.00000" pt_clust_8="13000.00000" pt_clust_9="27.04827"></scales>
<clustering>
<clus scale="   27.048">  2  9  1 -1</clus>
<clus scale="   83.200">  5  6 -1 -1</clus>
<clus scale="   91.190">  7  8 -1 -1</clus>
<clus scale="  117.734">  1  5  2 -1</clus>
<clus scale="   27.048">  2  5  1 -1</clus>
</clustering>
</event>
<event>
 9    1  0.4731329E-005  0.1197587E+03  0.7546771E-02  0.1251583E+00
         21   -1    0    0  501  502  0.00000000000E+00  0.00000000000E+00  0.11152463322E+04  0.11152463322E+04  0.00000000000E+00 0. -1.
          1   -1    0    0  502    0 -0.00000000000E+00 -0.00000000000E+00 -0.61607576361E+02  0.61607576361E+02  0.00000000000E+00 0. -1.
        -24    2    1    2    0    0 -0.55545611722E+02  0.25946141320E+02 -0.37754967079E+00  0.10182489765E+03  0.81299754042E+02 0.  0.
         23    2    1    2    0    0 -0.35962359315E+02  0.31845912533E+02  0.51218531764E+03  0.52249444215E+03  0.91428600803E+02 0.  0.
         13    1    3    3    0    0  0.39424052780E+01  0.39102380807E+02 -0.89291480950E+01  0.40302213709E+02  0.00000000000E+00 0. -1.
        -14    1    3    3    0    0 -0.59488017000E+02 -0.13156239487E+02  0.85515984242E+01  0.61522683944E+02  0.00000000000E+00 0.  1.
        -13    1    4    4    0    0 -0.66886085726E+02  0.22395586141E+02  0.32888599084E+03  0.33636484018E+03  0.00000000000E+00 0. -1.
         13    1    4    4    0    0  0.30923726411E+02  0.94503263922E+01  0.18329932680E+03  0.18612960197E+03  0.00000000000E+00 0.  1.
          2    1    1    2  501    0  0.91507971037E+02 -0.57792053853E+02  0.54183098790E+03  0.55253456879E+03  0.00000000000E+00 0. -1.
<scales pt_clust_5="13000.00000" pt_clust_6="13000.00000" pt_clust_7="13000.00000" pt_clust_8="13000.00000" pt_clust_9="77.34961"></scales>
<clustering>
<clus scale="   81.300">  5  6 -1 -1</clus>
<clus scale="   91.429">  7  8 -1 -1</clus>
<clus scale="  101.824">  2  5  1 -1</clus>
<clus scale="   77.350">  1  9  2 -1</clus>
<clus scale="   77.350">  1  5  2 -1</clus>
</clustering>
</event>
<event>
 9    1  0.4731329E-005  0.1425021E+03  0.7546771E-02  0.1212496E+00
         -2   -1    0    0    0  501 -0.00000000000E+00  0.00000000000E+00  0.99162314210E+03  0.99162314210E+03  0.00000000000E+00 0.  1.
         21   -1    0    0  501  502  0.00000000000E+00 -0.00000000000E+00 -0.26470035942E+02  0.26470035942E+02  0.00000000000E+00 0.  1.
        -24    2    1    2    0    0 -0.38664982624E+02 -0.98848103436E+02  0.55089269270E+03  0.56664448137E+03  0.79607040933E+02 0.  0.
         23    2    1    2    0    0  0.16309348423E+02  0.11543207410E+03  0.37571400127E+03  0.40390263105E+03  0.91573828344E+02 0.  0.
         13    1    3    3    0    0 -0.28817373791E+02 -0.98303149840E+02  0.33005866789E+03  0.34559032763E+03  0.00000000000E+00 0. -1.
        -14    1    3    3    0    0 -0.98476088333E+01 -0.54495359588E+00  0.22083402481E+03  0.22105415374E+03  0.00000000000E+00 0.  1.
        -11    1    4    4    0    0  0.42660689495E+02  0.66666150742E+02  0.13153755206E+03  0.15351364007E+03  0.00000000000E+00 0. -1.
         11    1    4    4    0    0 -0.26351341072E+02  0.48765923360E+02  0.24417644921E+03  0.25038899098E+03  0.00000000000E+00 0.  1.
         -1    1    1    2    0  502  0.22355634201E+02 -0.16583970665E+02  0.38546412180E+02  0.47546065616E+02  0.00000000000E+00 0.  1.
<scales pt_clust_5="13000.00000" pt_clust_6="13000.00000" pt_clust_7="13000.00000" pt_clust_8="13000.00000" pt_clust_9="27.83527"></scales>
<clustering>
<clus scale="   27.835">  2  9  1 -1</clus>
<clus scale="   79.607">  5  6 -1 -1</clus>
<clus scale="   91.574">  7  8 -1 -1</clus>
<clus scale="  135.124">  1  5  2 -1</clus>
<clus scale="   27.835">  2  5  1 -1</clus>
</clustering>
</event>
<event>
 9    1  0.4731329E-005  0.1546696E+03  0.7546771E-02  0.1198069E+00
          1   -1    0    0  502    0 -0.00000000000E+00  0.00000000000E+00  0.10314942977E+04  0.10314942977E+04  0.00000000000E+00 0. -1.
         21   -1    0    0  501  502  0.00000000000E+00 -0.00000000000E+00 -0.29260715633E+02  0.29260715633E+02  0.00000000000E+00 0. -1.
        -24    2    1    2    0    0  0.13799556077E+03 -0.17751040746E+02  0.58398611788E+03  0.60417356704E+03  0.68029692002E+02 0.  0.
         23    2    1    2    0    0 -0.11149735398E+03 -0.11793163311E+02  0.34405407886E+03  0.37244065130E+03  0.88136773906E+02 0.  0.
         13    1    3    3    0    0  0.13036061380E+03 -0.87779320213E+01  0.42209243880E+03  0.44185174958E+03  0.00000000000E+00 0. -1.
        -14    1    3    3    0    0  0.76349469735E+01 -0.89731087248E+01  0.16189367909E+03  0.16232181746E+03  0.00000000000E+00 0.  1.
        -13    1    4    4    0    0 -0.63989981481E+02 -0.13335906053E+02  0.30194365155E+03  0.30893774912E+03  0.00000000000E+00 0. -1.
         13    1    4    4    0    0 -0.47507372497E+02  0.15427427423E+01  0.42110427307E+02  0.63502902175E+02  0.00000000000E+00 0.  1.
          2    1    1    2  501    0 -0.26498206797E+02  0.29544204057E+02  0.74193385368E+02  0.84140795035E+02  0.00000000000E+00 0. -1.
<scales pt_clust_5="13000.00000" pt_clust_6="13000.00000" pt_clust_7="13000.00000" pt_clust_8="13000.00000" pt_clust_9="39.68646"></scales>
<clustering>
<clus scale="   39.686">  2  9  1 -1</clus>
<clus scale="   68.030">  5  6 -1 -1</clus>
<clus scale="   88.137">  7  8 -1 -1</clus>
<clus scale="  144.162">  1  5  2 -1</clus>
<clus scale="   39.686">  2  5  1 -1</clus>
</clustering>
</event>
<event>
 9    1  0.4731329E-005  0.9499893E+02  0.7546771E-02  0.1297096E+00
         21   -1    0    0  501  502  0.00000000000E+00  0.00000000000E+00  0.10723928654E+03  0.10723928654E+03  0.00000000000E+00 0.  1.
          1   -1    0    0  502    0 -0.00000000000E+00 -0.00000000000E+00 -0.18207886123E+03  0.18207886123E+03  0.00000000000E+00 0. -1.
         23    2    1    2    0    0 -0.38233948944E+00  0.33248246795E+01 -0.12633769919E+03  0.15806061469E+03  0.94924933684E+02 0.  0.
        -24    2    1    2    0    0 -0.23319626248E+02  0.13916394360E+02  0.49077446396E+02  0.10184830841E+03  0.85011829647E+02 0.  0.
         11    1    4    4    0    0 -0.34346566423E+02 -0.28667786072E+02  0.30215928480E+02  0.53986395668E+02  0.00000000000E+00 0. -1.
        -12    1    4    4    0    0  0.11026940175E+02  0.42584180433E+02  0.18861517916E+02  0.47861912737E+02  0.00000000000E+00 0.  1.
        -11    1    3    3    0    0  0.25875031770E+02  0.36097269961E+02 -0.31824853569E+02  0.54638369965E+02  0.00000000000E+00 0.  1.
         11    1    3    3    0    0 -0.26257371259E+02 -0.32772445282E+02 -0.94512845625E+02  0.10342224472E+03  0.00000000000E+00 0. -1.
          2    1    1    2  501    0  0.23701965738E+02 -0.17241219040E+02  0.24206781112E+01  0.29409224681E+02  0.00000000000E+00 0. -1.
<scales pt_clust_5="13000.00000" pt_clust_6="13000.00000" pt_clust_7="13000.00000" pt_clust_8="13000.00000" pt_clust_9="29.30943"></scales>
<clustering>
<clus scale="   29.309">  1  9  2 -1</clus>
<clus scale="   85.012">  5  6 -1 -1</clus>
<clus scale="   85.094">  1  5  2 -1</clus>
<clus scale="   94.925">  7  8 -1 -1</clus>
<clus scale="   29.309">  1  5  2 -1</clus>
</clustering>
</event>
<event>
 9    1  0.4731329E-005  0.1082904E+03  0.7546771E-02  0.1269511E+00
          1   -1    0    0  502    0 -0.00000000000E+00  0.00000000000E+00  0.28764806916E+03  0.28764806916E+03  0.00000000000E+00 0. -1.
         21   -1    0    0  501  502  0.00000000000E+00 -0.00000000000E+00 -0.10484525992E+03  0.10484525992E+03  0.00000000000E+00 0. -1.
        -24    2    1    2    0    0  0.34653332960E+02  0.80751361478E+02  0.16928010741E+03  0.20621882649E+03  0.78414372198E+02 0.  0.
         23    2    1    2    0    0 -0.52848256084E+01 -0.18848763763E+01  0.36088357959E+02  0.99144481746E+02  0.92172536799E+02 0.  0.
         13    1    3    3    0    0  0.35328712199E+02  0.28980175822E+01  0.81566185024E+02  0.88935701217E+02  0.00000000000E+00 0. -1.
        -14    1    3    3    0    0 -0.67537923905E+00  0.77853343896E+02  0.87713922389E+02  0.11728312527E+03  0.00000000000E+00 0.  1.
        -11    1    4    4    0    0  0.37062557912E+02  0.14670700938E+02 -0.18842894492E+01  0.39905052458E+02  0.00000000000E+00 0. -1.
         11    1    4    4    0    0 -0.42347383520E+02 -0.16555577314E+02  0.37972647408E+02  0.59239429288E+02  0.00000000000E+00 0.  1.
          2    1    1    2  501    0 -0.29368507351E+02 -0.78866485102E+02 -0.22565656130E+02  0.87130020848E+02  0.00000000000E+00 0. -1.
<scales pt_clust_5="13000.00000" pt_clust_6="13000.00000" pt_clust_7="13000.00000" pt_clust_8="13000.00000" pt_clust_9="84.15718"></scales>
<clustering>
<clus scale="   78.414">  5  6 -1 -1</clus>
<clus scale="   84.157">  2  9  1 -1</clus>
<clus scale="   92.173">  7  8 -1 -1</clus>
<clus scale="   96.850">  1  5  2 -1</clus>
<clus scale="   84.157">  2  5  1 -1</clus>
</clustering>
</event>
<event>
 9    1  0.4731329E-005  0.1234100E+03  0.7546771E-02  0.1239155E+00
          1   -1    0    0  502    0 -0.00000000000E+00  0.00000000000E+00  0.43242658641E+03  0.43242658641E+03  0.00000000000E+00 0. -1.
         21   -1    0    0  501  502  0.00000000000E+00 -0.00000000000E+00 -0.98163327750E+02  0.98163327750E+02  0.00000000000E+00 0. -1.
         23    2    1    2    0    0 -0.78040246500E+02 -0.62080399369E+02  0.21596929751E+03  0.25311059471E+03  0.86475312249E+02 0.  0.
        -24    2    1    2    0    0 -0.28384988785E+02  0.10270719791E+03  0.41211399010E+02  0.13993445822E+03  0.80800972136E+02 0.  0.
         11    1    4    4    0    0 -0.39620232544E+02  0.11066853741E+03  0.27965674027E+02  0.12082784001E+03  0.00000000000E+00 0. -1.
        -12    1    4    4    0    0  0.11235243759E+02 -0.79613394978E+01  0.13245724983E+02  0.19106618206E+02  0.00000000000E+00 0.  1.
        -11    1    3    3    0    0 -0.42416824229E+02 -0.76501894227E+02  0.11098600171E+03  0.14131390368E+03  0.00000000000E+00 0.  1.
         11    1    3    3    0    0 -0.35623422271E+02  0.14421494858E+02  0.10498329580E+03  0.11179669103E+03  0.00000000000E+00 0. -1.
          2    1    1    2  501    0  0.10642523528E+03 -0.40626798539E+02  0.77082562140E+02  0.13754486123E+03  0.00000000000E+00 0. -1.
<scales pt_clust_5="13000.00000" pt_clust_6="13000.00000" pt_clust_7="13000.00000" pt_clust_8="13000.00000" pt_clust_9="113.91605"></scales>
<clustering>
<clus scale="   80.801">  5  6 -1 -1</clus>
<clus scale="   86.475">  7  8 -1 -1</clus>
<clus scale="  113.916">  2  9  1 -1</clus>
<clus scale="  119.503">  2  5  1 -1</clus>
<clus scale="  113.916">  2  5  1 -1</clus>
</clustering>
</event>
<event>
 9    1  0.4731329E-005  0.5536118E+03  0.7546771E-02  0.1000781E+00
         21   -1    0    0  501  502  0.00000000000E+00  0.00000000000E+00  0.75551969254E+03  0.75551969254E+03  0.00000000000E+00 0. -1.
          1   -1    0    0  502    0 -0.00000000000E+00 -0.00000000000E+00 -0.86207532746E+03  0.86207532746E+03  0.00000000000E+00 0. -1.
        -24    2    1    2    0    0  0.21719732544E+03 -0.66291396744E+03 -0.43172274270E+03  0.82425917036E+03  0.79931514127E+02 0.  0.
         23    2    1    2    0    0 -0.56047861233E+02  0.34971163470E+03  0.11833411293E+03  0.38486952446E+03  0.93177241767E+02 0.  0.
         13    1    3    3    0    0  0.20695169013E+03 -0.59259775783E+03 -0.41084661380E+03  0.75019733717E+03  0.00000000000E+00 0. -1.
        -14    1    3    3    0    0  0.10245635309E+02 -0.70316209612E+02 -0.20876128904E+02  0.74061833187E+02  0.00000000000E+00 0.  1.
        -11    1    4    4    0    0 -0.41454697825E+01  0.87358064339E+02  0.72355909564E+02  0.11350768244E+03  0.00000000000E+00 0.  1.
         11    1    4    4    0    0 -0.51902391450E+02  0.26235357036E+03  0.45978203367E+02  0.27136184202E+03  0.00000000000E+00 0. -1.
          2    1    1    2  501    0 -0.16114946420E+03  0.31320233274E+03  0.20683299486E+03  0.40846632518E+03  0.00000000000E+00 0. -1.
<scales pt_clust_5="13000.00000" pt_clust_6="13000.00000" pt_clust_7="13000.00000" pt_clust_8="13000.00000" pt_clust_9="352.22841"></scales>
<clustering>
<clus scale="   79.932">  5  6 -1 -1</clus>
<clus scale="   93.177">  7  8 -1 -1</clus>
<clus scale="  352.228">  1  9  2 -1</clus>
<clus scale="  551.537">  2  5  1 -1</clus>
<clus scale="  352.228">  1  5  2 -1</clus>
</clustering>
</event>
<event>
 9    1  0.4731329E-005  0.1214328E+03  0.7546771E-02  0.1247436E+00
          1   -1    0    0  502    0 -0.00000000000E+00  0.00000000000E+00  0.55323932012E+03  0.55323932012E+03  0.00000000000E+00 0. -1.
         21   -1    0    0  501  502  0.00000000000E+00 -0.00000000000E+00 -0.53269067465E+02  0.53269067465E+02  0.00000000000E+00 0.  1.
         23    2    1    2    0    0  0.11657188725E+02 -0.58427568582E+02  0.15844949977E+03  0.19070017224E+03  0.87810255081E+02 0.  0.
        -24    2    1    2    0    0  0.86954013241E+02  0.15762989104E+02  0.11713678789E+03  0.16702598277E+03  0.79794608836E+02 0.  0.
         11    1    4    4    0    0 -0.58709930453E+01  0.25088651968E+02  0.24606844036E+02  0.35628721424E+02  0.00000000000E+00 0. -1.
        -12    1    4    4    0    0  0.92825006287E+02 -0.93256628643E+01  0.92529943852E+02  0.13139726135E+03  0.00000000000E+00 0.  1.
        -13    1    3    3    0    0 -0.51673082333E+01 -0.78551454995E+02  0.10574971876E+03  0.13183336138E+03  0.00000000000E+00 0.  1.
         13    1    3    3    0    0  0.16824496958E+02  0.20123886414E+02  0.52699781007E+02  0.58866810857E+02  0.00000000000E+00 0. -1.
          2    1    1    2  501    0 -0.98611201966E+02  0.42664579478E+02  0.22438396500E+03  0.24878223258E+03  0.00000000000E+00 0. -1.
<scales pt_clust_5="13000.00000" pt_clust_6="13000.00000" pt_clust_7="13000.00000" pt_clust_8="13000.00000" pt_clust_9="91.53555"></scales>
<clustering>
<clus scale="   79.795">  5  6 -1 -1</clus>
<clus scale="   87.810">  7  8 -1 -1</clus>
<clus scale="  106.115">  1  7  2 -1</clus>
<clus scale="   91.536">  2  9  1 -1</clus>
<clus scale="   91.536">  2  5  1 -1</clus>
</clustering>
</event>
<event>
 9    1  0.4731329E-005  0.9155583E+02  0.7546771E-02  0.1302925E+00
         21   -1    0    0  501  502  0.00000000000E+00  0.00000000000E+00  0.96168670588E+02  0.96168670588E+02  0.00000000000E+00 0. -1.
          1   -1    0    0  502    0 -0.00000000000E+00 -0.00000000000E+00 -0.15071921373E+03  0.15071921373E+03  0.00000000000E+00 0. -1.
         23    2    1    2    0    0 -0.16939334104E+01 -0.28763458756E+01 -0.31137897307E+02  0.94340893660E+02  0.88991532135E+02 0.  0.
        -24    2    1    2    0    0 -0.43417169165E+02 -0.11206750021E+02 -0.40416400221E+02  0.10232276514E+03  0.82618527188E+02 0.  0.
         11    1    4    4    0    0 -0.45410835238E+02  0.24656364422E+02 -0.50562480600E+01  0.51919610052E+02  0.00000000000E+00 0. -1.
        -12    1    4    4    0    0  0.19936660737E+01 -0.35863114443E+02 -0.35360152161E+02  0.50403155088E+02  0.00000000000E+00 0.  1.
        -11    1    3    3    0    0  0.29271829162E+02  0.23774816126E+02  0.71113002298E+01  0.38375154140E+02  0.00000000000E+00 0.  1.
         11    1    3    3    0    0 -0.30965762573E+02 -0.26651162002E+02 -0.38249197536E+02  0.55965739519E+02  0.00000000000E+00 0. -1.
          2    1    1    2  501    0  0.45111102575E+02  0.14083095896E+02  0.17003754387E+02  0.50224225517E+02  0.00000000000E+00 0. -1.
<scales pt_clust_5="13000.00000" pt_clust_6="13000.00000" pt_clust_7="13000.00000" pt_clust_8="13000.00000" pt_clust_9="47.25828"></scales>
<clustering>
<clus scale="   47.258">  1  9  2 -1</clus>
<clus scale="   82.619">  5  6 -1 -1</clus>
<clus scale="   85.374">  1  5  2 -1</clus>
<clus scale="   88.992">  7  8 -1 -1</clus>
<clus scale="   47.258">  1  5  2 -1</clus>
</clustering>
</event>
<event>
 9    1  0.4731329E-005  0.1159177E+03  0.7546771E-02  0.1253371E+00
         21   -1    0    0  501  502  0.00000000000E+00  0.00000000000E+00  0.22623133623E+03  0.22623133623E+03  0.00000000000E+00 0. -1.
         -2   -1    0    0    0  501 -0.00000000000E+00 -0.00000000000E+00 -0.90487570733E+02  0.90487570733E+02  0.00000000000E+00 0.  1.
         23    2    1    2    0    0  0.49281090491E+01 -0.55948927333E+02  0.42800855509E+02  0.11454199900E+03  0.90185295780E+02 0.  0.
        -24    2    1    2    0    0 -0.10439209746E+02  0.99041725752E+02  0.93996878711E+02  0.15872035084E+03  0.80240239429E+02 0.  0.
         11    1    4    4    0    0 -0.10080228804E+02  0.11206868567E+03  0.92386396002E+02  0.14558931103E+03  0.00000000000E+00 0. -1.
        -12    1    4    4    0    0 -0.35898094185E+00 -0.13026959915E+02  0.16104827081E+01  0.13131039811E+02  0.00000000000E+00 0.  1.
        -11    1    3    3    0    0  0.47562535948E+02 -0.26851069376E+02  0.21271470148E+02  0.58614419683E+02  0.00000000000E+00 0. -1.
         11    1    3    3    0    0 -0.42634426899E+02 -0.29097857956E+02  0.21529385360E+02  0.55927579321E+02  0.00000000000E+00 0.  1.
         -1    1    1    2    0  502  0.55111006972E+01 -0.43092798420E+02 -0.10539687228E+01  0.43456557119E+02  0.00000000000E+00 0.  1.
<scales pt_clust_5="13000.00000" pt_clust_6="13000.00000" pt_clust_7="13000.00000" pt_clust_8="13000.00000" pt_clust_9="43.44380"></scales>
<clustering>
<clus scale="   43.444">  1  9  2 -1</clus>
<clus scale="   80.240">  5  6 -1 -1</clus>
<clus scale="   90.185">  7  8 -1 -1</clus>
<clus scale="  108.361">  1  5  2 -1</clus>
<clus scale="   43.444">  1  5  2 -1</clus>
</clustering>
</event>
<event>
 9    1  0.4731329E-005  0.1306378E+03  0.7546771E-02  0.1233654E+00
         -4   -1    0    0    0  501 -0.00000000000E+00  0.00000000000E+00  0.21477971960E+03  0.21477971960E+03  0.00000000000E+00 0.  1.
         21   -1    0    0  501  502  0.00000000000E+00 -0.00000000000E+00 -0.25928415326E+03  0.25928415326E+03  0.00000000000E+00 0. -1.
         23    2    1    2    0    0  0.49920353411E+02  0.43533345915E+02  0.43614365367E+02  0.12087058260E+03  0.91215629034E+02 0.  0.
        -24    2    1    2    0    0 -0.51083167079E+02  0.84507150958E+02 -0.16081408373E+03  0.20595088674E+03  0.82484239121E+02 0.  0.
         13    1    4    4    0    0 -0.38199346824E+02  0.50842418245E+02 -0.15737880803E+03  0.16974165902E+03  0.00000000000E+00 0. -1.
        -14    1    4    4    0    0 -0.12883820254E+02  0.33664732713E+02 -0.34352756973E+01  0.36209227720E+02  0.00000000000E+00 0.  1.
        -11    1    3    3    0    0 -0.23360768830E+02  0.23731837432E+02  0.27690073547E+02  0.43308957518E+02  0.00000000000E+00 0.  1.
         11    1    3    3    0    0  0.73281122241E+02  0.19801508484E+02  0.15924291820E+02  0.77561625081E+02  0.00000000000E+00 0. -1.
         -3    1    1    2    0  502  0.11628136681E+01 -0.12804049687E+03  0.72695284702E+02  0.14724240352E+03  0.00000000000E+00 0.  1.
<scales pt_clust_5="13000.00000" pt_clust_6="13000.00000" pt_clust_7="13000.00000" pt_clust_8="13000.00000" pt_clust_9="101.30442"></scales>
<clustering>
<clus scale="   82.484">  5  6 -1 -1</clus>
<clus scale="   91.216">  7  8 -1 -1</clus>
<clus scale="  112.727">  1  7  2 -1</clus>
<clus scale="  101.304">  2  9  1 -1</clus>
<clus scale="  101.304">  2  5  1 -1</clus>
</clustering>
</event>
<event>
 9    1  0.4731329E-005  0.3837311E+03  0.7546771E-02  0.1050050E+00
          1   -1    0    0  502    0 -0.00000000000E+00  0.00000000000E+00  0.55864072799E+03  0.55864072799E+03  0.00000000000E+00 0. -1.
         21   -1    0    0  501  502  0.00000000000E+00 -0.00000000000E+00 -0.82041492818E+03  0.82041492818E+03  0.00000000000E+00 0.  1.
         23    2    1    2    0    0 -0.27430722777E+03  0.21440921929E+03  0.27612767160E+03  0.45607662915E+03  0.10268218982E+03 0.  0.
        -24    2    1    2    0    0  0.29252354351E+03 -0.32741752521E+03 -0.83203689905E+02  0.45409402196E+03  0.80661437166E+02 0.  0.
         11    1    4    4    0    0  0.12868219475E+03 -0.15953759840E+03 -0.78447434952E+02  0.21946606253E+03  0.00000000000E+00 0. -1.
        -12    1    4    4    0    0  0.16384134876E+03 -0.16787992680E+03 -0.47562549531E+01  0.23462795944E+03  0.00000000000E+00 0.  1.
        -13    1    3    3    0    0 -0.84096087291E+02  0.66854099521E+02  0.14942204937E+03  0.18403415813E+03  0.00000000000E+00 0.  1.
         13    1    3    3    0    0 -0.19021114048E+03  0.14755511977E+03  0.12670562224E+03  0.27204247102E+03  0.00000000000E+00 0. -1.
          2    1    1    2  501    0 -0.18216315739E+02  0.11300830592E+03 -0.45469818188E+03  0.46888500506E+03  0.00000000000E+00 0. -1.
<scales pt_clust_5="13000.00000" pt_clust_6="13000.00000" pt_clust_7="13000.00000" pt_clust_8="13000.00000" pt_clust_9="114.46708"></scales>
<clustering>
<clus scale="   80.661">  5  6 -1 -1</clus>
<clus scale="  102.682">  7  8 -1 -1</clus>
<clus scale="  114.467">  2  9  1 -1</clus>
<clus scale="  378.434">  2  5  1 -1</clus>
<clus scale="  114.467">  2  5  1 -1</clus>
</clustering>
</event>
<event>
 9    1  0.4731329E-005  0.1066770E+03  0.7546771E-02  0.1273205E+00
         21   -1    0    0  501  502  0.00000000000E+00  0.00000000000E+00  0.11088432692E+03  0.11088432692E+03  0.00000000000E+00 0. -1.
          1   -1    0    0  502    0 -0.00000000000E+00 -0.00000000000E+00 -0.30379762666E+03  0.30379762666E+03  0.00000000000E+00 0. -1.
         23    2    1    2    0    0 -0.52692065176E+02  0.77266128642E+01 -0.25205807401E+03  0.27403937247E+03  0.93424572311E+02 0.  0.
        -24    2    1    2    0    0  0.43736538276E+02  0.22797420415E+02  0.31073903989E+02  0.98217449089E+02  0.79047281032E+02 0.  0.
         11    1    4    4    0    0  0.14288028206E+02  0.41806994250E+02 -0.88831921341E+01  0.45065326146E+02  0.00000000000E+00 0. -1.
        -12    1    4    4    0    0  0.29448510070E+02 -0.19009573835E+02  0.39957096123E+02  0.53152122943E+02  0.00000000000E+00 0.  1.
        -11    1    3    3    0    0  0.21307742306E+01 -0.27009530356E+02 -0.15455172292E+03  0.15690854019E+03  0.00000000000E+00 0.  1.
         11    1    3    3    0    0 -0.54822839407E+02  0.34736143221E+02 -0.97506351089E+02  0.11713083227E+03  0.00000000000E+00 0. -1.
          2    1    1    2  501    0  0.89555269006E+01 -0.30524033279E+02  0.28070870278E+02  0.42425132031E+02  0.00000000000E+00 0. -1.
<scales pt_clust_5="13000.00000" pt_clust_6="13000.00000" pt_clust_7="13000.00000" pt_clust_8="13000.00000" pt_clust_9="31.81066"></scales>
<clustering>
<clus scale="   31.811">  1  9  2 -1</clus>
<clus scale="   79.047">  5  6 -1 -1</clus>
<clus scale="   93.425">  7  8 -1 -1</clus>
<clus scale="   94.341">  1  5  2 -1</clus>
<clus scale="   31.811">  1  5  2 -1</clus>
</clustering>
</event>
<event>
 9    1  0.4731329E-005  0.1048937E+03  0.7546771E-02  0.1277155E+00
          1   -1    0    0  502    0 -0.00000000000E+00  0.00000000000E+00  0.51940893417E+03  0.51940893417E+03  0.00000000000E+00 0. -1.
         21   -1    0    0  501  502  0.00000000000E+00 -0.00000000000E+00 -0.43862547972E+02  0.43862547972E+02  0.00000000000E+00 0. -1.
         23    2    1    2    0    0  0.52244099688E+02  0.13858941182E+02  0.38186535672E+03  0.39721361734E+03  0.95057829437E+02 0.  0.
        -24    2    1    2    0    0 -0.91704669910E+01  0.36381643783E+01  0.28632016389E+02  0.86102498246E+02  0.80600956178E+02 0.  0.
         13    1    4    4    0    0 -0.45034798124E+02 -0.38252480558E+00  0.17755937813E+02  0.48410254026E+02  0.00000000000E+00 0. -1.
        -14    1    4    4    0    0  0.35864331133E+02  0.40206891839E+01  0.10876078576E+02  0.37692244220E+02  0.00000000000E+00 0.  1.
        -11    1    3    3    0    0 -0.17734293473E+02  0.15700651427E+02  0.28864379855E+02  0.37338559756E+02  0.00000000000E+00 0.  1.
         11    1    3    3    0    0  0.69978393162E+02 -0.18417102453E+01  0.35300097686E+03  0.35987505759E+03  0.00000000000E+00 0. -1.
          2    1    1    2  501    0 -0.43073632697E+02 -0.17497105560E+02  0.65049013091E+02  0.79955366554E+02  0.00000000000E+00 0. -1.
<scales pt_clust_5="13000.00000" pt_clust_6="13000.00000" pt_clust_7="13000.00000" pt_clust_8="13000.00000" pt_clust_9="46.49179"></scales>
<clustering>
<clus scale="   46.492">  2  9  1 -1</clus>
<clus scale="   80.601">  5  6 -1 -1</clus>
<clus scale="   91.996">  2  5  1 -1</clus>
<clus scale="   95.058">  7  8 -1 -1</clus>
<clus scale="   46.492">  2  5  1 -1</clus>
</clustering>
</event>
<event>
 9    1  0.4731329E-005  0.9884942E+02  0.7546771E-02  0.1285329E+00
         21   -1    0    0  501  502  0.00000000000E+00  0.00000000000E+00  0.20351023815E+02  0.20351023815E+02  0.00000000000E+00 0.  1.
          1   -1    0    0  502    0 -0.00000000000E+00 -0.00000000000E+00 -0.63737328062E+03  0.63737328062E+03  0.00000000000E+00 0. -1.
        -24    2    1    2    0    0  0.16071798958E+02  0.44318920342E+02 -0.35524715478E+03  0.36847662405E+03  0.85743874801E+02 0.  0.
         23    2    1    2    0    0  0.59187493573E+01 -0.27562632217E+02 -0.19564179740E+03  0.21756803622E+03  0.90914284955E+02 0.  0.
         11    1    3    3    0    0  0.39761202150E+02  0.58101863654E+02 -0.25105606681E+03  0.26074111382E+03  0.00000000000E+00 0. -1.
        -12    1    3    3    0    0 -0.23689403192E+02 -0.13782943312E+02 -0.10419108798E+03  0.10773551023E+03  0.00000000000E+00 0.  1.
        -11    1    4    4    0    0 -0.25245009341E+02 -0.39237828775E+02 -0.50895674285E+02  0.69045545580E+02  0.00000000000E+00 0.  1.
         11    1    4    4    0    0  0.31163758698E+02  0.11675196558E+02 -0.14474612311E+03  0.14852249064E+03  0.00000000000E+00 0. -1.
          2    1    1    2  501    0 -0.21990548315E+02 -0.16756288124E+02 -0.66133304628E+02  0.71679644167E+02  0.00000000000E+00 0. -1.
<scales pt_clust_5="13000.00000" pt_clust_6="13000.00000" pt_clust_7="13000.00000" pt_clust_8="13000.00000" pt_clust_9="27.64701"></scales>
<clustering>
<clus scale="   27.647">  1  9  2 -1</clus>
<clus scale="   85.744">  5  6 -1 -1</clus>
<clus scale="   90.914">  7  8 -1 -1</clus>
<clus scale="   94.116">  2  5  1 -1</clus>
<clus scale="   27.647">  1  5  2 -1</clus>
</clustering>
</event>
<event>
 9    1  0.4731329E-005  0.1195006E+03  0.7546771E-02  0.1248531E+00
          1   -1    0    0  502    0 -0.00000000000E+00  0.00000000000E+00  0.24764267328E+03  0.24764267328E+03  0.00000000000E+00 0. -1.
         21   -1    0    0  501  502  0.00000000000E+00 -0.00000000000E+00 -0.83964923983E+02  0.83964923983E+02  0.00000000000E+00 0. -1.
        -24    2    1    2    0    0 -0.34317401988E+02 -0.59590579404E+02  0.12198738932E+03  0.16223327894E+03  0.81914543330E+02 0.  0.
         23    2    1    2    0    0  0.18752886919E+02  0.77410107879E+02  0.61285406506E+02  0.13865371330E+03  0.95524633434E+02 0.  0.
         11    1    3    3    0    0 -0.15115233101E+02  0.19908418676E+02  0.32538242742E+02  0.41031118028E+02  0.00000000000E+00 0. -1.
        -12    1    3    3    0    0 -0.19202168887E+02 -0.79498998080E+02  0.89449146576E+02  0.12120216091E+03  0.00000000000E+00 0.  1.
        -11    1    4    4    0    0 -0.68005151479E+01  0.40787148358E+02  0.80140656903E+02  0.90179617244E+02  0.00000000000E+00 0. -1.
         11    1    4    4    0    0  0.25553402067E+02  0.36622959521E+02 -0.18855250397E+02  0.48474096060E+02  0.00000000000E+00 0.  1.
          2    1    1    2  501    0  0.15564515069E+02 -0.17819528475E+02 -0.19595046529E+02  0.30720605022E+02  0.00000000000E+00 0. -1.
<scales pt_clust_5="13000.00000" pt_clust_6="13000.00000" pt_clust_7="13000.00000" pt_clust_8="13000.00000" pt_clust_9="23.65988"></scales>
<clustering>
<clus scale="   23.660">  2  9  1 -1</clus>
<clus scale="   81.915">  5  6 -1 -1</clus>
<clus scale="   95.525">  7  8 -1 -1</clus>
<clus scale="  108.929">  1  5  2 -1</clus>
<clus scale="   23.660">  2  5  1 -1</clus>
</clustering>
</event>
<event>
 9    1  0.4731329E-005  0.1856321E+03  0.7546771E-02  0.1184774E+00
         21   -1    0    0  501  502  0.00000000000E+00  0.00000000000E+00  0.10091936952E+03  0.10091936952E+03  0.00000000000E+00 0. -1.
          1   -1    0    0  502    0 -0.00000000000E+00 -0.00000000000E+00 -0.66638998067E+03  0.66638998067E+03  0.00000000000E+00 0. -1.
        -24    2    1    2    0    0 -0.11197058296E+02 -0.78361291618E+02 -0.38082911581E+02  0.11809248372E+03  0.78928197869E+02 0.  0.
         23    2    1    2    0    0  0.12785191449E+03  0.13255050100E+03 -0.16084132682E+03  0.26075699819E+03  0.90600951086E+02 0.  0.
         13    1    3    3    0    0 -0.22154861425E+02 -0.85439810353E+02 -0.49112799023E+02  0.10100923772E+03  0.00000000000E+00 0. -1.
        -14    1    3    3    0    0  0.10957803128E+02  0.70785187344E+01  0.11029887442E+02  0.17083245999E+02  0.00000000000E+00 0.  1.
        -11    1    4    4    0    0  0.13797625682E+03  0.11307697260E+03 -0.15859016969E+03  0.23869371819E+03  0.00000000000E+00 0. -1.
         11    1    4    4    0    0 -0.10124342334E+02  0.19473528401E+02 -0.22511571293E+01  0.22063280003E+02  0.00000000000E+00 0.  1.
          2    1    1    2  501    0 -0.11665485619E+03 -0.54189209382E+02 -0.36654637275E+03  0.38845986827E+03  0.00000000000E+00 0. -1.
<scales pt_clust_5="13000.00000" pt_clust_6="13000.00000" pt_clust_7="13000.00000" pt_clust_8="13000.00000" pt_clust_9="162.02092"></scales>
<clustering>
<clus scale="   78.928">  5  6 -1 -1</clus>
<clus scale="   90.601">  7  8 -1 -1</clus>
<clus scale="  111.783">  2  5  1 -1</clus>
<clus scale="  162.021">  1  9  2 -1</clus>
<clus scale="  162.021">  1  5  2 -1</clus>
</clustering>
</event>
<event>
 9    1  0.4731329E-005  0.1026891E+03  0.7546771E-02  0.1278934E+00
          3   -1    0    0  502    0 -0.00000000000E+00  0.00000000000E+00  0.28964366928E+03  0.28964366928E+03  0.00000000000E+00 0. -1.
         21   -1    0    0  501  502  0.00000000000E+00 -0.00000000000E+00 -0.80060522139E+02  0.80060522139E+02  0.00000000000E+00 0.  1.
         23    2    1    2    0    0 -0.38761463621E+02 -0.21684475302E+02  0.98169364488E+02  0.14062873898E+03  0.90368969069E+02 0.  0.
        -24    2    1    2    0    0  0.69899586339E+02 -0.17559258860E+02  0.18854509057E+01  0.10863414386E+03  0.81262183983E+02 0.  0.
         13    1    4    4    0    0  0.35491144600E+02 -0.25307398892E+01  0.41086780813E+02  0.54352088708E+02  0.00000000000E+00 0. -1.
        -14    1    4    4    0    0  0.34408441740E+02 -0.15028518971E+02 -0.39201329907E+02  0.54282055155E+02  0.00000000000E+00 0.  1.
        -11    1    3    3    0    0  0.78088244886E+01  0.26058725551E+02  0.54491373214E+02  0.60904389595E+02  0.00000000000E+00 0.  1.
         11    1    3    3    0    0 -0.46570288110E+02 -0.47743200853E+02  0.43677991274E+02  0.79724349380E+02  0.00000000000E+00 0. -1.
          4    1    1    2  501    0 -0.31138122718E+02  0.39243734162E+02  0.10952833175E+03  0.12044130858E+03  0.00000000000E+00 0. -1.
<scales pt_clust_5="13000.00000" pt_clust_6="13000.00000" pt_clust_7="13000.00000" pt_clust_8="13000.00000" pt_clust_9="50.09647"></scales>
<clustering>
<clus scale="   50.096">  2  9  1 -1</clus>
<clus scale="   81.262">  5  6 -1 -1</clus>
<clus scale="   90.369">  7  8 -1 -1</clus>
<clus scale="   94.774">  2  5  1 -1</clus>
<clus scale="   50.096">  2  5  1 -1</clus>
</clustering>
</event>
<event>
 9    1  0.4731329E-005  0.1339655E+03  0.7546771E-02  0.1243126E+00
         21   -1    0    0  501  502  0.00000000000E+00  0.00000000000E+00  0.18405367285E+02  0.18405367285E+02  0.00000000000E+00 0. -1.
          1   -1    0    0  502    0 -0.00000000000E+00 -0.00000000000E+00 -0.14314739136E+04  0.14314739136E+04  0.00000000000E+00 0. -1.
        -24    2    1    2    0    0 -0.21012014451E+02 -0.25461064191E+02 -0.28716954113E+03  0.29982698381E+03  0.79624772094E+02 0.  0.
         23    2    1    2    0    0 -0.80853570160E+02 -0.13805070100E+02 -0.67817804983E+03  0.68921340929E+03  0.91442749830E+02 0.  0.
         13    1    3    3    0    0 -0.49296313823E+02 -0.27667723442E+02 -0.16530410684E+03  0.17470282544E+03  0.00000000000E+00 0. -1.
        -14    1    3    3    0    0  0.28284299372E+02  0.22066592516E+01 -0.12186543428E+03  0.12512415838E+03  0.00000000000E+00 0.  1.
        -11    1    4    4    0    0 -0.17600240442E+02 -0.47831796407E+02 -0.29103094998E+03  0.29546008708E+03  0.00000000000E+00 0. -1.
         11    1    4    4    0    0 -0.63253329718E+02  0.34026726307E+02 -0.38714709985E+03  0.39375332220E+03  0.00000000000E+00 0.  1.
          2    1    1    2  501    0  0.10186558461E+03  0.39266134290E+02 -0.44772095535E+03  0.46083888778E+03  0.00000000000E+00 0. -1.
<scales pt_clust_5="13000.00000" pt_clust_6="13000.00000" pt_clust_7="13000.00000" pt_clust_8="13000.00000" pt_clust_9="97.90296"></scales>
<clustering>
<clus scale="   79.625">  5  6 -1 -1</clus>
<clus scale="   86.197">  2  5  1 -1</clus>
<clus scale="   91.443">  7  8 -1 -1</clus>
<clus scale="   97.903">  1  9  2 -1</clus>
<clus scale="   97.903">  1  5  2 -1</clus>
</clustering>
</event>
<event>
 9    1  0.4731329E-005  0.2640302E+03  0.7546771E-02  0.1122431E+00
         21   -1    0    0  501  502  0.00000000000E+00  0.00000000000E+00  0.48713513584E+03  0.48713513584E+03  0.00000000000E+00 0. -1.
          1   -1    0    0  502    0 -0.00000000000E+00 -0.00000000000E+00 -0.26833453562E+03  0.26833453562E+03  0.00000000000E+00 0. -1.
         23    2    1    2    0    0  0.18629482719E+02  0.14039759327E+03  0.78648642075E+02  0.18619137472E+03  0.91777324543E+02 0.  0.
        -24    2    1    2    0    0  0.20806152996E+03  0.76238081442E+02  0.86671829190E+02  0.25119032937E+03  0.80515403998E+02 0.  0.
         11    1    4    4    0    0  0.20259102577E+03  0.79217221608E+02  0.62644645960E+02  0.22636882204E+03  0.00000000000E+00 0. -1.
        -12    1    4    4    0    0  0.54705041881E+01 -0.29791401656E+01  0.24027183230E+02  0.24821507331E+02  0.00000000000E+00 0.  1.
        -11    1    3    3    0    0  0.43732187955E+02  0.83968487281E+02  0.12173547985E+02  0.95453687148E+02  0.00000000000E+00 0.  1.
         11    1    3    3    0    0 -0.25102705236E+02  0.56429105986E+02  0.66475094090E+02  0.90737687577E+02  0.00000000000E+00 0. -1.
          2    1    1    2  501    0 -0.22669101268E+03 -0.21663567471E+03  0.53480128959E+02  0.31808796736E+03  0.00000000000E+00 0. -1.
<scales pt_clust_5="13000.00000" pt_clust_6="13000.00000" pt_clust_7="13000.00000" pt_clust_8="13000.00000" pt_clust_9="251.45431"></scales>
<clustering>
<clus scale="   80.515">  5  6 -1 -1</clus>
<clus scale="   91.777">  7  8 -1 -1</clus>
<clus scale="  168.765">  2  7  1 -1</clus>
<clus scale="  251.454">  1  9  2 -1</clus>
<clus scale="  251.454">  1  5  2 -1</clus>
</clustering>
</event>
<event>
 9    1  0.4731329E-005  0.1006554E+03  0.7546771E-02  0.1287877E+00
          3   -1    0    0  502    0 -0.00000000000E+00  0.00000000000E+00  0.86168123659E+03  0.86168123659E+03  0.00000000000E+00 0. -1.
         21   -1    0    0  501  502  0.00000000000E+00 -0.00000000000E+00 -0.15143395553E+02  0.15143395553E+02  0.00000000000E+00 0. -1.
        -24    2    1    2    0    0 -0.23919524028E+02  0.11648903962E+01  0.28578181583E+03  0.29674022095E+03  0.76223433899E+02 0.  0.
         23    2    1    2    0    0  0.57551207088E+02  0.79201528672E+01  0.36350717682E+03  0.37978279785E+03  0.93395051696E+02 0.  0.
         13    1    3    3    0    0  0.15819648317E+02 -0.25659263889E+02  0.14236922495E+03  0.14552544557E+03  0.00000000000E+00 0. -1.
        -14    1    3    3    0    0 -0.39739172345E+02  0.26824154285E+02  0.14341259088E+03  0.15121477538E+03  0.00000000000E+00 0.  1.
        -11    1    4    4    0    0  0.34917318088E+02 -0.34190144744E+02  0.92744524541E+02  0.10483192230E+03  0.00000000000E+00 0.  1.
         11    1    4    4    0    0  0.22633889000E+02  0.42110297611E+02  0.27076265228E+03  0.27495087555E+03  0.00000000000E+00 0. -1.
          4    1    1    2  501    0 -0.33631683060E+02 -0.90850432634E+01  0.19724884838E+03  0.20030161334E+03  0.00000000000E+00 0. -1.
<scales pt_clust_5="13000.00000" pt_clust_6="13000.00000" pt_clust_7="13000.00000" pt_clust_8="13000.00000" pt_clust_9="34.83718"></scales>
<clustering>
<clus scale="   34.837">  2  9  1 -1</clus>
<clus scale="   76.223">  5  6 -1 -1</clus>
<clus scale="   84.964">  1  5  2 -1</clus>
<clus scale="   93.395">  7  8 -1 -1</clus>
<clus scale="   34.837">  2  5  1 -1</clus>
</clustering>
</event>
<event>
 9    1  0.4731329E-005  0.9904338E+02  0.7546771E-02  0.1290993E+00
          1   -1    0    0  502    0 -0.00000000000E+00  0.00000000000E+00  0.39699023033E+03  0.39699023033E+03  0.00000000000E+00 0. -1.
         21   -1    0    0  501  502  0.00000000000E+00 -0.00000000000E+00 -0.14834850398E+03  0.14834850398E+03  0.00000000000E+00 0.  1.
         23    2    1    2    0    0 -0.21878352327E+02  0.61594619534E+01  0.35563466543E+03  0.36907146842E+03  0.96026726882E+02 0.  0.
        -24    2    1    2    0    0  0.49617884841E+02  0.21998552870E+02 -0.57295155637E+02  0.11276746161E+03  0.80547468702E+02 0.  0.
         11    1    4    4    0    0  0.27329827017E+02 -0.22893880445E+02  0.12812195848E+01  0.35674791242E+02  0.00000000000E+00 0. -1.
        -12    1    4    4    0    0  0.22288057825E+02  0.44892433315E+02 -0.58576375222E+02  0.77092670369E+02  0.00000000000E+00 0.  1.
        -13    1    3    3    0    0 -0.27651999113E+02  0.48547625424E+02  0.20590592421E+03  0.21335124704E+03  0.00000000000E+00 0.  1.
         13    1    3    3    0    0  0.57736467856E+01 -0.42388163471E+02  0.14972874122E+03  0.15572022138E+03  0.00000000000E+00 0. -1.
          2    1    1    2  501    0 -0.27739532514E+02 -0.28158014824E+02 -0.49697783444E+02  0.63499804269E+02  0.00000000000E+00 0. -1.
<scales pt_clust_5="13000.00000" pt_clust_6="13000.00000" pt_clust_7="13000.00000" pt_clust_8="13000.00000" pt_clust_9="39.52664"></scales>
<clustering>
<clus scale="   39.527">  2  9  1 -1</clus>
<clus scale="   80.547">  5  6 -1 -1</clus>
<clus scale="   84.121">  2  5  1 -1</clus>
<clus scale="   96.027">  7  8 -1 -1</clus>
<clus scale="   39.527">  2  5  1 -1</clus>
</clustering>
</event>
<event>
 9    1  0.4731329E-005  0.1606772E+03  0.7546771E-02  0.1189493E+00
         21   -1    0    0  501  502  0.00000000000E+00  0.00000000000E+00  0.68368407158E+02  0.68368407158E+02  0.00000000000E+00 0. -1.
          1   -1    0    0  502    0 -0.00000000000E+00 -0.00000000000E+00 -0.11577782817E+04  0.11577782817E+04  0.00000000000E+00 0. -1.
         23    2    1    2    0    0  0.13332448613E+03  0.71022583470E+02 -0.73004681338E+03  0.75104777664E+03  0.91020805910E+02 0.  0.
        -24    2    1    2    0    0 -0.12176502472E+03  0.63099875492E+02 -0.27012000156E+03  0.31358489167E+03  0.81008354588E+02 0.  0.
         11    1    4    4    0    0 -0.11012841876E+03  0.71638786526E+02 -0.18299351094E+03  0.22527096884E+03  0.00000000000E+00 0. -1.
        -12    1    4    4    0    0 -0.11636605955E+02 -0.85389110347E+01 -0.87126490613E+02  0.88313922834E+02  0.00000000000E+00 0.  1.
        -13    1    3    3    0    0  0.17094265691E+02 -0.21737442146E+02 -0.11281409560E+03  0.11615399467E+03  0.00000000000E+00 0.  1.
         13    1    3    3    0    0  0.11623022044E+03  0.92760025616E+02 -0.61723271778E+03  0.63489378198E+03  0.00000000000E+00 0. -1.
          2    1    1    2  501    0 -0.11559461415E+02 -0.13412245896E+03 -0.89243059624E+02  0.16151402056E+03  0.00000000000E+00 0. -1.
<scales pt_clust_5="13000.00000" pt_clust_6="13000.00000" pt_clust_7="13000.00000" pt_clust_8="13000.00000" pt_clust_9="134.61967"></scales>
<clustering>
<clus scale="   81.008">  5  6 -1 -1</clus>
<clus scale="   91.021">  7  8 -1 -1</clus>
<clus scale="  134.620">  1  9  2 -1</clus>
<clus scale="  155.225">  1  5  2 -1</clus>
<clus scale="  134.620">  1  5  2 -1</clus>
</clustering>
</event>
<event>
 9    1  0.4731329E-005  0.1940721E+03  0.7546771E-02  0.1155868E+00
         21   -1    0    0  501  502  0.00000000000E+00  0.00000000000E+00  0.15607760849E+03  0.15607760849E+03  0.00000000000E+00 0. -1.
          1   -1    0    0  502    0 -0.00000000000E+00 -0.00000000000E+00 -0.31908963556E+03  0.31908963556E+03  0.00000000000E+00 0. -1.
         23    2    1    2    0    0  0.17936619232E+03 -0.21480441449E+02 -0.13081895670E+03  0.24116667914E+03  0.91728552719E+02 0.  0.
        -24    2    1    2    0    0 -0.16072094638E+03 -0.47516898235E+01 -0.61514172671E+02  0.19046325967E+03  0.81476737075E+02 0.  0.
         11    1    4    4    0    0 -0.14399337881E+03  0.24650493160E+02 -0.45298617430E+02  0.15295000718E+03  0.00000000000E+00 0. -1.
        -12    1    4    4    0    0 -0.16727567567E+02 -0.29402182984E+02 -0.16215555241E+02  0.37513252494E+02  0.00000000000E+00 0.  1.
        -13    1    3    3    0    0  0.30537660337E+02  0.31110586125E+02 -0.39382177350E+02  0.58748388580E+02  0.00000000000E+00 0.  1.
         13    1    3    3    0    0  0.14882853199E+03 -0.52591027574E+02 -0.91436779347E+02  0.18241829056E+03  0.00000000000E+00 0. -1.
          2    1    1    2  501    0 -0.18645245945E+02  0.26232131272E+02  0.29321102303E+02  0.43537305242E+02  0.00000000000E+00 0. -1.
<scales pt_clust_5="13000.00000" pt_clust_6="13000.00000" pt_clust_7="13000.00000" pt_clust_8="13000.00000" pt_clust_9="32.18338"></scales>
<clustering>
<clus scale="   32.183">  1  9  2 -1</clus>
<clus scale="   81.477">  5  6 -1 -1</clus>
<clus scale="   91.729">  7  8 -1 -1</clus>
<clus scale="  189.442">  1  5  2 -1</clus>
<clus scale="   32.183">  1  5  2 -1</clus>
</clustering>
</event>
<event>
 9    1  0.4731329E-005  0.1064521E+03  0.7546771E-02  0.1272071E+00
         21   -1    0    0  501  502  0.00000000000E+00  0.00000000000E+00  0.62327864683E+03  0.62327864683E+03  0.00000000000E+00 0. -1.
          1   -1    0    0  502    0 -0.00000000000E+00 -0.00000000000E+00 -0.26616290991E+02  0.26616290991E+02  0.00000000000E+00 0. -1.
         23    2    1    2    0    0 -0.35809300228E-01 -0.39829540043E+02  0.19565421099E+03  0.22014895559E+03  0.92728630019E+02 0.  0.
        -24    2    1    2    0    0 -0.33587002938E+02  0.66804150391E+02  0.30527739463E+03  0.32475788937E+03  0.81746668185E+02 0.  0.
         13    1    4    4    0    0 -0.43183574087E+02  0.80434938451E+02  0.22592429007E+03  0.24367270105E+03  0.00000000000E+00 0. -1.
        -14    1    4    4    0    0  0.95965711494E+01 -0.13630788060E+02  0.79353104561E+02  0.81085188317E+02  0.00000000000E+00 0.  1.
        -11    1    3    3    0    0  0.30860021047E+02 -0.10428775025E+02  0.16356197614E+03  0.16677415953E+03  0.00000000000E+00 0.  1.
         11    1    3    3    0    0 -0.30895830347E+02 -0.29400765018E+02  0.32092234848E+02  0.53374796056E+02  0.00000000000E+00 0. -1.
          2    1    1    2  501    0  0.33622812238E+02 -0.26974610348E+02  0.95730750217E+02  0.10498809286E+03  0.00000000000E+00 0. -1.
<scales pt_clust_5="13000.00000" pt_clust_6="13000.00000" pt_clust_7="13000.00000" pt_clust_8="13000.00000" pt_clust_9="43.10597"></scales>
<clustering>
<clus scale="   43.106">  1  9  2 -1</clus>
<clus scale="   81.747">  5  6 -1 -1</clus>
<clus scale="   92.729">  7  8 -1 -1</clus>
<clus scale="   97.036">  1  5  2 -1</clus>
<clus scale="   43.106">  1  5  2 -1</clus>
</clustering>
</event>
<event>
 9    1  0.4731329E-005  0.9461643E+02  0.7546771E-02  0.1299098E+00
         21   -1    0    0  501  502  0.00000000000E+00  0.00000000000E+00  0.39262366698E+03  0.39262366698E+03  0.00000000000E+00 0. -1.
          1   -1    0    0  502    0 -0.00000000000E+00 -0.00000000000E+00 -0.51752820007E+02  0.51752820007E+02  0.00000000000E+00 0. -1.
        -24    2    1    2    0    0 -0.17688945045E+02  0.25588619607E+01  0.77039879424E+01  0.82134884859E+02  0.79795622244E+02 0.  0.
         23    2    1    2    0    0  0.44902050825E+02  0.50209626593E+00  0.18309888813E+03  0.20969548293E+03  0.91818007268E+02 0.  0.
         13    1    3    3    0    0  0.25688118056E+02 -0.77766840600E+01 -0.16392258814E+02  0.31449362049E+02  0.00000000000E+00 0. -1.
        -14    1    3    3    0    0 -0.43377063101E+02  0.10335546021E+02  0.24096246756E+02  0.50685522811E+02  0.00000000000E+00 0.  1.
        -13    1    4    4    0    0 -0.16587404617E+02  0.14170484633E+02  0.11451450108E+03  0.11657407767E+03  0.00000000000E+00 0.  1.
         13    1    4    4    0    0  0.61489455441E+02 -0.13668388367E+02  0.68584387045E+02  0.93121405259E+02  0.00000000000E+00 0. -1.
          2    1    1    2  501    0 -0.27213105779E+02 -0.30609582267E+01  0.15006797090E+03  0.15254611920E+03  0.00000000000E+00 0. -1.
<scales pt_clust_5="13000.00000" pt_clust_6="13000.00000" pt_clust_7="13000.00000" pt_clust_8="13000.00000" pt_clust_9="27.38471"></scales>
<clustering>
<clus scale="   27.385">  1  9  2 -1</clus>
<clus scale="   79.796">  5  6 -1 -1</clus>
<clus scale="   83.000">  2  5  1 -1</clus>
<clus scale="   91.818">  7  8 -1 -1</clus>
<clus scale="   27.385">  1  5  2 -1</clus>
</clustering>
</event>
<event>
 9    1  0.4731329E-005  0.1780248E+03  0.7546771E-02  0.1195661E+00
         21   -1    0    0  501  502  0.00000000000E+00  0.00000000000E+00  0.18512324172E+03  0.18512324172E+03  0.00000000000E+00 0. -1.
          1   -1    0    0  502    0 -0.00000000000E+00 -0.00000000000E+00 -0.31554856495E+03  0.31554856495E+03  0.00000000000E+00 0. -1.
         23    2    1    2    0    0 -0.30980942232E+01  0.45483256117E+02 -0.75629933153E+02  0.12509779718E+03  0.88607264357E+02 0.  0.
        -24    2    1    2    0    0 -0.15127719299E+03  0.30635830087E+02  0.40720319163E+02  0.17872611060E+03  0.80383673796E+02 0.  0.
         13    1    4    4    0    0 -0.13357384289E+03  0.51556251897E+02  0.46840309291E+02  0.15064538887E+03  0.00000000000E+00 0. -1.
        -14    1    4    4    0    0 -0.17703350099E+02 -0.20920421810E+02 -0.61199901277E+01  0.28080721725E+02  0.00000000000E+00 0.  1.
        -13    1    3    3    0    0  0.30672394350E+02  0.17318069693E+01  0.85568344639E+00  0.30733160018E+02  0.00000000000E+00 0. -1.
         13    1    3    3    0    0 -0.33770488573E+02  0.43751449147E+02 -0.76485616600E+02  0.94364637167E+02  0.00000000000E+00 0.  1.
          2    1    1    2  501    0  0.15437528721E+03 -0.76119086204E+02 -0.95515709238E+02  0.19684789889E+03  0.00000000000E+00 0. -1.
<scales pt_clust_5="13000.00000" pt_clust_6="13000.00000" pt_clust_7="13000.00000" pt_clust_8="13000.00000" pt_clust_9="158.84365"></scales>
<clustering>
<clus scale="   80.384">  5  6 -1 -1</clus>
<clus scale="   88.607">  7  8 -1 -1</clus>
<clus scale="   99.647">  2  7  1 -1</clus>
<clus scale="  158.844">  1  9  2 -1</clus>
<clus scale="  158.844">  1  5  2 -1</clus>
</clustering>
</event>
<event>
 9    1  0.4731329E-005  0.1667149E+03  0.7546771E-02  0.1182333E+00
         21   -1    0    0  501  502  0.00000000000E+00  0.00000000000E+00  0.97513349375E+02  0.97513349375E+02  0.00000000000E+00 0. -1.
         -4   -1    0    0    0  501 -0.00000000000E+00 -0.00000000000E+00 -0.35506092860E+03  0.35506092860E+03  0.00000000000E+00 0.  1.
        -24    2    1    2    0    0 -0.80219853024E+02 -0.10307250529E+03 -0.88984938621E+02  0.17945326846E+03  0.85005823884E+02 0.  0.
         23    2    1    2    0    0  0.98631738925E+02  0.11122579120E+03 -0.99435252065E+02  0.20112052716E+03  0.91992937434E+02 0.  0.
         13    1    3    3    0    0 -0.18688174726E+02 -0.81870000731E+02 -0.75635109401E+02  0.11301599298E+03  0.00000000000E+00 0. -1.
        -14    1    3    3    0    0 -0.61531678298E+02 -0.21202504558E+02 -0.13349829220E+02  0.66437275485E+02  0.00000000000E+00 0.  1.
        -11    1    4    4    0    0  0.11454399804E+03  0.98680498268E+02 -0.73217235123E+02  0.16798491523E+03  0.00000000000E+00 0.  1.
         11    1    4    4    0    0 -0.15912259120E+02  0.12545292936E+02 -0.26218016942E+02  0.33135611923E+02  0.00000000000E+00 0. -1.
         -3    1    1    2    0  502 -0.18411885901E+02 -0.81532859147E+01 -0.69127388543E+02  0.72000482363E+02  0.00000000000E+00 0.  1.
<scales pt_clust_5="13000.00000" pt_clust_6="13000.00000" pt_clust_7="13000.00000" pt_clust_8="13000.00000" pt_clust_9="20.13639"></scales>
<clustering>
<clus scale="   20.136">  1  9  2 -1</clus>
<clus scale="   85.006">  5  6 -1 -1</clus>
<clus scale="   91.993">  7  8 -1 -1</clus>
<clus scale="  162.964">  2  5  1 -1</clus>
<clus scale="   20.136">  1  5  2 -1</clus>
</clustering>
</event>
<event>
 9    1  0.4731329E-005  0.1422875E+03  0.7546771E-02  0.1221076E+00
          1   -1    0    0  502    0 -0.00000000000E+00  0.00000000000E+00  0.29691769079E+03  0.29691769079E+03  0.00000000000E+00 0. -1.
         21   -1    0    0  501  502  0.00000000000E+00 -0.00000000000E+00 -0.17643459238E+03  0.17643459238E+03  0.00000000000E+00 0. -1.
        -24    2    1    2    0    0  0.77796663262E+02  0.56457055269E+01  0.17114742849E+03  0.20522339245E+03  0.82103615784E+02 0.  0.
         23    2    1    2    0    0  0.17623359489E+02 -0.94072268131E+02 -0.15635918670E+02  0.13340239993E+03  0.91605370608E+02 0.  0.
         13    1    3    3    0    0  0.80131380429E+02  0.21609114798E+02  0.16984475463E+03  0.18903764875E+03  0.00000000000E+00 0. -1.
        -14    1    3    3    0    0 -0.23347171662E+01 -0.15963409271E+02  0.13026738599E+01  0.16185743696E+02  0.00000000000E+00 0.  1.
        -13    1    4    4    0    0 -0.23609558901E+02 -0.38405109561E+02 -0.39696657627E+02  0.60068197398E+02  0.00000000000E+00 0.  1.
         13    1    4    4    0    0  0.41232918390E+02 -0.55667158570E+02  0.24060738958E+02  0.73334202535E+02  0.00000000000E+00 0. -1.
          2    1    1    2  501    0 -0.95420022751E+02  0.88426562604E+02 -0.35028411411E+02  0.13472649079E+03  0.00000000000E+00 0. -1.
<scales pt_clust_5="13000.00000" pt_clust_6="13000.00000" pt_clust_7="13000.00000" pt_clust_8="13000.00000" pt_clust_9="108.87706"></scales>
<clustering>
<clus scale="   82.104">  5  6 -1 -1</clus>
<clus scale="   91.605">  7  8 -1 -1</clus>
<clus scale="  113.248">  1  5  2 -1</clus>
<clus scale="  108.877">  2  9  1 -1</clus>
<clus scale="  108.877">  2  5  1 -1</clus>
</clustering>
</event>
<event>
 9    1  0.4731329E-005  0.1093161E+03  0.7546771E-02  0.1266093E+00
         -2   -1    0    0    0  501 -0.00000000000E+00  0.00000000000E+00  0.59413178891E+03  0.59413178891E+03  0.00000000000E+00 0.  1.
         21   -1    0    0  501  502  0.00000000000E+00 -0.00000000000E+00 -0.71935124079E+02  0.71935124079E+02  0.00000000000E+00 0.  1.
         23    2    1    2    0    0 -0.32598535137E+02 -0.67608895267E+02  0.48982067070E+03  0.50378104356E+03  0.90760251172E+02 0.  0.
        -24    2    1    2    0    0  0.31457752500E+01  0.17559246637E+02  0.56293076075E+02  0.99480939685E+02  0.80058253180E+02 0.  0.
         11    1    4    4    0    0  0.24041154580E+02  0.38524530052E+02  0.13363797781E+02  0.47336113280E+02  0.00000000000E+00 0. -1.
        -12    1    4    4    0    0 -0.20895379330E+02 -0.20965283416E+02  0.42929278294E+02  0.52144826406E+02  0.00000000000E+00 0.  1.
        -13    1    3    3    0    0 -0.46978214526E+02  0.75371443591E+00  0.16668697446E+03  0.17318218205E+03  0.00000000000E+00 0. -1.
         13    1    3    3    0    0  0.14379679389E+02 -0.68362609702E+02  0.32313369624E+03  0.33059886151E+03  0.00000000000E+00 0.  1.
         -1    1    1    2    0  502  0.29452759887E+02  0.50049648630E+02 -0.23917081936E+02  0.62804929753E+02  0.00000000000E+00 0.  1.
<scales pt_clust_5="13000.00000" pt_clust_6="13000.00000" pt_clust_7="13000.00000" pt_clust_8="13000.00000" pt_clust_9="58.07265"></scales>
<clustering>
<clus scale="   58.073">  2  9  1 -1</clus>
<clus scale="   80.058">  5  6 -1 -1</clus>
<clus scale="   90.760">  7  8 -1 -1</clus>
<clus scale="  100.608">  2  5  1 -1</clus>
<clus scale="   58.073">  2  5  1 -1</clus>
</clustering>
</event>
<event>
 9    1  0.4731329E-005  0.1044576E+03  0.7546771E-02  0.1275020E+00
         21   -1    0    0  501  502  0.00000000000E+00  0.00000000000E+00  0.31504035878E+03  0.31504035878E+03  0.00000000000E+00 0. -1.
         -4   -1    0    0    0  501 -0.00000000000E+00 -0.00000000000E+00 -0.59630521768E+02  0.59630521768E+02  0.00000000000E+00 0.  1.
         23    2    1    2    0    0 -0.18935713950E+02 -0.41512020841E+02  0.22021509643E+02  0.10546800107E+03  0.92502666047E+02 0.  0.
        -24    2    1    2    0    0  0.39886082505E+02  0.41686548940E+02  0.13814612038E+03  0.17168351528E+03  0.84036961515E+02 0.  0.
         13    1    4    4    0    0  0.63808242952E+02  0.17283852641E+02  0.75729175686E+02  0.10052428304E+03  0.00000000000E+00 0. -1.
        -14    1    4    4    0    0 -0.23922160447E+02  0.24402696299E+02  0.62416944697E+02  0.71159232236E+02  0.00000000000E+00 0.  1.
        -11    1    3    3    0    0 -0.52037545478E+02 -0.36127128375E+02  0.31316447438E+02  0.70666791523E+02  0.00000000000E+00 0.  1.
         11    1    3    3    0    0  0.33101831528E+02 -0.53848924659E+01 -0.92949377944E+01  0.34801209548E+02  0.00000000000E+00 0. -1.
         -3    1    1    2    0  502 -0.20950368555E+02 -0.17452809897E+00  0.95242206989E+02  0.97519364204E+02  0.00000000000E+00 0.  1.
<scales pt_clust_5="13000.00000" pt_clust_6="13000.00000" pt_clust_7="13000.00000" pt_clust_8="13000.00000" pt_clust_9="20.95110"></scales>
<clustering>
<clus scale="   20.951">  1  9  2 -1</clus>
<clus scale="   84.037">  5  6 -1 -1</clus>
<clus scale="   92.503">  7  8 -1 -1</clus>
<clus scale="   97.040">  1  5  2 -1</clus>
<clus scale="   20.951">  1  5  2 -1</clus>
</clustering>
</event>
<event>
 9    1  0.4731329E-005  0.1276102E+03  0.7546771E-02  0.1235308E+00
         21   -1    0    0  501  502  0.00000000000E+00  0.00000000000E+00  0.66365345032E+02  0.66365345032E+02  0.00000000000E+00 0.  1.
          1   -1    0    0  502    0 -0.00000000000E+00 -0.00000000000E+00 -0.46014689740E+03  0.46014689740E+03  0.00000000000E+00 0. -1.
         23    2    1    2    0    0 -0.97471799996E+02  0.36402151098E+02 -0.28285911041E+03  0.31631339253E+03  0.96015715151E+02 0.  0.
        -24    2    1    2    0    0  0.24201967569E+02 -0.53601029627E+02 -0.44181600103E+02  0.10960754939E+03  0.81258817883E+02 0.  0.
         13    1    4    4    0    0  0.38650797733E+02  0.50057794183E+01 -0.99854808295E+01  0.40232472213E+02  0.00000000000E+00 0. -1.
        -14    1    4    4    0    0 -0.14448830164E+02 -0.58606809045E+02 -0.34196119274E+02  0.69375077175E+02  0.00000000000E+00 0.  1.
        -13    1    3    3    0    0 -0.45348792202E+02  0.66527442957E+02 -0.17886084360E+03  0.19614692196E+03  0.00000000000E+00 0. -1.
         13    1    3    3    0    0 -0.52123007793E+02 -0.30125291860E+02 -0.10399826681E+03  0.12016647057E+03  0.00000000000E+00 0.  1.
          2    1    1    2  501    0  0.73269832427E+02  0.17198878529E+02 -0.66740841852E+02  0.10059130051E+03  0.00000000000E+00 0. -1.
<scales pt_clust_5="13000.00000" pt_clust_6="13000.00000" pt_clust_7="13000.00000" pt_clust_8="13000.00000" pt_clust_9="75.26134"></scales>
<clustering>
<clus scale="   75.261">  1  9  2 -1</clus>
<clus scale="   81.259">  5  6 -1 -1</clus>
<clus scale="   96.016">  7  8 -1 -1</clus>
<clus scale="  116.912">  1  5  2 -1</clus>
<clus scale="   75.261">  1  5  2 -1</clus>
</clustering>
</event>
<event>
 9    1  0.4731329E-005  0.1512484E+03  0.7546771E-02  0.1201049E+00
          3   -1    0    0  502    0 -0.00000000000E+00  0.00000000000E+00  0.30000582508E+03  0.30000582508E+03  0.00000000000E+00 0. -1.
         21   -1    0    0  501  502  0.00000000000E+00 -0.00000000000E+00 -0.11502990602E+03  0.11502990602E+03  0.00000000000E+00 0. -1.
        -24    2    1    2    0    0 -0.13195527603E+03 -0.17850758743E+02  0.17807200240E+03  0.23647469761E+03  0.80497205593E+02 0.  0.
         23    2    1    2    0    0  0.95151422698E+02 -0.46952807662E+01  0.18755730500E+02  0.13380264871E+03  0.92062655144E+02 0.  0.
         13    1    3    3    0    0 -0.28285134766E+02 -0.36345542644E+02  0.81390265537E+02  0.93516964467E+02  0.00000000000E+00 0. -1.
        -14    1    3    3    0    0 -0.10367014126E+03  0.18494783901E+02  0.96681736867E+02  0.14295773314E+03  0.00000000000E+00 0.  1.
        -11    1    4    4    0    0  0.26843853599E+02  0.18404755562E+02  0.46315248840E+02  0.56607683034E+02  0.00000000000E+00 0.  1.
         11    1    4    4    0    0  0.68307569099E+02 -0.23100036328E+02 -0.27559518340E+02  0.77194965676E+02  0.00000000000E+00 0. -1.
          4    1    1    2  501    0  0.36803853330E+02  0.22546039509E+02 -0.11851813838E+02  0.44758384787E+02  0.00000000000E+00 0. -1.
<scales pt_clust_5="13000.00000" pt_clust_6="13000.00000" pt_clust_7="13000.00000" pt_clust_8="13000.00000" pt_clust_9="43.16072"></scales>
<clustering>
<clus scale="   43.161">  2  9  1 -1</clus>
<clus scale="   80.497">  5  6 -1 -1</clus>
<clus scale="   92.063">  7  8 -1 -1</clus>
<clus scale="  144.500">  1  5  2 -1</clus>
<clus scale="   43.161">  2  5  1 -1</clus>
</clustering>
</event>
<event>
 9    1  0.4731329E-005  0.1323013E+03  0.7546771E-02  0.1240610E+00
         21   -1    0    0  501  502  0.00000000000E+00  0.00000000000E+00  0.76558786151E+02  0.76558786151E+02  0.00000000000E+00 0. -1.
          1   -1    0    0  502    0 -0.00000000000E+00 -0.00000000000E+00 -0.24140614410E+03  0.24140614410E+03  0.00000000000E+00 0. -1.
         23    2    1    2    0    0 -0.11318161854E+02  0.41896815783E+02 -0.97094189590E+02  0.16238374202E+03  0.12271004059E+03 0.  0.
        -24    2    1    2    0    0 -0.11252559495E+02 -0.58660973428E+02 -0.22727697074E+02  0.10249854033E+03  0.80135339620E+02 0.  0.
         11    1    4    4    0    0 -0.18760607930E+02 -0.76911314380E+02 -0.23996851866E+02  0.82723392031E+02  0.00000000000E+00 0. -1.
        -12    1    4    4    0    0  0.75080484358E+01  0.18250340953E+02  0.12691547920E+01  0.19775148295E+02  0.00000000000E+00 0.  1.
        -11    1    3    3    0    0 -0.23178610988E+02  0.23891997690E+02 -0.12372194242E+03  0.12812179595E+03  0.00000000000E+00 0.  1.
         11    1    3    3    0    0  0.11860449134E+02  0.18004818092E+02  0.26627752830E+02  0.34261946077E+02  0.00000000000E+00 0. -1.
          2    1    1    2  501    0  0.22570721349E+02  0.16764157645E+02 -0.45025471290E+02  0.53082647905E+02  0.00000000000E+00 0. -1.
<scales pt_clust_5="13000.00000" pt_clust_6="13000.00000" pt_clust_7="13000.00000" pt_clust_8="13000.00000" pt_clust_9="28.11539"></scales>
<clustering>
<clus scale="   28.115">  1  9  2 -1</clus>
<clus scale="   80.135">  5  6 -1 -1</clus>
<clus scale="   94.168">  1  5  2 -1</clus>
<clus scale="  122.710">  7  8 -1 -1</clus>
<clus scale="   28.115">  1  5  2 -1</clus>
</clustering>
</event>
<event>
 9    1  0.4731329E-005  0.1406497E+03  0.7546771E-02  0.1232412E+00
         -4   -1    0    0    0  501 -0.00000000000E+00  0.00000000000E+00  0.42767139349E+03  0.42767139349E+03  0.00000000000E+00 0.  1.
         21   -1    0    0  501  502  0.00000000000E+00 -0.00000000000E+00 -0.17194004965E+03  0.17194004965E+03  0.00000000000E+00 0.  1.
         23    2    1    2    0    0  0.19297778944E+02 -0.49512288146E+01  0.25947353134E+03  0.27552315908E+03  0.90496291552E+02 0.  0.
        -24    2    1    2    0    0  0.81562118102E+02  0.64671790196E+02  0.10158000004E+03  0.16650647205E+03  0.81062255525E+02 0.  0.
         13    1    4    4    0    0  0.28264052683E+02 -0.17808540825E+02  0.30974583148E+02  0.45556839241E+02  0.00000000000E+00 0. -1.
        -14    1    4    4    0    0  0.53298065419E+02  0.82480331022E+02  0.70605416895E+02  0.12094963281E+03  0.00000000000E+00 0.  1.
        -11    1    3    3    0    0  0.10513541050E+02 -0.44143453954E+02  0.83600240339E+02  0.95121917859E+02  0.00000000000E+00 0. -1.
         11    1    3    3    0    0  0.87842378940E+01  0.39192225139E+02  0.17587329101E+03  0.18040124123E+03  0.00000000000E+00 0.  1.
         -3    1    1    2    0  502 -0.10085989705E+03 -0.59720561382E+02 -0.10532218755E+03  0.15758181200E+03  0.00000000000E+00 0.  1.
<scales pt_clust_5="13000.00000" pt_clust_6="13000.00000" pt_clust_7="13000.00000" pt_clust_8="13000.00000" pt_clust_9="114.94024"></scales>
<clustering>
<clus scale="   81.062">  5  6 -1 -1</clus>
<clus scale="   90.496">  7  8 -1 -1</clus>
<clus scale="   92.663">  1  7  2 -1</clus>
<clus scale="  114.940">  2  9  1 -1</clus>
<clus scale="  114.940">  2  5  1 -1</clus>
</clustering>
</event>
<event>
 9    1  0.4731329E-005  0.1886640E+03  0.7546771E-02  0.1191326E+00
         21   -1    0    0  501  502  0.00000000000E+00  0.00000000000E+00  0.75131196306E+03  0.75131196306E+03  0.00000000000E+00 0. -1.
          3   -1    0    0  502    0 -0.00000000000E+00 -0.00000000000E+00 -0.11919343247E+03  0.11919343247E+03  0.00000000000E+00 0. -1.
         23    2    1    2    0    0 -0.11192808916E+02  0.18277307229E+02 -0.43615509929E+02  0.10189041615E+03  0.89554482111E+02 0.  0.
        -24    2    1    2    0    0 -0.86871836102E+02  0.13156233333E+03  0.24504555845E+03  0.30218045978E+03  0.80064605765E+02 0.  0.
         11    1    4    4    0    0 -0.96562683821E+02  0.88165826507E+02  0.19946609658E+03  0.23850427366E+03  0.00000000000E+00 0. -1.
        -12    1    4    4    0    0  0.96908477186E+01  0.43396506821E+02  0.45579461872E+02  0.63676186116E+02  0.00000000000E+00 0.  1.
        -13    1    3    3    0    0  0.30775465838E+02  0.12597556553E+02  0.89013722742E+01  0.34424731764E+02  0.00000000000E+00 0.  1.
         13    1    3    3    0    0 -0.41968274753E+02  0.56797506752E+01 -0.52516882203E+02  0.67465684387E+02  0.00000000000E+00 0. -1.
          4    1    1    2  501    0  0.98064645018E+02 -0.14983964056E+03  0.43068848207E+03  0.46643451960E+03  0.00000000000E+00 0. -1.
<scales pt_clust_5="13000.00000" pt_clust_6="13000.00000" pt_clust_7="13000.00000" pt_clust_8="13000.00000" pt_clust_9="170.83259"></scales>
<clustering>
<clus scale="   80.065">  5  6 -1 -1</clus>
<clus scale="   89.554">  7  8 -1 -1</clus>
<clus scale="   92.083">  2  7  1 -1</clus>
<clus scale="  170.833">  1  9  2 -1</clus>
<clus scale="  170.833">  1  5  2 -1</clus>
</clustering>
</event>
<event>
 9    1  0.4731329E-005  0.1532770E+03  0.7546771E-02  0.1198283E+00
         21   -1    0    0  501  502  0.00000000000E+00  0.00000000000E+00  0.15580324525E+03  0.15580324525E+03  0.00000000000E+00 0. -1.
          1   -1    0    0  502    0 -0.00000000000E+00 -0.00000000000E+00 -0.27211544872E+03  0.27211544872E+03  0.00000000000E+00 0. -1.
         23    2    1    2    0    0 -0.21601876040E+02 -0.11273825065E+03 -0.14055697818E+03  0.20315857511E+03  0.91326821453E+02 0.  0.
        -24    2    1    2    0    0  0.12568017063E+02  0.15285660151E+03  0.44189146587E+02  0.17905595435E+03  0.81149605263E+02 0.  0.
         13    1    4    4    0    0  0.25348924749E+02  0.13889138198E+03  0.60941951797E+02  0.15377680404E+03  0.00000000000E+00 0. -1.
        -14    1    4    4    0    0 -0.12780907685E+02  0.13965219535E+02 -0.16752805209E+02  0.25279150308E+02  0.00000000000E+00 0.  1.
        -13    1    3    3    0    0 -0.19960290359E+02  0.72109330035E+01 -0.43630284486E+01  0.21666720177E+02  0.00000000000E+00 0.  1.
         13    1    3    3    0    0 -0.16415856814E+01 -0.11994918365E+03 -0.13619394973E+03  0.18149185493E+03  0.00000000000E+00 0. -1.
          2    1    1    2  501    0  0.90338589771E+01 -0.40118350860E+02 -0.19944371889E+02  0.45704164512E+02  0.00000000000E+00 0. -1.
<scales pt_clust_5="13000.00000" pt_clust_6="13000.00000" pt_clust_7="13000.00000" pt_clust_8="13000.00000" pt_clust_9="41.12292"></scales>
<clustering>
<clus scale="   41.123">  1  9  2 -1</clus>
<clus scale="   81.150">  5  6 -1 -1</clus>
<clus scale="   91.327">  7  8 -1 -1</clus>
<clus scale="  147.440">  1  5  2 -1</clus>
<clus scale="   41.123">  1  5  2 -1</clus>
</clustering>
</event>
<event>
 9    1  0.4731329E-005  0.1019936E+03  0.7546771E-02  0.1282493E+00
         21   -1    0    0  501  502  0.00000000000E+00  0.00000000000E+00  0.22883914753E+03  0.22883914753E+03  0.00000000000E+00 0. -1.
         -2   -1    0    0    0  501 -0.00000000000E+00 -0.00000000000E+00 -0.22620142021E+03  0.22620142021E+03  0.00000000000E+00 0.  1.
         23    2    1    2    0    0 -0.20419928463E+02 -0.32470999334E+02 -0.17906188188E+03  0.20546306851E+03  0.93169607185E+02 0.  0.
        -24    2    1    2    0    0  0.41193837726E+02  0.73756347820E+02  0.16142197792E+03  0.19910753156E+03  0.80310790428E+02 0.  0.
         11    1    4    4    0    0  0.24955083544E+02  0.87979128084E+00  0.98036708987E+02  0.10116682528E+03  0.00000000000E+00 0. -1.
        -12    1    4    4    0    0  0.16238754181E+02  0.72876556539E+02  0.63385268934E+02  0.97940706288E+02  0.00000000000E+00 0.  1.
        -13    1    3    3    0    0 -0.35312263632E+02 -0.57103220657E+02 -0.92910025323E+02  0.11462986774E+03  0.00000000000E+00 0.  1.
         13    1    3    3    0    0  0.14892335169E+02  0.24632221323E+02 -0.86151856560E+02  0.90833200774E+02  0.00000000000E+00 0. -1.
         -1    1    1    2    0  502 -0.20773909263E+02 -0.41285348486E+02  0.20277631275E+02  0.50469967662E+02  0.00000000000E+00 0.  1.
<scales pt_clust_5="13000.00000" pt_clust_6="13000.00000" pt_clust_7="13000.00000" pt_clust_8="13000.00000" pt_clust_9="46.21726"></scales>
<clustering>
<clus scale="   46.217">  1  9  2 -1</clus>
<clus scale="   80.311">  5  6 -1 -1</clus>
<clus scale="   90.399">  1  5  2 -1</clus>
<clus scale="   93.170">  7  8 -1 -1</clus>
<clus scale="   46.217">  1  5  2 -1</clus>
</clustering>
</event>
<event>
 9    1  0.4731329E-005  0.1104083E+03  0.7546771E-02  0.1263266E+00
         21   -1    0    0  501  502  0.00000000000E+00  0.00000000000E+00  0.10763933634E+02  0.10763933634E+02  0.00000000000E+00 0. -1.
          1   -1    0    0  502    0 -0.00000000000E+00 -0.00000000000E+00 -0.14962533870E+04  0.14962533870E+04  0.00000000000E+00 0. -1.
        -24    2    1    2    0    0  0.28974865596E+02  0.56392678597E+02 -0.86563125051E+03  0.87180453717E+03  0.81890244434E+02 0.  0.
         23    2    1    2    0    0 -0.50271064215E+01 -0.64699707471E+02 -0.45951453493E+03  0.47287796360E+03  0.90822005570E+02 0.  0.
         11    1    3    3    0    0  0.27368777976E+02  0.57009472462E+02 -0.32096341012E+03  0.32713397957E+03  0.00000000000E+00 0. -1.
        -12    1    3    3    0    0  0.16060876195E+01 -0.61679386503E+00 -0.54466784039E+03  0.54467055759E+03  0.00000000000E+00 0.  1.
        -11    1    4    4    0    0 -0.33962633472E+02 -0.70328688619E+02 -0.38299293806E+03  0.39087488474E+03  0.00000000000E+00 0. -1.
         11    1    4    4    0    0  0.28935527050E+02  0.56289811482E+01 -0.76521596873E+02  0.82003078859E+02  0.00000000000E+00 0.  1.
          2    1    1    2  501    0 -0.23947759174E+02  0.83070288739E+01 -0.16034366794E+03  0.16233481989E+03  0.00000000000E+00 0. -1.
<scales pt_clust_5="13000.00000" pt_clust_6="13000.00000" pt_clust_7="13000.00000" pt_clust_8="13000.00000" pt_clust_9="25.34763"></scales>
<clustering>
<clus scale="   25.348">  1  9  2 -1</clus>
<clus scale="   81.890">  5  6 -1 -1</clus>
<clus scale="   90.822">  7  8 -1 -1</clus>
<clus scale="  103.186">  2  5  1 -1</clus>
<clus scale="   25.348">  1  5  2 -1</clus>
</clustering>
</event>
<event>
 9    1  0.4731329E-005  0.1380267E+03  0.7546771E-02  0.1222469E+00
          3   -1    0    0  502    0 -0.00000000000E+00  0.00000000000E+00  0.14312974215E+03  0.14312974215E+03  0.00000000000E+00 0. -1.
         21   -1    0    0  501  502  0.00000000000E+00 -0.00000000000E+00 -0.37201926061E+03  0.37201926061E+03  0.00000000000E+00 0. -1.
         23    2    1    2    0    0 -0.76542425760E+02  0.15602909666E+02 -0.54550258443E+02  0.13226984236E+03  0.91746317471E+02 0.  0.
        -24    2    1    2    0    0 -0.18995230247E+02 -0.10944990801E+03 -0.20371476668E+03  0.24577473595E+03  0.81027239436E+02 0.  0.
         11    1    4    4    0    0  0.28957762080E+01 -0.11346630999E+03 -0.18316705688E+03  0.21548354867E+03  0.00000000000E+00 0. -1.
        -12    1    4    4    0    0 -0.21891006455E+02  0.40164019784E+01 -0.20547709800E+02  0.30291187274E+02  0.00000000000E+00 0.  1.
        -13    1    3    3    0    0 -0.59808153049E+02 -0.33546962792E+02 -0.30622683438E+02  0.75101016136E+02  0.00000000000E+00 0. -1.
         13    1    3    3    0    0 -0.16734272711E+02  0.49149872458E+02 -0.23927575004E+02  0.57168826220E+02  0.00000000000E+00 0.  1.
          4    1    1    2  501    0  0.95537656007E+02  0.93846998348E+02  0.29375506661E+02  0.13710442446E+03  0.00000000000E+00 0. -1.
<scales pt_clust_5="13000.00000" pt_clust_6="13000.00000" pt_clust_7="13000.00000" pt_clust_8="13000.00000" pt_clust_9="111.74061"></scales>
<clustering>
<clus scale="   81.027">  5  6 -1 -1</clus>
<clus scale="   91.746">  7  8 -1 -1</clus>
<clus scale="  120.497">  1  7  2 -1</clus>
<clus scale="  111.741">  2  9  1 -1</clus>
<clus scale="  111.741">  2  5  1 -1</clus>
</clustering>
</event>
<event>
 9    1  0.4731329E-005  0.1063881E+03  0.7546771E-02  0.1274211E+00
         21   -1    0    0  501  502  0.00000000000E+00  0.00000000000E+00  0.82028563212E+02  0.82028563212E+02  0.00000000000E+00 0.  1.
          1   -1    0    0  502    0 -0.00000000000E+00 -0.00000000000E+00 -0.23424082551E+03  0.23424082551E+03  0.00000000000E+00 0. -1.
         23    2    1    2    0    0 -0.65865355883E+02  0.24892272905E+02 -0.13813100039E+03  0.17918273055E+03  0.89824313550E+02 0.  0.
        -24    2    1    2    0    0  0.37747039452E+02  0.18184545807E+02 -0.77501057580E+01  0.85256786784E+02  0.73845371282E+02 0.  0.
         11    1    4    4    0    0 -0.82910768780E+01 -0.22174590308E+02 -0.26146159748E+01  0.23817863628E+02  0.00000000000E+00 0. -1.
        -12    1    4    4    0    0  0.46038116330E+02  0.40359136115E+02 -0.51354897831E+01  0.61438923155E+02  0.00000000000E+00 0.  1.
        -13    1    3    3    0    0 -0.53531346895E+02 -0.22323234680E+02 -0.42781127068E+02  0.72070498404E+02  0.00000000000E+00 0. -1.
         13    1    3    3    0    0 -0.12334008988E+02  0.47215507585E+02 -0.95349873319E+02  0.10711223215E+03  0.00000000000E+00 0.  1.
          2    1    1    2  501    0  0.28118316431E+02 -0.43076818711E+02 -0.63311561503E+01  0.51829871381E+02  0.00000000000E+00 0. -1.
<scales pt_clust_5="13000.00000" pt_clust_6="13000.00000" pt_clust_7="13000.00000" pt_clust_8="13000.00000" pt_clust_9="51.44173"></scales>
<clustering>
<clus scale="   51.442">  1  9  2 -1</clus>
<clus scale="   73.845">  5  6 -1 -1</clus>
<clus scale="   89.824">  7  8 -1 -1</clus>
<clus scale="   93.291">  1  5  2 -1</clus>
<clus scale="   51.442">  1  5  2 -1</clus>
</clustering>
</event>
<event>
 9    1  0.4731329E-005  0.1198475E+03  0.7546771E-02  0.1246143E+00
          3   -1    0    0  502    0 -0.00000000000E+00  0.00000000000E+00  0.57831775047E+03  0.57831775047E+03  0.00000000000E+00 0. -1.
         21   -1    0    0  501  502  0.00000000000E+00 -0.00000000000E+00 -0.80346521689E+02  0.80346521689E+02  0.00000000000E+00 0. -1.
         23    2    1    2    0    0 -0.82103362082E+02  0.53378226587E+02  0.16170224065E+03  0.20979629630E+03  0.90976228622E+02 0.  0.
        -24    2    1    2    0    0  0.56187094690E+02  0.32745848736E+02  0.42174742170E+01  0.10485167223E+03  0.82138942415E+02 0.  0.
         11    1    4    4    0    0  0.76288914822E+02  0.16594778196E+02 -0.28143502489E+01  0.78123656823E+02  0.00000000000E+00 0. -1.
        -12    1    4    4    0    0 -0.20101820131E+02  0.16151070540E+02  0.70318244660E+01  0.26728015405E+02  0.00000000000E+00 0.  1.
        -11    1    3    3    0    0 -0.43554830035E+01  0.55021179538E+02  0.56639363183E+02  0.79084245534E+02  0.00000000000E+00 0. -1.
         11    1    3    3    0    0 -0.77747879079E+02 -0.16429529513E+01  0.10506287746E+03  0.13071205077E+03  0.00000000000E+00 0.  1.
          4    1    1    2  501    0  0.25916267392E+02 -0.86124075323E+02  0.33205151392E+03  0.34401630363E+03  0.00000000000E+00 0. -1.
<scales pt_clust_5="13000.00000" pt_clust_6="13000.00000" pt_clust_7="13000.00000" pt_clust_8="13000.00000" pt_clust_9="89.93896"></scales>
<clustering>
<clus scale="   82.139">  5  6 -1 -1</clus>
<clus scale="   89.939">  2  9  1 -1</clus>
<clus scale="   90.976">  7  8 -1 -1</clus>
<clus scale="  113.285">  2  5  1 -1</clus>
<clus scale="   89.939">  2  5  1 -1</clus>
</clustering>
</event>
<event>
 9    1  0.4731329E-005  0.1067030E+03  0.7546771E-02  0.1271922E+00
          1   -1    0    0  502    0 -0.00000000000E+00  0.00000000000E+00  0.24917675765E+03  0.24917675765E+03  0.00000000000E+00 0. -1.
         21   -1    0    0  501  502  0.00000000000E+00 -0.00000000000E+00 -0.69438382397E+02  0.69438382397E+02  0.00000000000E+00 0. -1.
        -24    2    1    2    0    0  0.41329336135E+02 -0.16377834879E+02  0.82434395826E+02  0.12242893350E+03  0.78848377555E+02 0.  0.
         23    2    1    2    0    0 -0.62805071736E+02  0.52485854667E+02  0.47996847759E+02  0.13140820452E+03  0.90913018016E+02 0.  0.
         13    1    3    3    0    0  0.89220997049E+01 -0.43089451103E+02  0.61176790244E+02  0.75358505320E+02  0.00000000000E+00 0. -1.
        -14    1    3    3    0    0  0.32407236430E+02  0.26711616224E+02  0.21257605582E+02  0.47070428184E+02  0.00000000000E+00 0.  1.
        -13    1    4    4    0    0 -0.40931264622E+01  0.62568558429E+02  0.22635306842E+02  0.66662848003E+02  0.00000000000E+00 0.  1.
         13    1    4    4    0    0 -0.58711945273E+02 -0.10082703762E+02  0.25361540918E+02  0.64745356518E+02  0.00000000000E+00 0. -1.
          2    1    1    2  501    0  0.21475735600E+02 -0.36108019788E+02  0.49307131665E+02  0.64778002019E+02  0.00000000000E+00 0. -1.
<scales pt_clust_5="13000.00000" pt_clust_6="13000.00000" pt_clust_7="13000.00000" pt_clust_8="13000.00000" pt_clust_9="42.01188"></scales>
<clustering>
<clus scale="   42.012">  2  9  1 -1</clus>
<clus scale="   78.848">  5  6 -1 -1</clus>
<clus scale="   90.913">  7  8 -1 -1</clus>
<clus scale="   96.630">  1  5  2 -1</clus>
<clus scale="   42.012">  2  5  1 -1</clus>
</clustering>
</event>
<event>
 9    1  0.4731329E-005  0.9565987E+02  0.7546771E-02  0.1296839E+00
         21   -1    0    0  501  502  0.00000000000E+00  0.00000000000E+00  0.56901053223E+03  0.56901053223E+03  0.00000000000E+00 0. -1.
          1   -1    0    0  502    0 -0.00000000000E+00 -0.00000000000E+00 -0.31078949714E+02  0.31078949714E+02  0.00000000000E+00 0. -1.
         23    2    1    2    0    0 -0.19771129510E+01  0.25253742599E+02  0.85855792386E+02  0.12761552014E+03  0.90955172493E+02 0.  0.
        -24    2    1    2    0    0  0.27226298621E+02 -0.42400121024E+02  0.41029910813E+03  0.42073605666E+03  0.78322599805E+02 0.  0.
         13    1    4    4    0    0  0.21108956323E+02 -0.62992785649E+02  0.23784880797E+03  0.24695289942E+03  0.00000000000E+00 0. -1.
        -14    1    4    4    0    0  0.61173422978E+01  0.20592664624E+02  0.17245030016E+03  0.17378315724E+03  0.00000000000E+00 0.  1.
        -13    1    3    3    0    0  0.20558371481E+02  0.22633389085E+02  0.97452110599E+02  0.10213633437E+03  0.00000000000E+00 0. -1.
         13    1    3    3    0    0 -0.22535484432E+02  0.26203535141E+01 -0.11596318213E+02  0.25479185764E+02  0.00000000000E+00 0.  1.
          2    1    1    2  501    0 -0.25249185670E+02  0.17146378425E+02  0.41776682000E+02  0.51737905147E+02  0.00000000000E+00 0. -1.
<scales pt_clust_5="13000.00000" pt_clust_6="13000.00000" pt_clust_7="13000.00000" pt_clust_8="13000.00000" pt_clust_9="30.52082"></scales>
<clustering>
<clus scale="   30.521">  1  9  2 -1</clus>
<clus scale="   78.323">  5  6 -1 -1</clus>
<clus scale="   83.740">  1  5  2 -1</clus>
<clus scale="   90.955">  7  8 -1 -1</clus>
<clus scale="   30.521">  1  5  2 -1</clus>
</clustering>
</event>
<event>
 9    1  0.1341080E-004  0.9104175E+02  0.7546771E-02  0.1307198E+00
         21   -1    0    0  501  502  0.00000000000E+00  0.00000000000E+00  0.16503821256E+03  0.16503821256E+03  0.00000000000E+00 0.  1.
          1   -1    0    0  502    0 -0.00000000000E+00 -0.00000000000E+00 -0.46211847857E+03  0.46211847857E+03  0.00000000000E+00 0. -1.
        -24    2    1    2    0    0  0.33682237932E+01  0.95046390193E+00 -0.42019294965E+03  0.42779686912E+03  0.80223425358E+02 0.  0.
         23    2    1    2    0    0 -0.86964830713E+01  0.45899850298E+02  0.11047540349E+03  0.15054339919E+03  0.90972936560E+02 0.  0.
         11    1    3    3    0    0  0.40702076022E+02  0.58378184472E-01 -0.16836495437E+03  0.17321495392E+03  0.00000000000E+00 0. -1.
        -12    1    3    3    0    0 -0.37333852229E+02  0.89208571746E+00 -0.25182799528E+03  0.25458191520E+03  0.00000000000E+00 0.  1.
        -11    1    4    4    0    0 -0.17408794045E+02  0.66643108918E+02  0.10774428690E+03  0.12787963651E+03  0.00000000000E+00 0.  1.
         11    1    4    4    0    0  0.87123109740E+01 -0.20743258619E+02  0.27311165991E+01  0.22663762674E+02  0.00000000000E+00 0. -1.
          2    1    1    2  501    0  0.53282592781E+01 -0.46850314200E+02  0.12637280153E+02  0.48816422823E+02  0.00000000000E+00 0. -1.
<scales pt_clust_5="13000.00000" pt_clust_6="13000.00000" pt_clust_7="13000.00000" pt_clust_8="13000.00000" pt_clust_9="47.15233"></scales>
<clustering>
<clus scale="   47.152">  1  9  2 -1</clus>
<clus scale="   80.223">  5  6 -1 -1</clus>
<clus scale="   80.301">  2  5  1 -1</clus>
<clus scale="   90.973">  7  8 -1 -1</clus>
<clus scale="   47.152">  1  5  2 -1</clus>
</clustering>
</event>
<event>
 9    1  0.4731329E-005  0.1089855E+03  0.7546771E-02  0.1265902E+00
         21   -1    0    0  501  502  0.00000000000E+00  0.00000000000E+00  0.12037462227E+03  0.12037462227E+03  0.00000000000E+00 0.  1.
          1   -1    0    0  502    0 -0.00000000000E+00 -0.00000000000E+00 -0.26679829040E+03  0.26679829040E+03  0.00000000000E+00 0. -1.
         23    2    1    2    0    0  0.40263691475E+02  0.41912441699E+02 -0.21437468196E+03  0.24012308810E+03  0.91240207979E+02 0.  0.
        -24    2    1    2    0    0 -0.60487098892E+02 -0.37950070825E+02  0.51897227223E+02  0.12092683364E+03  0.82650347203E+02 0.  0.
         13    1    4    4    0    0 -0.38322134366E+02 -0.93829187850E+01 -0.17122709579E+02  0.43009444667E+02  0.00000000000E+00 0. -1.
        -14    1    4    4    0    0 -0.22164964527E+02 -0.28567152040E+02  0.69019936802E+02  0.77917388973E+02  0.00000000000E+00 0.  1.
        -11    1    3    3    0    0 -0.45422521028E+01  0.44842197202E+02 -0.40668354348E+02  0.60707246268E+02  0.00000000000E+00 0.  1.
         11    1    3    3    0    0  0.44805943578E+02 -0.29297555033E+01 -0.17370632762E+03  0.17941584183E+03  0.00000000000E+00 0. -1.
          2    1    1    2  501    0  0.20223407417E+02 -0.39623708735E+01  0.16053786607E+02  0.26122990926E+02  0.00000000000E+00 0. -1.
<scales pt_clust_5="13000.00000" pt_clust_6="13000.00000" pt_clust_7="13000.00000" pt_clust_8="13000.00000" pt_clust_9="20.60793"></scales>
<clustering>
<clus scale="   20.608">  1  9  2 -1</clus>
<clus scale="   82.650">  5  6 -1 -1</clus>
<clus scale="   91.240">  7  8 -1 -1</clus>
<clus scale="  101.903">  1  5  2 -1</clus>
<clus scale="   20.608">  1  5  2 -1</clus>
</clustering>
</event>
<event>
 9    1  0.4731329E-005  0.1529539E+03  0.7546771E-02  0.1221190E+00
          1   -1    0    0  502    0 -0.00000000000E+00  0.00000000000E+00  0.33151422851E+03  0.33151422851E+03  0.00000000000E+00 0. -1.
         21   -1    0    0  501  502  0.00000000000E+00 -0.00000000000E+00 -0.11938316959E+03  0.11938316959E+03  0.00000000000E+00 0. -1.
         23    2    1    2    0    0  0.60804210046E+01  0.22964133950E+02  0.38542170246E+02  0.98782688295E+02  0.87796341905E+02 0.  0.
        -24    2    1    2    0    0  0.13259120320E+03 -0.97021939201E+01  0.34400196704E+02  0.15519038325E+03  0.72291920618E+02 0.  0.
         11    1    4    4    0    0  0.14100352309E+03 -0.39013358195E+01  0.33105109773E+02  0.14489017302E+03  0.00000000000E+00 0. -1.
        -12    1    4    4    0    0 -0.84123198880E+01 -0.58008581005E+01  0.12950869307E+01  0.10300210229E+02  0.00000000000E+00 0.  1.
        -13    1    3    3    0    0 -0.21467976497E+02  0.33298254845E+02 -0.11039534078E+02  0.41128081687E+02  0.00000000000E+00 0.  1.
         13    1    3    3    0    0  0.27548397501E+02 -0.10334120895E+02  0.49581704323E+02  0.57654606609E+02  0.00000000000E+00 0. -1.
          2    1    1    2  501    0 -0.13867162421E+03 -0.13261940030E+02  0.13918869198E+03  0.19692432655E+03  0.00000000000E+00 0. -1.
<scales pt_clust_5="13000.00000" pt_clust_6="13000.00000" pt_clust_7="13000.00000" pt_clust_8="13000.00000" pt_clust_9="134.79161"></scales>
<clustering>
<clus scale="   72.292">  5  6 -1 -1</clus>
<clus scale="   87.796">  7  8 -1 -1</clus>
<clus scale="   90.953">  1  7  2 -1</clus>
<clus scale="  134.792">  2  9  1 -1</clus>
<clus scale="  134.792">  2  5  1 -1</clus>
</clustering>
</event>
<event>
 9    1  0.4731329E-005  0.1328825E+03  0.7546771E-02  0.1225559E+00
         21   -1    0    0  501  502  0.00000000000E+00  0.00000000000E+00  0.20149042912E+03  0.20149042912E+03  0.00000000000E+00 0. -1.
          1   -1    0    0  502    0 -0.00000000000E+00 -0.00000000000E+00 -0.16113960645E+03  0.16113960645E+03  0.00000000000E+00 0. -1.
         23    2    1    2    0    0  0.36969076076E+02 -0.62047267001E+02  0.37981738261E+02  0.12186452129E+03  0.90508414965E+02 0.  0.
        -24    2    1    2    0    0  0.13658307004E+02  0.11809532861E+03  0.34703817290E+02  0.15860681372E+03  0.99089406262E+02 0.  0.
         13    1    4    4    0    0  0.17659470792E+02  0.13483352742E+03  0.23313391263E+02  0.13796902274E+03  0.00000000000E+00 0. -1.
        -14    1    4    4    0    0 -0.40011637883E+01 -0.16738198811E+02  0.11390426027E+02  0.20637790972E+02  0.00000000000E+00 0.  1.
        -13    1    3    3    0    0  0.64784100054E+02 -0.28149981418E+02  0.14442412638E+02  0.72097048181E+02  0.00000000000E+00 0. -1.
         13    1    3    3    0    0 -0.27815023978E+02 -0.33897285583E+02  0.23539325623E+02  0.49767473108E+02  0.00000000000E+00 0.  1.
          2    1    1    2  501    0 -0.50627383080E+02 -0.56048061607E+02 -0.32334732879E+02  0.82158700560E+02  0.00000000000E+00 0. -1.
<scales pt_clust_5="13000.00000" pt_clust_6="13000.00000" pt_clust_7="13000.00000" pt_clust_8="13000.00000" pt_clust_9="75.52829"></scales>
<clustering>
<clus scale="   75.528">  1  9  2 -1</clus>
<clus scale="   90.508">  7  8 -1 -1</clus>
<clus scale="   99.089">  5  6 -1 -1</clus>
<clus scale="  126.613">  2  7  1 -1</clus>
<clus scale="   75.528">  1  5  2 -1</clus>
</clustering>
</event>
<event>
 9    1  0.4731329E-005  0.1350583E+03  0.7546771E-02  0.1222317E+00
         21   -1    0    0  501  502  0.00000000000E+00  0.00000000000E+00  0.32936726607E+03  0.32936726607E+03  0.00000000000E+00 0.  1.
         -4   -1    0    0    0  501 -0.00000000000E+00 -0.00000000000E+00 -0.70261566316E+02  0.70261566316E+02  0.00000000000E+00 0.  1.
         23    2    1    2    0    0 -0.93484979763E+02 -0.50059031690E+00  0.75306426823E+02  0.15010474604E+03  0.90114842457E+02 0.  0.
        -24    2    1    2    0    0  0.10983580576E+03  0.23618162737E+02  0.13637277134E+03  0.19428782364E+03  0.80799157244E+02 0.  0.
         11    1    4    4    0    0  0.39330087162E+02 -0.15321012198E+02  0.83361701931E+01  0.43024189759E+02  0.00000000000E+00 0. -1.
        -12    1    4    4    0    0  0.70505718598E+02  0.38939174934E+02  0.12803660115E+03  0.15126363388E+03  0.00000000000E+00 0.  1.
        -11    1    3    3    0    0 -0.10845689334E+03  0.13496789066E+02  0.61753566817E+02  0.12553311931E+03  0.00000000000E+00 0.  1.
         11    1    3    3    0    0  0.14971913581E+02 -0.13997379383E+02  0.13552860006E+02  0.24571626731E+02  0.00000000000E+00 0. -1.
         -3    1    1    2    0  502 -0.16350825997E+02 -0.23117572420E+02  0.47426501592E+02  0.55236262714E+02  0.00000000000E+00 0.  1.
<scales pt_clust_5="13000.00000" pt_clust_6="13000.00000" pt_clust_7="13000.00000" pt_clust_8="13000.00000" pt_clust_9="28.31557"></scales>
<clustering>
<clus scale="   28.316">  1  9  2 -1</clus>
<clus scale="   80.799">  5  6 -1 -1</clus>
<clus scale="   90.115">  7  8 -1 -1</clus>
<clus scale="  129.029">  1  5  2 -1</clus>
<clus scale="   28.316">  1  5  2 -1</clus>
</clustering>
</event>
<event>
 9    1  0.4731329E-005  0.1038607E+03  0.7546771E-02  0.1289563E+00
         -2   -1    0    0    0  501 -0.00000000000E+00  0.00000000000E+00  0.42823607753E+02  0.42823607753E+02  0.00000000000E+00 0.  1.
         21   -1    0    0  501  502  0.00000000000E+00 -0.00000000000E+00 -0.26858413813E+03  0.26858413813E+03  0.00000000000E+00 0.  1.
        -24    2    1    2    0    0 -0.56324250771E+01  0.52180803018E+02 -0.38337561133E+02  0.86322978744E+02  0.56809573575E+02 0.  0.
         23    2    1    2    0    0 -0.13786525446E+02 -0.40417415002E+02 -0.14220855448E+03  0.17449014055E+03  0.91650970879E+02 0.  0.
         11    1    3    3    0    0  0.23532656093E+02  0.90511493708E+01 -0.14170071370E+02  0.28922311981E+02  0.00000000000E+00 0. -1.
        -12    1    3    3    0    0 -0.29165081170E+02  0.43129653647E+02 -0.24167489763E+02  0.57400666763E+02  0.00000000000E+00 0.  1.
        -13    1    4    4    0    0 -0.44330921051E+02 -0.33528252107E+02 -0.12907851018E+03  0.14053695614E+03  0.00000000000E+00 0.  1.
         13    1    4    4    0    0  0.30544395605E+02 -0.68891628957E+01 -0.13130044295E+02  0.33953184408E+02  0.00000000000E+00 0. -1.
         -1    1    1    2    0  502  0.19418950523E+02 -0.11763388016E+02 -0.45214414763E+02  0.50594626586E+02  0.00000000000E+00 0.  1.
<scales pt_clust_5="13000.00000" pt_clust_6="13000.00000" pt_clust_7="13000.00000" pt_clust_8="13000.00000" pt_clust_9="22.70403"></scales>
<clustering>
<clus scale="   22.704">  2  9  1 -1</clus>
<clus scale="   56.810">  5  6 -1 -1</clus>
<clus scale="   74.930">  1  5  2 -1</clus>
<clus scale="   91.651">  7  8 -1 -1</clus>
<clus scale="   22.704">  2  5  1 -1</clus>
</clustering>
</event>
<event>
 9    1  0.4731329E-005  0.1880848E+03  0.7546771E-02  0.1188738E+00
         21   -1    0    0  501  502  0.00000000000E+00  0.00000000000E+00  0.30212376339E+03  0.30212376339E+03  0.00000000000E+00 0. -1.
         -4   -1    0    0    0  501 -0.00000000000E+00 -0.00000000000E+00 -0.18025620311E+03  0.18025620311E+03  0.00000000000E+00 0.  1.
         23    2    1    2    0    0 -0.18185754207E+02  0.34610919681E+02  0.61691578331E+02  0.11614524688E+03  0.90306312724E+02 0.  0.
        -24    2    1    2    0    0 -0.13660590865E+03 -0.10531537212E+03  0.19402290326E+02  0.19124308437E+03  0.80280549125E+02 0.  0.
         11    1    4    4    0    0 -0.96497049174E+02 -0.11378889984E+03  0.17282734787E+02  0.15019416482E+03  0.00000000000E+00 0. -1.
        -12    1    4    4    0    0 -0.40108859472E+02  0.84735277192E+01  0.21195555396E+01  0.41048919546E+02  0.00000000000E+00 0.  1.
        -13    1    3    3    0    0  0.14204721457E+02  0.55394236755E+02  0.23196052347E+02  0.61711849930E+02  0.00000000000E+00 0. -1.
         13    1    3    3    0    0 -0.32390475664E+02 -0.20783317074E+02  0.38495525984E+02  0.54433396946E+02  0.00000000000E+00 0.  1.
         -3    1    1    2    0  502  0.15479166285E+03  0.70704452438E+02  0.40773691624E+02  0.17499163526E+03  0.00000000000E+00 0.  1.
<scales pt_clust_5="13000.00000" pt_clust_6="13000.00000" pt_clust_7="13000.00000" pt_clust_8="13000.00000" pt_clust_9="170.09092"></scales>
<clustering>
<clus scale="   80.281">  5  6 -1 -1</clus>
<clus scale="   90.306">  7  8 -1 -1</clus>
<clus scale="   98.407">  2  7  1 -1</clus>
<clus scale="  170.091">  1  9  2 -1</clus>
<clus scale="  170.091">  1  5  2 -1</clus>
</clustering>
</event>
<event>
 9    1  0.4731329E-005  0.1309367E+03  0.7546771E-02  0.1229239E+00
         21   -1    0    0  501  502  0.00000000000E+00  0.00000000000E+00  0.12303685214E+03  0.12303685214E+03  0.00000000000E+00 0. -1.
          1   -1    0    0  502    0 -0.00000000000E+00 -0.00000000000E+00 -0.88150076490E+03  0.88150076490E+03  0.00000000000E+00 0. -1.
        -24    2    1    2    0    0  0.10612073843E+03  0.13053632298E+02 -0.70728617523E+03  0.71974356655E+03  0.79655881581E+02 0.  0.
         23    2    1    2    0    0 -0.51063018962E+02  0.37736278141E+02 -0.13310226344E+03  0.17378686415E+03  0.91946740147E+02 0.  0.
         11    1    3    3    0    0  0.96230702509E+02 -0.19591457520E+02 -0.56122526989E+03  0.56975255759E+03  0.00000000000E+00 0. -1.
        -12    1    3    3    0    0  0.98900359234E+01  0.32645089818E+02 -0.14606090534E+03  0.14999100896E+03  0.00000000000E+00 0.  1.
        -11    1    4    4    0    0  0.21483340119E+02  0.71544283118E+01 -0.46319335471E+01  0.23112216586E+02  0.00000000000E+00 0. -1.
         11    1    4    4    0    0 -0.72546359081E+02  0.30581849829E+02 -0.12847032989E+03  0.15067464756E+03  0.00000000000E+00 0.  1.
          2    1    1    2  501    0 -0.55057719470E+02 -0.50789910439E+02  0.81924525912E+02  0.11100718635E+03  0.00000000000E+00 0. -1.
<scales pt_clust_5="13000.00000" pt_clust_6="13000.00000" pt_clust_7="13000.00000" pt_clust_8="13000.00000" pt_clust_9="74.90639"></scales>
<clustering>
<clus scale="   74.906">  1  9  2 -1</clus>
<clus scale="   79.656">  5  6 -1 -1</clus>
<clus scale="   91.947">  7  8 -1 -1</clus>
<clus scale="  122.618">  2  5  1 -1</clus>
<clus scale="   74.906">  1  5  2 -1</clus>
</clustering>
</event>
<event>
 9    1  0.4731329E-005  0.9363110E+02  0.7546771E-02  0.1300943E+00
         -2   -1    0    0    0  501 -0.00000000000E+00  0.00000000000E+00  0.17548968363E+03  0.17548968363E+03  0.00000000000E+00 0.  1.
         21   -1    0    0  501  502  0.00000000000E+00 -0.00000000000E+00 -0.34854302040E+03  0.34854302040E+03  0.00000000000E+00 0.  1.
        -24    2    1    2    0    0 -0.17215487169E+02 -0.24478374062E+02  0.96618295907E+02  0.12785196003E+03  0.78201437219E+02 0.  0.
         23    2    1    2    0    0  0.18473155017E+02 -0.48530494672E+02 -0.29980449621E+03  0.31718792086E+03  0.89604546875E+02 0.  0.
         11    1    3    3    0    0 -0.16392407650E+02 -0.52808918180E+02  0.66720597669E+02  0.86655242319E+02  0.00000000000E+00 0. -1.
        -12    1    3    3    0    0 -0.82307951836E+00  0.28330544118E+02  0.29897698238E+02  0.41196717707E+02  0.00000000000E+00 0.  1.
        -11    1    4    4    0    0 -0.21972315820E+02  0.14301626190E+02 -0.50134097429E+02  0.56575143829E+02  0.00000000000E+00 0. -1.
         11    1    4    4    0    0  0.40445470837E+02 -0.62832120862E+02 -0.24967039878E+03  0.26061277703E+03  0.00000000000E+00 0.  1.
         -1    1    1    2    0  502 -0.12576678483E+01  0.73008868735E+02  0.30132863537E+02  0.78992823138E+02  0.00000000000E+00 0.  1.
<scales pt_clust_5="13000.00000" pt_clust_6="13000.00000" pt_clust_7="13000.00000" pt_clust_8="13000.00000" pt_clust_9="73.01974"></scales>
<clustering>
<clus scale="   73.020">  2  9  1 -1</clus>
<clus scale="   78.201">  5  6 -1 -1</clus>
<clus scale="   82.784">  1  5  2 -1</clus>
<clus scale="   89.605">  7  8 -1 -1</clus>
<clus scale="   73.020">  2  5  1 -1</clus>
</clustering>
</event>
<event>
 9    1  0.4731329E-005  0.9174477E+02  0.7546771E-02  0.1304037E+00
         21   -1    0    0  501  502  0.00000000000E+00  0.00000000000E+00  0.83916060323E+02  0.83916060323E+02  0.00000000000E+00 0. -1.
          1   -1    0    0  502    0 -0.00000000000E+00 -0.00000000000E+00 -0.18032721729E+03  0.18032721729E+03  0.00000000000E+00 0. -1.
        -24    2    1    2    0    0 -0.30462062766E+02  0.17307391875E+02 -0.88282105141E+02  0.12372423136E+03  0.79287276756E+02 0.  0.
         23    2    1    2    0    0  0.13258295445E+02  0.19613012681E+02 -0.27466735200E+02  0.95429891451E+02  0.88272249180E+02 0.  0.
         13    1    3    3    0    0 -0.86263091883E+01  0.33955519921E+02 -0.89629100222E+02  0.96232874580E+02  0.00000000000E+00 0. -1.
        -14    1    3    3    0    0 -0.21835753578E+02 -0.16648128046E+02  0.13469950810E+01  0.27491356778E+02  0.00000000000E+00 0.  1.
        -11    1    4    4    0    0  0.49986179740E+02  0.50154654518E+00 -0.15140800107E+02  0.52231346353E+02  0.00000000000E+00 0.  1.
         11    1    4    4    0    0 -0.36727884296E+02  0.19111466136E+02 -0.12325935093E+02  0.43198545098E+02  0.00000000000E+00 0. -1.
          2    1    1    2  501    0  0.17203767321E+02 -0.36920404556E+02  0.19337683375E+02  0.45089154804E+02  0.00000000000E+00 0. -1.
<scales pt_clust_5="13000.00000" pt_clust_6="13000.00000" pt_clust_7="13000.00000" pt_clust_8="13000.00000" pt_clust_9="40.73188"></scales>
<clustering>
<clus scale="   40.732">  1  9  2 -1</clus>
<clus scale="   79.287">  5  6 -1 -1</clus>
<clus scale="   83.136">  2  5  1 -1</clus>
<clus scale="   88.272">  7  8 -1 -1</clus>
<clus scale="   40.732">  1  5  2 -1</clus>
</clustering>
</event>
<event>
 9    1  0.4731329E-005  0.1438754E+03  0.7546771E-02  0.1226827E+00
         21   -1    0    0  501  502  0.00000000000E+00  0.00000000000E+00  0.11138490487E+03  0.11138490487E+03  0.00000000000E+00 0. -1.
          3   -1    0    0  502    0 -0.00000000000E+00 -0.00000000000E+00 -0.53737027776E+03  0.53737027776E+03  0.00000000000E+00 0. -1.
         23    2    1    2    0    0 -0.11738645603E+02  0.36929954657E+02 -0.21997120658E+03  0.24047267946E+03  0.89096355103E+02 0.  0.
        -24    2    1    2    0    0 -0.83378979398E+02  0.71154053958E+02  0.20185082060E+02  0.14014892551E+03  0.84966641599E+02 0.  0.
         11    1    4    4    0    0 -0.79986472785E+02  0.89498252030E+02  0.17419186398E+02  0.12128973988E+03  0.00000000000E+00 0. -1.
        -12    1    4    4    0    0 -0.33925066132E+01 -0.18344198071E+02  0.27658956622E+01  0.18859185635E+02  0.00000000000E+00 0.  1.
        -11    1    3    3    0    0 -0.44189557445E+02  0.33146255497E+02 -0.18289961496E+03  0.19105931119E+03  0.00000000000E+00 0. -1.
         11    1    3    3    0    0  0.32450911842E+02  0.37836991602E+01 -0.37071591620E+02  0.49413368271E+02  0.00000000000E+00 0.  1.
          4    1    1    2  501    0  0.95117625001E+02 -0.10808400862E+03 -0.22619924837E+03  0.26813357766E+03  0.00000000000E+00 0. -1.
<scales pt_clust_5="13000.00000" pt_clust_6="13000.00000" pt_clust_7="13000.00000" pt_clust_8="13000.00000" pt_clust_9="116.10695"></scales>
<clustering>
<clus scale="   84.967">  5  6 -1 -1</clus>
<clus scale="   89.096">  7  8 -1 -1</clus>
<clus scale="   97.159">  2  7  1 -1</clus>
<clus scale="  116.107">  1  9  2 -1</clus>
<clus scale="  116.107">  1  5  2 -1</clus>
</clustering>
</event>
<event>
 9    1  0.4731329E-005  0.1016247E+03  0.7546771E-02  0.1281816E+00
         -2   -1    0    0    0  501 -0.00000000000E+00  0.00000000000E+00  0.24456361833E+03  0.24456361833E+03  0.00000000000E+00 0.  1.
         21   -1    0    0  501  502  0.00000000000E+00 -0.00000000000E+00 -0.22391523421E+03  0.22391523421E+03  0.00000000000E+00 0. -1.
         23    2    1    2    0    0  0.14872466693E+02  0.41285076075E+02  0.20901468519E+03  0.23209967631E+03  0.90870640729E+02 0.  0.
        -24    2    1    2    0    0 -0.38958649995E+02 -0.52011751172E+02 -0.99198182203E+02  0.14339445057E+03  0.80614455479E+02 0.  0.
         13    1    4    4    0    0 -0.59462287667E+01 -0.59451683482E+02 -0.90517099007E+02  0.10845831235E+03  0.00000000000E+00 0. -1.
        -14    1    4    4    0    0 -0.33012421229E+02  0.74399323091E+01 -0.86810831957E+01  0.34936138218E+02  0.00000000000E+00 0.  1.
        -11    1    3    3    0    0  0.20935625039E+02 -0.25984356283E+02  0.68819512428E+02  0.76482759221E+02  0.00000000000E+00 0. -1.
         11    1    3    3    0    0 -0.60631583461E+01  0.67269432358E+02  0.14019517276E+03  0.15561691709E+03  0.00000000000E+00 0.  1.
         -1    1    1    2    0  502  0.24086183303E+02  0.10726675098E+02 -0.89168118862E+02  0.92984725660E+02  0.00000000000E+00 0.  1.
<scales pt_clust_5="13000.00000" pt_clust_6="13000.00000" pt_clust_7="13000.00000" pt_clust_8="13000.00000" pt_clust_9="26.36676"></scales>
<clustering>
<clus scale="   26.367">  2  9  1 -1</clus>
<clus scale="   80.614">  5  6 -1 -1</clus>
<clus scale="   90.871">  7  8 -1 -1</clus>
<clus scale="   92.568">  2  5  1 -1</clus>
<clus scale="   26.367">  2  5  1 -1</clus>
</clustering>
</event>
<event>
 9    1  0.4731329E-005  0.1027412E+03  0.7546771E-02  0.1277652E+00
         -2   -1    0    0    0  501 -0.00000000000E+00  0.00000000000E+00  0.55506449955E+02  0.55506449955E+02  0.00000000000E+00 0.  1.
         21   -1    0    0  501  502  0.00000000000E+00 -0.00000000000E+00 -0.28688069159E+03  0.28688069159E+03  0.00000000000E+00 0.  1.
         23    2    1    2    0    0  0.31709612419E+02  0.28968382234E+02 -0.45314002443E+02  0.11026852184E+03  0.90890711314E+02 0.  0.
        -24    2    1    2    0    0 -0.61421687948E+02 -0.13337492931E+02 -0.13849643677E+03  0.17389965859E+03  0.84316758654E+02 0.  0.
         11    1    4    4    0    0  0.67429136283E+00  0.29233587802E+02 -0.47701935116E+02  0.55951156721E+02  0.00000000000E+00 0. -1.
        -12    1    4    4    0    0 -0.62095979311E+02 -0.42571080733E+02 -0.90794501658E+02  0.11794850187E+03  0.00000000000E+00 0.  1.
        -13    1    3    3    0    0  0.49303871872E+02  0.40032266796E+02 -0.35379125599E+01  0.63607947551E+02  0.00000000000E+00 0.  1.
         13    1    3    3    0    0 -0.17594259454E+02 -0.11063884563E+02 -0.41776089883E+02  0.46660574292E+02  0.00000000000E+00 0. -1.
         -1    1    1    2    0  502  0.29712075530E+02 -0.15630889303E+02 -0.47563802419E+02  0.58218961114E+02  0.00000000000E+00 0.  1.
<scales pt_clust_5="13000.00000" pt_clust_6="13000.00000" pt_clust_7="13000.00000" pt_clust_8="13000.00000" pt_clust_9="33.57279"></scales>
<clustering>
<clus scale="   33.573">  2  9  1 -1</clus>
<clus scale="   84.317">  5  6 -1 -1</clus>
<clus scale="   90.891">  7  8 -1 -1</clus>
<clus scale="   96.974">  2  5  1 -1</clus>
<clus scale="   33.573">  2  5  1 -1</clus>
</clustering>
</event>
<event>
 9    1  0.4731329E-005  0.9607039E+02  0.7546771E-02  0.1297457E+00
         21   -1    0    0  501  502  0.00000000000E+00  0.00000000000E+00  0.31523837234E+03  0.31523837234E+03  0.00000000000E+00 0.  1.
          3   -1    0    0  502    0 -0.00000000000E+00 -0.00000000000E+00 -0.70061682088E+02  0.70061682088E+02  0.00000000000E+00 0. -1.
         23    2    1    2    0    0  0.17131784883E+02 -0.42042846754E+01 -0.17591367417E+02  0.97385578535E+02  0.94145210372E+02 0.  0.
        -24    2    1    2    0    0 -0.20779377783E+02  0.27417941353E+02  0.24021657231E+03  0.25534534508E+03  0.79458905038E+02 0.  0.
         13    1    4    4    0    0 -0.13658385052E+02  0.21259750950E+02  0.13913217404E+02  0.28846249517E+02  0.00000000000E+00 0. -1.
        -14    1    4    4    0    0 -0.71209927315E+01  0.61581904034E+01  0.22630335491E+03  0.22649909556E+03  0.00000000000E+00 0.  1.
        -13    1    3    3    0    0 -0.37124227100E+02 -0.15324530541E+02 -0.10780526847E+02  0.41584483082E+02  0.00000000000E+00 0.  1.
         13    1    3    3    0    0  0.54256011983E+02  0.11120245865E+02 -0.68108405697E+01  0.55801095453E+02  0.00000000000E+00 0. -1.
          4    1    1    2  501    0  0.36475929002E+01 -0.23213656678E+02  0.22551485352E+02  0.32569130813E+02  0.00000000000E+00 0. -1.
<scales pt_clust_5="13000.00000" pt_clust_6="13000.00000" pt_clust_7="13000.00000" pt_clust_8="13000.00000" pt_clust_9="23.49848"></scales>
<clustering>
<clus scale="   23.498">  1  9  2 -1</clus>
<clus scale="   79.459">  5  6 -1 -1</clus>
<clus scale="   81.731">  1  5  2 -1</clus>
<clus scale="   94.145">  7  8 -1 -1</clus>
<clus scale="   23.498">  1  5  2 -1</clus>
</clustering>
</event>
<event>
 9    1  0.4731329E-005  0.1552001E+03  0.7546771E-02  0.1196474E+00
          1   -1    0    0  502    0 -0.00000000000E+00  0.00000000000E+00  0.22750628627E+03  0.22750628627E+03  0.00000000000E+00 0. -1.
         21   -1    0    0  501  502  0.00000000000E+00 -0.00000000000E+00 -0.45982612698E+03  0.45982612698E+03  0.00000000000E+00 0. -1.
         23    2    1    2    0    0  0.85417291275E+02  0.80401752793E+02  0.11321283044E+03  0.18626788017E+03  0.90100070507E+02 0.  0.
        -24    2    1    2    0    0 -0.45810565317E+02 -0.17663904970E+03 -0.75723734872E+02  0.21188090258E+03  0.76547182053E+02 0.  0.
         13    1    4    4    0    0 -0.22933477111E+02 -0.15027516430E+03 -0.30992790904E+02  0.15514226524E+03  0.00000000000E+00 0. -1.
        -14    1    4    4    0    0 -0.22877088206E+02 -0.26363885407E+02 -0.44730943968E+02  0.56738637337E+02  0.00000000000E+00 0.  1.
        -13    1    3    3    0    0  0.26155652446E+02  0.39535986669E+02 -0.52019509510E+01  0.47689335186E+02  0.00000000000E+00 0.  1.
         13    1    3    3    0    0  0.59261638828E+02  0.40865766124E+02  0.11841478139E+03  0.13857854498E+03  0.00000000000E+00 0. -1.
          2    1    1    2  501    0 -0.39606725958E+02  0.96237296911E+02 -0.26980893628E+03  0.28918363051E+03  0.00000000000E+00 0. -1.
<scales pt_clust_5="13000.00000" pt_clust_6="13000.00000" pt_clust_7="13000.00000" pt_clust_8="13000.00000" pt_clust_9="104.06878"></scales>
<clustering>
<clus scale="   76.547">  5  6 -1 -1</clus>
<clus scale="   90.100">  7  8 -1 -1</clus>
<clus scale="  104.069">  2  9  1 -1</clus>
<clus scale="  147.745">  2  5  1 -1</clus>
<clus scale="  104.069">  2  5  1 -1</clus>
</clustering>
</event>
<event>
 9    1  0.4731329E-005  0.9905838E+02  0.7546771E-02  0.1286715E+00
         21   -1    0    0  501  502  0.00000000000E+00  0.00000000000E+00  0.34842438954E+03  0.34842438954E+03  0.00000000000E+00 0.  1.
          1   -1    0    0  502    0 -0.00000000000E+00 -0.00000000000E+00 -0.40790982808E+03  0.40790982808E+03  0.00000000000E+00 0. -1.
         23    2    1    2    0    0  0.37887610572E+02  0.10470992175E+02 -0.33899642027E+03  0.35317618595E+03  0.90938070423E+02 0.  0.
        -24    2    1    2    0    0 -0.23528889085E+02 -0.55032646138E+02  0.32338450081E+03  0.33899574085E+03  0.82209343676E+02 0.  0.
         13    1    4    4    0    0 -0.25511728966E+02  0.14197831649E+02  0.13898877336E+03  0.14202220199E+03  0.00000000000E+00 0. -1.
        -14    1    4    4    0    0  0.19828398811E+01 -0.69230477787E+02  0.18439572745E+03  0.19697353886E+03  0.00000000000E+00 0.  1.
        -11    1    3    3    0    0  0.50916582923E+02 -0.24606659162E+02 -0.25542026220E+03  0.26160561239E+03  0.00000000000E+00 0.  1.
         11    1    3    3    0    0 -0.13028972351E+02  0.35077651337E+02 -0.83576158073E+02  0.91570573560E+02  0.00000000000E+00 0. -1.
          2    1    1    2  501    0 -0.14358721488E+02  0.44561653963E+02 -0.43873519082E+02  0.64162290820E+02  0.00000000000E+00 0. -1.
<scales pt_clust_5="13000.00000" pt_clust_6="13000.00000" pt_clust_7="13000.00000" pt_clust_8="13000.00000" pt_clust_9="46.81790"></scales>
<clustering>
<clus scale="   46.818">  1  9  2 -1</clus>
<clus scale="   82.209">  5  6 -1 -1</clus>
<clus scale="   90.938">  7  8 -1 -1</clus>
<clus scale="   91.111">  1  5  2 -1</clus>
<clus scale="   46.818">  1  5  2 -1</clus>
</clustering>
</event>
<event>
 9    1  0.4731329E-005  0.1577090E+03  0.7546771E-02  0.1193181E+00
         21   -1    0    0  501  502  0.00000000000E+00  0.00000000000E+00  0.99503055887E+02  0.99503055887E+02  0.00000000000E+00 0. -1.
          1   -1    0    0  502    0 -0.00000000000E+00 -0.00000000000E+00 -0.75766330145E+03  0.75766330145E+03  0.00000000000E+00 0. -1.
         23    2    1    2    0    0 -0.13370572475E+03  0.30994948351E+02 -0.44114904436E+03  0.47086000282E+03  0.90877694005E+02 0.  0.
        -24    2    1    2    0    0  0.64952028558E+02 -0.86169571028E+02  0.18171639320E+02  0.13514449792E+03  0.79308674548E+02 0.  0.
         11    1    4    4    0    0  0.77309402146E+02 -0.89526710532E+02  0.24597645912E+02  0.12081729902E+03  0.00000000000E+00 0. -1.
        -12    1    4    4    0    0 -0.12357373588E+02  0.33571395039E+01 -0.64260065920E+01  0.14327198901E+02  0.00000000000E+00 0.  1.
        -13    1    3    3    0    0 -0.41482940229E+02 -0.29986330557E+02 -0.18317569302E+03  0.19019292538E+03  0.00000000000E+00 0.  1.
         13    1    3    3    0    0 -0.92222784520E+02  0.60981278908E+02 -0.25797335134E+03  0.28066707745E+03  0.00000000000E+00 0. -1.
          2    1    1    2  501    0  0.68753696191E+02  0.55174622677E+02 -0.23518284053E+03  0.25116185659E+03  0.00000000000E+00 0. -1.
<scales pt_clust_5="13000.00000" pt_clust_6="13000.00000" pt_clust_7="13000.00000" pt_clust_8="13000.00000" pt_clust_9="88.15508"></scales>
<clustering>
<clus scale="   79.309">  5  6 -1 -1</clus>
<clus scale="   88.155">  1  9  2 -1</clus>
<clus scale="   90.878">  7  8 -1 -1</clus>
<clus scale="  151.338">  1  5  2 -1</clus>
<clus scale="   88.155">  1  5  2 -1</clus>
</clustering>
</event>
<event>
 9    1  0.4731329E-005  0.4744268E+03  0.7546771E-02  0.1074122E+00
          1   -1    0    0  502    0 -0.00000000000E+00  0.00000000000E+00  0.26369452063E+04  0.26369452063E+04  0.00000000000E+00 0. -1.
         21   -1    0    0  501  502  0.00000000000E+00 -0.00000000000E+00 -0.11324545435E+03  0.11324545435E+03  0.00000000000E+00 0.  1.
         23    2    1    2    0    0  0.11552009572E+01  0.51175121178E+02  0.32163403170E+03  0.33752943625E+03  0.88642216049E+02 0.  0.
        -24    2    1    2    0    0 -0.46696524402E+03  0.12761080738E+02  0.75814827892E+03  0.89412100053E+03  0.80275565779E+02 0.  0.
         13    1    4    4    0    0 -0.11135372508E+03 -0.27422621755E+02  0.21496653742E+03  0.24364372449E+03  0.00000000000E+00 0. -1.
        -14    1    4    4    0    0 -0.35561151894E+03  0.40183702493E+02  0.54318174149E+03  0.65047727604E+03  0.00000000000E+00 0.  1.
        -13    1    3    3    0    0 -0.39624273902E+02  0.13840238481E+02  0.88779133828E+02  0.98200661335E+02  0.00000000000E+00 0.  1.
         13    1    3    3    0    0  0.40779474859E+02  0.37334882697E+02  0.23285489787E+03  0.23932877491E+03  0.00000000000E+00 0. -1.
          2    1    1    2  501    0  0.46581004306E+03 -0.63936201916E+02  0.14439174413E+04  0.15185402239E+04  0.00000000000E+00 0. -1.
<scales pt_clust_5="13000.00000" pt_clust_6="13000.00000" pt_clust_7="13000.00000" pt_clust_8="13000.00000" pt_clust_9="467.58620"></scales>
<clustering>
<clus scale="   80.276">  5  6 -1 -1</clus>
<clus scale="   88.642">  7  8 -1 -1</clus>
<clus scale="  102.360">  1  7  2 -1</clus>
<clus scale="  467.586">  2  9  1 -1</clus>
<clus scale="  467.586">  2  5  1 -1</clus>
</clustering>
</event>
<event>
 9    1  0.4731329E-005  0.9431750E+02  0.7546771E-02  0.1298193E+00
         21   -1    0    0  501  502  0.00000000000E+00  0.00000000000E+00  0.11979411037E+03  0.11979411037E+03  0.00000000000E+00 0.  1.
         -4   -1    0    0    0  501 -0.00000000000E+00 -0.00000000000E+00 -0.18652268840E+03  0.18652268840E+03  0.00000000000E+00 0.  1.
        -24    2    1    2    0    0 -0.24752729831E+02  0.19375996914E+02 -0.10510610413E+03  0.13594730010E+03  0.80288532104E+02 0.  0.
         23    2    1    2    0    0  0.27743348499E+02  0.31443510206E+01 -0.29612321983E+02  0.98684567806E+02  0.89900912011E+02 0.  0.
         11    1    3    3    0    0  0.17784169693E+02  0.19080250015E+02 -0.41707195391E+01  0.26414532625E+02  0.00000000000E+00 0. -1.
        -12    1    3    3    0    0 -0.42536899524E+02  0.29574689874E+00 -0.10093538459E+03  0.10953276747E+03  0.00000000000E+00 0.  1.
        -11    1    4    4    0    0 -0.22621011246E+02 -0.20000797210E+02 -0.30951366677E+02  0.43240364684E+02  0.00000000000E+00 0.  1.
         11    1    4    4    0    0  0.50364359745E+02  0.23145148230E+02  0.13390446933E+01  0.55444203122E+02  0.00000000000E+00 0. -1.
         -3    1    1    2    0  502 -0.29906186675E+01 -0.22520347935E+02  0.67989848083E+02  0.71684930868E+02  0.00000000000E+00 0.  1.
<scales pt_clust_5="13000.00000" pt_clust_6="13000.00000" pt_clust_7="13000.00000" pt_clust_8="13000.00000" pt_clust_9="22.71805"></scales>
<clustering>
<clus scale="   22.718">  1  9  2 -1</clus>
<clus scale="   80.289">  5  6 -1 -1</clus>
<clus scale="   85.205">  2  5  1 -1</clus>
<clus scale="   89.901">  7  8 -1 -1</clus>
<clus scale="   22.718">  1  5  2 -1</clus>
</clustering>
</event>
<event>
 9    1  0.4731329E-005  0.9973005E+02  0.7546771E-02  0.1285032E+00
          1   -1    0    0  502    0 -0.00000000000E+00  0.00000000000E+00  0.24654084885E+03  0.24654084885E+03  0.00000000000E+00 0. -1.
         21   -1    0    0  501  502  0.00000000000E+00 -0.00000000000E+00 -0.15143628092E+03  0.15143628092E+03  0.00000000000E+00 0.  1.
         23    2    1    2    0    0  0.55802336872E+01  0.42630475924E+02  0.20989647288E+03  0.23257653008E+03  0.90481028561E+02 0.  0.
        -24    2    1    2    0    0  0.16532692293E+02 -0.35314268204E+02 -0.69212524770E+02  0.11421477852E+03  0.82062260477E+02 0.  0.
         13    1    4    4    0    0  0.49659081225E+02 -0.14531743657E+02 -0.40147306688E+02  0.65490473782E+02  0.00000000000E+00 0. -1.
        -14    1    4    4    0    0 -0.33126388932E+02 -0.20782524547E+02 -0.29065218082E+02  0.48724304740E+02  0.00000000000E+00 0.  1.
        -13    1    3    3    0    0  0.14912966364E+02  0.67193512573E+02  0.18034296391E+03  0.19303095433E+03  0.00000000000E+00 0. -1.
         13    1    3    3    0    0 -0.93327326769E+01 -0.24563036649E+02  0.29553508969E+02  0.39545575745E+02  0.00000000000E+00 0.  1.
          2    1    1    2  501    0 -0.22112925980E+02 -0.73162077204E+01 -0.45579380179E+02  0.51185821165E+02  0.00000000000E+00 0. -1.
<scales pt_clust_5="13000.00000" pt_clust_6="13000.00000" pt_clust_7="13000.00000" pt_clust_8="13000.00000" pt_clust_9="23.29181"></scales>
<clustering>
<clus scale="   23.292">  2  9  1 -1</clus>
<clus scale="   82.062">  5  6 -1 -1</clus>
<clus scale="   90.481">  7  8 -1 -1</clus>
<clus scale="   92.160">  2  5  1 -1</clus>
<clus scale="   23.292">  2  5  1 -1</clus>
</clustering>
</event>
<event>
 9    1  0.4731329E-005  0.9600230E+02  0.7546771E-02  0.1293238E+00
         21   -1    0    0  501  502  0.00000000000E+00  0.00000000000E+00  0.11911529740E+03  0.11911529740E+03  0.00000000000E+00 0. -1.
         -4   -1    0    0    0  501 -0.00000000000E+00 -0.00000000000E+00 -0.45648015542E+03  0.45648015542E+03  0.00000000000E+00 0.  1.
         23    2    1    2    0    0  0.81699499047E+01 -0.35486152755E+02 -0.12927788133E+03  0.16149715412E+03  0.89680237892E+02 0.  0.
        -24    2    1    2    0    0  0.61191459089E+02  0.26509833390E+02  0.70513034321E+02  0.12685355026E+03  0.81685796032E+02 0.  0.
         11    1    4    4    0    0  0.68684320424E+02  0.36393122866E+02  0.79768833846E+02  0.11137801451E+03  0.00000000000E+00 0. -1.
        -12    1    4    4    0    0 -0.74928613354E+01 -0.98832894753E+01 -0.92557995254E+01  0.15475535748E+02  0.00000000000E+00 0.  1.
        -13    1    3    3    0    0 -0.35590634841E+02  0.10930983023E+01 -0.73749127034E+02  0.81895188446E+02  0.00000000000E+00 0.  1.
         13    1    3    3    0    0  0.43760584746E+02 -0.36579251057E+02 -0.55528754295E+02  0.79601965672E+02  0.00000000000E+00 0. -1.
         -3    1    1    2    0  502 -0.69361408994E+02  0.89763193648E+01 -0.27860001102E+03  0.28724474844E+03  0.00000000000E+00 0.  1.
<scales pt_clust_5="13000.00000" pt_clust_6="13000.00000" pt_clust_7="13000.00000" pt_clust_8="13000.00000" pt_clust_9="69.93986"></scales>
<clustering>
<clus scale="   69.940">  1  9  2 -1</clus>
<clus scale="   81.686">  5  6 -1 -1</clus>
<clus scale="   88.580">  1  5  2 -1</clus>
<clus scale="   89.680">  7  8 -1 -1</clus>
<clus scale="   69.940">  1  5  2 -1</clus>
</clustering>
</event>
<event>
 9    1  0.4731329E-005  0.1946479E+03  0.7546771E-02  0.1154369E+00
         21   -1    0    0  501  502  0.00000000000E+00  0.00000000000E+00  0.36542509572E+03  0.36542509572E+03  0.00000000000E+00 0. -1.
          1   -1    0    0  502    0 -0.00000000000E+00 -0.00000000000E+00 -0.22624571471E+03  0.22624571471E+03  0.00000000000E+00 0. -1.
         23    2    1    2    0    0 -0.16574610580E+03  0.45852554787E+02  0.44082542420E+02  0.20004637127E+03  0.92201148282E+02 0.  0.
        -24    2    1    2    0    0  0.17429354616E+03  0.10874463150E+03  0.58635826856E+02  0.23255604469E+03  0.91872295172E+02 0.  0.
         11    1    4    4    0    0  0.99400783965E+02  0.78393553558E+02 -0.93684220744E+01  0.12694027109E+03  0.00000000000E+00 0. -1.
        -12    1    4    4    0    0  0.74892762193E+02  0.30351077937E+02  0.68004248930E+02  0.10561577360E+03  0.00000000000E+00 0.  1.
        -13    1    3    3    0    0 -0.50373832298E+02  0.24822126990E+02  0.59438861517E+02  0.81771873081E+02  0.00000000000E+00 0. -1.
         13    1    3    3    0    0 -0.11537227350E+03  0.21030427797E+02 -0.15356319096E+02  0.11827449819E+03  0.00000000000E+00 0.  1.
          2    1    1    2  501    0 -0.85474403601E+01 -0.15459718628E+03  0.36461011734E+02  0.15906839447E+03  0.00000000000E+00 0. -1.
<scales pt_clust_5="13000.00000" pt_clust_6="13000.00000" pt_clust_7="13000.00000" pt_clust_8="13000.00000" pt_clust_9="154.83337"></scales>
<clustering>
<clus scale="   91.872">  5  6 -1 -1</clus>
<clus scale="   92.201">  7  8 -1 -1</clus>
<clus scale="  154.833">  1  9  2 -1</clus>
<clus scale="  194.492">  1  5  2 -1</clus>
<clus scale="  154.833">  1  5  2 -1</clus>
</clustering>
</event>
<event>
 9    1  0.4731329E-005  0.9523035E+02  0.7546771E-02  0.1297636E+00
          3   -1    0    0  502    0 -0.00000000000E+00  0.00000000000E+00  0.11291176779E+03  0.11291176779E+03  0.00000000000E+00 0. -1.
         21   -1    0    0  501  502  0.00000000000E+00 -0.00000000000E+00 -0.12340102883E+03  0.12340102883E+03  0.00000000000E+00 0.  1.
        -24    2    1    2    0    0  0.17690752494E+02 -0.13896304961E+02  0.30884029550E+02  0.90182902476E+02  0.81688815651E+02 0.  0.
         23    2    1    2    0    0 -0.17285891279E+02 -0.23471147196E+02 -0.46447829253E+02  0.10841727907E+03  0.93526513733E+02 0.  0.
         13    1    3    3    0    0  0.12319000254E+02  0.23477734581E+02  0.43009991318E+02  0.50525450433E+02  0.00000000000E+00 0. -1.
        -14    1    3    3    0    0  0.53717522395E+01 -0.37374039541E+02 -0.12125961767E+02  0.39657452043E+02  0.00000000000E+00 0.  1.
        -13    1    4    4    0    0  0.12865935291E+02  0.22557724750E+02 -0.46650556652E+02  0.53391550575E+02  0.00000000000E+00 0.  1.
         13    1    4    4    0    0 -0.30151826570E+02 -0.46028871946E+02  0.20272739980E+00  0.55025728497E+02  0.00000000000E+00 0. -1.
          4    1    1    2  501    0 -0.40486121459E+00  0.37367452157E+02  0.50745386612E+01  0.37712615077E+02  0.00000000000E+00 0. -1.
<scales pt_clust_5="13000.00000" pt_clust_6="13000.00000" pt_clust_7="13000.00000" pt_clust_8="13000.00000" pt_clust_9="37.36966"></scales>
<clustering>
<clus scale="   37.370">  2  9  1 -1</clus>
<clus scale="   81.689">  5  6 -1 -1</clus>
<clus scale="   83.634">  1  5  2 -1</clus>
<clus scale="   93.527">  7  8 -1 -1</clus>
<clus scale="   37.370">  2  5  1 -1</clus>
</clustering>
</event>
<event>
 9    1  0.4731329E-005  0.1321959E+03  0.7546771E-02  0.1236622E+00
         21   -1    0    0  501  502  0.00000000000E+00  0.00000000000E+00  0.23959089612E+03  0.23959089612E+03  0.00000000000E+00 0. -1.
          1   -1    0    0  502    0 -0.00000000000E+00 -0.00000000000E+00 -0.39497118156E+03  0.39497118156E+03  0.00000000000E+00 0. -1.
         23    2    1    2    0    0  0.50927839762E+02 -0.22001891555E+02 -0.32181496924E+03  0.33770648266E+03  0.86041071065E+02 0.  0.
        -24    2    1    2    0    0 -0.36145147345E+02 -0.88943596619E+02  0.52220034544E+02  0.13694181998E+03  0.82514816817E+02 0.  0.
         13    1    4    4    0    0 -0.44308661484E+02 -0.46396602343E+02  0.65444355247E+02  0.91645326259E+02  0.00000000000E+00 0. -1.
        -14    1    4    4    0    0  0.81635141389E+01 -0.42546994276E+02 -0.13224320703E+02  0.45296493717E+02  0.00000000000E+00 0.  1.
        -13    1    3    3    0    0 -0.18297811145E+02 -0.15487557629E+02 -0.33932997078E+02  0.41546631930E+02  0.00000000000E+00 0.  1.
         13    1    3    3    0    0  0.69225650907E+02 -0.65143339268E+01 -0.28788197216E+03  0.29615985073E+03  0.00000000000E+00 0. -1.
          2    1    1    2  501    0 -0.14782692417E+02  0.11094548817E+03  0.11421464926E+03  0.15991377504E+03  0.00000000000E+00 0. -1.
<scales pt_clust_5="13000.00000" pt_clust_6="13000.00000" pt_clust_7="13000.00000" pt_clust_8="13000.00000" pt_clust_9="103.28149"></scales>
<clustering>
<clus scale="   82.515">  5  6 -1 -1</clus>
<clus scale="   86.041">  7  8 -1 -1</clus>
<clus scale="  102.376">  2  7  1 -1</clus>
<clus scale="  103.281">  1  9  2 -1</clus>
<clus scale="  103.281">  1  5  2 -1</clus>
</clustering>
</event>
<event>
 9    1  0.4731329E-005  0.2967343E+03  0.7546771E-02  0.1087412E+00
          1   -1    0    0  502    0 -0.00000000000E+00  0.00000000000E+00  0.92447560608E+03  0.92447560608E+03  0.00000000000E+00 0. -1.
         21   -1    0    0  501  502  0.00000000000E+00 -0.00000000000E+00 -0.29909601962E+03  0.29909601962E+03  0.00000000000E+00 0.  1.
         23    2    1    2    0    0  0.23298852056E+03 -0.15622096413E+03  0.71890919437E+03  0.77746958276E+03  0.94550949296E+02 0.  0.
        -24    2    1    2    0    0 -0.26056039547E+03  0.12823436521E+03 -0.18004736552E+03  0.35108214825E+03  0.80658842515E+02 0.  0.
         13    1    4    4    0    0 -0.32824951474E+02 -0.10131471450E+02 -0.13927432453E+02  0.37068821505E+02  0.00000000000E+00 0. -1.
        -14    1    4    4    0    0 -0.22773544400E+03  0.13836583666E+03 -0.16611993307E+03  0.31401332674E+03  0.00000000000E+00 0.  1.
        -13    1    3    3    0    0  0.16860961612E+03 -0.15344248176E+03  0.50520645344E+03  0.55426289652E+03  0.00000000000E+00 0. -1.
         13    1    3    3    0    0  0.64378904441E+02 -0.27784823745E+01  0.21370274093E+03  0.22320668624E+03  0.00000000000E+00 0.  1.
          2    1    1    2  501    0  0.27571874908E+02  0.27986598920E+02  0.86517757617E+02  0.95019894697E+02  0.00000000000E+00 0. -1.
<scales pt_clust_5="13000.00000" pt_clust_6="13000.00000" pt_clust_7="13000.00000" pt_clust_8="13000.00000" pt_clust_9="39.28689"></scales>
<clustering>
<clus scale="   39.287">  2  9  1 -1</clus>
<clus scale="   80.659">  5  6 -1 -1</clus>
<clus scale="   94.551">  7  8 -1 -1</clus>
<clus scale="  292.604">  2  5  1 -1</clus>
<clus scale="   39.287">  2  5  1 -1</clus>
</clustering>
</event>
<event>
 9    1  0.4731329E-005  0.1287207E+03  0.7546771E-02  0.1247436E+00
          1   -1    0    0  502    0 -0.00000000000E+00  0.00000000000E+00  0.86648550350E+03  0.86648550350E+03  0.00000000000E+00 0. -1.
         21   -1    0    0  501  502  0.00000000000E+00 -0.00000000000E+00 -0.61416209631E+02  0.61416209631E+02  0.00000000000E+00 0.  1.
         23    2    1    2    0    0  0.10425366922E+02  0.16867869355E+02  0.32636032813E+03  0.33830236470E+03  0.86857428537E+02 0.  0.
        -24    2    1    2    0    0  0.10192559281E+03  0.24815915543E+02  0.37300262443E+02  0.13221338513E+03  0.71305073425E+02 0.  0.
         11    1    4    4    0    0  0.57863494060E+02 -0.72956858934E+00  0.53456931489E+02  0.78780452774E+02  0.00000000000E+00 0. -1.
        -12    1    4    4    0    0  0.44062098751E+02  0.25545484132E+02 -0.16156669046E+02  0.53432932359E+02  0.00000000000E+00 0.  1.
        -13    1    3    3    0    0  0.15719636315E+02 -0.30359542897E+02  0.74124979065E+02  0.81629169616E+02  0.00000000000E+00 0.  1.
         13    1    3    3    0    0 -0.52942693928E+01  0.47227412253E+02  0.25223534906E+03  0.25667319508E+03  0.00000000000E+00 0. -1.
          2    1    1    2  501    0 -0.11235095973E+03 -0.41683784898E+02  0.44140870330E+03  0.45738596330E+03  0.00000000000E+00 0. -1.
<scales pt_clust_5="13000.00000" pt_clust_6="13000.00000" pt_clust_7="13000.00000" pt_clust_8="13000.00000" pt_clust_9="107.16635"></scales>
<clustering>
<clus scale="   71.305">  5  6 -1 -1</clus>
<clus scale="   86.857">  7  8 -1 -1</clus>
<clus scale="   89.092">  1  7  2 -1</clus>
<clus scale="  107.166">  2  9  1 -1</clus>
<clus scale="  107.166">  2  5  1 -1</clus>
</clustering>
</event>
<event>
 9    1  0.4731329E-005  0.2717823E+03  0.7546771E-02  0.1127414E+00
          1   -1    0    0  502    0 -0.00000000000E+00  0.00000000000E+00  0.90143700227E+02  0.90143700227E+02  0.00000000000E+00 0. -1.
         21   -1    0    0  501  502  0.00000000000E+00 -0.00000000000E+00 -0.13243265635E+04  0.13243265635E+04  0.00000000000E+00 0.  1.
        -24    2    1    2    0    0 -0.18719150054E+02 -0.10991434697E+03 -0.31979435951E+03  0.34780828468E+03  0.79187121841E+02 0.  0.
         23    2    1    2    0    0 -0.24080109606E+03  0.11038846610E+03 -0.37566373942E+03  0.46868593050E+03  0.91501229625E+02 0.  0.
         13    1    3    3    0    0 -0.21808011531E+02 -0.67523786569E+02 -0.92540056011E+02  0.11661352017E+03  0.00000000000E+00 0. -1.
        -14    1    3    3    0    0  0.30888614778E+01 -0.42390560400E+02 -0.22725430350E+03  0.23119476451E+03  0.00000000000E+00 0.  1.
        -11    1    4    4    0    0 -0.11696048451E+03  0.10463908155E+02 -0.12271706561E+03  0.16984912865E+03  0.00000000000E+00 0. -1.
         11    1    4    4    0    0 -0.12384061155E+03  0.99924557948E+02 -0.25294667381E+03  0.29883680186E+03  0.00000000000E+00 0.  1.
          2    1    1    2  501    0  0.25952024611E+03 -0.47411913448E+00 -0.53872476436E+03  0.59797604857E+03  0.00000000000E+00 0. -1.
<scales pt_clust_5="13000.00000" pt_clust_6="13000.00000" pt_clust_7="13000.00000" pt_clust_8="13000.00000" pt_clust_9="255.91633"></scales>
<clustering>
<clus scale="   79.187">  5  6 -1 -1</clus>
<clus scale="   91.501">  7  8 -1 -1</clus>
<clus scale="  136.756">  1  5  2 -1</clus>
<clus scale="  255.916">  2  9  1 -1</clus>
<clus scale="  255.916">  2  5  1 -1</clus>
</clustering>
</event>
<event>
 9    1  0.4731329E-005  0.9590768E+02  0.7546771E-02  0.1294989E+00
         -4   -1    0    0    0  501 -0.00000000000E+00  0.00000000000E+00  0.81846586254E+02  0.81846586254E+02  0.00000000000E+00 0.  1.
         21   -1    0    0  501  502  0.00000000000E+00 -0.00000000000E+00 -0.28734020385E+03  0.28734020385E+03  0.00000000000E+00 0.  1.
         23    2    1    2    0    0 -0.30845817773E+02  0.41709800632E+01  0.24604271973E+01  0.95552960475E+02  0.90307546776E+02 0.  0.
        -24    2    1    2    0    0  0.23198342494E+02  0.65295797554E+02 -0.10286189911E+03  0.14742576271E+03  0.79699943225E+02 0.  0.
         11    1    4    4    0    0  0.25725686109E+02  0.39538456402E+01 -0.76144851039E+02  0.80470380644E+02  0.00000000000E+00 0. -1.
        -12    1    4    4    0    0 -0.25273436155E+01  0.61341951914E+02 -0.26717048071E+02  0.66955382069E+02  0.00000000000E+00 0.  1.
        -13    1    3    3    0    0 -0.49700112310E+02 -0.14141924432E+02  0.28113082717E+02  0.58825509859E+02  0.00000000000E+00 0.  1.
         13    1    3    3    0    0  0.18854294537E+02  0.18312904495E+02 -0.25652655520E+02  0.36727450616E+02  0.00000000000E+00 0. -1.
         -3    1    1    2    0  502  0.76474752795E+01 -0.69466777617E+02 -0.10509214568E+03  0.12620806692E+03  0.00000000000E+00 0.  1.
<scales pt_clust_5="13000.00000" pt_clust_6="13000.00000" pt_clust_7="13000.00000" pt_clust_8="13000.00000" pt_clust_9="69.88646"></scales>
<clustering>
<clus scale="   69.886">  2  9  1 -1</clus>
<clus scale="   79.700">  5  6 -1 -1</clus>
<clus scale="   85.994">  2  5  1 -1</clus>
<clus scale="   90.308">  7  8 -1 -1</clus>
<clus scale="   69.886">  2  5  1 -1</clus>
</clustering>
</event>
<event>
 9    1  0.4731329E-005  0.9268087E+02  0.7546771E-02  0.1303090E+00
          1   -1    0    0  502    0 -0.00000000000E+00  0.00000000000E+00  0.70462507795E+02  0.70462507795E+02  0.00000000000E+00 0. -1.
         21   -1    0    0  501  502  0.00000000000E+00 -0.00000000000E+00 -0.20316954002E+03  0.20316954002E+03  0.00000000000E+00 0. -1.
         23    2    1    2    0    0 -0.95679844257E+01 -0.99395816541E+01  0.71928851001E+01  0.92574181263E+02  0.91257327547E+02 0.  0.
        -24    2    1    2    0    0 -0.47198211292E+01  0.31076903613E+02 -0.12358991090E+03  0.15077678208E+03  0.80443279944E+02 0.  0.
         11    1    4    4    0    0 -0.21329840913E+02 -0.29758620671E+01 -0.10746266414E+03  0.10959946192E+03  0.00000000000E+00 0. -1.
        -12    1    4    4    0    0  0.16610019784E+02  0.34052765680E+02 -0.16127246760E+02  0.41177320162E+02  0.00000000000E+00 0.  1.
        -11    1    3    3    0    0  0.16797004586E+01 -0.30762808306E+02 -0.33491626626E+02  0.45506711841E+02  0.00000000000E+00 0.  1.
         11    1    3    3    0    0 -0.11247684884E+02  0.20823226652E+02  0.40684511726E+02  0.47067469423E+02  0.00000000000E+00 0. -1.
          2    1    1    2  501    0  0.14287805555E+02 -0.21137321959E+02 -0.16310006422E+02  0.30281084469E+02  0.00000000000E+00 0. -1.
<scales pt_clust_5="13000.00000" pt_clust_6="13000.00000" pt_clust_7="13000.00000" pt_clust_8="13000.00000" pt_clust_9="25.51329"></scales>
<clustering>
<clus scale="   25.513">  2  9  1 -1</clus>
<clus scale="   80.443">  5  6 -1 -1</clus>
<clus scale="   82.055">  2  5  1 -1</clus>
<clus scale="   91.257">  7  8 -1 -1</clus>
<clus scale="   25.513">  2  5  1 -1</clus>
</clustering>
</event>
<event>
 9    1  0.4731329E-005  0.1712240E+03  0.7546771E-02  0.1204988E+00
          3   -1    0    0  502    0 -0.00000000000E+00  0.00000000000E+00  0.13719356456E+03  0.13719356456E+03  0.00000000000E+00 0. -1.
         21   -1    0    0  501  502  0.00000000000E+00 -0.00000000000E+00 -0.53885599703E+03  0.53885599703E+03  0.00000000000E+00 0. -1.
         23    2    1    2    0    0  0.11232111393E+02 -0.16311634789E+01 -0.14200637950E+03  0.16891650552E+03  0.90764271586E+02 0.  0.
        -24    2    1    2    0    0 -0.58385021424E+02  0.14425501159E+03  0.32773710110E+02  0.17837763739E+03  0.80784567515E+02 0.  0.
         11    1    4    4    0    0 -0.63251498454E+02  0.12838422438E+03  0.52635848124E+02  0.15249194613E+03  0.00000000000E+00 0. -1.
        -12    1    4    4    0    0  0.48664770305E+01  0.15870787217E+02 -0.19862138014E+02  0.25885691261E+02  0.00000000000E+00 0.  1.
        -11    1    3    3    0    0  0.31704064129E+02  0.36376078573E+02 -0.72215736976E+02  0.86853206283E+02  0.00000000000E+00 0.  1.
         11    1    3    3    0    0 -0.20471952736E+02 -0.38007242051E+02 -0.69790642523E+02  0.82063299233E+02  0.00000000000E+00 0. -1.
          4    1    1    2  501    0  0.47152910030E+02 -0.14262384811E+03 -0.29242976309E+03  0.32875541868E+03  0.00000000000E+00 0. -1.
<scales pt_clust_5="13000.00000" pt_clust_6="13000.00000" pt_clust_7="13000.00000" pt_clust_8="13000.00000" pt_clust_9="150.96858"></scales>
<clustering>
<clus scale="   80.785">  5  6 -1 -1</clus>
<clus scale="   90.764">  7  8 -1 -1</clus>
<clus scale="   91.471">  1  7  2 -1</clus>
<clus scale="  150.969">  2  9  1 -1</clus>
<clus scale="  150.969">  2  5  1 -1</clus>
</clustering>
</event>
<event>
 9    1  0.4731329E-005  0.1368595E+03  0.7546771E-02  0.1219814E+00
         21   -1    0    0  501  502  0.00000000000E+00  0.00000000000E+00  0.42920604545E+03  0.42920604545E+03  0.00000000000E+00 0.  1.
          1   -1    0    0  502    0 -0.00000000000E+00 -0.00000000000E+00 -0.13027059331E+03  0.13027059331E+03  0.00000000000E+00 0. -1.
         23    2    1    2    0    0 -0.88977981410E+02 -0.37873924601E+02 -0.35170470090E+02  0.13820991565E+03  0.92268648404E+02 0.  0.
        -24    2    1    2    0    0  0.12050042890E+03  0.54344219839E+02  0.34933142186E+03  0.38257885473E+03  0.82828076117E+02 0.  0.
         13    1    4    4    0    0  0.65024188618E+02  0.11592938233E+00  0.84524124957E+02  0.10664185972E+03  0.00000000000E+00 0. -1.
        -14    1    4    4    0    0  0.55476240280E+02  0.54228290456E+02  0.26480729690E+03  0.27593699501E+03  0.00000000000E+00 0.  1.
        -13    1    3    3    0    0 -0.56746959949E+02 -0.58236350607E+02  0.66941204654E+01  0.81587384100E+02  0.00000000000E+00 0.  1.
         13    1    3    3    0    0 -0.32231021461E+02  0.20362426006E+02 -0.41864590555E+02  0.56622531554E+02  0.00000000000E+00 0. -1.
          2    1    1    2  501    0 -0.31522447488E+02 -0.16470295238E+02 -0.15225499620E+02  0.38687868377E+02  0.00000000000E+00 0. -1.
<scales pt_clust_5="13000.00000" pt_clust_6="13000.00000" pt_clust_7="13000.00000" pt_clust_8="13000.00000" pt_clust_9="35.56595"></scales>
<clustering>
<clus scale="   35.566">  1  9  2 -1</clus>
<clus scale="   82.828">  5  6 -1 -1</clus>
<clus scale="   92.269">  7  8 -1 -1</clus>
<clus scale="  130.681">  1  5  2 -1</clus>
<clus scale="   35.566">  1  5  2 -1</clus>
</clustering>
</event>
<event>
 9    1  0.4731329E-005  0.1628004E+03  0.7546771E-02  0.1186060E+00
          3   -1    0    0  502    0 -0.00000000000E+00  0.00000000000E+00  0.57597982285E+03  0.57597982285E+03  0.00000000000E+00 0. -1.
         21   -1    0    0  501  502  0.00000000000E+00 -0.00000000000E+00 -0.35986833908E+03  0.35986833908E+03  0.00000000000E+00 0.  1.
         23    2    1    2    0    0 -0.10651518885E+03 -0.76367793404E+02  0.51544938230E+03  0.54000090787E+03  0.93463305478E+02 0.  0.
        -24    2    1    2    0    0  0.15082893734E+03  0.10621257882E+03 -0.24340067958E+03  0.31849486569E+03  0.90358222731E+02 0.  0.
         13    1    4    4    0    0  0.12523032954E+03  0.37206355157E+02 -0.13897777873E+03  0.19074006207E+03  0.00000000000E+00 0. -1.
        -14    1    4    4    0    0  0.25598607802E+02  0.69006223663E+02 -0.10442290085E+03  0.12775480362E+03  0.00000000000E+00 0.  1.
        -11    1    3    3    0    0  0.11683765307E+02 -0.20822427166E+02  0.36902573758E+02  0.43953200052E+02  0.00000000000E+00 0.  1.
         11    1    3    3    0    0 -0.11819895416E+03 -0.55545366238E+02  0.47854680854E+03  0.49604770782E+03  0.00000000000E+00 0. -1.
          4    1    1    2  501    0 -0.44313748490E+02 -0.29844785415E+02 -0.55937218944E+02  0.77352388359E+02  0.00000000000E+00 0. -1.
<scales pt_clust_5="13000.00000" pt_clust_6="13000.00000" pt_clust_7="13000.00000" pt_clust_8="13000.00000" pt_clust_9="53.42677"></scales>
<clustering>
<clus scale="   53.427">  2  9  1 -1</clus>
<clus scale="   90.358">  5  6 -1 -1</clus>
<clus scale="   93.463">  7  8 -1 -1</clus>
<clus scale="  161.038">  2  5  1 -1</clus>
<clus scale="   53.427">  2  5  1 -1</clus>
</clustering>
</event>
<event>
 9    1  0.4731329E-005  0.9613406E+02  0.7546771E-02  0.1293200E+00
          1   -1    0    0  502    0 -0.00000000000E+00  0.00000000000E+00  0.18500129483E+03  0.18500129483E+03  0.00000000000E+00 0. -1.
         21   -1    0    0  501  502  0.00000000000E+00 -0.00000000000E+00 -0.29207650551E+03  0.29207650551E+03  0.00000000000E+00 0. -1.
        -24    2    1    2    0    0 -0.42846858188E+02 -0.15385957674E+02  0.10984983315E+03  0.14420058481E+03  0.81573536563E+02 0.  0.
         23    2    1    2    0    0  0.12145324545E+02 -0.17399729907E+02  0.17554662352E+02  0.94134219623E+02  0.90015696545E+02 0.  0.
         11    1    3    3    0    0  0.17761648533E+02 -0.26240076124E+02  0.41360279227E+02  0.52102691402E+02  0.00000000000E+00 0. -1.
        -12    1    3    3    0    0 -0.60608506721E+02  0.10854118450E+02  0.68489553924E+02  0.92097893412E+02  0.00000000000E+00 0.  1.
        -11    1    4    4    0    0  0.96947057165E+00 -0.48584823274E+02  0.31799311351E+02  0.58074272515E+02  0.00000000000E+00 0. -1.
         11    1    4    4    0    0  0.11175853973E+02  0.31185093366E+02 -0.14244648999E+02  0.36059947108E+02  0.00000000000E+00 0.  1.
          2    1    1    2  501    0  0.30701533643E+02  0.32785687581E+02 -0.23447970619E+03  0.23874299590E+03  0.00000000000E+00 0. -1.
<scales pt_clust_5="13000.00000" pt_clust_6="13000.00000" pt_clust_7="13000.00000" pt_clust_8="13000.00000" pt_clust_9="44.91643"></scales>
<clustering>
<clus scale="   44.916">  2  9  1 -1</clus>
<clus scale="   81.574">  5  6 -1 -1</clus>
<clus scale="   88.279">  1  5  2 -1</clus>
<clus scale="   90.016">  7  8 -1 -1</clus>
<clus scale="   44.916">  2  5  1 -1</clus>
</clustering>
</event>
<event>
 9    1  0.4731329E-005  0.2000829E+03  0.7546771E-02  0.1150456E+00
         21   -1    0    0  501  502  0.00000000000E+00  0.00000000000E+00  0.11566115499E+03  0.11566115499E+03  0.00000000000E+00 0. -1.
          1   -1    0    0  502    0 -0.00000000000E+00 -0.00000000000E+00 -0.12045360047E+04  0.12045360047E+04  0.00000000000E+00 0. -1.
         23    2    1    2    0    0  0.15281019724E+03 -0.63672247739E+02 -0.78736093378E+03  0.80967335782E+03  0.90711602403E+02 0.  0.
        -24    2    1    2    0    0 -0.22304996753E+03  0.35665909053E+02 -0.34711053682E+03  0.42222299678E+03  0.82238611095E+02 0.  0.
         11    1    4    4    0    0 -0.18635044207E+03  0.25690292605E+01 -0.30432020622E+03  0.35685273585E+03  0.00000000000E+00 0. -1.
        -12    1    4    4    0    0 -0.36699525459E+02  0.33096879793E+02 -0.42790330600E+02  0.65370260928E+02  0.00000000000E+00 0.  1.
        -11    1    3    3    0    0  0.11431742642E+03 -0.54350961527E+02 -0.72378528949E+03  0.73477047183E+03  0.00000000000E+00 0. -1.
         11    1    3    3    0    0  0.38492770818E+02 -0.93212862119E+01 -0.63575644297E+02  0.74902885990E+02  0.00000000000E+00 0.  1.
          2    1    1    2  501    0  0.70239770296E+02  0.28006338686E+02  0.45596620914E+02  0.88300805073E+02  0.00000000000E+00 0. -1.
<scales pt_clust_5="13000.00000" pt_clust_6="13000.00000" pt_clust_7="13000.00000" pt_clust_8="13000.00000" pt_clust_9="75.61733"></scales>
<clustering>
<clus scale="   75.617">  1  9  2 -1</clus>
<clus scale="   82.239">  5  6 -1 -1</clus>
<clus scale="   90.712">  7  8 -1 -1</clus>
<clus scale="  196.387">  1  5  2 -1</clus>
<clus scale="   75.617">  1  5  2 -1</clus>
</clustering>
</event>
<event>
 9    1  0.4731329E-005  0.1221618E+03  0.7546771E-02  0.1241221E+00
         -4   -1    0    0    0  501 -0.00000000000E+00  0.00000000000E+00  0.28594618178E+03  0.28594618178E+03  0.00000000000E+00 0.  1.
         21   -1    0    0  501  502  0.00000000000E+00 -0.00000000000E+00 -0.12442626835E+03  0.12442626835E+03  0.00000000000E+00 0.  1.
        -24    2    1    2    0    0 -0.77650794301E+02 -0.39575087697E+02  0.19978118705E+03  0.23468659564E+03  0.87002540496E+02 0.  0.
         23    2    1    2    0    0  0.59389117923E+02  0.15612712352E+02  0.17500173523E+02  0.11230586362E+03  0.92387914878E+02 0.  0.
         11    1    3    3    0    0 -0.18729109724E+02 -0.37954379619E+02  0.22645927271E+02  0.48001588570E+02  0.00000000000E+00 0. -1.
        -12    1    3    3    0    0 -0.58921684577E+02 -0.16207080780E+01  0.17713525978E+03  0.18668500707E+03  0.00000000000E+00 0.  1.
        -11    1    4    4    0    0 -0.21240940970E+02  0.18664143502E+02  0.13975537358E+02  0.31541139333E+02  0.00000000000E+00 0. -1.
         11    1    4    4    0    0  0.80630058893E+02 -0.30514311503E+01  0.35246361651E+01  0.80764724287E+02  0.00000000000E+00 0.  1.
         -3    1    1    2    0  502  0.18261676379E+02  0.23962375345E+02 -0.55761447134E+02  0.63379990871E+02  0.00000000000E+00 0.  1.
<scales pt_clust_5="13000.00000" pt_clust_6="13000.00000" pt_clust_7="13000.00000" pt_clust_8="13000.00000" pt_clust_9="30.12780"></scales>
<clustering>
<clus scale="   30.128">  2  9  1 -1</clus>
<clus scale="   87.003">  5  6 -1 -1</clus>
<clus scale="   92.388">  7  8 -1 -1</clus>
<clus scale="  118.142">  1  5  2 -1</clus>
<clus scale="   30.128">  2  5  1 -1</clus>
</clustering>
</event>
<event>
 9    1  0.4731329E-005  0.8988489E+02  0.7546771E-02  0.1307229E+00
          3   -1    0    0  502    0 -0.00000000000E+00  0.00000000000E+00  0.93837893006E+02  0.93837893006E+02  0.00000000000E+00 0. -1.
         21   -1    0    0  501  502  0.00000000000E+00 -0.00000000000E+00 -0.49588213141E+03  0.49588213141E+03  0.00000000000E+00 0. -1.
         23    2    1    2    0    0  0.34914844000E+02 -0.57323587474E+01  0.40323269123E+02  0.10266449409E+03  0.87533570959E+02 0.  0.
        -24    2    1    2    0    0  0.45516385110E+02  0.14917593037E+02 -0.10862906617E+03  0.14363902172E+03  0.80855541853E+02 0.  0.
         13    1    4    4    0    0  0.21637032253E+02 -0.22176267515E+02 -0.91002915834E+02  0.96132609950E+02  0.00000000000E+00 0. -1.
        -14    1    4    4    0    0  0.23879352857E+02  0.37093860552E+02 -0.17626150333E+02  0.47506411768E+02  0.00000000000E+00 0.  1.
        -13    1    3    3    0    0 -0.17949081662E+02  0.20949039762E+02 -0.50738821653E+01  0.28049529046E+02  0.00000000000E+00 0.  1.
         13    1    3    3    0    0  0.52863925663E+02 -0.26681398509E+02  0.45397151288E+02  0.74614965040E+02  0.00000000000E+00 0. -1.
          4    1    1    2  501    0 -0.80431229111E+02 -0.91852342896E+01 -0.33373844136E+03  0.34341650861E+03  0.00000000000E+00 0. -1.
<scales pt_clust_5="13000.00000" pt_clust_6="13000.00000" pt_clust_7="13000.00000" pt_clust_8="13000.00000" pt_clust_9="80.95401"></scales>
<clustering>
<clus scale="   80.856">  5  6 -1 -1</clus>
<clus scale="   80.954">  2  9  1 -1</clus>
<clus scale="   83.395">  2  5  1 -1</clus>
<clus scale="   87.534">  7  8 -1 -1</clus>
<clus scale="   80.954">  2  5  1 -1</clus>
</clustering>
</event>
<event>
 9    1  0.4731329E-005  0.9672521E+02  0.7546771E-02  0.1294757E+00
         21   -1    0    0  501  502  0.00000000000E+00  0.00000000000E+00  0.29984147981E+03  0.29984147981E+03  0.00000000000E+00 0. -1.
         -2   -1    0    0    0  501 -0.00000000000E+00 -0.00000000000E+00 -0.43759258004E+02  0.43759258004E+02  0.00000000000E+00 0.  1.
        -24    2    1    2    0    0 -0.26765621720E+02  0.23199373424E+01  0.39299896598E+02  0.94087975659E+02  0.81155928161E+02 0.  0.
         23    2    1    2    0    0  0.86570515464E+01  0.11953222705E+02  0.19821130710E+03  0.21990657826E+03  0.94092278237E+02 0.  0.
         13    1    3    3    0    0  0.25205145045E+02 -0.15751788393E+02  0.19791400053E+02  0.35708790099E+02  0.00000000000E+00 0. -1.
        -14    1    3    3    0    0 -0.51970766765E+02  0.18071725735E+02  0.19508496545E+02  0.58379185560E+02  0.00000000000E+00 0.  1.
        -11    1    4    4    0    0 -0.27680245127E+02 -0.11135555720E+02  0.15867196960E+03  0.16145275008E+03  0.00000000000E+00 0. -1.
         11    1    4    4    0    0  0.36337296673E+02  0.23088778425E+02  0.39539337501E+02  0.58453828178E+02  0.00000000000E+00 0.  1.
         -1    1    1    2    0  502  0.18108570174E+02 -0.14273160047E+02  0.18571018108E+02  0.29606183899E+02  0.00000000000E+00 0.  1.
<scales pt_clust_5="13000.00000" pt_clust_6="13000.00000" pt_clust_7="13000.00000" pt_clust_8="13000.00000" pt_clust_9="23.05741"></scales>
<clustering>
<clus scale="   23.057">  1  9  2 -1</clus>
<clus scale="   81.156">  5  6 -1 -1</clus>
<clus scale="   84.194">  2  5  1 -1</clus>
<clus scale="   94.092">  7  8 -1 -1</clus>
<clus scale="   23.057">  1  5  2 -1</clus>
</clustering>
</event>
<event>
 9    1  0.4731329E-005  0.1050530E+03  0.7546771E-02  0.1274890E+00
          3   -1    0    0  502    0 -0.00000000000E+00  0.00000000000E+00  0.49229773453E+03  0.49229773453E+03  0.00000000000E+00 0. -1.
         21   -1    0    0  501  502  0.00000000000E+00 -0.00000000000E+00 -0.39622332833E+02  0.39622332833E+02  0.00000000000E+00 0. -1.
         23    2    1    2    0    0  0.86669113511E+00  0.53853849985E+02  0.37010235600E+03  0.38488536093E+03  0.90884535700E+02 0.  0.
        -24    2    1    2    0    0 -0.21823598699E+02 -0.47776483496E+02  0.80819329215E+02  0.12514402623E+03  0.79814794944E+02 0.  0.
         13    1    4    4    0    0 -0.28814030480E+02 -0.19095764847E+02 -0.45028706891E+01  0.34859323460E+02  0.00000000000E+00 0. -1.
        -14    1    4    4    0    0  0.69904317809E+01 -0.28680718649E+02  0.85322199904E+02  0.90284702775E+02  0.00000000000E+00 0.  1.
        -11    1    3    3    0    0  0.38204453440E+02  0.15298292730E+02  0.81128515279E+02  0.90969522448E+02  0.00000000000E+00 0.  1.
         11    1    3    3    0    0 -0.37337762305E+02  0.38555557255E+02  0.28897384072E+03  0.29391583848E+03  0.00000000000E+00 0. -1.
          4    1    1    2  501    0  0.20956907564E+02 -0.60773664889E+01  0.17537164836E+01  0.21890680200E+02  0.00000000000E+00 0. -1.
<scales pt_clust_5="13000.00000" pt_clust_6="13000.00000" pt_clust_7="13000.00000" pt_clust_8="13000.00000" pt_clust_9="21.82032"></scales>
<clustering>
<clus scale="   21.820">  2  9  1 -1</clus>
<clus scale="   79.815">  5  6 -1 -1</clus>
<clus scale="   90.885">  7  8 -1 -1</clus>
<clus scale="   95.638">  2  5  1 -1</clus>
<clus scale="   21.820">  2  5  1 -1</clus>
</clustering>
</event>
<event>
 9    1  0.4731329E-005  0.1807120E+03  0.7546771E-02  0.1172876E+00
          1   -1    0    0  502    0 -0.00000000000E+00  0.00000000000E+00  0.11665660220E+03  0.11665660220E+03  0.00000000000E+00 0. -1.
         21   -1    0    0  501  502  0.00000000000E+00 -0.00000000000E+00 -0.69460954476E+03  0.69460954476E+03  0.00000000000E+00 0. -1.
         23    2    1    2    0    0  0.73609497054E+02  0.10765093959E+03 -0.54075603382E+02  0.16737772351E+03  0.89911337416E+02 0.  0.
        -24    2    1    2    0    0  0.12441471448E+03 -0.10273478702E+03 -0.26065638023E+03  0.31446008506E+03  0.70070956142E+02 0.  0.
         13    1    4    4    0    0  0.11836555736E+03 -0.98650844082E+02 -0.26457671346E+03  0.30617516475E+03  0.00000000000E+00 0. -1.
        -14    1    4    4    0    0  0.60491571206E+01 -0.40839429413E+01  0.39203332274E+01  0.82849203033E+01  0.00000000000E+00 0.  1.
        -13    1    3    3    0    0  0.38364734855E+02 -0.64972730728E+01 -0.12002811309E+02  0.40720202814E+02  0.00000000000E+00 0.  1.
         13    1    3    3    0    0  0.35244762198E+02  0.11414821266E+03 -0.42072792072E+02  0.12665752070E+03  0.00000000000E+00 0. -1.
          2    1    1    2  501    0 -0.19802421153E+03 -0.49161525685E+01 -0.26322095894E+03  0.32942833839E+03  0.00000000000E+00 0. -1.
<scales pt_clust_5="13000.00000" pt_clust_6="13000.00000" pt_clust_7="13000.00000" pt_clust_8="13000.00000" pt_clust_9="166.57407"></scales>
<clustering>
<clus scale="   70.071">  5  6 -1 -1</clus>
<clus scale="   89.911">  7  8 -1 -1</clus>
<clus scale="  158.402">  1  7  2 -1</clus>
<clus scale="  166.574">  2  9  1 -1</clus>
<clus scale="  166.574">  2  5  1 -1</clus>
</clustering>
</event>
<event>
 9    1  0.4731329E-005  0.2503836E+03  0.7546771E-02  0.1113464E+00
         21   -1    0    0  501  502  0.00000000000E+00  0.00000000000E+00  0.52733533373E+03  0.52733533373E+03  0.00000000000E+00 0.  1.
         -2   -1    0    0    0  501 -0.00000000000E+00 -0.00000000000E+00 -0.17434824620E+03  0.17434824620E+03  0.00000000000E+00 0.  1.
         23    2    1    2    0    0  0.25914217564E+03 -0.47002384825E+02  0.57813055370E+02  0.28355968441E+03  0.87748811257E+02 0.  0.
        -24    2    1    2    0    0 -0.18141493186E+03  0.29577180257E+02  0.26634117955E+03  0.33340969619E+03  0.80238485128E+02 0.  0.
         13    1    4    4    0    0 -0.17635157096E+03  0.60725263186E+01  0.23699745445E+03  0.29547342617E+03  0.00000000000E+00 0. -1.
        -14    1    4    4    0    0 -0.50633608994E+01  0.23504653938E+02  0.29343725094E+02  0.37936270016E+02  0.00000000000E+00 0.  1.
        -13    1    3    3    0    0  0.14800099949E+03  0.57403053284E+01  0.61766148831E+02  0.16047524450E+03  0.00000000000E+00 0. -1.
         13    1    3    3    0    0  0.11114117615E+03 -0.52742690153E+02 -0.39530934610E+01  0.12308443991E+03  0.00000000000E+00 0.  1.
         -1    1    1    2    0  502 -0.77727243777E+02  0.17425204568E+02  0.28832852613E+02  0.84714199337E+02  0.00000000000E+00 0.  1.
<scales pt_clust_5="13000.00000" pt_clust_6="13000.00000" pt_clust_7="13000.00000" pt_clust_8="13000.00000" pt_clust_9="79.65657"></scales>
<clustering>
<clus scale="   79.657">  1  9  2 -1</clus>
<clus scale="   80.238">  5  6 -1 -1</clus>
<clus scale="   87.749">  7  8 -1 -1</clus>
<clus scale="  247.851">  1  5  2 -1</clus>
<clus scale="   79.657">  1  5  2 -1</clus>
</clustering>
</event>
<event>
 9    1  0.4731329E-005  0.9174038E+02  0.7546771E-02  0.1305937E+00
         21   -1    0    0  501  502  0.00000000000E+00  0.00000000000E+00  0.19231883166E+02  0.19231883166E+02  0.00000000000E+00 0. -1.
          1   -1    0    0  502    0 -0.00000000000E+00 -0.00000000000E+00 -0.89129583184E+03  0.89129583184E+03  0.00000000000E+00 0. -1.
        -24    2    1    2    0    0  0.11668063456E+02  0.28561220843E+02 -0.26010792070E+03  0.27393944140E+03  0.80217205762E+02 0.  0.
         23    2    1    2    0    0  0.69566491046E+01  0.39415114668E+02 -0.28266859271E+03  0.29984226082E+03  0.91661888687E+02 0.  0.
         11    1    3    3    0    0  0.41625618666E+02  0.24428318915E+02 -0.20947202366E+03  0.21496037680E+03  0.00000000000E+00 0. -1.
        -12    1    3    3    0    0 -0.29957555209E+02  0.41329019275E+01 -0.50635897042E+02  0.58979064605E+02  0.00000000000E+00 0.  1.
        -11    1    4    4    0    0  0.63634645711E+01  0.68172267662E+02 -0.16361853585E+03  0.17736678672E+03  0.00000000000E+00 0. -1.
         11    1    4    4    0    0  0.59318453359E+00 -0.28757152994E+02 -0.11905005686E+03  0.12247547409E+03  0.00000000000E+00 0.  1.
          2    1    1    2  501    0 -0.18624712561E+02 -0.67976335511E+02 -0.32928743526E+03  0.33674601279E+03  0.00000000000E+00 0. -1.
<scales pt_clust_5="13000.00000" pt_clust_6="13000.00000" pt_clust_7="13000.00000" pt_clust_8="13000.00000" pt_clust_9="70.48168"></scales>
<clustering>
<clus scale="   70.482">  1  9  2 -1</clus>
<clus scale="   80.217">  5  6 -1 -1</clus>
<clus scale="   80.307">  2  5  1 -1</clus>
<clus scale="   91.662">  7  8 -1 -1</clus>
<clus scale="   70.482">  1  5  2 -1</clus>
</clustering>
</event>
<event>
 9    1  0.4731329E-005  0.1141093E+03  0.7546771E-02  0.1257993E+00
         -4   -1    0    0    0  501 -0.00000000000E+00  0.00000000000E+00  0.12516096402E+03  0.12516096402E+03  0.00000000000E+00 0.  1.
         21   -1    0    0  501  502  0.00000000000E+00 -0.00000000000E+00 -0.19028127765E+03  0.19028127765E+03  0.00000000000E+00 0. -1.
         23    2    1    2    0    0 -0.75791060050E+02  0.16100213137E+02  0.24420434793E+01  0.12150953559E+03  0.93568702124E+02 0.  0.
        -24    2    1    2    0    0  0.46864139102E+02  0.44549566013E+02 -0.73097865282E+02  0.12651012590E+03  0.80502190537E+02 0.  0.
         13    1    4    4    0    0  0.34278659788E+02  0.48329550366E+02 -0.88349241707E+02  0.10637838345E+03  0.00000000000E+00 0. -1.
        -14    1    4    4    0    0  0.12585479314E+02 -0.37799843528E+01  0.15251376425E+02  0.20131742451E+02  0.00000000000E+00 0.  1.
        -13    1    3    3    0    0  0.90977442117E+01  0.24943318479E+02  0.21376196980E+02  0.34086359204E+02  0.00000000000E+00 0. -1.
         13    1    3    3    0    0 -0.84888804261E+02 -0.88431053417E+01 -0.18934153501E+02  0.87423176388E+02  0.00000000000E+00 0.  1.
         -3    1    1    2    0  502  0.28926920947E+02 -0.60649779150E+02  0.55355081798E+01  0.67422580174E+02  0.00000000000E+00 0.  1.
<scales pt_clust_5="13000.00000" pt_clust_6="13000.00000" pt_clust_7="13000.00000" pt_clust_8="13000.00000" pt_clust_9="67.19499"></scales>
<clustering>
<clus scale="   67.195">  2  9  1 -1</clus>
<clus scale="   80.502">  5  6 -1 -1</clus>
<clus scale="   93.569">  7  8 -1 -1</clus>
<clus scale="  103.665">  2  5  1 -1</clus>
<clus scale="   67.195">  2  5  1 -1</clus>
</clustering>
</event>
<event>
 9    1  0.4731329E-005  0.1213113E+03  0.7546771E-02  0.1243615E+00
         -4   -1    0    0    0  501 -0.00000000000E+00  0.00000000000E+00  0.29745157084E+03  0.29745157084E+03  0.00000000000E+00 0.  1.
         21   -1    0    0  501  502  0.00000000000E+00 -0.00000000000E+00 -0.87433057109E+02  0.87433057109E+02  0.00000000000E+00 0.  1.
        -24    2    1    2    0    0 -0.35143250932E+01  0.11515448884E+03  0.12959065182E+03  0.19163376317E+03  0.81589554268E+02 0.  0.
         23    2    1    2    0    0  0.54821198205E+01 -0.40674124933E+02  0.31461977198E+02  0.10409451509E+03  0.90340323146E+02 0.  0.
         11    1    3    3    0    0  0.35661392531E+02  0.34266322234E+02  0.31707752725E+02  0.58747743272E+02  0.00000000000E+00 0. -1.
        -12    1    3    3    0    0 -0.39175717624E+02  0.80888166606E+02  0.97882899099E+02  0.13288601990E+03  0.00000000000E+00 0.  1.
        -13    1    4    4    0    0  0.30764328962E+02  0.89461323283E+01  0.36033767659E+02  0.48217316721E+02  0.00000000000E+00 0.  1.
         13    1    4    4    0    0 -0.25282209141E+02 -0.49620257261E+02 -0.45717904609E+01  0.55877198370E+02  0.00000000000E+00 0. -1.
         -3    1    1    2    0  502 -0.19677947273E+01 -0.74480363908E+02  0.48965884706E+02  0.89156349684E+02  0.00000000000E+00 0.  1.
<scales pt_clust_5="13000.00000" pt_clust_6="13000.00000" pt_clust_7="13000.00000" pt_clust_8="13000.00000" pt_clust_9="74.50639"></scales>
<clustering>
<clus scale="   74.506">  2  9  1 -1</clus>
<clus scale="   81.590">  5  6 -1 -1</clus>
<clus scale="   90.340">  7  8 -1 -1</clus>
<clus scale="  114.943">  1  5  2 -1</clus>
<clus scale="   74.506">  2  5  1 -1</clus>
</clustering>
</event>
<event>
 9    1  0.4731329E-005  0.1005853E+03  0.7546771E-02  0.1288654E+00
         21   -1    0    0  501  502  0.00000000000E+00  0.00000000000E+00  0.67174482717E+02  0.67174482717E+02  0.00000000000E+00 0. -1.
          1   -1    0    0  502    0 -0.00000000000E+00 -0.00000000000E+00 -0.45868822743E+03  0.45868822743E+03  0.00000000000E+00 0. -1.
        -24    2    1    2    0    0  0.47567197210E+01  0.36129127610E+02 -0.29355639286E+03  0.30662175870E+03  0.80706919599E+02 0.  0.
         23    2    1    2    0    0  0.13736114938E+01  0.11421347730E+02 -0.12881761727E+03  0.16222354492E+03  0.97929393007E+02 0.  0.
         13    1    3    3    0    0  0.82337778122E+01  0.60738368441E+02 -0.23788159183E+03  0.24565137132E+03  0.00000000000E+00 0. -1.
        -14    1    3    3    0    0 -0.34770580912E+01 -0.24609240831E+02 -0.55674801027E+02  0.60970387375E+02  0.00000000000E+00 0.  1.
        -11    1    4    4    0    0 -0.90002102147E+01 -0.36081619876E+02 -0.18222306696E+02  0.41411828480E+02  0.00000000000E+00 0.  1.
         11    1    4    4    0    0  0.10373821708E+02  0.47502967606E+02 -0.11059531057E+03  0.12081171644E+03  0.00000000000E+00 0. -1.
          2    1    1    2  501    0 -0.61303312147E+01 -0.47550475340E+02  0.30860265418E+02  0.57017406531E+02  0.00000000000E+00 0. -1.
<scales pt_clust_5="13000.00000" pt_clust_6="13000.00000" pt_clust_7="13000.00000" pt_clust_8="13000.00000" pt_clust_9="47.94402"></scales>
<clustering>
<clus scale="   47.944">  1  9  2 -1</clus>
<clus scale="   80.707">  5  6 -1 -1</clus>
<clus scale="   83.910">  2  5  1 -1</clus>
<clus scale="   97.929">  7  8 -1 -1</clus>
<clus scale="   47.944">  1  5  2 -1</clus>
</clustering>
</event>
<event>
 9    1  0.4731329E-005  0.1984783E+03  0.7546771E-02  0.1151769E+00
          1   -1    0    0  502    0 -0.00000000000E+00  0.00000000000E+00  0.48313038003E+03  0.48313038003E+03  0.00000000000E+00 0. -1.
         21   -1    0    0  501  502  0.00000000000E+00 -0.00000000000E+00 -0.12721886188E+03  0.12721886188E+03  0.00000000000E+00 0. -1.
        -24    2    1    2    0    0  0.25905179818E+02 -0.13448228678E+03  0.95600249016E+02  0.18693869493E+03  0.83964898924E+02 0.  0.
         23    2    1    2    0    0 -0.53876627732E+02  0.21970134394E+03  0.19621169116E+03  0.31316788057E+03  0.91671817522E+02 0.  0.
         13    1    3    3    0    0  0.53805703565E+02 -0.83755594757E+02  0.42014179343E+02  0.10805204605E+03  0.00000000000E+00 0. -1.
        -14    1    3    3    0    0 -0.27900523747E+02 -0.50726692024E+02  0.53586069673E+02  0.78886648883E+02  0.00000000000E+00 0.  1.
        -13    1    4    4    0    0 -0.59658112250E+02  0.17446539117E+03  0.10753084755E+03  0.21344822850E+03  0.00000000000E+00 0. -1.
         13    1    4    4    0    0  0.57814845187E+01  0.45235952767E+02  0.88680843607E+02  0.99719652069E+02  0.00000000000E+00 0.  1.
          2    1    1    2  501    0  0.27971447914E+02 -0.85219057156E+02  0.64099577978E+02  0.11024266641E+03  0.00000000000E+00 0. -1.
<scales pt_clust_5="13000.00000" pt_clust_6="13000.00000" pt_clust_7="13000.00000" pt_clust_8="13000.00000" pt_clust_9="89.69219"></scales>
<clustering>
<clus scale="   83.965">  5  6 -1 -1</clus>
<clus scale="   89.692">  2  9  1 -1</clus>
<clus scale="   91.672">  7  8 -1 -1</clus>
<clus scale="  195.038">  1  5  2 -1</clus>
<clus scale="   89.692">  2  5  1 -1</clus>
</clustering>
</event>
<event>
 9    1  0.4731329E-005  0.1301976E+03  0.7546771E-02  0.1230844E+00
          1   -1    0    0  502    0 -0.00000000000E+00  0.00000000000E+00  0.27211536961E+03  0.27211536961E+03  0.00000000000E+00 0. -1.
         21   -1    0    0  501  502  0.00000000000E+00 -0.00000000000E+00 -0.17939804603E+03  0.17939804603E+03  0.00000000000E+00 0.  1.
         23    2    1    2    0    0  0.72986886294E+01  0.90065098780E+02  0.18226840484E+03  0.22432795285E+03  0.94531826135E+02 0.  0.
        -24    2    1    2    0    0  0.22844525232E+02 -0.84988251327E+02 -0.12992641418E+03  0.17654402491E+03  0.80882905686E+02 0.  0.
         13    1    4    4    0    0  0.24443100030E+02  0.83762672702E+01 -0.23098908125E+02  0.34658138279E+02  0.00000000000E+00 0. -1.
        -14    1    4    4    0    0 -0.15985747977E+01 -0.93364518597E+02 -0.10682750606E+03  0.14188588663E+03  0.00000000000E+00 0.  1.
        -11    1    3    3    0    0  0.24284086722E+02  0.15710239473E+02  0.24778904515E+01  0.29028751839E+02  0.00000000000E+00 0.  1.
         11    1    3    3    0    0 -0.16985398093E+02  0.74354859308E+02  0.17979051439E+03  0.19529920101E+03  0.00000000000E+00 0. -1.
          2    1    1    2  501    0 -0.30143213861E+02 -0.50768474536E+01  0.40375332922E+02  0.50641437879E+02  0.00000000000E+00 0. -1.
<scales pt_clust_5="13000.00000" pt_clust_6="13000.00000" pt_clust_7="13000.00000" pt_clust_8="13000.00000" pt_clust_9="30.56777"></scales>
<clustering>
<clus scale="   30.568">  2  9  1 -1</clus>
<clus scale="   80.883">  5  6 -1 -1</clus>
<clus scale="   94.532">  7  8 -1 -1</clus>
<clus scale="  120.653">  2  5  1 -1</clus>
<clus scale="   30.568">  2  5  1 -1</clus>
</clustering>
</event>
<event>
 9    1  0.4731329E-005  0.1162987E+03  0.7546771E-02  0.1251488E+00
         21   -1    0    0  501  502  0.00000000000E+00  0.00000000000E+00  0.43752484730E+02  0.43752484730E+02  0.00000000000E+00 0. -1.
          1   -1    0    0  502    0 -0.00000000000E+00 -0.00000000000E+00 -0.73183790800E+03  0.73183790800E+03  0.00000000000E+00 0. -1.
        -24    2    1    2    0    0 -0.53213988883E+02 -0.40122754640E+02 -0.18902288989E+03  0.21549174709E+03  0.79154760504E+02 0.  0.
         23    2    1    2    0    0  0.54007015149E+02  0.94317032526E+02 -0.13997927431E+03  0.19694793920E+03  0.85917595442E+02 0.  0.
         11    1    3    3    0    0 -0.71263831781E+02 -0.23971922964E+02 -0.11320527926E+03  0.13589930855E+03  0.00000000000E+00 0. -1.
        -12    1    3    3    0    0  0.18049842898E+02 -0.16150831676E+02 -0.75817610628E+02  0.79592438547E+02  0.00000000000E+00 0.  1.
        -11    1    4    4    0    0 -0.15378852654E+02  0.37313732128E+02 -0.15006175791E+02  0.43058205097E+02  0.00000000000E+00 0.  1.
         11    1    4    4    0    0  0.69385867803E+02  0.57003300398E+02 -0.12497309852E+03  0.15388973410E+03  0.00000000000E+00 0. -1.
          2    1    1    2  501    0 -0.79302626619E+00 -0.54194277886E+02 -0.35908325906E+03  0.36315070644E+03  0.00000000000E+00 0. -1.
<scales pt_clust_5="13000.00000" pt_clust_6="13000.00000" pt_clust_7="13000.00000" pt_clust_8="13000.00000" pt_clust_9="54.20011"></scales>
<clustering>
<clus scale="   54.200">  1  9  2 -1</clus>
<clus scale="   79.155">  5  6 -1 -1</clus>
<clus scale="   85.918">  7  8 -1 -1</clus>
<clus scale="  111.396">  2  5  1 -1</clus>
<clus scale="   54.200">  1  5  2 -1</clus>
</clustering>
</event>
<event>
 9    1  0.4731329E-005  0.9695291E+02  0.7546771E-02  0.1288713E+00
         -2   -1    0    0    0  501 -0.00000000000E+00  0.00000000000E+00  0.15049684641E+03  0.15049684641E+03  0.00000000000E+00 0.  1.
         21   -1    0    0  501  502  0.00000000000E+00 -0.00000000000E+00 -0.13844320154E+03  0.13844320154E+03  0.00000000000E+00 0. -1.
        -24    2    1    2    0    0  0.34717640666E+02  0.35671541595E+02  0.10139704892E+03  0.13959809707E+03  0.82027396178E+02 0.  0.
         23    2    1    2    0    0 -0.12175123215E+02 -0.24240263616E+02 -0.51144601638E+02  0.10353815503E+03  0.85840289281E+02 0.  0.
         11    1    3    3    0    0  0.59767661455E+02  0.18073351659E+02  0.50954942230E+02  0.80592962061E+02  0.00000000000E+00 0. -1.
        -12    1    3    3    0    0 -0.25050020789E+02  0.17598189935E+02  0.50442106691E+02  0.59005135014E+02  0.00000000000E+00 0.  1.
        -11    1    4    4    0    0 -0.98439995530E+01  0.31331011959E+02 -0.99214348340E+01  0.34307018331E+02  0.00000000000E+00 0.  1.
         11    1    4    4    0    0 -0.23311236618E+01 -0.55571275575E+02 -0.41223166804E+02  0.69231136694E+02  0.00000000000E+00 0. -1.
         -1    1    1    2    0  502 -0.22542517451E+02 -0.11431277979E+02 -0.38198802409E+02  0.45803795855E+02  0.00000000000E+00 0.  1.
<scales pt_clust_5="13000.00000" pt_clust_6="13000.00000" pt_clust_7="13000.00000" pt_clust_8="13000.00000" pt_clust_9="25.27527"></scales>
<clustering>
<clus scale="   25.275">  2  9  1 -1</clus>
<clus scale="   82.027">  5  6 -1 -1</clus>
<clus scale="   85.840">  7  8 -1 -1</clus>
<clus scale="   93.594">  1  5  2 -1</clus>
<clus scale="   25.275">  2  5  1 -1</clus>
</clustering>
</event>
<event>
 9    1  0.4731329E-005  0.1343000E+03  0.7546771E-02  0.1224205E+00
          1   -1    0    0  502    0 -0.00000000000E+00  0.00000000000E+00  0.66417896963E+03  0.66417896963E+03  0.00000000000E+00 0. -1.
         21   -1    0    0  501  502  0.00000000000E+00 -0.00000000000E+00 -0.48104817847E+02  0.48104817847E+02  0.00000000000E+00 0.  1.
         23    2    1    2    0    0  0.34876549410E+02  0.99446203607E+02  0.42681576218E+03  0.44934271751E+03  0.92904584497E+02 0.  0.
        -24    2    1    2    0    0 -0.50489910581E+02 -0.70708732499E+02  0.19644688008E+03  0.22945534631E+03  0.80680997363E+02 0.  0.
         11    1    4    4    0    0  0.45609951978E+00 -0.45430576919E+02  0.14776797919E+03  0.15459469919E+03  0.00000000000E+00 0. -1.
        -12    1    4    4    0    0 -0.50946010101E+02 -0.25278155581E+02  0.48678900896E+02  0.74860647120E+02  0.00000000000E+00 0.  1.
        -13    1    3    3    0    0 -0.11967437381E+02  0.79901650710E+02  0.33316544525E+03  0.34282168434E+03  0.00000000000E+00 0.  1.
         13    1    3    3    0    0  0.46843986791E+02  0.19544552897E+02  0.93650316937E+02  0.10652103318E+03  0.00000000000E+00 0. -1.
          2    1    1    2  501    0  0.15613361171E+02 -0.28737471107E+02 -0.71884904884E+01  0.33485723648E+02  0.00000000000E+00 0. -1.
<scales pt_clust_5="13000.00000" pt_clust_6="13000.00000" pt_clust_7="13000.00000" pt_clust_8="13000.00000" pt_clust_9="32.70503"></scales>
<clustering>
<clus scale="   32.705">  2  9  1 -1</clus>
<clus scale="   80.681">  5  6 -1 -1</clus>
<clus scale="   92.905">  7  8 -1 -1</clus>
<clus scale="  126.153">  2  5  1 -1</clus>
<clus scale="   32.705">  2  5  1 -1</clus>
</clustering>
</event>
<event>
 9    1  0.4731329E-005  0.1003881E+03  0.7546771E-02  0.1285345E+00
         -4   -1    0    0    0  501 -0.00000000000E+00  0.00000000000E+00  0.30381666626E+03  0.30381666626E+03  0.00000000000E+00 0.  1.
         21   -1    0    0  501  502  0.00000000000E+00 -0.00000000000E+00 -0.75271116013E+02  0.75271116013E+02  0.00000000000E+00 0. -1.
         23    2    1    2    0    0 -0.79209982186E+01  0.67533733830E+02  0.13199731445E+03  0.17462691172E+03  0.91911478362E+02 0.  0.
        -24    2    1    2    0    0 -0.97625798364E+01  0.99309129664E+01  0.26921815217E+01  0.81487542718E+02  0.80243633888E+02 0.  0.
         13    1    4    4    0    0  0.12570825886E+02 -0.25562610732E+02 -0.19032096268E+02  0.34259209261E+02  0.00000000000E+00 0. -1.
        -14    1    4    4    0    0 -0.22333405722E+02  0.35493523698E+02  0.21724277789E+02  0.47228333457E+02  0.00000000000E+00 0.  1.
        -13    1    3    3    0    0  0.34547519946E+02  0.42982361600E-02  0.40882263651E+02  0.53524673134E+02  0.00000000000E+00 0.  1.
         13    1    3    3    0    0 -0.42468518165E+02  0.67529435594E+02  0.91115050804E+02  0.12110223858E+03  0.00000000000E+00 0. -1.
         -3    1    1    2    0  502  0.17683578055E+02 -0.77464646796E+02  0.93856054267E+02  0.12297332783E+03  0.00000000000E+00 0.  1.
<scales pt_clust_5="13000.00000" pt_clust_6="13000.00000" pt_clust_7="13000.00000" pt_clust_8="13000.00000" pt_clust_9="79.45745"></scales>
<clustering>
<clus scale="   79.457">  2  9  1 -1</clus>
<clus scale="   80.244">  5  6 -1 -1</clus>
<clus scale="   89.828">  2  5  1 -1</clus>
<clus scale="   91.911">  7  8 -1 -1</clus>
<clus scale="   79.457">  2  5  1 -1</clus>
</clustering>
</event>
<event>
 9    1  0.4731329E-005  0.9942754E+02  0.7546771E-02  0.1287061E+00
         21   -1    0    0  501  502  0.00000000000E+00  0.00000000000E+00  0.95204270989E+02  0.95204270989E+02  0.00000000000E+00 0.  1.
          3   -1    0    0  502    0 -0.00000000000E+00 -0.00000000000E+00 -0.16208452416E+03  0.16208452416E+03  0.00000000000E+00 0. -1.
         23    2    1    2    0    0  0.34518213177E+02 -0.13559748585E+02 -0.45078188822E+02  0.10866398550E+03  0.91653940529E+02 0.  0.
        -24    2    1    2    0    0 -0.45539331573E+02 -0.22467715020E+02  0.14244027300E+02  0.96483042247E+02  0.80792674106E+02 0.  0.
         11    1    4    4    0    0 -0.30701450550E+02  0.42430192083E+01 -0.29722310099E+02  0.42941797767E+02  0.00000000000E+00 0. -1.
        -12    1    4    4    0    0 -0.14837881023E+02 -0.26710734228E+02  0.43966337398E+02  0.53541244480E+02  0.00000000000E+00 0.  1.
        -13    1    3    3    0    0  0.38835137336E+02 -0.49218891846E+02 -0.32404337357E+02  0.70574133264E+02  0.00000000000E+00 0.  1.
         13    1    3    3    0    0 -0.43169241591E+01  0.35659143261E+02 -0.12673851465E+02  0.38089852235E+02  0.00000000000E+00 0. -1.
          4    1    1    2  501    0  0.11021118396E+02  0.36027463605E+02 -0.36046091647E+02  0.52141767399E+02  0.00000000000E+00 0. -1.
<scales pt_clust_5="13000.00000" pt_clust_6="13000.00000" pt_clust_7="13000.00000" pt_clust_8="13000.00000" pt_clust_9="37.67552"></scales>
<clustering>
<clus scale="   37.676">  1  9  2 -1</clus>
<clus scale="   80.793">  5  6 -1 -1</clus>
<clus scale="   89.515">  1  5  2 -1</clus>
<clus scale="   91.654">  7  8 -1 -1</clus>
<clus scale="   37.676">  1  5  2 -1</clus>
</clustering>
</event>
<event>
 9    1  0.4731329E-005  0.1669430E+03  0.7546771E-02  0.1182900E+00
         21   -1    0    0  501  502  0.00000000000E+00  0.00000000000E+00  0.29429717418E+02  0.29429717418E+02  0.00000000000E+00 0. -1.
          1   -1    0    0  502    0 -0.00000000000E+00 -0.00000000000E+00 -0.10693399581E+04  0.10693399581E+04  0.00000000000E+00 0. -1.
        -24    2    1    2    0    0  0.45649911496E+02 -0.14034602292E+03 -0.56457942582E+03  0.58913377176E+03  0.80918183325E+02 0.  0.
         23    2    1    2    0    0 -0.29026227553E+02  0.12477710451E+03 -0.43889442927E+03  0.46666674874E+03  0.93475593820E+02 0.  0.
         13    1    3    3    0    0  0.55026049727E+02 -0.81172145151E+02 -0.44133133898E+03  0.45209527101E+03  0.00000000000E+00 0. -1.
        -14    1    3    3    0    0 -0.93761382307E+01 -0.59173877772E+02 -0.12324808684E+03  0.13703850075E+03  0.00000000000E+00 0.  1.
        -13    1    4    4    0    0 -0.44376148677E+02  0.39148598547E+02 -0.27307201113E+03  0.27941041248E+03  0.00000000000E+00 0.  1.
         13    1    4    4    0    0  0.15349921124E+02  0.85628505961E+02 -0.16582241813E+03  0.18725633625E+03  0.00000000000E+00 0. -1.
          2    1    1    2  501    0 -0.16623683943E+02  0.15568918415E+02 -0.36436385593E+02  0.42969155024E+02  0.00000000000E+00 0. -1.
<scales pt_clust_5="13000.00000" pt_clust_6="13000.00000" pt_clust_7="13000.00000" pt_clust_8="13000.00000" pt_clust_9="22.77582"></scales>
<clustering>
<clus scale="   22.776">  1  9  2 -1</clus>
<clus scale="   80.918">  5  6 -1 -1</clus>
<clus scale="   93.476">  7  8 -1 -1</clus>
<clus scale="  160.250">  2  5  1 -1</clus>
<clus scale="   22.776">  1  5  2 -1</clus>
</clustering>
</event>
<event>
 9    1  0.4731329E-005  0.1071689E+03  0.7546771E-02  0.1268156E+00
         -2   -1    0    0    0  501 -0.00000000000E+00  0.00000000000E+00  0.30697148052E+03  0.30697148052E+03  0.00000000000E+00 0.  1.
         21   -1    0    0  501  502  0.00000000000E+00 -0.00000000000E+00 -0.96067180321E+02  0.96067180321E+02  0.00000000000E+00 0. -1.
        -24    2    1    2    0    0 -0.64851213817E+02  0.79688445131E+01  0.25097099799E+03  0.27134205591E+03  0.79817836707E+02 0.  0.
         23    2    1    2    0    0  0.59392032653E+02  0.11550791644E+02 -0.37045949398E+02  0.11120407519E+03  0.85633577768E+02 0.  0.
         13    1    3    3    0    0 -0.11602509667E+02  0.26782111970E+02  0.25029846642E+02  0.38449876138E+02  0.00000000000E+00 0. -1.
        -14    1    3    3    0    0 -0.53248704150E+02 -0.18813267457E+02  0.22594115135E+03  0.23289217977E+03  0.00000000000E+00 0.  1.
        -13    1    4    4    0    0  0.67612047049E+02  0.34703554518E+02 -0.13526517476E+02  0.77192566205E+02  0.00000000000E+00 0. -1.
         13    1    4    4    0    0 -0.82200143956E+01 -0.23152762874E+02 -0.23519431922E+02  0.34011508983E+02  0.00000000000E+00 0.  1.
         -1    1    1    2    0  502  0.54591811640E+01 -0.19519636158E+02 -0.30207483881E+01  0.20492529749E+02  0.00000000000E+00 0.  1.
<scales pt_clust_5="13000.00000" pt_clust_6="13000.00000" pt_clust_7="13000.00000" pt_clust_8="13000.00000" pt_clust_9="20.26867"></scales>
<clustering>
<clus scale="   20.269">  2  9  1 -1</clus>
<clus scale="   79.818">  5  6 -1 -1</clus>
<clus scale="   85.634">  7  8 -1 -1</clus>
<clus scale="  102.581">  1  5  2 -1</clus>
<clus scale="   20.269">  2  5  1 -1</clus>
</clustering>
</event>
<event>
 9    1  0.4731329E-005  0.4290197E+03  0.7546771E-02  0.1065209E+00
          1   -1    0    0  502    0 -0.00000000000E+00  0.00000000000E+00  0.12835540770E+04  0.12835540770E+04  0.00000000000E+00 0. -1.
         21   -1    0    0  501  502  0.00000000000E+00 -0.00000000000E+00 -0.25190936129E+03  0.25190936129E+03  0.00000000000E+00 0. -1.
         23    2    1    2    0    0 -0.70073635033E+02 -0.13292781895E+03  0.17106379093E+03  0.24603076090E+03  0.93210489561E+02 0.  0.
        -24    2    1    2    0    0  0.42611057933E+03 -0.87898254120E+02  0.72146437822E+03  0.84798067117E+03  0.96249887023E+02 0.  0.
         13    1    4    4    0    0  0.38250499878E+03 -0.81818431447E+02  0.69232296839E+03  0.79518263460E+03  0.00000000000E+00 0. -1.
        -14    1    4    4    0    0  0.43605580549E+02 -0.60798226735E+01  0.29141409829E+02  0.52798036569E+02  0.00000000000E+00 0.  1.
        -11    1    3    3    0    0 -0.13606690259E+02 -0.10741277861E+03  0.74978298716E+02  0.13169811049E+03  0.00000000000E+00 0. -1.
         11    1    3    3    0    0 -0.56466944774E+02 -0.25515040342E+02  0.96085492211E+02  0.11433265041E+03  0.00000000000E+00 0.  1.
          2    1    1    2  501    0 -0.35603694429E+03  0.22082607307E+03  0.13911654652E+03  0.44145200619E+03  0.00000000000E+00 0. -1.
<scales pt_clust_5="13000.00000" pt_clust_6="13000.00000" pt_clust_7="13000.00000" pt_clust_8="13000.00000" pt_clust_9="418.08359"></scales>
<clustering>
<clus scale="   93.210">  7  8 -1 -1</clus>
<clus scale="   96.250">  5  6 -1 -1</clus>
<clus scale="  176.828">  1  7  2 -1</clus>
<clus scale="  418.084">  2  9  1 -1</clus>
<clus scale="  418.084">  2  5  1 -1</clus>
</clustering>
</event>
<event>
 9    1  0.4731329E-005  0.1452295E+03  0.7546771E-02  0.1231270E+00
         21   -1    0    0  501  502  0.00000000000E+00  0.00000000000E+00  0.55425350680E+03  0.55425350680E+03  0.00000000000E+00 0.  1.
          1   -1    0    0  502    0 -0.00000000000E+00 -0.00000000000E+00 -0.62173286384E+02  0.62173286384E+02  0.00000000000E+00 0. -1.
        -24    2    1    2    0    0 -0.28038707920E+02  0.13347372672E+02  0.20651952602E+03  0.22377690121E+03  0.80383240713E+02 0.  0.
         23    2    1    2    0    0 -0.98622830797E+02 -0.27873748958E+02  0.18407356366E+03  0.22969652840E+03  0.91509615244E+02 0.  0.
         13    1    3    3    0    0  0.23978088133E+02  0.20625154919E+02  0.55435855448E+02  0.63823818400E+02  0.00000000000E+00 0. -1.
        -14    1    3    3    0    0 -0.52016796053E+02 -0.72777822468E+01  0.15108367057E+03  0.15995308281E+03  0.00000000000E+00 0.  1.
        -11    1    4    4    0    0 -0.26249976321E+01  0.22519344590E+02  0.64097938206E+02  0.67989390169E+02  0.00000000000E+00 0.  1.
         11    1    4    4    0    0 -0.95997833165E+02 -0.50393093548E+02  0.11997562546E+03  0.16170713823E+03  0.00000000000E+00 0. -1.
          2    1    1    2  501    0  0.12666153872E+03  0.14526376286E+02  0.10148713074E+03  0.16295336358E+03  0.00000000000E+00 0. -1.
<scales pt_clust_5="13000.00000" pt_clust_6="13000.00000" pt_clust_7="13000.00000" pt_clust_8="13000.00000" pt_clust_9="112.77233"></scales>
<clustering>
<clus scale="   80.383">  5  6 -1 -1</clus>
<clus scale="   86.173">  2  5  1 -1</clus>
<clus scale="   91.510">  7  8 -1 -1</clus>
<clus scale="  112.772">  1  9  2 -1</clus>
<clus scale="  112.772">  1  5  2 -1</clus>
</clustering>
</event>
<event>
 9    1  0.4731329E-005  0.1371371E+03  0.7546771E-02  0.1231489E+00
         -4   -1    0    0    0  501 -0.00000000000E+00  0.00000000000E+00  0.76181139908E+02  0.76181139908E+02  0.00000000000E+00 0.  1.
         21   -1    0    0  501  502  0.00000000000E+00 -0.00000000000E+00 -0.55632078497E+03  0.55632078497E+03  0.00000000000E+00 0.  1.
        -24    2    1    2    0    0  0.51884148281E+02  0.11304140736E+02 -0.21463873057E+03  0.23759221496E+03  0.86951293881E+02 0.  0.
         23    2    1    2    0    0  0.54152384257E+02 -0.44211418976E+02 -0.82688103851E+01  0.11474013524E+03  0.90607919746E+02 0.  0.
         13    1    3    3    0    0 -0.20354127980E+02  0.15638038442E+02 -0.31243868451E+02  0.40435356903E+02  0.00000000000E+00 0. -1.
        -14    1    3    3    0    0  0.72238276261E+02 -0.43338977059E+01 -0.18339486212E+03  0.19715685806E+03  0.00000000000E+00 0.  1.
        -11    1    4    4    0    0  0.56468528732E+02 -0.18019086608E+02 -0.41504854790E+02  0.72360453222E+02  0.00000000000E+00 0.  1.
         11    1    4    4    0    0 -0.23161444746E+01 -0.26192332368E+02  0.33236044405E+02  0.42379682016E+02  0.00000000000E+00 0. -1.
         -3    1    1    2    0  502 -0.10603653254E+03  0.32907278240E+02 -0.25723210410E+03  0.28016957468E+03  0.00000000000E+00 0.  1.
<scales pt_clust_5="13000.00000" pt_clust_6="13000.00000" pt_clust_7="13000.00000" pt_clust_8="13000.00000" pt_clust_9="102.94071"></scales>
<clustering>
<clus scale="   86.951">  5  6 -1 -1</clus>
<clus scale="   90.608">  7  8 -1 -1</clus>
<clus scale="  101.884">  1  5  2 -1</clus>
<clus scale="  102.941">  2  9  1 -1</clus>
<clus scale="  102.941">  2  5  1 -1</clus>
</clustering>
</event>
<event>
 9    1  0.4731329E-005  0.1717593E+03  0.7546771E-02  0.1177124E+00
          1   -1    0    0  502    0 -0.00000000000E+00  0.00000000000E+00  0.13520105194E+04  0.13520105194E+04  0.00000000000E+00 0. -1.
         21   -1    0    0  501  502  0.00000000000E+00 -0.00000000000E+00 -0.49251437226E+02  0.49251437226E+02  0.00000000000E+00 0. -1.
         23    2    1    2    0    0 -0.95586259561E+02  0.11633911252E+03  0.90559785345E+03  0.92267458727E+03  0.92462964010E+02 0.  0.
        -24    2    1    2    0    0  0.22517812496E+02 -0.14416330758E+03  0.34678691881E+03  0.38557793496E+03  0.84374556242E+02 0.  0.
         11    1    4    4    0    0  0.25415406873E+02 -0.12186479964E+03  0.18975837365E+03  0.22694759895E+03  0.00000000000E+00 0. -1.
        -12    1    4    4    0    0 -0.28975943775E+01 -0.22298507941E+02  0.15702854516E+03  0.15863033601E+03  0.00000000000E+00 0.  1.
        -11    1    3    3    0    0  0.11294612588E+02  0.33465377332E+02  0.10627392218E+03  0.11198949187E+03  0.00000000000E+00 0.  1.
         11    1    3    3    0    0 -0.10688087215E+03  0.82873735187E+02  0.79932393126E+03  0.81068509540E+03  0.00000000000E+00 0. -1.
          2    1    1    2  501    0  0.73068447065E+02  0.27824195064E+02  0.50374309940E+02  0.93009434411E+02  0.00000000000E+00 0. -1.
<scales pt_clust_5="13000.00000" pt_clust_6="13000.00000" pt_clust_7="13000.00000" pt_clust_8="13000.00000" pt_clust_9="78.18685"></scales>
<clustering>
<clus scale="   78.187">  2  9  1 -1</clus>
<clus scale="   84.375">  5  6 -1 -1</clus>
<clus scale="   92.463">  7  8 -1 -1</clus>
<clus scale="  167.544">  2  5  1 -1</clus>
<clus scale="   78.187">  2  5  1 -1</clus>
</clustering>
</event>
<event>
 9    1  0.4731329E-005  0.1014787E+03  0.7546771E-02  0.1283047E+00
         -4   -1    0    0    0  501 -0.00000000000E+00  0.00000000000E+00  0.77394218935E+02  0.77394218935E+02  0.00000000000E+00 0.  1.
         21   -1    0    0  501  502  0.00000000000E+00 -0.00000000000E+00 -0.23117749768E+03  0.23117749768E+03  0.00000000000E+00 0.  1.
         23    2    1    2    0    0 -0.24129490544E+02  0.37729322609E+02 -0.13045883177E+02  0.10352778711E+03  0.92423338707E+02 0.  0.
        -24    2    1    2    0    0  0.41656864997E+02 -0.13985072611E+02 -0.40085048180E+02  0.10015401913E+03  0.80580021119E+02 0.  0.
         13    1    4    4    0    0 -0.66697322510E+01 -0.33680648808E+02 -0.32760519410E+02  0.47456538690E+02  0.00000000000E+00 0. -1.
        -14    1    4    4    0    0  0.48326597248E+02  0.19695576197E+02 -0.73245287697E+01  0.52697480443E+02  0.00000000000E+00 0.  1.
        -11    1    3    3    0    0 -0.52104047751E+02  0.19358943042E+01 -0.23054987073E+02  0.57009752742E+02  0.00000000000E+00 0. -1.
         11    1    3    3    0    0  0.27974557207E+02  0.35793428305E+02  0.10009103896E+02  0.46518034368E+02  0.00000000000E+00 0.  1.
         -3    1    1    2    0  502 -0.17527374453E+02 -0.23744249998E+02 -0.10065234739E+03  0.10488991038E+03  0.00000000000E+00 0.  1.
<scales pt_clust_5="13000.00000" pt_clust_6="13000.00000" pt_clust_7="13000.00000" pt_clust_8="13000.00000" pt_clust_9="29.51268"></scales>
<clustering>
<clus scale="   29.513">  2  9  1 -1</clus>
<clus scale="   80.580">  5  6 -1 -1</clus>
<clus scale="   90.824">  2  5  1 -1</clus>
<clus scale="   92.423">  7  8 -1 -1</clus>
<clus scale="   29.513">  2  5  1 -1</clus>
</clustering>
</event>
<event>
 9    1  0.4731329E-005  0.1059925E+03  0.7546771E-02  0.1271453E+00
         -2   -1    0    0    0  501 -0.00000000000E+00  0.00000000000E+00  0.11339600379E+04  0.11339600379E+04  0.00000000000E+00 0.  1.
         21   -1    0    0  501  502  0.00000000000E+00 -0.00000000000E+00 -0.42007789280E+02  0.42007789280E+02  0.00000000000E+00 0.  1.
        -24    2    1    2    0    0  0.11457456236E+02  0.61756676450E+02  0.85886373473E+03  0.86520339171E+03  0.83575318096E+02 0.  0.
         23    2    1    2    0    0 -0.10193262386E+02 -0.28021491097E+02  0.25367470010E+03  0.27122392485E+03  0.91227503416E+02 0.  0.
         13    1    3    3    0    0  0.15437449123E+02  0.31533282766E+02  0.10481868439E+03  0.11054238714E+03  0.00000000000E+00 0. -1.
        -14    1    3    3    0    0 -0.39799928877E+01  0.30223393684E+02  0.75404505034E+03  0.75466100457E+03  0.00000000000E+00 0.  1.
        -11    1    4    4    0    0 -0.27063967024E+02 -0.50395668342E+02  0.10166628207E+03  0.11665425243E+03  0.00000000000E+00 0. -1.
         11    1    4    4    0    0  0.16870704638E+02  0.22374177246E+02  0.15200841802E+03  0.15456967242E+03  0.00000000000E+00 0.  1.
         -1    1    1    2    0  502 -0.12641938493E+01 -0.33735185353E+02 -0.20586186216E+02  0.39540510616E+02  0.00000000000E+00 0.  1.
<scales pt_clust_5="13000.00000" pt_clust_6="13000.00000" pt_clust_7="13000.00000" pt_clust_8="13000.00000" pt_clust_9="33.75886"></scales>
<clustering>
<clus scale="   33.759">  2  9  1 -1</clus>
<clus scale="   83.575">  5  6 -1 -1</clus>
<clus scale="   91.228">  7  8 -1 -1</clus>
<clus scale="   99.483">  1  5  2 -1</clus>
<clus scale="   33.759">  2  5  1 -1</clus>
</clustering>
</event>
<event>
 9    1  0.4731329E-005  0.1022915E+03  0.7546771E-02  0.1276696E+00
         21   -1    0    0  501  502  0.00000000000E+00  0.00000000000E+00  0.28479175199E+03  0.28479175199E+03  0.00000000000E+00 0. -1.
          1   -1    0    0  502    0 -0.00000000000E+00 -0.00000000000E+00 -0.13975008211E+03  0.13975008211E+03  0.00000000000E+00 0. -1.
         23    2    1    2    0    0 -0.81108219629E+01  0.60927403292E+02 -0.49122928506E+02  0.11623801283E+03  0.85558632632E+02 0.  0.
        -24    2    1    2    0    0  0.44299564272E+02 -0.11068133201E+02  0.22152599983E+03  0.24089300483E+03  0.82889783516E+02 0.  0.
         11    1    4    4    0    0  0.63715359090E+02 -0.27309240422E+02  0.16245599637E+03  0.17662783573E+03  0.00000000000E+00 0. -1.
        -12    1    4    4    0    0 -0.19415794818E+02  0.16241107220E+02  0.59070003456E+02  0.64265169108E+02  0.00000000000E+00 0.  1.
        -11    1    3    3    0    0  0.75635979174E+01  0.80131987034E+02 -0.35731438618E+02  0.88062926735E+02  0.00000000000E+00 0.  1.
         11    1    3    3    0    0 -0.15674419880E+02 -0.19204583742E+02 -0.13391489888E+02  0.28175086099E+02  0.00000000000E+00 0. -1.
          2    1    1    2  501    0 -0.36188742309E+02 -0.49859270091E+02 -0.27361401440E+02  0.67410816437E+02  0.00000000000E+00 0. -1.
<scales pt_clust_5="13000.00000" pt_clust_6="13000.00000" pt_clust_7="13000.00000" pt_clust_8="13000.00000" pt_clust_9="61.60824"></scales>
<clustering>
<clus scale="   61.608">  1  9  2 -1</clus>
<clus scale="   82.890">  5  6 -1 -1</clus>
<clus scale="   85.559">  7  8 -1 -1</clus>
<clus scale="  100.070">  1  5  2 -1</clus>
<clus scale="   61.608">  1  5  2 -1</clus>
</clustering>
</event>
<event>
 9    1  0.4731329E-005  0.1340737E+03  0.7546771E-02  0.1239277E+00
          1   -1    0    0  502    0 -0.00000000000E+00  0.00000000000E+00  0.13608882432E+03  0.13608882432E+03  0.00000000000E+00 0. -1.
         21   -1    0    0  501  502  0.00000000000E+00 -0.00000000000E+00 -0.21091787744E+03  0.21091787744E+03  0.00000000000E+00 0.  1.
        -24    2    1    2    0    0 -0.43420629886E+02 -0.33526428862E+02 -0.46695387313E+02  0.10403434635E+03  0.75055402814E+02 0.  0.
         23    2    1    2    0    0 -0.58817486817E+02  0.52589599691E+02 -0.46116667321E+02  0.13742887938E+03  0.10263911112E+03 0.  0.
         13    1    3    3    0    0 -0.66386520326E+01  0.23727376772E+02 -0.16023430154E+02  0.29390651969E+02  0.00000000000E+00 0. -1.
        -14    1    3    3    0    0 -0.36781977853E+02 -0.57253805634E+02 -0.30671957159E+02  0.74643694377E+02  0.00000000000E+00 0.  1.
        -11    1    4    4    0    0 -0.84777091523E+02  0.31012694987E+02 -0.14980900061E+02  0.91506119271E+02  0.00000000000E+00 0. -1.
         11    1    4    4    0    0  0.25959604706E+02  0.21576904704E+02 -0.31135767259E+02  0.45922760108E+02  0.00000000000E+00 0.  1.
          2    1    1    2  501    0  0.10223811670E+03 -0.19063170829E+02  0.17983001514E+02  0.10554347603E+03  0.00000000000E+00 0. -1.
<scales pt_clust_5="13000.00000" pt_clust_6="13000.00000" pt_clust_7="13000.00000" pt_clust_8="13000.00000" pt_clust_9="86.26116"></scales>
<clustering>
<clus scale="   75.055">  5  6 -1 -1</clus>
<clus scale="   92.966">  1  5  2 -1</clus>
<clus scale="   86.261">  2  9  1 -1</clus>
<clus scale="  102.639">  7  8 -1 -1</clus>
<clus scale="   86.261">  2  5  1 -1</clus>
</clustering>
</event>
<event>
 9    1  0.4731329E-005  0.1071295E+03  0.7546771E-02  0.1270399E+00
         -2   -1    0    0    0  501 -0.00000000000E+00  0.00000000000E+00  0.51631572821E+03  0.51631572821E+03  0.00000000000E+00 0.  1.
         21   -1    0    0  501  502  0.00000000000E+00 -0.00000000000E+00 -0.12831561224E+03  0.12831561224E+03  0.00000000000E+00 0. -1.
        -24    2    1    2    0    0 -0.85778373558E+01 -0.55227281095E+02  0.41894304419E+03  0.43027248889E+03  0.80607124651E+02 0.  0.
         23    2    1    2    0    0  0.51848946898E+02  0.56911621949E+02 -0.83975638393E+02  0.14589211312E+03  0.91133719441E+02 0.  0.
         11    1    3    3    0    0  0.60048778010E+01 -0.73302828219E+02  0.34563118952E+03  0.35336989452E+03  0.00000000000E+00 0. -1.
        -12    1    3    3    0    0 -0.14582715157E+02  0.18075547124E+02  0.73311854668E+02  0.76902594365E+02  0.00000000000E+00 0.  1.
        -13    1    4    4    0    0  0.31899245903E+02  0.54747371024E+01  0.12548936705E+02  0.34713260406E+02  0.00000000000E+00 0.  1.
         13    1    4    4    0    0  0.19949700995E+02  0.51436884847E+02 -0.96524575098E+02  0.11117885271E+03  0.00000000000E+00 0. -1.
         -1    1    1    2    0  502 -0.43271109542E+02 -0.16843408542E+01  0.53032710175E+02  0.68466738447E+02  0.00000000000E+00 0.  1.
<scales pt_clust_5="13000.00000" pt_clust_6="13000.00000" pt_clust_7="13000.00000" pt_clust_8="13000.00000" pt_clust_9="43.30390"></scales>
<clustering>
<clus scale="   43.304">  2  9  1 -1</clus>
<clus scale="   80.607">  5  6 -1 -1</clus>
<clus scale="   91.134">  7  8 -1 -1</clus>
<clus scale="   98.330">  1  5  2 -1</clus>
<clus scale="   43.304">  2  5  1 -1</clus>
</clustering>
</event>
<event>
 9    1  0.4731329E-005  0.8591705E+02  0.7546771E-02  0.1315879E+00
          1   -1    0    0  502    0 -0.00000000000E+00  0.00000000000E+00  0.37975292121E+03  0.37975292121E+03  0.00000000000E+00 0. -1.
         21   -1    0    0  501  502  0.00000000000E+00 -0.00000000000E+00 -0.33055608995E+02  0.33055608995E+02  0.00000000000E+00 0.  1.
        -24    2    1    2    0    0  0.18476167927E+02 -0.57420211182E+01  0.22611894002E+03  0.24101131241E+03  0.81131609663E+02 0.  0.
         23    2    1    2    0    0  0.10618823028E+02 -0.92794012003E+01  0.10326142979E+03  0.13475618485E+03  0.85425053606E+02 0.  0.
         11    1    3    3    0    0  0.34989554672E+02  0.27366078569E+02  0.14893380210E+03  0.15541701516E+03  0.00000000000E+00 0. -1.
        -12    1    3    3    0    0 -0.16513386744E+02 -0.33108099687E+02  0.77185137921E+02  0.85594297255E+02  0.00000000000E+00 0.  1.
        -11    1    4    4    0    0  0.46724611182E+02 -0.74748811025E+01  0.40299611871E+02  0.62154017204E+02  0.00000000000E+00 0.  1.
         11    1    4    4    0    0 -0.36105788154E+02 -0.18045200978E+01  0.62961817920E+02  0.72602167646E+02  0.00000000000E+00 0. -1.
          2    1    1    2  501    0 -0.29094990956E+02  0.15021422318E+02  0.17316942398E+02  0.37041032939E+02  0.00000000000E+00 0. -1.
<scales pt_clust_5="13000.00000" pt_clust_6="13000.00000" pt_clust_7="13000.00000" pt_clust_8="13000.00000" pt_clust_9="32.74388"></scales>
<clustering>
<clus scale="   32.744">  2  9  1 -1</clus>
<clus scale="   81.132">  5  6 -1 -1</clus>
<clus scale="   81.649">  1  5  2 -1</clus>
<clus scale="   85.425">  7  8 -1 -1</clus>
<clus scale="   32.744">  2  5  1 -1</clus>
</clustering>
</event>
<event>
 9    1  0.4731329E-005  0.1444232E+03  0.7546771E-02  0.1209305E+00
         -4   -1    0    0    0  501 -0.00000000000E+00  0.00000000000E+00  0.17884048738E+03  0.17884048738E+03  0.00000000000E+00 0.  1.
         21   -1    0    0  501  502  0.00000000000E+00 -0.00000000000E+00 -0.21748634050E+03  0.21748634050E+03  0.00000000000E+00 0.  1.
         23    2    1    2    0    0 -0.60740346780E+02 -0.80388736049E+02  0.35278607373E+02  0.13851211515E+03  0.88256939075E+02 0.  0.
        -24    2    1    2    0    0  0.11947509775E+03  0.97759431404E+02 -0.88754588093E+02  0.19479531323E+03  0.78972347924E+02 0.  0.
         11    1    4    4    0    0  0.22161289078E+02 -0.11356982061E+02 -0.24637327253E+01  0.25023464070E+02  0.00000000000E+00 0. -1.
        -12    1    4    4    0    0  0.97313808671E+02  0.10911641347E+03 -0.86290855367E+02  0.16977184916E+03  0.00000000000E+00 0.  1.
        -11    1    3    3    0    0 -0.76350248238E+02 -0.38467750049E+02  0.74229175807E+01  0.85815079708E+02  0.00000000000E+00 0.  1.
         11    1    3    3    0    0  0.15609901458E+02 -0.41920986000E+02  0.27855689792E+02  0.52697035443E+02  0.00000000000E+00 0. -1.
         -3    1    1    2    0  502 -0.58734750969E+02 -0.17370695355E+02  0.14830127597E+02  0.63019399498E+02  0.00000000000E+00 0.  1.
<scales pt_clust_5="13000.00000" pt_clust_6="13000.00000" pt_clust_7="13000.00000" pt_clust_8="13000.00000" pt_clust_9="61.24962"></scales>
<clustering>
<clus scale="   61.250">  2  9  1 -1</clus>
<clus scale="   78.972">  5  6 -1 -1</clus>
<clus scale="   88.257">  7  8 -1 -1</clus>
<clus scale="  138.944">  2  5  1 -1</clus>
<clus scale="   61.250">  2  5  1 -1</clus>
</clustering>
</event>
<event>
 9    1  0.4731329E-005  0.1254927E+03  0.7546771E-02  0.1235913E+00
         21   -1    0    0  501  502  0.00000000000E+00  0.00000000000E+00  0.13492953034E+03  0.13492953034E+03  0.00000000000E+00 0. -1.
          1   -1    0    0  502    0 -0.00000000000E+00 -0.00000000000E+00 -0.27535713258E+03  0.27535713258E+03  0.00000000000E+00 0. -1.
         23    2    1    2    0    0  0.85180522570E+02  0.13568397578E+02 -0.14859821381E+03  0.19270209016E+03  0.87251610670E+02 0.  0.
        -24    2    1    2    0    0 -0.96920858120E+02 -0.64307794905E+02  0.50347310650E+02  0.15056818772E+03  0.81282115121E+02 0.  0.
         11    1    4    4    0    0 -0.96389438681E+02 -0.67698858588E+02  0.19332681627E+02  0.11936419866E+03  0.00000000000E+00 0. -1.
        -12    1    4    4    0    0 -0.53141943922E+00  0.33910636831E+01  0.31014629023E+02  0.31203989055E+02  0.00000000000E+00 0.  1.
        -11    1    3    3    0    0  0.84920677404E+01 -0.31118911116E+02 -0.54629029643E+02  0.63441569363E+02  0.00000000000E+00 0.  1.
         11    1    3    3    0    0  0.76688454829E+02  0.44687308693E+02 -0.93969184170E+02  0.12926052079E+03  0.00000000000E+00 0. -1.
          2    1    1    2  501    0  0.11740335551E+02  0.50739397327E+02 -0.42176699071E+02  0.67016385044E+02  0.00000000000E+00 0. -1.
<scales pt_clust_5="13000.00000" pt_clust_6="13000.00000" pt_clust_7="13000.00000" pt_clust_8="13000.00000" pt_clust_9="52.07998"></scales>
<clustering>
<clus scale="   52.080">  1  9  2 -1</clus>
<clus scale="   81.282">  5  6 -1 -1</clus>
<clus scale="   87.252">  7  8 -1 -1</clus>
<clus scale="  121.418">  1  5  2 -1</clus>
<clus scale="   52.080">  1  5  2 -1</clus>
</clustering>
</event>
<event>
 9    1  0.4731329E-005  0.2339613E+03  0.7546771E-02  0.1145265E+00
         21   -1    0    0  501  502  0.00000000000E+00  0.00000000000E+00  0.25354184137E+03  0.25354184137E+03  0.00000000000E+00 0. -1.
          1   -1    0    0  502    0 -0.00000000000E+00 -0.00000000000E+00 -0.50901428489E+03  0.50901428489E+03  0.00000000000E+00 0. -1.
         23    2    1    2    0    0 -0.97849493652E+02 -0.36233526880E+02  0.13143783368E+02  0.13959496497E+03  0.91796532207E+02 0.  0.
        -24    2    1    2    0    0 -0.81413200282E+02  0.18040561390E+03 -0.32243481807E+03  0.38670463786E+03  0.80012313620E+02 0.  0.
         11    1    4    4    0    0 -0.87812684470E+02  0.10899157833E+03 -0.23620430250E+03  0.27455910879E+03  0.00000000000E+00 0. -1.
        -12    1    4    4    0    0  0.63994841880E+01  0.71414035572E+02 -0.86230515570E+02  0.11214552907E+03  0.00000000000E+00 0.  1.
        -13    1    3    3    0    0 -0.32865340002E+02 -0.59857792904E+02 -0.38396722731E+01  0.68394656428E+02  0.00000000000E+00 0. -1.
         13    1    3    3    0    0 -0.64984153650E+02  0.23624266024E+02  0.16983455642E+02  0.71200308541E+02  0.00000000000E+00 0.  1.
          2    1    1    2  501    0  0.17926269393E+03 -0.14417208702E+03  0.53818591171E+02  0.23625652344E+03  0.00000000000E+00 0. -1.
<scales pt_clust_5="13000.00000" pt_clust_6="13000.00000" pt_clust_7="13000.00000" pt_clust_8="13000.00000" pt_clust_9="219.85429"></scales>
<clustering>
<clus scale="   80.012">  5  6 -1 -1</clus>
<clus scale="   91.797">  7  8 -1 -1</clus>
<clus scale="  138.975">  2  7  1 -1</clus>
<clus scale="  219.854">  1  9  2 -1</clus>
<clus scale="  219.854">  1  5  2 -1</clus>
</clustering>
</event>
<event>
 9    1  0.4731329E-005  0.9272160E+02  0.7546771E-02  0.1300642E+00
         21   -1    0    0  501  502  0.00000000000E+00  0.00000000000E+00  0.42185310244E+03  0.42185310244E+03  0.00000000000E+00 0. -1.
          3   -1    0    0  502    0 -0.00000000000E+00 -0.00000000000E+00 -0.32950777838E+02  0.32950777838E+02  0.00000000000E+00 0. -1.
         23    2    1    2    0    0 -0.24395882558E+02  0.13914692590E+02  0.10361779629E+03  0.14085706339E+03  0.91188194651E+02 0.  0.
        -24    2    1    2    0    0 -0.10124258589E+02 -0.14682879606E+02  0.13717775922E+03  0.16186839861E+03  0.84056845510E+02 0.  0.
         11    1    4    4    0    0  0.12972884041E+02  0.16719668921E+02  0.20861135428E+01  0.21264875238E+02  0.00000000000E+00 0. -1.
        -12    1    4    4    0    0 -0.23097142630E+02 -0.31402548526E+02  0.13509164568E+03  0.14060352337E+03  0.00000000000E+00 0.  1.
        -11    1    3    3    0    0  0.28859019879E+02  0.96028333594E+01  0.73452646813E+02  0.79500621134E+02  0.00000000000E+00 0.  1.
         11    1    3    3    0    0 -0.53254902437E+02  0.43118592306E+01  0.30165149479E+02  0.61356442259E+02  0.00000000000E+00 0. -1.
          4    1    1    2  501    0  0.34520141147E+02  0.76818701582E+00  0.14810676909E+03  0.15207841828E+03  0.00000000000E+00 0. -1.
<scales pt_clust_5="13000.00000" pt_clust_6="13000.00000" pt_clust_7="13000.00000" pt_clust_8="13000.00000" pt_clust_9="34.52869"></scales>
<clustering>
<clus scale="   34.529">  1  9  2 -1</clus>
<clus scale="   84.057">  5  6 -1 -1</clus>
<clus scale="   85.718">  1  5  2 -1</clus>
<clus scale="   91.188">  7  8 -1 -1</clus>
<clus scale="   34.529">  1  5  2 -1</clus>
</clustering>
</event>
<event>
 9    1  0.4731329E-005  0.9343675E+02  0.7546771E-02  0.1300113E+00
          3   -1    0    0  502    0 -0.00000000000E+00  0.00000000000E+00  0.33779360166E+03  0.33779360166E+03  0.00000000000E+00 0. -1.
         21   -1    0    0  501  502  0.00000000000E+00 -0.00000000000E+00 -0.49776420283E+02  0.49776420283E+02  0.00000000000E+00 0. -1.
         23    2    1    2    0    0  0.11531430210E+02 -0.19318138704E+02  0.19686425425E+03  0.21732737236E+03  0.89271987819E+02 0.  0.
        -24    2    1    2    0    0 -0.37306967594E+02  0.14016398081E+02  0.10710044380E+03  0.13947237059E+03  0.79961039571E+02 0.  0.
         11    1    4    4    0    0 -0.31220063220E+02  0.37978574424E+02  0.27955815845E+02  0.56556096951E+02  0.00000000000E+00 0. -1.
        -12    1    4    4    0    0 -0.60869043740E+01 -0.23962176343E+02  0.79144627954E+02  0.82916273638E+02  0.00000000000E+00 0.  1.
        -13    1    3    3    0    0 -0.22134048181E+02  0.23362020575E+02  0.11211693520E+03  0.11664436228E+03  0.00000000000E+00 0. -1.
         13    1    3    3    0    0  0.33665478391E+02 -0.42680159279E+02  0.84747319054E+02  0.10068301008E+03  0.00000000000E+00 0.  1.
          4    1    1    2  501    0  0.25775537384E+02  0.53017406226E+01 -0.15947516677E+02  0.30770278992E+02  0.00000000000E+00 0. -1.
<scales pt_clust_5="13000.00000" pt_clust_6="13000.00000" pt_clust_7="13000.00000" pt_clust_8="13000.00000" pt_clust_9="26.31514"></scales>
<clustering>
<clus scale="   26.315">  2  9  1 -1</clus>
<clus scale="   79.961">  5  6 -1 -1</clus>
<clus scale="   84.586">  2  5  1 -1</clus>
<clus scale="   89.272">  7  8 -1 -1</clus>
<clus scale="   26.315">  2  5  1 -1</clus>
</clustering>
</event>
<event>
 9    1  0.4731329E-005  0.9286583E+02  0.7546771E-02  0.1301631E+00
         21   -1    0    0  501  502  0.00000000000E+00  0.00000000000E+00  0.32694868664E+03  0.32694868664E+03  0.00000000000E+00 0.  1.
         -2   -1    0    0    0  501 -0.00000000000E+00 -0.00000000000E+00 -0.51885023858E+02  0.51885023858E+02  0.00000000000E+00 0.  1.
        -24    2    1    2    0    0  0.74453592182E+01 -0.89482202741E+00  0.25713832535E+02  0.86380908834E+02  0.82123237558E+02 0.  0.
         23    2    1    2    0    0 -0.23195218827E+02  0.44305720076E+02  0.14697161445E+03  0.18014134536E+03  0.91374142111E+02 0.  0.
         11    1    3    3    0    0  0.28719047865E+02 -0.27857093733E+02 -0.49810580246E+01  0.40318882928E+02  0.00000000000E+00 0. -1.
        -12    1    3    3    0    0 -0.21273688647E+02  0.26962271705E+02  0.30694890559E+02  0.46062025906E+02  0.00000000000E+00 0.  1.
        -11    1    4    4    0    0 -0.40366482647E+02  0.65181952586E+02  0.11581891490E+03  0.13889622354E+03  0.00000000000E+00 0.  1.
         11    1    4    4    0    0  0.17171263821E+02 -0.20876232510E+02  0.31152699553E+02  0.41245121826E+02  0.00000000000E+00 0. -1.
         -1    1    1    2    0  502  0.15749859608E+02 -0.43410898049E+02  0.10237821580E+03  0.11231145631E+03  0.00000000000E+00 0.  1.
<scales pt_clust_5="13000.00000" pt_clust_6="13000.00000" pt_clust_7="13000.00000" pt_clust_8="13000.00000" pt_clust_9="46.17969"></scales>
<clustering>
<clus scale="   46.180">  1  9  2 -1</clus>
<clus scale="   82.123">  5  6 -1 -1</clus>
<clus scale="   83.780">  2  5  1 -1</clus>
<clus scale="   91.374">  7  8 -1 -1</clus>
<clus scale="   46.180">  1  5  2 -1</clus>
</clustering>
</event>
<event>
 9    1  0.4731329E-005  0.1914796E+03  0.7546771E-02  0.1196461E+00
         21   -1    0    0  501  502  0.00000000000E+00  0.00000000000E+00  0.76432683231E+02  0.76432683231E+02  0.00000000000E+00 0. -1.
          1   -1    0    0  502    0 -0.00000000000E+00 -0.00000000000E+00 -0.72446062100E+03  0.72446062100E+03  0.00000000000E+00 0. -1.
         23    2    1    2    0    0  0.35467009139E+02 -0.41271478764E+02 -0.13821411652E+03  0.15904660535E+03  0.56845729576E+02 0.  0.
        -24    2    1    2    0    0 -0.39802027155E+02 -0.14445260268E+03 -0.37626229395E+03  0.41304932728E+03  0.81152185002E+02 0.  0.
         13    1    4    4    0    0  0.16205797380E+02 -0.91026889910E+02 -0.22106265382E+03  0.23961890466E+03  0.00000000000E+00 0. -1.
        -14    1    4    4    0    0 -0.56007824535E+02 -0.53425712771E+02 -0.15519964013E+03  0.17343042262E+03  0.00000000000E+00 0.  1.
        -11    1    3    3    0    0  0.13165815859E+02 -0.17772782565E+02 -0.59946346966E+01  0.22916067562E+02  0.00000000000E+00 0.  1.
         11    1    3    3    0    0  0.22301193281E+02 -0.23498696199E+02 -0.13221948182E+03  0.13613053779E+03  0.00000000000E+00 0. -1.
          2    1    1    2  501    0  0.43350180152E+01  0.18572408144E+03 -0.13355152731E+03  0.22879737161E+03  0.00000000000E+00 0. -1.
<scales pt_clust_5="13000.00000" pt_clust_6="13000.00000" pt_clust_7="13000.00000" pt_clust_8="13000.00000" pt_clust_9="173.43226"></scales>
<clustering>
<clus scale="   56.846">  7  8 -1 -1</clus>
<clus scale="   78.694">  2  7  1 -1</clus>
<clus scale="   81.152">  5  6 -1 -1</clus>
<clus scale="  173.432">  1  9  2 -1</clus>
<clus scale="  173.432">  1  5  2 -1</clus>
</clustering>
</event>
<event>
 9    1  0.4731329E-005  0.9710040E+02  0.7546771E-02  0.1292844E+00
          1   -1    0    0  502    0 -0.00000000000E+00  0.00000000000E+00  0.17658597212E+03  0.17658597212E+03  0.00000000000E+00 0. -1.
         21   -1    0    0  501  502  0.00000000000E+00 -0.00000000000E+00 -0.12354624464E+03  0.12354624464E+03  0.00000000000E+00 0.  1.
         23    2    1    2    0    0  0.18185632148E+02  0.16264372893E+02  0.11314156859E+03  0.14826893835E+03  0.92668314412E+02 0.  0.
        -24    2    1    2    0    0 -0.18677517034E+02 -0.39896779908E+02 -0.57260184570E+01  0.92571940910E+02  0.81216834874E+02 0.  0.
         13    1    4    4    0    0 -0.36573679711E+02 -0.23592828686E+01  0.21855219917E+02  0.42671429562E+02  0.00000000000E+00 0. -1.
        -14    1    4    4    0    0  0.17896162677E+02 -0.37537497039E+02 -0.27581238374E+02  0.49900511348E+02  0.00000000000E+00 0.  1.
        -11    1    3    3    0    0 -0.16176252316E+02 -0.18084663638E+02 -0.92986295220E+00  0.24281491779E+02  0.00000000000E+00 0.  1.
         11    1    3    3    0    0  0.34361884464E+02  0.34349036532E+02  0.11407143154E+03  0.12398744657E+03  0.00000000000E+00 0. -1.
          2    1    1    2  501    0  0.49188488635E+00  0.23632407014E+02 -0.54375822657E+02  0.59291337492E+02  0.00000000000E+00 0. -1.
<scales pt_clust_5="13000.00000" pt_clust_6="13000.00000" pt_clust_7="13000.00000" pt_clust_8="13000.00000" pt_clust_9="23.63753"></scales>
<clustering>
<clus scale="   23.638">  2  9  1 -1</clus>
<clus scale="   81.217">  5  6 -1 -1</clus>
<clus scale="   86.239">  2  5  1 -1</clus>
<clus scale="   92.668">  7  8 -1 -1</clus>
<clus scale="   23.638">  2  5  1 -1</clus>
</clustering>
</event>
<event>
 9    1  0.4731329E-005  0.9121451E+02  0.7546771E-02  0.1304665E+00
         -2   -1    0    0    0  501 -0.00000000000E+00  0.00000000000E+00  0.26112296489E+03  0.26112296489E+03  0.00000000000E+00 0.  1.
         21   -1    0    0  501  502  0.00000000000E+00 -0.00000000000E+00 -0.53061991144E+02  0.53061991144E+02  0.00000000000E+00 0.  1.
         23    2    1    2    0    0 -0.22357363308E+02  0.18250404040E+02  0.12296301710E+03  0.15518048340E+03  0.90156252758E+02 0.  0.
        -24    2    1    2    0    0  0.44444015509E+01  0.11256243392E+02  0.91632284733E+02  0.12387309229E+03  0.82471884106E+02 0.  0.
         11    1    4    4    0    0  0.90373920831E+01 -0.34814448690E+02  0.30315882659E+02  0.47040121542E+02  0.00000000000E+00 0. -1.
        -12    1    4    4    0    0 -0.45929905323E+01  0.46070692082E+02  0.61316402074E+02  0.76832970750E+02  0.00000000000E+00 0.  1.
        -13    1    3    3    0    0 -0.24764850999E+02 -0.19796131383E+02  0.11067464104E+03  0.11512628211E+03  0.00000000000E+00 0. -1.
         13    1    3    3    0    0  0.24074876915E+01  0.38046535423E+02  0.12288376059E+02  0.40054201288E+02  0.00000000000E+00 0.  1.
         -1    1    1    2    0  502  0.17912961757E+02 -0.29506647432E+02 -0.65343280855E+01  0.35131380347E+02  0.00000000000E+00 0.  1.
<scales pt_clust_5="13000.00000" pt_clust_6="13000.00000" pt_clust_7="13000.00000" pt_clust_8="13000.00000" pt_clust_9="34.51835"></scales>
<clustering>
<clus scale="   34.518">  2  9  1 -1</clus>
<clus scale="   82.472">  5  6 -1 -1</clus>
<clus scale="   83.627">  2  5  1 -1</clus>
<clus scale="   90.156">  7  8 -1 -1</clus>
<clus scale="   34.518">  2  5  1 -1</clus>
</clustering>
</event>
<event>
 9    1  0.4731329E-005  0.1267651E+03  0.7546771E-02  0.1244657E+00
          1   -1    0    0  502    0 -0.00000000000E+00  0.00000000000E+00  0.21538940653E+03  0.21538940653E+03  0.00000000000E+00 0. -1.
         21   -1    0    0  501  502  0.00000000000E+00 -0.00000000000E+00 -0.13735772879E+03  0.13735772879E+03  0.00000000000E+00 0. -1.
        -24    2    1    2    0    0 -0.49558227209E+02 -0.32094515864E+02  0.27413068094E+02  0.10237846233E+03  0.79017703174E+02 0.  0.
         23    2    1    2    0    0 -0.42339459301E+02 -0.12660000531E+02  0.95736322580E+02  0.13863792725E+03  0.90011810248E+02 0.  0.
         13    1    3    3    0    0 -0.65453330162E+02 -0.43860830713E+02  0.23484527308E+02  0.82215776607E+02  0.00000000000E+00 0. -1.
        -14    1    3    3    0    0  0.15895102953E+02  0.11766314849E+02  0.39285407862E+01  0.20162685727E+02  0.00000000000E+00 0.  1.
        -11    1    4    4    0    0 -0.43586511257E+01 -0.29209578309E+02  0.92479072859E+02  0.97080256599E+02  0.00000000000E+00 0. -1.
         11    1    4    4    0    0 -0.37980808175E+02  0.16549577778E+02  0.32572497216E+01  0.41557670652E+02  0.00000000000E+00 0.  1.
          2    1    1    2  501    0  0.91897686510E+02  0.44754516395E+02 -0.45117712932E+02  0.11173074574E+03  0.00000000000E+00 0. -1.
<scales pt_clust_5="13000.00000" pt_clust_6="13000.00000" pt_clust_7="13000.00000" pt_clust_8="13000.00000" pt_clust_9="89.25947"></scales>
<clustering>
<clus scale="   79.018">  5  6 -1 -1</clus>
<clus scale="   90.012">  7  8 -1 -1</clus>
<clus scale="   98.640">  1  5  2 -1</clus>
<clus scale="   89.259">  2  9  1 -1</clus>
<clus scale="   89.259">  2  5  1 -1</clus>
</clustering>
</event>
<event>
 9    1  0.4731329E-005  0.9115813E+02  0.7546771E-02  0.1306544E+00
         21   -1    0    0  501  502  0.00000000000E+00  0.00000000000E+00  0.35756768056E+02  0.35756768056E+02  0.00000000000E+00 0.  1.
          3   -1    0    0  502    0 -0.00000000000E+00 -0.00000000000E+00 -0.31305922683E+03  0.31305922683E+03  0.00000000000E+00 0. -1.
        -24    2    1    2    0    0 -0.50194937872E+01 -0.10866315421E+02 -0.14875608573E+03  0.16965367210E+03  0.80689053085E+02 0.  0.
         23    2    1    2    0    0 -0.13544966676E+02 -0.94857073195E+00 -0.12742886095E+03  0.15712872207E+03  0.90922795761E+02 0.  0.
         13    1    3    3    0    0  0.26228201667E+02 -0.13886791835E+02 -0.12942920554E+03  0.13278810488E+03  0.00000000000E+00 0. -1.
        -14    1    3    3    0    0 -0.31247695454E+02  0.30204764144E+01 -0.19326880189E+02  0.36865567225E+02  0.00000000000E+00 0.  1.
        -11    1    4    4    0    0 -0.46609526796E+02 -0.10472238822E+02 -0.10683185854E+03  0.11702632940E+03  0.00000000000E+00 0. -1.
         11    1    4    4    0    0  0.33064560120E+02  0.95236680901E+01 -0.20597002408E+02  0.40102392671E+02  0.00000000000E+00 0.  1.
          4    1    1    2  501    0  0.18564460463E+02  0.11814886153E+02 -0.11175120994E+01  0.22033600713E+02  0.00000000000E+00 0. -1.
<scales pt_clust_5="13000.00000" pt_clust_6="13000.00000" pt_clust_7="13000.00000" pt_clust_8="13000.00000" pt_clust_9="22.00524"></scales>
<clustering>
<clus scale="   22.005">  1  9  2 -1</clus>
<clus scale="   80.689">  5  6 -1 -1</clus>
<clus scale="   80.954">  2  5  1 -1</clus>
<clus scale="   90.923">  7  8 -1 -1</clus>
<clus scale="   22.005">  1  5  2 -1</clus>
</clustering>
</event>
<event>
 9    1  0.4731329E-005  0.9669362E+02  0.7546771E-02  0.1290868E+00
         21   -1    0    0  501  502  0.00000000000E+00  0.00000000000E+00  0.43764352902E+02  0.43764352902E+02  0.00000000000E+00 0. -1.
          1   -1    0    0  502    0 -0.00000000000E+00 -0.00000000000E+00 -0.48747923323E+03  0.48747923323E+03  0.00000000000E+00 0. -1.
         23    2    1    2    0    0 -0.49877576388E+02 -0.30825059393E+00 -0.38141172149E+03  0.39396963422E+03  0.85142843236E+02 0.  0.
        -24    2    1    2    0    0  0.32259280977E+02 -0.15661196720E+02 -0.71434352081E+02  0.11180227607E+03  0.78172552628E+02 0.  0.
         11    1    4    4    0    0 -0.18607083949E+02 -0.23358874112E+02 -0.96085062640E+01  0.31371706448E+02  0.00000000000E+00 0. -1.
        -12    1    4    4    0    0  0.50866364926E+02  0.76976773918E+01 -0.61825845817E+02  0.80430569617E+02  0.00000000000E+00 0.  1.
        -11    1    3    3    0    0  0.76145937263E+01 -0.31908911082E+02 -0.11381258590E+03  0.11844604406E+03  0.00000000000E+00 0.  1.
         11    1    3    3    0    0 -0.57492170114E+02  0.31600660488E+02 -0.26759913558E+03  0.27552359015E+03  0.00000000000E+00 0. -1.
          2    1    1    2  501    0  0.17618295411E+02  0.15969447314E+02  0.91311932363E+01  0.25471675851E+02  0.00000000000E+00 0. -1.
<scales pt_clust_5="13000.00000" pt_clust_6="13000.00000" pt_clust_7="13000.00000" pt_clust_8="13000.00000" pt_clust_9="23.77872"></scales>
<clustering>
<clus scale="   23.779">  1  9  2 -1</clus>
<clus scale="   78.173">  5  6 -1 -1</clus>
<clus scale="   85.143">  7  8 -1 -1</clus>
<clus scale="   90.616">  1  5  2 -1</clus>
<clus scale="   23.779">  1  5  2 -1</clus>
</clustering>
</event>
<event>
 9    1  0.4731329E-005  0.1307038E+03  0.7546771E-02  0.1245360E+00
         21   -1    0    0  501  502  0.00000000000E+00  0.00000000000E+00  0.51371121432E+03  0.51371121432E+03  0.00000000000E+00 0.  1.
         -2   -1    0    0    0  501 -0.00000000000E+00 -0.00000000000E+00 -0.94309332341E+02  0.94309332341E+02  0.00000000000E+00 0.  1.
        -24    2    1    2    0    0  0.32724080929E+02  0.20249355045E+02  0.12288473046E+03  0.15156702625E+03  0.79943759063E+02 0.  0.
         23    2    1    2    0    0  0.61106391426E+02 -0.62921913086E+01 -0.30863150117E+02  0.11560630851E+03  0.92944616777E+02 0.  0.
         13    1    3    3    0    0 -0.51784336403E+01 -0.26171644878E+02  0.54216650308E+02  0.60425295541E+02  0.00000000000E+00 0. -1.
        -14    1    3    3    0    0  0.37902514570E+02  0.46420999923E+02  0.68668080155E+02  0.91141730710E+02  0.00000000000E+00 0.  1.
        -11    1    4    4    0    0  0.24807436597E+02 -0.12587757980E+02  0.32211301074E+02  0.42560879671E+02  0.00000000000E+00 0. -1.
         11    1    4    4    0    0  0.36298954830E+02  0.62955666712E+01 -0.63074451191E+02  0.73045428840E+02  0.00000000000E+00 0.  1.
         -1    1    1    2    0  502 -0.93830472356E+02 -0.13957163737E+02  0.32738030164E+03  0.34084721190E+03  0.00000000000E+00 0.  1.
<scales pt_clust_5="13000.00000" pt_clust_6="13000.00000" pt_clust_7="13000.00000" pt_clust_8="13000.00000" pt_clust_9="91.89548"></scales>
<clustering>
<clus scale="   79.944">  5  6 -1 -1</clus>
<clus scale="   88.724">  2  5  1 -1</clus>
<clus scale="   91.895">  1  9  2 -1</clus>
<clus scale="   92.945">  7  8 -1 -1</clus>
<clus scale="   91.895">  1  5  2 -1</clus>
</clustering>
</event>
<event>
 9    1  0.4731329E-005  0.1367936E+03  0.7546771E-02  0.1227343E+00
         21   -1    0    0  501  502  0.00000000000E+00  0.00000000000E+00  0.49706721511E+02  0.49706721511E+02  0.00000000000E+00 0.  1.
          1   -1    0    0  502    0 -0.00000000000E+00 -0.00000000000E+00 -0.71267907493E+03  0.71267907493E+03  0.00000000000E+00 0. -1.
         23    2    1    2    0    0  0.26663868549E+02  0.58379333353E+02 -0.28443024000E+03  0.30562825492E+03  0.91591267740E+02 0.  0.
        -24    2    1    2    0    0 -0.11474780903E+03  0.12641701692E+02 -0.22999161429E+03  0.27002238474E+03  0.81786755145E+02 0.  0.
         11    1    4    4    0    0 -0.77931792037E+01 -0.22009132966E+02 -0.74985980134E+02  0.78536824437E+02  0.00000000000E+00 0. -1.
        -12    1    4    4    0    0 -0.10695462982E+03  0.34650834658E+02 -0.15500563416E+03  0.19148556030E+03  0.00000000000E+00 0.  1.
        -11    1    3    3    0    0  0.42680426394E+02 -0.25125303423E+00 -0.63655263808E+02  0.76639901721E+02  0.00000000000E+00 0. -1.
         11    1    3    3    0    0 -0.16016557845E+02  0.58630586388E+02 -0.22077497619E+03  0.22898835319E+03  0.00000000000E+00 0.  1.
          2    1    1    2  501    0  0.88083940480E+02 -0.71021035045E+02 -0.14855049913E+03  0.18673515679E+03  0.00000000000E+00 0. -1.
<scales pt_clust_5="13000.00000" pt_clust_6="13000.00000" pt_clust_7="13000.00000" pt_clust_8="13000.00000" pt_clust_9="109.65133"></scales>
<clustering>
<clus scale="   81.787">  5  6 -1 -1</clus>
<clus scale="   91.591">  7  8 -1 -1</clus>
<clus scale="  111.839">  2  7  1 -1</clus>
<clus scale="  109.651">  1  9  2 -1</clus>
<clus scale="  109.651">  1  5  2 -1</clus>
</clustering>
</event>
<event>
 9    1  0.4731329E-005  0.9778639E+02  0.7546771E-02  0.1289533E+00
         21   -1    0    0  501  502  0.00000000000E+00  0.00000000000E+00  0.18378479141E+03  0.18378479141E+03  0.00000000000E+00 0. -1.
          1   -1    0    0  502    0 -0.00000000000E+00 -0.00000000000E+00 -0.39206624035E+03  0.39206624035E+03  0.00000000000E+00 0. -1.
         23    2    1    2    0    0 -0.31637105575E+02  0.10793398452E+02 -0.29777106052E+03  0.31310595194E+03  0.90831320382E+02 0.  0.
        -24    2    1    2    0    0  0.53983066493E+02  0.26448981354E+02 -0.52278101798E+02  0.11447363490E+03  0.82203972384E+02 0.  0.
         13    1    4    4    0    0 -0.19444509350E+02  0.82338182494E+01 -0.27899584085E+02  0.34989591295E+02  0.00000000000E+00 0. -1.
        -14    1    4    4    0    0  0.73427575844E+02  0.18215163104E+02 -0.24378517713E+02  0.79484043601E+02  0.00000000000E+00 0.  1.
        -13    1    3    3    0    0  0.21304722384E+02  0.73895381418E+01 -0.19465934288E+02  0.29789579848E+02  0.00000000000E+00 0.  1.
         13    1    3    3    0    0 -0.52941827959E+02  0.34038603103E+01 -0.27830512623E+03  0.28331637210E+03  0.00000000000E+00 0. -1.
          2    1    1    2  501    0 -0.22345960918E+02 -0.37242379806E+02  0.14176771337E+03  0.14827144492E+03  0.00000000000E+00 0. -1.
<scales pt_clust_5="13000.00000" pt_clust_6="13000.00000" pt_clust_7="13000.00000" pt_clust_8="13000.00000" pt_clust_9="43.43198"></scales>
<clustering>
<clus scale="   43.432">  1  9  2 -1</clus>
<clus scale="   82.204">  5  6 -1 -1</clus>
<clus scale="   89.830">  1  5  2 -1</clus>
<clus scale="   90.831">  7  8 -1 -1</clus>
<clus scale="   43.432">  1  5  2 -1</clus>
</clustering>
</event>
<event>
 9    1  0.4731329E-005  0.9059657E+02  0.7546771E-02  0.1306707E+00
          1   -1    0    0  502    0 -0.00000000000E+00  0.00000000000E+00  0.50587833455E+03  0.50587833455E+03  0.00000000000E+00 0. -1.
         21   -1    0    0  501  502  0.00000000000E+00 -0.00000000000E+00 -0.21723264963E+02  0.21723264963E+02  0.00000000000E+00 0.  1.
        -24    2    1    2    0    0 -0.60114463955E+01  0.16334044711E+02  0.22572514412E+03  0.24018925624E+03  0.80225305362E+02 0.  0.
         23    2    1    2    0    0  0.29720492708E+02  0.28888571555E+01  0.21292027077E+03  0.23261482961E+03  0.88786057838E+02 0.  0.
         11    1    3    3    0    0 -0.28717389225E+02 -0.22688506629E+02  0.11210204104E+03  0.11792507953E+03  0.00000000000E+00 0. -1.
        -12    1    3    3    0    0  0.22705942829E+02  0.39022551340E+02  0.11362310308E+03  0.12226417671E+03  0.00000000000E+00 0.  1.
        -11    1    4    4    0    0 -0.26965673373E+01 -0.33750565361E+02  0.14505900319E+03  0.14895800262E+03  0.00000000000E+00 0.  1.
         11    1    4    4    0    0  0.32417060045E+02  0.36639422517E+02  0.67861267576E+02  0.83656826986E+02  0.00000000000E+00 0. -1.
          2    1    1    2  501    0 -0.23709046312E+02 -0.19222901866E+02  0.45509654700E+02  0.54797513667E+02  0.00000000000E+00 0. -1.
<scales pt_clust_5="13000.00000" pt_clust_6="13000.00000" pt_clust_7="13000.00000" pt_clust_8="13000.00000" pt_clust_9="30.52276"></scales>
<clustering>
<clus scale="   30.523">  2  9  1 -1</clus>
<clus scale="   80.225">  5  6 -1 -1</clus>
<clus scale="   82.225">  1  5  2 -1</clus>
<clus scale="   88.786">  7  8 -1 -1</clus>
<clus scale="   30.523">  2  5  1 -1</clus>
</clustering>
</event>
<event>
 9    1  0.4731329E-005  0.1197858E+03  0.7546771E-02  0.1249048E+00
          3   -1    0    0  502    0 -0.00000000000E+00  0.00000000000E+00  0.12634780913E+03  0.12634780913E+03  0.00000000000E+00 0. -1.
         21   -1    0    0  501  502  0.00000000000E+00 -0.00000000000E+00 -0.22124358482E+03  0.22124358482E+03  0.00000000000E+00 0.  1.
        -24    2    1    2    0    0 -0.56155690042E+02 -0.56238152430E+02  0.57263610024E+02  0.12508787496E+03  0.77792442536E+02 0.  0.
         23    2    1    2    0    0  0.53108881381E+02  0.26366356776E+02 -0.62445892654E+02  0.12789845540E+03  0.94566311835E+02 0.  0.
         13    1    3    3    0    0  0.85751756332E+01 -0.42159383229E+02  0.34144253557E+02  0.54925197153E+02  0.00000000000E+00 0. -1.
        -14    1    3    3    0    0 -0.64730865675E+02 -0.14078769200E+02  0.23119356468E+02  0.70162677804E+02  0.00000000000E+00 0.  1.
        -11    1    4    4    0    0  0.69048460973E+02 -0.11988660719E+02 -0.38946655863E+02  0.80176430149E+02  0.00000000000E+00 0.  1.
         11    1    4    4    0    0 -0.15939579592E+02  0.38355017495E+02 -0.23499236791E+02  0.47722025254E+02  0.00000000000E+00 0. -1.
          4    1    1    2  501    0  0.30468086608E+01  0.29871795653E+02 -0.89713493062E+02  0.94605063585E+02  0.00000000000E+00 0. -1.
<scales pt_clust_5="13000.00000" pt_clust_6="13000.00000" pt_clust_7="13000.00000" pt_clust_8="13000.00000" pt_clust_9="30.02678"></scales>
<clustering>
<clus scale="   30.027">  2  9  1 -1</clus>
<clus scale="   77.792">  5  6 -1 -1</clus>
<clus scale="   94.566">  7  8 -1 -1</clus>
<clus scale="  107.040">  1  5  2 -1</clus>
<clus scale="   30.027">  2  5  1 -1</clus>
</clustering>
</event>
<event>
 9    1  0.4731329E-005  0.1409050E+03  0.7546771E-02  0.1213426E+00
         21   -1    0    0  501  502  0.00000000000E+00  0.00000000000E+00  0.78117222234E+03  0.78117222234E+03  0.00000000000E+00 0. -1.
          3   -1    0    0  502    0 -0.00000000000E+00 -0.00000000000E+00 -0.48008290462E+02  0.48008290462E+02  0.00000000000E+00 0. -1.
         23    2    1    2    0    0 -0.81678183300E+02 -0.80185605317E+02  0.15797372489E+03  0.21368469477E+03  0.87203177095E+02 0.  0.
        -24    2    1    2    0    0  0.83105707535E+02  0.55848689933E+02  0.57688377691E+03  0.59105831704E+03  0.80804747884E+02 0.  0.
         11    1    4    4    0    0  0.87810859372E+02  0.24026078010E+02  0.49054980078E+03  0.49892595292E+03  0.00000000000E+00 0. -1.
        -12    1    4    4    0    0 -0.47051518373E+01  0.31822611923E+02  0.86333976132E+02  0.92132364119E+02  0.00000000000E+00 0.  1.
        -11    1    3    3    0    0 -0.72001684590E+02 -0.55586593312E+02  0.52663017509E+02  0.10510711371E+03  0.00000000000E+00 0. -1.
         11    1    3    3    0    0 -0.96764987095E+01 -0.24599012005E+02  0.10531070738E+03  0.10857758105E+03  0.00000000000E+00 0.  1.
          4    1    1    2  501    0 -0.14275242348E+01  0.24336915383E+02 -0.16935699266E+01  0.24437500996E+02  0.00000000000E+00 0. -1.
<scales pt_clust_5="13000.00000" pt_clust_6="13000.00000" pt_clust_7="13000.00000" pt_clust_8="13000.00000" pt_clust_9="24.37876"></scales>
<clustering>
<clus scale="   24.379">  1  9  2 -1</clus>
<clus scale="   80.805">  5  6 -1 -1</clus>
<clus scale="   87.203">  7  8 -1 -1</clus>
<clus scale="  137.037">  1  5  2 -1</clus>
<clus scale="   24.379">  1  5  2 -1</clus>
</clustering>
</event>
<event>
 9    1  0.4731329E-005  0.2094358E+03  0.7546771E-02  0.1147462E+00
         21   -1    0    0  501  502  0.00000000000E+00  0.00000000000E+00  0.10507484123E+03  0.10507484123E+03  0.00000000000E+00 0. -1.
          1   -1    0    0  502    0 -0.00000000000E+00 -0.00000000000E+00 -0.13975134252E+04  0.13975134252E+04  0.00000000000E+00 0. -1.
        -24    2    1    2    0    0 -0.33986861896E+02  0.16219996140E+03 -0.16461923048E+03  0.24677615614E+03  0.79593001794E+02 0.  0.
         23    2    1    2    0    0  0.21046413001E+03 -0.88610159449E+02 -0.98986507882E+03  0.10200345308E+04  0.92144773517E+02 0.  0.
         13    1    3    3    0    0 -0.30442989875E+02  0.16546588567E+03 -0.17025656576E+03  0.23935963139E+03  0.00000000000E+00 0. -1.
        -14    1    3    3    0    0 -0.35438720208E+01 -0.32659242740E+01  0.56373352811E+01  0.74165247478E+01  0.00000000000E+00 0.  1.
        -13    1    4    4    0    0  0.34192918910E+02  0.18167904359E+02 -0.12014052939E+03  0.12622588979E+03  0.00000000000E+00 0.  1.
         13    1    4    4    0    0  0.17627121110E+03 -0.10677806381E+03 -0.86972454944E+03  0.89380864097E+03  0.00000000000E+00 0. -1.
          2    1    1    2  501    0 -0.17647726812E+03 -0.73589801949E+02 -0.13795427468E+03  0.23577757955E+03  0.00000000000E+00 0. -1.
<scales pt_clust_5="13000.00000" pt_clust_6="13000.00000" pt_clust_7="13000.00000" pt_clust_8="13000.00000" pt_clust_9="188.07627"></scales>
<clustering>
<clus scale="   79.593">  5  6 -1 -1</clus>
<clus scale="   92.145">  7  8 -1 -1</clus>
<clus scale="  183.845">  2  5  1 -1</clus>
<clus scale="  188.076">  1  9  2 -1</clus>
<clus scale="  188.076">  1  5  2 -1</clus>
</clustering>
</event>
<event>
 9    1  0.4731329E-005  0.1185952E+03  0.7546771E-02  0.1250215E+00
          1   -1    0    0  502    0 -0.00000000000E+00  0.00000000000E+00  0.36390608600E+03  0.36390608600E+03  0.00000000000E+00 0. -1.
         21   -1    0    0  501  502  0.00000000000E+00 -0.00000000000E+00 -0.14878279024E+03  0.14878279024E+03  0.00000000000E+00 0.  1.
         23    2    1    2    0    0 -0.65566871952E+02 -0.20098694586E+02  0.30179434672E+03  0.32433126414E+03  0.96994685255E+02 0.  0.
        -24    2    1    2    0    0  0.74323690281E+02 -0.23808093219E+02 -0.33866886502E+02  0.11912779434E+03  0.83388423312E+02 0.  0.
         11    1    4    4    0    0  0.27850181258E+00  0.25028407409E+02 -0.29933352075E+01  0.25208308082E+02  0.00000000000E+00 0. -1.
        -12    1    4    4    0    0  0.74045188468E+02 -0.48836500627E+02 -0.30873551295E+02  0.93919486255E+02  0.00000000000E+00 0.  1.
        -11    1    3    3    0    0  0.11981400644E+02 -0.33404685985E+02  0.56444731604E+02  0.66674093417E+02  0.00000000000E+00 0.  1.
         11    1    3    3    0    0 -0.77548272596E+02  0.13305991398E+02  0.24534961511E+03  0.25765717072E+03  0.00000000000E+00 0. -1.
          2    1    1    2  501    0 -0.87568183290E+01  0.43906787805E+02 -0.52804164456E+02  0.69229817756E+02  0.00000000000E+00 0. -1.
<scales pt_clust_5="13000.00000" pt_clust_6="13000.00000" pt_clust_7="13000.00000" pt_clust_8="13000.00000" pt_clust_9="44.77151"></scales>
<clustering>
<clus scale="   44.772">  2  9  1 -1</clus>
<clus scale="   83.388">  5  6 -1 -1</clus>
<clus scale="   96.995">  7  8 -1 -1</clus>
<clus scale="  107.752">  2  5  1 -1</clus>
<clus scale="   44.772">  2  5  1 -1</clus>
</clustering>
</event>
<event>
 9    1  0.4731329E-005  0.1509985E+03  0.7546771E-02  0.1201585E+00
         -2   -1    0    0    0  501 -0.00000000000E+00  0.00000000000E+00  0.35289636684E+03  0.35289636684E+03  0.00000000000E+00 0.  1.
         21   -1    0    0  501  502  0.00000000000E+00 -0.00000000000E+00 -0.13700988670E+03  0.13700988670E+03  0.00000000000E+00 0. -1.
         23    2    1    2    0    0  0.21449975635E+01  0.11045699424E+03  0.86428198069E+02  0.16395995622E+03  0.84898087317E+02 0.  0.
        -24    2    1    2    0    0  0.79097133501E+02 -0.12004493028E+03  0.71752801449E+00  0.17341304149E+03  0.96976421357E+02 0.  0.
         13    1    4    4    0    0  0.63390025141E+02 -0.13591256701E+03 -0.60273687401E+01  0.15008947442E+03  0.00000000000E+00 0. -1.
        -14    1    4    4    0    0  0.15707108360E+02  0.15867636733E+02  0.67448967546E+01  0.23323567068E+02  0.00000000000E+00 0.  1.
        -13    1    3    3    0    0  0.31945630147E+02  0.15604566560E+02  0.59519038958E+01  0.36047897900E+02  0.00000000000E+00 0.  1.
         13    1    3    3    0    0 -0.29800632583E+02  0.94852427679E+02  0.80476294173E+02  0.12791205832E+03  0.00000000000E+00 0. -1.
         -1    1    1    2    0  502 -0.81242131064E+02  0.95879360401E+01  0.12874075406E+03  0.15253325582E+03  0.00000000000E+00 0.  1.
<scales pt_clust_5="13000.00000" pt_clust_6="13000.00000" pt_clust_7="13000.00000" pt_clust_8="13000.00000" pt_clust_9="81.80598"></scales>
<clustering>
<clus scale="   81.806">  2  9  1 -1</clus>
<clus scale="   84.898">  7  8 -1 -1</clus>
<clus scale="   96.976">  5  6 -1 -1</clus>
<clus scale="  143.540">  1  7  2 -1</clus>
<clus scale="   81.806">  2  5  1 -1</clus>
</clustering>
</event>
<event>
 9    1  0.4731329E-005  0.1326183E+03  0.7546771E-02  0.1233266E+00
          3   -1    0    0  502    0 -0.00000000000E+00  0.00000000000E+00  0.40173022474E+02  0.40173022474E+02  0.00000000000E+00 0. -1.
         21   -1    0    0  501  502  0.00000000000E+00 -0.00000000000E+00 -0.90402790424E+03  0.90402790424E+03  0.00000000000E+00 0. -1.
         23    2    1    2    0    0 -0.19301416371E+02 -0.55617066681E+02 -0.12523445864E+03  0.16577313510E+03  0.91275735608E+02 0.  0.
        -24    2    1    2    0    0 -0.68731400773E+02 -0.36223822089E+02 -0.25591896408E+03  0.27924323224E+03  0.80287582103E+02 0.  0.
         13    1    4    4    0    0 -0.35938875418E+02 -0.56439393850E+02 -0.11396809972E+03  0.13215799521E+03  0.00000000000E+00 0. -1.
        -14    1    4    4    0    0 -0.32792525355E+02  0.20215571760E+02 -0.14195086436E+03  0.14708523703E+03  0.00000000000E+00 0.  1.
        -13    1    3    3    0    0 -0.46369654202E+02 -0.78772565453E+01 -0.86960477415E+02  0.98865163904E+02  0.00000000000E+00 0.  1.
         13    1    3    3    0    0  0.27068237831E+02 -0.47739810136E+02 -0.38273981225E+02  0.66907971199E+02  0.00000000000E+00 0. -1.
          4    1    1    2  501    0  0.88032817145E+02  0.91840888771E+02 -0.48270145905E+03  0.49918455937E+03  0.00000000000E+00 0. -1.
<scales pt_clust_5="13000.00000" pt_clust_6="13000.00000" pt_clust_7="13000.00000" pt_clust_8="13000.00000" pt_clust_9="105.55340"></scales>
<clustering>
<clus scale="   80.288">  5  6 -1 -1</clus>
<clus scale="   91.276">  7  8 -1 -1</clus>
<clus scale="  108.614">  1  7  2 -1</clus>
<clus scale="  105.553">  2  9  1 -1</clus>
<clus scale="  105.553">  2  5  1 -1</clus>
</clustering>
</event>
<event>
 9    1  0.4731329E-005  0.1270278E+03  0.7546771E-02  0.1249007E+00
          1   -1    0    0  502    0 -0.00000000000E+00  0.00000000000E+00  0.52055703720E+03  0.52055703720E+03  0.00000000000E+00 0. -1.
         21   -1    0    0  501  502  0.00000000000E+00 -0.00000000000E+00 -0.60138171769E+02  0.60138171769E+02  0.00000000000E+00 0. -1.
        -24    2    1    2    0    0  0.26682843193E+02  0.34286446213E+02  0.11889817454E+03  0.14901705798E+03  0.78624252908E+02 0.  0.
         23    2    1    2    0    0 -0.13373291178E+01  0.78229170002E+02  0.76402489757E+02  0.14255911054E+03  0.91455825782E+02 0.  0.
         11    1    3    3    0    0  0.45362023334E+02  0.15895942405E+02  0.11204955473E+03  0.12192414388E+03  0.00000000000E+00 0. -1.
        -12    1    3    3    0    0 -0.18679180142E+02  0.18390503809E+02  0.68486198102E+01  0.27092914100E+02  0.00000000000E+00 0.  1.
        -13    1    4    4    0    0 -0.26383722465E+02  0.43266025947E+02  0.84752562979E+02  0.98747388543E+02  0.00000000000E+00 0. -1.
         13    1    4    4    0    0  0.25046393347E+02  0.34963144054E+02 -0.83500732219E+01  0.43811722001E+02  0.00000000000E+00 0.  1.
          2    1    1    2  501    0 -0.25345514075E+02 -0.11251561621E+03  0.26511820113E+03  0.28911904044E+03  0.00000000000E+00 0. -1.
<scales pt_clust_5="13000.00000" pt_clust_6="13000.00000" pt_clust_7="13000.00000" pt_clust_8="13000.00000" pt_clust_9="88.15839"></scales>
<clustering>
<clus scale="   78.624">  5  6 -1 -1</clus>
<clus scale="   89.829">  1  5  2 -1</clus>
<clus scale="   88.158">  2  9  1 -1</clus>
<clus scale="   91.456">  7  8 -1 -1</clus>
<clus scale="   88.158">  2  5  1 -1</clus>
</clustering>
</event>
<event>
 9    1  0.4731329E-005  0.9024690E+02  0.7546771E-02  0.1310263E+00
         21   -1    0    0  501  502  0.00000000000E+00  0.00000000000E+00  0.53990690877E+02  0.53990690877E+02  0.00000000000E+00 0. -1.
          1   -1    0    0  502    0 -0.00000000000E+00 -0.00000000000E+00 -0.50078721012E+03  0.50078721012E+03  0.00000000000E+00 0. -1.
        -24    2    1    2    0    0  0.15735846242E+02 -0.19856892285E+01 -0.41579348630E+03  0.42297707787E+03  0.75985691651E+02 0.  0.
         23    2    1    2    0    0 -0.32744648490E+02 -0.16061847944E+02 -0.42138961940E+02  0.10461586651E+03  0.88535825787E+02 0.  0.
         11    1    3    3    0    0  0.46268910906E+02  0.15815851379E+00 -0.27808550844E+03  0.28190847298E+03  0.00000000000E+00 0. -1.
        -12    1    3    3    0    0 -0.30533064665E+02 -0.21438477423E+01 -0.13770797786E+03  0.14106860489E+03  0.00000000000E+00 0.  1.
        -11    1    4    4    0    0  0.13155053109E+02  0.25706967695E+02  0.12307299370E+01  0.28903603695E+02  0.00000000000E+00 0.  1.
         11    1    4    4    0    0 -0.45899701599E+02 -0.41768815639E+02 -0.43369691877E+02  0.75712262813E+02  0.00000000000E+00 0. -1.
          2    1    1    2  501    0  0.17008802248E+02  0.18047537172E+02  0.11135928994E+02  0.27184956621E+02  0.00000000000E+00 0. -1.
<scales pt_clust_5="13000.00000" pt_clust_6="13000.00000" pt_clust_7="13000.00000" pt_clust_8="13000.00000" pt_clust_9="24.79945"></scales>
<clustering>
<clus scale="   24.799">  1  9  2 -1</clus>
<clus scale="   75.986">  5  6 -1 -1</clus>
<clus scale="   77.973">  2  5  1 -1</clus>
<clus scale="   88.536">  7  8 -1 -1</clus>
<clus scale="   24.799">  1  5  2 -1</clus>
</clustering>
</event>
<event>
 9    1  0.4731329E-005  0.1158681E+03  0.7546771E-02  0.1254068E+00
         21   -1    0    0  501  502  0.00000000000E+00  0.00000000000E+00  0.10907030323E+03  0.10907030323E+03  0.00000000000E+00 0. -1.
          1   -1    0    0  502    0 -0.00000000000E+00 -0.00000000000E+00 -0.23128207454E+03  0.23128207454E+03  0.00000000000E+00 0. -1.
        -24    2    1    2    0    0 -0.44800268150E+02 -0.25566438273E+02 -0.51116215668E+02  0.10756220410E+03  0.79347674535E+02 0.  0.
         23    2    1    2    0    0  0.63149269819E+02  0.73115043210E+02 -0.10699796916E+03  0.17044806117E+03  0.90941389533E+02 0.  0.
         11    1    3    3    0    0 -0.41594800035E+02 -0.19312511665E+02  0.92543305660E+01  0.46784005076E+02  0.00000000000E+00 0. -1.
        -12    1    3    3    0    0 -0.32054681149E+01 -0.62539266076E+01 -0.60370546234E+02  0.60778199023E+02  0.00000000000E+00 0.  1.
        -11    1    4    4    0    0  0.17792087865E+02  0.68809383716E+02 -0.22672205415E+02  0.74601062836E+02  0.00000000000E+00 0. -1.
         11    1    4    4    0    0  0.45357181954E+02  0.43056594946E+01 -0.84325763746E+02  0.95846998335E+02  0.00000000000E+00 0.  1.
          2    1    1    2  501    0 -0.18349001669E+02 -0.47548604938E+02  0.35902413522E+02  0.62342112496E+02  0.00000000000E+00 0. -1.
<scales pt_clust_5="13000.00000" pt_clust_6="13000.00000" pt_clust_7="13000.00000" pt_clust_8="13000.00000" pt_clust_9="50.96622"></scales>
<clustering>
<clus scale="   50.966">  1  9  2 -1</clus>
<clus scale="   79.348">  5  6 -1 -1</clus>
<clus scale="   90.941">  7  8 -1 -1</clus>
<clus scale="  107.010">  2  5  1 -1</clus>
<clus scale="   50.966">  1  5  2 -1</clus>
</clustering>
</event>
<event>
 9    1  0.4731329E-005  0.1219986E+03  0.7546771E-02  0.1243384E+00
         -2   -1    0    0    0  501 -0.00000000000E+00  0.00000000000E+00  0.27168316787E+03  0.27168316787E+03  0.00000000000E+00 0.  1.
         21   -1    0    0  501  502  0.00000000000E+00 -0.00000000000E+00 -0.29840990198E+03  0.29840990198E+03  0.00000000000E+00 0. -1.
         23    2    1    2    0    0  0.72731668629E+02  0.35668647016E+02  0.23080377977E+03  0.26141368988E+03  0.92220304173E+02 0.  0.
        -24    2    1    2    0    0 -0.71459212740E+02 -0.15095943138E+02 -0.93875499227E+02  0.14373145149E+03  0.80695812825E+02 0.  0.
         13    1    4    4    0    0 -0.85160277114E+02 -0.13466041321E+02 -0.96797482470E+02  0.12962777356E+03  0.00000000000E+00 0. -1.
        -14    1    4    4    0    0  0.13701064374E+02 -0.16299018177E+01  0.29219832427E+01  0.14103677924E+02  0.00000000000E+00 0.  1.
        -13    1    3    3    0    0  0.39119771084E+02  0.16486327362E+02  0.19714561796E+02  0.46806190043E+02  0.00000000000E+00 0. -1.
         13    1    3    3    0    0  0.33611897545E+02  0.19182319653E+02  0.21108921797E+03  0.21460749984E+03  0.00000000000E+00 0.  1.
         -1    1    1    2    0  502 -0.12724558893E+01 -0.20572703877E+02 -0.16365501465E+03  0.16494792847E+03  0.00000000000E+00 0.  1.
<scales pt_clust_5="13000.00000" pt_clust_6="13000.00000" pt_clust_7="13000.00000" pt_clust_8="13000.00000" pt_clust_9="20.61202"></scales>
<clustering>
<clus scale="   20.612">  2  9  1 -1</clus>
<clus scale="   80.696">  5  6 -1 -1</clus>
<clus scale="   92.220">  7  8 -1 -1</clus>
<clus scale="  113.538">  2  5  1 -1</clus>
<clus scale="   20.612">  2  5  1 -1</clus>
</clustering>
</event>
<event>
 9    1  0.4731329E-005  0.1137035E+03  0.7546771E-02  0.1257316E+00
         21   -1    0    0  501  502  0.00000000000E+00  0.00000000000E+00  0.43262309107E+02  0.43262309107E+02  0.00000000000E+00 0.  1.
          3   -1    0    0  502    0 -0.00000000000E+00 -0.00000000000E+00 -0.43532104472E+03  0.43532104472E+03  0.00000000000E+00 0. -1.
         23    2    1    2    0    0 -0.24689798830E+02  0.61635707941E+02 -0.13269431019E+03  0.17349571007E+03  0.89913485070E+02 0.  0.
        -24    2    1    2    0    0  0.54691612045E+02 -0.52907279733E+02 -0.12383628496E+03  0.16600431940E+03  0.80197605391E+02 0.  0.
         13    1    4    4    0    0  0.21343290752E+02  0.20043927499E+02 -0.23482011606E+02  0.37532651902E+02  0.00000000000E+00 0. -1.
        -14    1    4    4    0    0  0.33348321292E+02 -0.72951207233E+02 -0.10035427336E+03  0.12847166750E+03  0.00000000000E+00 0.  1.
        -11    1    3    3    0    0 -0.16631464327E+02 -0.14799471237E+02 -0.72587208752E+02  0.75924520604E+02  0.00000000000E+00 0. -1.
         11    1    3    3    0    0 -0.80583345023E+01  0.76435179179E+02 -0.60107101433E+02  0.97571189466E+02  0.00000000000E+00 0.  1.
          4    1    1    2  501    0 -0.30001813215E+02 -0.87284282080E+01 -0.13552814047E+03  0.13908332436E+03  0.00000000000E+00 0. -1.
<scales pt_clust_5="13000.00000" pt_clust_6="13000.00000" pt_clust_7="13000.00000" pt_clust_8="13000.00000" pt_clust_9="31.24572"></scales>
<clustering>
<clus scale="   31.246">  1  9  2 -1</clus>
<clus scale="   80.198">  5  6 -1 -1</clus>
<clus scale="   89.913">  7  8 -1 -1</clus>
<clus scale="  106.187">  1  5  2 -1</clus>
<clus scale="   31.246">  1  5  2 -1</clus>
</clustering>
</event>
<event>
 9    1  0.4731329E-005  0.2182872E+03  0.7546771E-02  0.1156762E+00
         21   -1    0    0  501  502  0.00000000000E+00  0.00000000000E+00  0.70953482433E+02  0.70953482433E+02  0.00000000000E+00 0. -1.
          1   -1    0    0  502    0 -0.00000000000E+00 -0.00000000000E+00 -0.13124277615E+04  0.13124277615E+04  0.00000000000E+00 0. -1.
         23    2    1    2    0    0 -0.17360787998E+02 -0.96669678314E+02 -0.53898768106E+03  0.55453073058E+03  0.85733232534E+02 0.  0.
        -24    2    1    2    0    0  0.64956115534E+02 -0.15473557640E+03 -0.30849150982E+03  0.35906114904E+03  0.74803085298E+02 0.  0.
         11    1    4    4    0    0 -0.15766075803E+02 -0.38684781574E+02 -0.83039163748E+02  0.92954742684E+02  0.00000000000E+00 0. -1.
        -12    1    4    4    0    0  0.80722191337E+02 -0.11605079483E+03 -0.22545234607E+03  0.26610640636E+03  0.00000000000E+00 0.  1.
        -13    1    3    3    0    0 -0.28224851046E+02  0.45273424378E+01 -0.11584252256E+03  0.11931734609E+03  0.00000000000E+00 0.  1.
         13    1    3    3    0    0  0.10864063048E+02 -0.10119702075E+03 -0.42314515850E+03  0.43521338449E+03  0.00000000000E+00 0. -1.
          2    1    1    2  501    0 -0.47595327536E+02  0.25140525472E+03 -0.39399508819E+03  0.46978936431E+03  0.00000000000E+00 0. -1.
<scales pt_clust_5="13000.00000" pt_clust_6="13000.00000" pt_clust_7="13000.00000" pt_clust_8="13000.00000" pt_clust_9="205.07029"></scales>
<clustering>
<clus scale="   74.803">  5  6 -1 -1</clus>
<clus scale="   85.733">  7  8 -1 -1</clus>
<clus scale="  130.371">  2  7  1 -1</clus>
<clus scale="  205.070">  1  9  2 -1</clus>
<clus scale="  205.070">  1  5  2 -1</clus>
</clustering>
</event>
<event>
 9    1  0.4731329E-005  0.9986233E+02  0.7546771E-02  0.1287701E+00
         21   -1    0    0  501  502  0.00000000000E+00  0.00000000000E+00  0.69104427095E+02  0.69104427095E+02  0.00000000000E+00 0.  1.
          1   -1    0    0  502    0 -0.00000000000E+00 -0.00000000000E+00 -0.46114858603E+03  0.46114858603E+03  0.00000000000E+00 0. -1.
         23    2    1    2    0    0  0.37017677220E+01 -0.30231002953E+02 -0.34244922636E+03  0.35608411099E+03  0.92718956213E+02 0.  0.
        -24    2    1    2    0    0 -0.43397656369E+01  0.59318538019E+02 -0.83538436268E+02  0.12946260303E+03  0.79021343515E+02 0.  0.
         11    1    4    4    0    0  0.30574058705E+02  0.38450580503E+01 -0.41132851514E+02  0.51395223619E+02  0.00000000000E+00 0. -1.
        -12    1    4    4    0    0 -0.34913824342E+02  0.55473479969E+02 -0.42405584754E+02  0.78067379412E+02  0.00000000000E+00 0.  1.
        -11    1    3    3    0    0 -0.28275404190E+02 -0.44972108117E+02 -0.27407659697E+03  0.27917730924E+03  0.00000000000E+00 0.  1.
         11    1    3    3    0    0  0.31977171912E+02  0.14741105164E+02 -0.68372629392E+02  0.76906801747E+02  0.00000000000E+00 0. -1.
          2    1    1    2  501    0  0.63799791491E+00 -0.29087535066E+02  0.33943503687E+02  0.44706299110E+02  0.00000000000E+00 0. -1.
<scales pt_clust_5="13000.00000" pt_clust_6="13000.00000" pt_clust_7="13000.00000" pt_clust_8="13000.00000" pt_clust_9="29.09453"></scales>
<clustering>
<clus scale="   29.095">  1  9  2 -1</clus>
<clus scale="   79.021">  5  6 -1 -1</clus>
<clus scale="   87.293">  1  5  2 -1</clus>
<clus scale="   92.719">  7  8 -1 -1</clus>
<clus scale="   29.095">  1  5  2 -1</clus>
</clustering>
</event>
<event>
 9    1  0.4731329E-005  0.1493834E+03  0.7546771E-02  0.1219014E+00
          1   -1    0    0  502    0 -0.00000000000E+00  0.00000000000E+00  0.50543926535E+03  0.50543926535E+03  0.00000000000E+00 0. -1.
         21   -1    0    0  501  502  0.00000000000E+00 -0.00000000000E+00 -0.88796524701E+02  0.88796524701E+02  0.00000000000E+00 0. -1.
        -24    2    1    2    0    0 -0.19073333332E+01  0.60976960411E+02  0.56513442632E+02  0.11677912937E+03  0.81986390552E+02 0.  0.
         23    2    1    2    0    0  0.54182753398E+02  0.65568312453E+02  0.30926232770E+03  0.33139546017E+03  0.83335402559E+02 0.  0.
         11    1    3    3    0    0 -0.39765270946E+02  0.27361958655E+02  0.12919212609E+02  0.49968586225E+02  0.00000000000E+00 0. -1.
        -12    1    3    3    0    0  0.37857937613E+02  0.33615001756E+02  0.43594230023E+02  0.66810543140E+02  0.00000000000E+00 0.  1.
        -13    1    4    4    0    0  0.47546810549E+02 -0.35439742914E+01  0.97342713288E+02  0.10839217120E+03  0.00000000000E+00 0.  1.
         13    1    4    4    0    0  0.66359428481E+01  0.69112286744E+02  0.21191961441E+03  0.22300328897E+03  0.00000000000E+00 0. -1.
          2    1    1    2  501    0 -0.52275420064E+02 -0.12654527286E+03  0.50866970311E+02  0.14606120051E+03  0.00000000000E+00 0. -1.
<scales pt_clust_5="13000.00000" pt_clust_6="13000.00000" pt_clust_7="13000.00000" pt_clust_8="13000.00000" pt_clust_9="123.97825"></scales>
<clustering>
<clus scale="   81.986">  5  6 -1 -1</clus>
<clus scale="   83.335">  7  8 -1 -1</clus>
<clus scale="  102.194">  1  5  2 -1</clus>
<clus scale="  123.978">  2  9  1 -1</clus>
<clus scale="  123.978">  2  5  1 -1</clus>
</clustering>
</event>
<event>
 9    1  0.4731329E-005  0.2051128E+03  0.7546771E-02  0.1179034E+00
          1   -1    0    0  502    0 -0.00000000000E+00  0.00000000000E+00  0.33121881762E+03  0.33121881762E+03  0.00000000000E+00 0. -1.
         21   -1    0    0  501  502  0.00000000000E+00 -0.00000000000E+00 -0.29191425747E+03  0.29191425747E+03  0.00000000000E+00 0. -1.
         23    2    1    2    0    0 -0.44377088451E+02 -0.32408680470E+01  0.13935495443E+03  0.16822490546E+03  0.83066156106E+02 0.  0.
        -24    2    1    2    0    0 -0.60974721337E+02 -0.17124028283E+03 -0.14389048070E+03  0.24642644617E+03  0.83548619544E+02 0.  0.
         13    1    4    4    0    0 -0.78295788877E+02 -0.16278464220E+03 -0.13269483224E+03  0.22413609436E+03  0.00000000000E+00 0. -1.
        -14    1    4    4    0    0  0.17321067540E+02 -0.84556406340E+01 -0.11195648462E+02  0.22290351808E+02  0.00000000000E+00 0.  1.
        -11    1    3    3    0    0 -0.17272447623E+02 -0.20422069991E+02  0.16146699708E+01  0.26795625552E+02  0.00000000000E+00 0.  1.
         11    1    3    3    0    0 -0.27104640828E+02  0.17181201944E+02  0.13774028446E+03  0.14142927991E+03  0.00000000000E+00 0. -1.
          2    1    1    2  501    0  0.10535180979E+03  0.17448115088E+03  0.43840086435E+02  0.20848172346E+03  0.00000000000E+00 0. -1.
<scales pt_clust_5="13000.00000" pt_clust_6="13000.00000" pt_clust_7="13000.00000" pt_clust_8="13000.00000" pt_clust_9="187.32572"></scales>
<clustering>
<clus scale="   83.066">  7  8 -1 -1</clus>
<clus scale="   83.549">  5  6 -1 -1</clus>
<clus scale="   94.233">  1  7  2 -1</clus>
<clus scale="  187.326">  2  9  1 -1</clus>
<clus scale="  187.326">  2  5  1 -1</clus>
</clustering>
</event>
<event>
 9    1  0.4731329E-005  0.1608836E+03  0.7546771E-02  0.1189805E+00
          1   -1    0    0  502    0 -0.00000000000E+00  0.00000000000E+00  0.11074201548E+04  0.11074201548E+04  0.00000000000E+00 0. -1.
         21   -1    0    0  501  502  0.00000000000E+00 -0.00000000000E+00 -0.14827657505E+03  0.14827657505E+03  0.00000000000E+00 0. -1.
         23    2    1    2    0    0 -0.12948560545E+03  0.13317181262E+02  0.89418285228E+03  0.90830218999E+03  0.92228117672E+02 0.  0.
        -24    2    1    2    0    0  0.14139913634E+03  0.18852136869E+02  0.17084159841E+03  0.23609514148E+03  0.78771474940E+02 0.  0.
         13    1    4    4    0    0  0.36411631231E+02  0.18464644189E+02  0.10376787577E+03  0.11151018795E+03  0.00000000000E+00 0. -1.
        -14    1    4    4    0    0  0.10498750511E+03  0.38749268013E+00  0.67073722634E+02  0.12458495354E+03  0.00000000000E+00 0.  1.
        -13    1    3    3    0    0  0.72542353196E+01  0.21321910713E+02  0.11985912799E+03  0.12195678894E+03  0.00000000000E+00 0. -1.
         13    1    3    3    0    0 -0.13673984077E+03 -0.80047294511E+01  0.77432372429E+03  0.78634540105E+03  0.00000000000E+00 0.  1.
          2    1    1    2  501    0 -0.11913530888E+02 -0.32169318131E+02 -0.10588087094E+03  0.11129939838E+03  0.00000000000E+00 0. -1.
<scales pt_clust_5="13000.00000" pt_clust_6="13000.00000" pt_clust_7="13000.00000" pt_clust_8="13000.00000" pt_clust_9="34.30448"></scales>
<clustering>
<clus scale="   34.304">  2  9  1 -1</clus>
<clus scale="   78.771">  5  6 -1 -1</clus>
<clus scale="   92.228">  7  8 -1 -1</clus>
<clus scale="  153.566">  2  5  1 -1</clus>
<clus scale="   34.304">  2  5  1 -1</clus>
</clustering>
</event>
<event>
 9    1  0.4731329E-005  0.1127910E+03  0.7546771E-02  0.1258471E+00
         21   -1    0    0  501  502  0.00000000000E+00  0.00000000000E+00  0.69050421543E+02  0.69050421543E+02  0.00000000000E+00 0.  1.
          1   -1    0    0  502    0 -0.00000000000E+00 -0.00000000000E+00 -0.40920663088E+03  0.40920663088E+03  0.00000000000E+00 0. -1.
         23    2    1    2    0    0  0.34015966306E+02 -0.53613722005E+02 -0.23795400604E+03  0.26163668747E+03  0.88318345145E+02 0.  0.
        -24    2    1    2    0    0 -0.85804296555E+02  0.57384776480E+02 -0.42026669386E+02  0.13713862564E+03  0.79908521605E+02 0.  0.
         11    1    4    4    0    0 -0.12237587299E+02  0.30458912749E+02 -0.48464974396E+02  0.58535097608E+02  0.00000000000E+00 0. -1.
        -12    1    4    4    0    0 -0.73566709255E+02  0.26925863731E+02  0.64383050104E+01  0.78603528036E+02  0.00000000000E+00 0.  1.
        -13    1    3    3    0    0  0.35584809510E+02  0.15401788000E+02 -0.69472157088E+02  0.79560507489E+02  0.00000000000E+00 0.  1.
         13    1    3    3    0    0 -0.15688432046E+01 -0.69015510005E+02 -0.16848184895E+03  0.18207617998E+03  0.00000000000E+00 0. -1.
          2    1    1    2  501    0  0.51788330249E+02 -0.37710544753E+01 -0.60175533911E+02  0.79481739307E+02  0.00000000000E+00 0. -1.
<scales pt_clust_5="13000.00000" pt_clust_6="13000.00000" pt_clust_7="13000.00000" pt_clust_8="13000.00000" pt_clust_9="51.92547"></scales>
<clustering>
<clus scale="   51.925">  1  9  2 -1</clus>
<clus scale="   79.909">  5  6 -1 -1</clus>
<clus scale="   88.318">  7  8 -1 -1</clus>
<clus scale="  106.335">  1  5  2 -1</clus>
<clus scale="   51.925">  1  5  2 -1</clus>
</clustering>
</event>
<event>
 9    1  0.4731329E-005  0.1203704E+03  0.7546771E-02  0.1243233E+00
          3   -1    0    0  502    0 -0.00000000000E+00  0.00000000000E+00  0.25525415063E+03  0.25525415063E+03  0.00000000000E+00 0. -1.
         21   -1    0    0  501  502  0.00000000000E+00 -0.00000000000E+00 -0.16133532503E+03  0.16133532503E+03  0.00000000000E+00 0. -1.
        -24    2    1    2    0    0  0.13804685563E+02  0.77419024922E+02  0.17898072476E+03  0.21636985908E+03  0.92722927681E+02 0.  0.
         23    2    1    2    0    0 -0.25247032740E+02 -0.59035253408E+02 -0.11729153899E+03  0.16139127581E+03  0.90372921731E+02 0.  0.
         13    1    3    3    0    0  0.28462972860E+02  0.85865693096E+02  0.17770452529E+03  0.19940400293E+03  0.00000000000E+00 0. -1.
        -14    1    3    3    0    0 -0.14658287297E+02 -0.84466681738E+01  0.12761994684E+01  0.16965856147E+02  0.00000000000E+00 0.  1.
        -13    1    4    4    0    0 -0.22452076316E+02  0.19210812930E+02 -0.50345613196E+02  0.58376637728E+02  0.00000000000E+00 0. -1.
         13    1    4    4    0    0 -0.27949564235E+01 -0.78246066339E+02 -0.66945925791E+02  0.10301463808E+03  0.00000000000E+00 0.  1.
          4    1    1    2  501    0  0.11442347177E+02 -0.18383771514E+02  0.32229639826E+02  0.38828340774E+02  0.00000000000E+00 0. -1.
<scales pt_clust_5="13000.00000" pt_clust_6="13000.00000" pt_clust_7="13000.00000" pt_clust_8="13000.00000" pt_clust_9="21.65389"></scales>
<clustering>
<clus scale="   21.654">  2  9  1 -1</clus>
<clus scale="   90.373">  7  8 -1 -1</clus>
<clus scale="   92.723">  5  6 -1 -1</clus>
<clus scale="  118.570">  2  7  1 -1</clus>
<clus scale="   21.654">  2  5  1 -1</clus>
</clustering>
</event>
<event>
 9    1  0.4731329E-005  0.2039936E+03  0.7546771E-02  0.1173516E+00
         21   -1    0    0  501  502  0.00000000000E+00  0.00000000000E+00  0.18117435972E+03  0.18117435972E+03  0.00000000000E+00 0. -1.
          1   -1    0    0  502    0 -0.00000000000E+00 -0.00000000000E+00 -0.45874098110E+03  0.45874098110E+03  0.00000000000E+00 0. -1.
        -24    2    1    2    0    0  0.46716445807E+02  0.50905921560E+02  0.54972843263E+02  0.12165849429E+03  0.83695499143E+02 0.  0.
         23    2    1    2    0    0 -0.19031574226E+03 -0.11475410748E+03 -0.20279195385E+03  0.31446340860E+03  0.91509955025E+02 0.  0.
         11    1    3    3    0    0 -0.14055966515E+02  0.41756576064E+02  0.37254200983E+02  0.57697983761E+02  0.00000000000E+00 0. -1.
        -12    1    3    3    0    0  0.60772412322E+02  0.91493454967E+01  0.17718642281E+02  0.63960510525E+02  0.00000000000E+00 0.  1.
        -11    1    4    4    0    0 -0.11726438998E+03 -0.17540429293E+02 -0.10599205951E+03  0.15903748142E+03  0.00000000000E+00 0.  1.
         11    1    4    4    0    0 -0.73051352278E+02 -0.97213678187E+02 -0.96799894342E+02  0.15542592718E+03  0.00000000000E+00 0. -1.
          2    1    1    2  501    0  0.14359929645E+03  0.63848185919E+02 -0.12974751080E+03  0.20379343793E+03  0.00000000000E+00 0. -1.
<scales pt_clust_5="13000.00000" pt_clust_6="13000.00000" pt_clust_7="13000.00000" pt_clust_8="13000.00000" pt_clust_9="182.31659"></scales>
<clustering>
<clus scale="   83.695">  5  6 -1 -1</clus>
<clus scale="   91.510">  7  8 -1 -1</clus>
<clus scale="  108.530">  2  5  1 -1</clus>
<clus scale="  182.317">  1  9  2 -1</clus>
<clus scale="  182.317">  1  5  2 -1</clus>
</clustering>
</event>
<event>
 9    1  0.4731329E-005  0.9885388E+02  0.7546771E-02  0.1287458E+00
         21   -1    0    0  501  502  0.00000000000E+00  0.00000000000E+00  0.35366112479E+02  0.35366112479E+02  0.00000000000E+00 0. -1.
         -4   -1    0    0    0  501 -0.00000000000E+00 -0.00000000000E+00 -0.45612686845E+03  0.45612686845E+03  0.00000000000E+00 0.  1.
         23    2    1    2    0    0 -0.27832879174E+02  0.36937799053E+02 -0.31927345904E+03  0.33503671415E+03  0.90415640357E+02 0.  0.
        -24    2    1    2    0    0  0.29490257894E+02 -0.91801716261E+01 -0.93418217980E+02  0.12750211647E+03  0.81091771426E+02 0.  0.
         13    1    4    4    0    0  0.42139802223E+02  0.14288679780E+01 -0.11177166648E+02  0.43620335274E+02  0.00000000000E+00 0. -1.
        -14    1    4    4    0    0 -0.12649544330E+02 -0.10609039604E+02 -0.82241051332E+02  0.83881781200E+02  0.00000000000E+00 0.  1.
        -13    1    3    3    0    0 -0.31705481435E+02  0.59141378694E+02 -0.29221502571E+03  0.29982088232E+03  0.00000000000E+00 0.  1.
         13    1    3    3    0    0  0.38726022619E+01 -0.22203579641E+02 -0.27058433330E+02  0.35215831829E+02  0.00000000000E+00 0. -1.
         -3    1    1    2    0  502 -0.16573787200E+01 -0.27757627427E+02 -0.80690789500E+01  0.28954150302E+02  0.00000000000E+00 0.  1.
<scales pt_clust_5="13000.00000" pt_clust_6="13000.00000" pt_clust_7="13000.00000" pt_clust_8="13000.00000" pt_clust_9="27.80706"></scales>
<clustering>
<clus scale="   27.807">  1  9  2 -1</clus>
<clus scale="   81.092">  5  6 -1 -1</clus>
<clus scale="   90.405">  1  5  2 -1</clus>
<clus scale="   90.416">  7  8 -1 -1</clus>
<clus scale="   27.807">  1  5  2 -1</clus>
</clustering>
</event>
<event>
 9    1  0.4731329E-005  0.1092456E+03  0.7546771E-02  0.1269202E+00
          1   -1    0    0  502    0 -0.00000000000E+00  0.00000000000E+00  0.29778926624E+03  0.29778926624E+03  0.00000000000E+00 0. -1.
         21   -1    0    0  501  502  0.00000000000E+00 -0.00000000000E+00 -0.14055173038E+03  0.14055173038E+03  0.00000000000E+00 0. -1.
         23    2    1    2    0    0 -0.38945795857E+02 -0.41596996267E+02  0.10647314988E+03  0.15367022924E+03  0.95031166456E+02 0.  0.
        -24    2    1    2    0    0 -0.51909408447E+02  0.64493779859E+02  0.12208745495E+03  0.16691716439E+03  0.78115035584E+02 0.  0.
         11    1    4    4    0    0 -0.70102648152E+02  0.46455013347E+02  0.72214662640E+02  0.11084857709E+03  0.00000000000E+00 0. -1.
        -12    1    4    4    0    0  0.18193239705E+02  0.18038766512E+02  0.49872792312E+02  0.56068587295E+02  0.00000000000E+00 0.  1.
        -13    1    3    3    0    0 -0.19370696392E+02  0.26892248805E+02  0.60224030211E+02  0.68741186630E+02  0.00000000000E+00 0.  1.
         13    1    3    3    0    0 -0.19575099465E+02 -0.68489245071E+02  0.46249119666E+02  0.84929042614E+02  0.00000000000E+00 0. -1.
          2    1    1    2  501    0  0.90855204304E+02 -0.22896783592E+02 -0.71323068976E+02  0.11775360299E+03  0.00000000000E+00 0. -1.
<scales pt_clust_5="13000.00000" pt_clust_6="13000.00000" pt_clust_7="13000.00000" pt_clust_8="13000.00000" pt_clust_9="93.69595"></scales>
<clustering>
<clus scale="   78.115">  5  6 -1 -1</clus>
<clus scale="   93.696">  2  9  1 -1</clus>
<clus scale="   94.898">  2  5  1 -1</clus>
<clus scale="   95.031">  7  8 -1 -1</clus>
<clus scale="   93.696">  2  5  1 -1</clus>
</clustering>
</event>
<event>
 9    1  0.4731329E-005  0.2434765E+03  0.7546771E-02  0.1133696E+00
         21   -1    0    0  501  502  0.00000000000E+00  0.00000000000E+00  0.29173292996E+03  0.29173292996E+03  0.00000000000E+00 0. -1.
          1   -1    0    0  502    0 -0.00000000000E+00 -0.00000000000E+00 -0.47100326077E+03  0.47100326077E+03  0.00000000000E+00 0. -1.
         23    2    1    2    0    0  0.93308585785E+02 -0.97765744053E+02 -0.21435299099E+03  0.26931496549E+03  0.91206978901E+02 0.  0.
        -24    2    1    2    0    0  0.10485945920E+03 -0.12285950388E+03 -0.45252486307E+02  0.18617570478E+03  0.80769063726E+02 0.  0.
         11    1    4    4    0    0  0.61611512465E+02 -0.57561267526E+02  0.17139317698E+02  0.86040886784E+02  0.00000000000E+00 0. -1.
        -12    1    4    4    0    0  0.43247946739E+02 -0.65298236359E+02 -0.62391804005E+02  0.10013481800E+03  0.00000000000E+00 0.  1.
        -11    1    3    3    0    0  0.29066405568E+02 -0.80755047987E+02 -0.16683840748E+03  0.18762006268E+03  0.00000000000E+00 0.  1.
         11    1    3    3    0    0  0.64242180218E+02 -0.17010696067E+02 -0.47514583502E+02  0.81694902810E+02  0.00000000000E+00 0. -1.
          2    1    1    2  501    0 -0.19816804499E+03  0.22062524794E+03  0.80335146483E+02  0.30724552046E+03  0.00000000000E+00 0. -1.
<scales pt_clust_5="13000.00000" pt_clust_6="13000.00000" pt_clust_7="13000.00000" pt_clust_8="13000.00000" pt_clust_9="229.68938"></scales>
<clustering>
<clus scale="   80.769">  5  6 -1 -1</clus>
<clus scale="   91.207">  7  8 -1 -1</clus>
<clus scale="  163.044">  2  7  1 -1</clus>
<clus scale="  229.689">  1  9  2 -1</clus>
<clus scale="  229.689">  1  5  2 -1</clus>
</clustering>
</event>
<event>
 9    1  0.4731329E-005  0.1290903E+03  0.7546771E-02  0.1241785E+00
          1   -1    0    0  502    0 -0.00000000000E+00  0.00000000000E+00  0.37919360792E+03  0.37919360792E+03  0.00000000000E+00 0. -1.
         21   -1    0    0  501  502  0.00000000000E+00 -0.00000000000E+00 -0.15714016860E+03  0.15714016860E+03  0.00000000000E+00 0. -1.
         23    2    1    2    0    0  0.33121867871E+02  0.16837123441E+02  0.27058707632E+03  0.28812394152E+03  0.91746896118E+02 0.  0.
        -24    2    1    2    0    0  0.51815102944E+02  0.51166599819E+02  0.29287868319E+02  0.11443770756E+03  0.83278952030E+02 0.  0.
         13    1    4    4    0    0  0.49587647607E+02  0.72892483613E+02  0.18506987813E+02  0.90081949138E+02  0.00000000000E+00 0. -1.
        -14    1    4    4    0    0  0.22274553370E+01 -0.21725883794E+02  0.10780880506E+02  0.24355758424E+02  0.00000000000E+00 0.  1.
        -11    1    3    3    0    0  0.37454909134E+02  0.44969281249E+02  0.23689847725E+03  0.24402048069E+03  0.00000000000E+00 0. -1.
         11    1    3    3    0    0 -0.43330412629E+01 -0.28132157808E+02  0.33688599075E+02  0.44103460830E+02  0.00000000000E+00 0.  1.
          2    1    1    2  501    0 -0.84936970816E+02 -0.68003723260E+02 -0.77821505320E+02  0.13377212744E+03  0.00000000000E+00 0. -1.
<scales pt_clust_5="13000.00000" pt_clust_6="13000.00000" pt_clust_7="13000.00000" pt_clust_8="13000.00000" pt_clust_9="98.63533"></scales>
<clustering>
<clus scale="   83.279">  5  6 -1 -1</clus>
<clus scale="   91.747">  7  8 -1 -1</clus>
<clus scale="   98.985">  1  7  2 -1</clus>
<clus scale="   98.635">  2  9  1 -1</clus>
<clus scale="   98.635">  2  5  1 -1</clus>
</clustering>
</event>
<event>
 9    1  0.4731329E-005  0.1069314E+03  0.7546771E-02  0.1268166E+00
         21   -1    0    0  501  502  0.00000000000E+00  0.00000000000E+00  0.25832596320E+03  0.25832596320E+03  0.00000000000E+00 0.  1.
         -2   -1    0    0    0  501 -0.00000000000E+00 -0.00000000000E+00 -0.10470839122E+03  0.10470839122E+03  0.00000000000E+00 0.  1.
        -24    2    1    2    0    0  0.31891307906E+01  0.63396782841E+02 -0.39476153314E+02  0.11102291170E+03  0.82087743370E+02 0.  0.
         23    2    1    2    0    0  0.44641266759E+02 -0.57865794180E+02  0.12709094885E+03  0.17031257330E+03  0.86677393310E+02 0.  0.
         11    1    3    3    0    0 -0.30873393713E+02  0.19549191979E+02  0.86420621138E+01  0.37550267429E+02  0.00000000000E+00 0. -1.
        -12    1    3    3    0    0  0.34062524504E+02  0.43847590862E+02 -0.48118215428E+02  0.73472644269E+02  0.00000000000E+00 0.  1.
        -11    1    4    4    0    0 -0.12829182448E+02 -0.44779711051E+02  0.88054966891E+02  0.99616703611E+02  0.00000000000E+00 0. -1.
         11    1    4    4    0    0  0.57470449207E+02 -0.13086083129E+02  0.39035981955E+02  0.70695869687E+02  0.00000000000E+00 0.  1.
         -1    1    1    2    0  502 -0.47830397550E+02 -0.55309886605E+01  0.66002776455E+02  0.81698869424E+02  0.00000000000E+00 0.  1.
<scales pt_clust_5="13000.00000" pt_clust_6="13000.00000" pt_clust_7="13000.00000" pt_clust_8="13000.00000" pt_clust_9="48.14913"></scales>
<clustering>
<clus scale="   48.149">  1  9  2 -1</clus>
<clus scale="   82.088">  5  6 -1 -1</clus>
<clus scale="   86.677">  7  8 -1 -1</clus>
<clus scale="  103.246">  2  5  1 -1</clus>
<clus scale="   48.149">  1  5  2 -1</clus>
</clustering>
</event>
<event>
 9    1  0.4731329E-005  0.9675456E+02  0.7546771E-02  0.1292873E+00
          1   -1    0    0  502    0 -0.00000000000E+00  0.00000000000E+00  0.24991019531E+03  0.24991019531E+03  0.00000000000E+00 0. -1.
         21   -1    0    0  501  502  0.00000000000E+00 -0.00000000000E+00 -0.62011680986E+02  0.62011680986E+02  0.00000000000E+00 0. -1.
        -24    2    1    2    0    0  0.42451309979E+02 -0.39753882953E+02  0.96478079927E+02  0.13870422023E+03  0.80921912196E+02 0.  0.
         23    2    1    2    0    0 -0.41707209197E+01 -0.32920147815E+00  0.62970253423E+02  0.11091621183E+03  0.91212115121E+02 0.  0.
         11    1    3    3    0    0  0.51341925451E+02 -0.56943815591E+02  0.59805203696E+02  0.97238129518E+02  0.00000000000E+00 0. -1.
        -12    1    3    3    0    0 -0.88906154722E+01  0.17189932638E+02  0.36672876231E+02  0.41466090708E+02  0.00000000000E+00 0.  1.
        -11    1    4    4    0    0  0.38411612975E+02 -0.68359674893E+01  0.59695315087E+01  0.39469200262E+02  0.00000000000E+00 0. -1.
         11    1    4    4    0    0 -0.42582333895E+02  0.65067660111E+01  0.57000721914E+02  0.71447011572E+02  0.00000000000E+00 0.  1.
          2    1    1    2  501    0 -0.38280589059E+02  0.40083084431E+02  0.28450180970E+02  0.62301444232E+02  0.00000000000E+00 0. -1.
<scales pt_clust_5="13000.00000" pt_clust_6="13000.00000" pt_clust_7="13000.00000" pt_clust_8="13000.00000" pt_clust_9="55.42614"></scales>
<clustering>
<clus scale="   55.426">  2  9  1 -1</clus>
<clus scale="   80.922">  5  6 -1 -1</clus>
<clus scale="   87.121">  1  5  2 -1</clus>
<clus scale="   91.212">  7  8 -1 -1</clus>
<clus scale="   55.426">  2  5  1 -1</clus>
</clustering>
</event>
<event>
 9    1  0.4731329E-005  0.1472870E+03  0.7546771E-02  0.1206478E+00
         21   -1    0    0  501  502  0.00000000000E+00  0.00000000000E+00  0.31932067253E+03  0.31932067253E+03  0.00000000000E+00 0. -1.
          1   -1    0    0  502    0 -0.00000000000E+00 -0.00000000000E+00 -0.12241424991E+03  0.12241424991E+03  0.00000000000E+00 0. -1.
         23    2    1    2    0    0 -0.46310039408E+02 -0.10318693700E+03 -0.14427811738E+02  0.14739258803E+03  0.93403691243E+02 0.  0.
        -24    2    1    2    0    0  0.10357823465E+02  0.11945968961E+03  0.97925909325E+02  0.17426397460E+03  0.80003419793E+02 0.  0.
         11    1    4    4    0    0  0.15138820770E+02  0.10490588278E+03  0.11146863673E+03  0.15381705077E+03  0.00000000000E+00 0. -1.
        -12    1    4    4    0    0 -0.47809973047E+01  0.14553806831E+02 -0.13542727401E+02  0.20446923826E+02  0.00000000000E+00 0.  1.
        -11    1    3    3    0    0 -0.22289993609E+02 -0.11670998777E+03 -0.80032595229E+01  0.11908869478E+03  0.00000000000E+00 0. -1.
         11    1    3    3    0    0 -0.24020045798E+02  0.13523050770E+02 -0.64245522150E+01  0.28303893256E+02  0.00000000000E+00 0.  1.
          2    1    1    2  501    0  0.35952215942E+02 -0.16272752605E+02  0.11340832503E+03  0.12007835981E+03  0.00000000000E+00 0. -1.
<scales pt_clust_5="13000.00000" pt_clust_6="13000.00000" pt_clust_7="13000.00000" pt_clust_8="13000.00000" pt_clust_9="39.46346"></scales>
<clustering>
<clus scale="   39.463">  1  9  2 -1</clus>
<clus scale="   80.003">  5  6 -1 -1</clus>
<clus scale="   93.404">  7  8 -1 -1</clus>
<clus scale="  139.175">  1  5  2 -1</clus>
<clus scale="   39.463">  1  5  2 -1</clus>
</clustering>
</event>
<event>
 9    1  0.4731329E-005  0.9870044E+02  0.7546771E-02  0.1288772E+00
          1   -1    0    0  502    0 -0.00000000000E+00  0.00000000000E+00  0.44221031902E+03  0.44221031902E+03  0.00000000000E+00 0. -1.
         21   -1    0    0  501  502  0.00000000000E+00 -0.00000000000E+00 -0.48204739534E+02  0.48204739534E+02  0.00000000000E+00 0. -1.
         23    2    1    2    0    0 -0.11385455655E+02  0.75041834140E+00  0.85882590919E+02  0.12610098206E+03  0.91626669285E+02 0.  0.
        -24    2    1    2    0    0  0.56245079234E+01 -0.72961151347E+02  0.11660625110E+03  0.15955509816E+03  0.80658830009E+02 0.  0.
         11    1    4    4    0    0 -0.26271431243E+02 -0.62079544598E+02  0.10324334016E+03  0.12330144056E+03  0.00000000000E+00 0. -1.
        -12    1    4    4    0    0  0.31895939166E+02 -0.10881606749E+02  0.13362910944E+02  0.36253657603E+02  0.00000000000E+00 0.  1.
        -11    1    3    3    0    0 -0.22782809081E+02 -0.26162884009E+02  0.90121266012E+02  0.96568087259E+02  0.00000000000E+00 0.  1.
         11    1    3    3    0    0  0.11397353426E+02  0.26913302350E+02 -0.42386750931E+01  0.29532894796E+02  0.00000000000E+00 0. -1.
          2    1    1    2  501    0  0.57609477316E+01  0.72210733006E+02  0.19151673746E+03  0.20475897833E+03  0.00000000000E+00 0. -1.
<scales pt_clust_5="13000.00000" pt_clust_6="13000.00000" pt_clust_7="13000.00000" pt_clust_8="13000.00000" pt_clust_9="72.44021"></scales>
<clustering>
<clus scale="   72.440">  2  9  1 -1</clus>
<clus scale="   80.659">  5  6 -1 -1</clus>
<clus scale="   88.613">  2  5  1 -1</clus>
<clus scale="   91.627">  7  8 -1 -1</clus>
<clus scale="   72.440">  2  5  1 -1</clus>
</clustering>
</event>
<event>
 9    1  0.4731329E-005  0.1941633E+03  0.7546771E-02  0.1155845E+00
          1   -1    0    0  502    0 -0.00000000000E+00  0.00000000000E+00  0.41200796525E+03  0.41200796525E+03  0.00000000000E+00 0. -1.
         21   -1    0    0  501  502  0.00000000000E+00 -0.00000000000E+00 -0.17544342938E+03  0.17544342938E+03  0.00000000000E+00 0. -1.
         23    2    1    2    0    0  0.14570965848E+03  0.75176370480E+02  0.23493539280E+03  0.30037401664E+03  0.90261397252E+02 0.  0.
        -24    2    1    2    0    0 -0.15598874518E+03 -0.11240021632E+03  0.60597630721E+02  0.21658938711E+03  0.79199700181E+02 0.  0.
         13    1    4    4    0    0 -0.89154151166E+02 -0.10111348181E+03  0.16701008105E+02  0.13583564534E+03  0.00000000000E+00 0. -1.
        -14    1    4    4    0    0 -0.66834594009E+02 -0.11286734511E+02  0.43896622616E+02  0.80753741767E+02  0.00000000000E+00 0.  1.
        -13    1    3    3    0    0  0.36849734964E+02  0.68801147134E+02  0.94018963291E+02  0.12219274231E+03  0.00000000000E+00 0.  1.
         13    1    3    3    0    0  0.10885992351E+03  0.63752233459E+01  0.14091642951E+03  0.17818127434E+03  0.00000000000E+00 0. -1.
          2    1    1    2  501    0  0.10279086699E+02  0.37223845838E+02 -0.58968487649E+02  0.70487990878E+02  0.00000000000E+00 0. -1.
<scales pt_clust_5="13000.00000" pt_clust_6="13000.00000" pt_clust_7="13000.00000" pt_clust_8="13000.00000" pt_clust_9="38.61702"></scales>
<clustering>
<clus scale="   38.617">  2  9  1 -1</clus>
<clus scale="   79.200">  5  6 -1 -1</clus>
<clus scale="   90.261">  7  8 -1 -1</clus>
<clus scale="  189.275">  2  5  1 -1</clus>
<clus scale="   38.617">  2  5  1 -1</clus>
</clustering>
</event>
<event>
 9    1  0.4731329E-005  0.9715989E+02  0.7546771E-02  0.1291197E+00
          1   -1    0    0  502    0 -0.00000000000E+00  0.00000000000E+00  0.28888473062E+03  0.28888473062E+03  0.00000000000E+00 0. -1.
         21   -1    0    0  501  502  0.00000000000E+00 -0.00000000000E+00 -0.31782772121E+03  0.31782772121E+03  0.00000000000E+00 0. -1.
         23    2    1    2    0    0  0.24661765896E+02 -0.28119894189E+02  0.25792936568E+03  0.27573781565E+03  0.90026963489E+02 0.  0.
        -24    2    1    2    0    0 -0.36413861540E+02  0.37044400099E+01 -0.71771123950E+02  0.11417342239E+03  0.80899839049E+02 0.  0.
         11    1    4    4    0    0  0.24377377662E+01  0.36469425217E+02 -0.20171292837E+02  0.41747366334E+02  0.00000000000E+00 0. -1.
        -12    1    4    4    0    0 -0.38851599307E+02 -0.32764985207E+02 -0.51599831113E+02  0.72426056052E+02  0.00000000000E+00 0.  1.
        -11    1    3    3    0    0 -0.16616582659E+02  0.24761763784E+02  0.66060455871E+02  0.72479235612E+02  0.00000000000E+00 0.  1.
         11    1    3    3    0    0  0.41278348556E+02 -0.52881657972E+02  0.19186890981E+03  0.20325858004E+03  0.00000000000E+00 0. -1.
          2    1    1    2  501    0  0.11752095644E+02  0.24415454179E+02 -0.21510123232E+03  0.21680121379E+03  0.00000000000E+00 0. -1.
<scales pt_clust_5="13000.00000" pt_clust_6="13000.00000" pt_clust_7="13000.00000" pt_clust_8="13000.00000" pt_clust_9="27.09661"></scales>
<clustering>
<clus scale="   27.097">  2  9  1 -1</clus>
<clus scale="   80.900">  5  6 -1 -1</clus>
<clus scale="   88.769">  2  5  1 -1</clus>
<clus scale="   90.027">  7  8 -1 -1</clus>
<clus scale="   27.097">  2  5  1 -1</clus>
</clustering>
</event>
<event>
 9    1  0.4731329E-005  0.1619365E+03  0.7546771E-02  0.1204669E+00
          1   -1    0    0  502    0 -0.00000000000E+00  0.00000000000E+00  0.36232928256E+03  0.36232928256E+03  0.00000000000E+00 0. -1.
         21   -1    0    0  501  502  0.00000000000E+00 -0.00000000000E+00 -0.23226066749E+03  0.23226066749E+03  0.00000000000E+00 0.  1.
         23    2    1    2    0    0 -0.42570270980E+02  0.36221589794E+02  0.94800828321E+02  0.14436278375E+03  0.93430106187E+02 0.  0.
        -24    2    1    2    0    0  0.17908702210E+03 -0.38604453881E+02  0.16740076949E+03  0.26022288608E+03  0.78297301793E+02 0.  0.
         11    1    4    4    0    0  0.15424717587E+02 -0.15708851383E+02 -0.37252672004E+01  0.22328626024E+02  0.00000000000E+00 0. -1.
        -12    1    4    4    0    0  0.16366230451E+03 -0.22895602498E+02  0.17112603669E+03  0.23789426005E+03  0.00000000000E+00 0.  1.
        -13    1    3    3    0    0  0.26916409299E+02  0.12020219122E+02  0.79468801455E+01  0.30530831324E+02  0.00000000000E+00 0.  1.
         13    1    3    3    0    0 -0.69486680279E+02  0.24201370672E+02  0.86853948175E+02  0.11383195242E+03  0.00000000000E+00 0. -1.
          2    1    1    2  501    0 -0.13651675111E+03  0.23828640868E+01 -0.13213298275E+03  0.19000428023E+03  0.00000000000E+00 0. -1.
<scales pt_clust_5="13000.00000" pt_clust_6="13000.00000" pt_clust_7="13000.00000" pt_clust_8="13000.00000" pt_clust_9="141.74961"></scales>
<clustering>
<clus scale="   78.297">  5  6 -1 -1</clus>
<clus scale="   93.430">  7  8 -1 -1</clus>
<clus scale="  108.873">  1  7  2 -1</clus>
<clus scale="  141.750">  2  9  1 -1</clus>
<clus scale="  141.750">  2  5  1 -1</clus>
</clustering>
</event>
<event>
 9    1  0.4731329E-005  0.1242818E+03  0.7546771E-02  0.1239483E+00
         -2   -1    0    0    0  501 -0.00000000000E+00  0.00000000000E+00  0.11122246445E+03  0.11122246445E+03  0.00000000000E+00 0.  1.
         21   -1    0    0  501  502  0.00000000000E+00 -0.00000000000E+00 -0.19767653218E+03  0.19767653218E+03  0.00000000000E+00 0.  1.
         23    2    1    2    0    0 -0.77834747614E+02  0.54199319795E+02  0.14935865999E+02  0.13297911916E+03  0.92002999063E+02 0.  0.
        -24    2    1    2    0    0  0.38854484058E+02 -0.53251845857E+02 -0.80146773026E+02  0.13151683106E+03  0.80794440450E+02 0.  0.
         13    1    4    4    0    0  0.46314474644E+02  0.28083683663E+01 -0.46602907136E+02  0.65762819647E+02  0.00000000000E+00 0. -1.
        -14    1    4    4    0    0 -0.74599905864E+01 -0.56060214223E+02 -0.33543865891E+02  0.65754011415E+02  0.00000000000E+00 0.  1.
        -11    1    3    3    0    0 -0.58227654600E+02  0.74506924218E+02  0.32196669545E+02  0.99891776670E+02  0.00000000000E+00 0.  1.
         11    1    3    3    0    0 -0.19607093014E+02 -0.20307604423E+02 -0.17260803546E+02  0.33087342488E+02  0.00000000000E+00 0. -1.
         -1    1    1    2    0  502  0.38980263556E+02 -0.94747393804E+00 -0.21243160704E+02  0.44403046409E+02  0.00000000000E+00 0.  1.
<scales pt_clust_5="13000.00000" pt_clust_6="13000.00000" pt_clust_7="13000.00000" pt_clust_8="13000.00000" pt_clust_9="38.99178"></scales>
<clustering>
<clus scale="   38.992">  2  9  1 -1</clus>
<clus scale="   80.794">  5  6 -1 -1</clus>
<clus scale="   92.003">  7  8 -1 -1</clus>
<clus scale="  116.229">  2  5  1 -1</clus>
<clus scale="   38.992">  2  5  1 -1</clus>
</clustering>
</event>
<event>
 9    1  0.4731329E-005  0.1210371E+03  0.7546771E-02  0.1245565E+00
         21   -1    0    0  501  502  0.00000000000E+00  0.00000000000E+00  0.77542570525E+02  0.77542570525E+02  0.00000000000E+00 0.  1.
          1   -1    0    0  502    0 -0.00000000000E+00 -0.00000000000E+00 -0.37966833194E+03  0.37966833194E+03  0.00000000000E+00 0. -1.
         23    2    1    2    0    0 -0.39010358102E+02 -0.73902625146E+02 -0.29816324413E+03  0.32251526145E+03  0.90174096484E+02 0.  0.
        -24    2    1    2    0    0  0.20562561303E+02  0.64169889264E+02  0.18925185344E+02  0.10372962276E+03  0.76557680105E+02 0.  0.
         13    1    4    4    0    0  0.34779707045E+02  0.17105177133E+02 -0.17515160458E+02  0.42532293058E+02  0.00000000000E+00 0. -1.
        -14    1    4    4    0    0 -0.14217145742E+02  0.47064712132E+02  0.36440345802E+02  0.61197329707E+02  0.00000000000E+00 0.  1.
        -11    1    3    3    0    0  0.28185320648E+02 -0.92175781024E+01 -0.74260249502E+02  0.79962245480E+02  0.00000000000E+00 0.  1.
         11    1    3    3    0    0 -0.67195678751E+02 -0.64685047044E+02 -0.22390299462E+03  0.24255301597E+03  0.00000000000E+00 0. -1.
          2    1    1    2  501    0  0.18447796799E+02  0.97327358819E+01 -0.22887702630E+02  0.30966018248E+02  0.00000000000E+00 0. -1.
<scales pt_clust_5="13000.00000" pt_clust_6="13000.00000" pt_clust_7="13000.00000" pt_clust_8="13000.00000" pt_clust_9="20.85780"></scales>
<clustering>
<clus scale="   20.858">  1  9  2 -1</clus>
<clus scale="   76.558">  5  6 -1 -1</clus>
<clus scale="   90.174">  7  8 -1 -1</clus>
<clus scale="  111.264">  1  5  2 -1</clus>
<clus scale="   20.858">  1  5  2 -1</clus>
</clustering>
</event>
<event>
 9    1  0.4731329E-005  0.1299917E+03  0.7546771E-02  0.1229942E+00
         21   -1    0    0  501  502  0.00000000000E+00  0.00000000000E+00  0.72994108412E+02  0.72994108412E+02  0.00000000000E+00 0. -1.
          1   -1    0    0  502    0 -0.00000000000E+00 -0.00000000000E+00 -0.58579571252E+03  0.58579571252E+03  0.00000000000E+00 0. -1.
        -24    2    1    2    0    0  0.74666978952E+02 -0.62879360732E+02 -0.31732702991E+03  0.34174309939E+03  0.81011914664E+02 0.  0.
         23    2    1    2    0    0 -0.88151401813E+02  0.25804855361E+02 -0.23059298259E+03  0.26422957264E+03  0.90595713135E+02 0.  0.
         11    1    3    3    0    0  0.30973090529E+02 -0.49317845003E+02 -0.26885520281E+03  0.27509035288E+03  0.00000000000E+00 0. -1.
        -12    1    3    3    0    0  0.43693888423E+02 -0.13561515729E+02 -0.48471827106E+02  0.66652746510E+02  0.00000000000E+00 0.  1.
        -11    1    4    4    0    0 -0.76444506984E+01 -0.24697442740E+02 -0.18418723746E+02  0.31743514122E+02  0.00000000000E+00 0. -1.
         11    1    4    4    0    0 -0.80506951115E+02  0.50502298101E+02 -0.21217425884E+03  0.23248605852E+03  0.00000000000E+00 0.  1.
          2    1    1    2  501    0  0.13484422861E+02  0.37074505371E+02  0.35118408399E+02  0.52817148890E+02  0.00000000000E+00 0. -1.
<scales pt_clust_5="13000.00000" pt_clust_6="13000.00000" pt_clust_7="13000.00000" pt_clust_8="13000.00000" pt_clust_9="39.45058"></scales>
<clustering>
<clus scale="   39.451">  1  9  2 -1</clus>
<clus scale="   81.012">  5  6 -1 -1</clus>
<clus scale="   90.596">  7  8 -1 -1</clus>
<clus scale="  123.504">  2  5  1 -1</clus>
<clus scale="   39.451">  1  5  2 -1</clus>
</clustering>
</event>
<event>
 9    1  0.4731329E-005  0.1150256E+03  0.7546771E-02  0.1254647E+00
         21   -1    0    0  501  502  0.00000000000E+00  0.00000000000E+00  0.15730678619E+03  0.15730678619E+03  0.00000000000E+00 0.  1.
         -4   -1    0    0    0  501 -0.00000000000E+00 -0.00000000000E+00 -0.31488916499E+03  0.31488916499E+03  0.00000000000E+00 0.  1.
         23    2    1    2    0    0 -0.54328367644E+01  0.49096918570E+02 -0.11475677199E+03  0.15453071068E+03  0.90942843022E+02 0.  0.
        -24    2    1    2    0    0  0.48809500192E+02 -0.85681672140E+02 -0.14940647220E+03  0.19691980584E+03  0.82045107993E+02 0.  0.
         11    1    4    4    0    0 -0.14265683624E+02 -0.17005995179E+02 -0.73209178627E+02  0.76500310042E+02  0.00000000000E+00 0. -1.
        -12    1    4    4    0    0  0.63075183816E+02 -0.68675676961E+02 -0.76197293573E+02  0.12041949579E+03  0.00000000000E+00 0.  1.
        -13    1    3    3    0    0  0.27466632136E+02 -0.13454332608E+02 -0.50343620311E+02  0.58905984864E+02  0.00000000000E+00 0.  1.
         13    1    3    3    0    0 -0.32899468901E+02  0.62551251178E+02 -0.64413151683E+02  0.95624725817E+02  0.00000000000E+00 0. -1.
         -3    1    1    2    0  502 -0.43376663428E+02  0.36584753570E+02  0.10658086539E+03  0.12074543466E+03  0.00000000000E+00 0.  1.
<scales pt_clust_5="13000.00000" pt_clust_6="13000.00000" pt_clust_7="13000.00000" pt_clust_8="13000.00000" pt_clust_9="56.74486"></scales>
<clustering>
<clus scale="   56.745">  1  9  2 -1</clus>
<clus scale="   82.045">  5  6 -1 -1</clus>
<clus scale="   90.943">  7  8 -1 -1</clus>
<clus scale="  108.128">  1  5  2 -1</clus>
<clus scale="   56.745">  1  5  2 -1</clus>
</clustering>
</event>
<event>
 9    1  0.4731329E-005  0.9571838E+02  0.7546771E-02  0.1295096E+00
         21   -1    0    0  501  502  0.00000000000E+00  0.00000000000E+00  0.67327053110E+02  0.67327053110E+02  0.00000000000E+00 0. -1.
          1   -1    0    0  502    0 -0.00000000000E+00 -0.00000000000E+00 -0.41714284099E+03  0.41714284099E+03  0.00000000000E+00 0. -1.
         23    2    1    2    0    0  0.37527631135E+02  0.16164821399E+01 -0.35211570967E+03  0.36537331233E+03  0.90006934480E+02 0.  0.
        -24    2    1    2    0    0 -0.85401513585E+01  0.56306458452E+01 -0.18483918210E+02  0.82699289941E+02  0.79955481153E+02 0.  0.
         13    1    4    4    0    0  0.26941771463E+02  0.23220056826E+02 -0.23721385801E+02  0.42752008525E+02  0.00000000000E+00 0. -1.
        -14    1    4    4    0    0 -0.35481922822E+02 -0.17589410981E+02  0.52374675913E+01  0.39947281416E+02  0.00000000000E+00 0.  1.
        -11    1    3    3    0    0 -0.33166198628E+01 -0.38949352564E+02 -0.16696804866E+03  0.17148288925E+03  0.00000000000E+00 0. -1.
         11    1    3    3    0    0  0.40844250998E+02  0.40565834704E+02 -0.18514766101E+03  0.19389042308E+03  0.00000000000E+00 0.  1.
          2    1    1    2  501    0 -0.28987479776E+02 -0.72471279851E+01  0.20783839995E+02  0.36397291833E+02  0.00000000000E+00 0. -1.
<scales pt_clust_5="13000.00000" pt_clust_6="13000.00000" pt_clust_7="13000.00000" pt_clust_8="13000.00000" pt_clust_9="29.87967"></scales>
<clustering>
<clus scale="   29.880">  1  9  2 -1</clus>
<clus scale="   79.955">  5  6 -1 -1</clus>
<clus scale="   86.334">  1  5  2 -1</clus>
<clus scale="   90.007">  7  8 -1 -1</clus>
<clus scale="   29.880">  1  5  2 -1</clus>
</clustering>
</event>
<event>
 9    1  0.4731329E-005  0.1360349E+03  0.7546771E-02  0.1224607E+00
          1   -1    0    0  502    0 -0.00000000000E+00  0.00000000000E+00  0.11232666250E+04  0.11232666250E+04  0.00000000000E+00 0. -1.
         21   -1    0    0  501  502  0.00000000000E+00 -0.00000000000E+00 -0.59752185626E+02  0.59752185626E+02  0.00000000000E+00 0.  1.
         23    2    1    2    0    0 -0.77361406278E+02 -0.17845922121E+02  0.21245814525E+03  0.24418938812E+03  0.90480548559E+02 0.  0.
        -24    2    1    2    0    0 -0.36578721245E+02  0.10694121498E+03  0.85033439504E+02  0.15927099772E+03  0.73226624736E+02 0.  0.
         11    1    4    4    0    0 -0.20870646661E+02  0.14884163172E+02  0.55813528039E+02  0.61418825432E+02  0.00000000000E+00 0. -1.
        -12    1    4    4    0    0 -0.15708074584E+02  0.92057051806E+02  0.29219911466E+02  0.97852172283E+02  0.00000000000E+00 0.  1.
        -11    1    3    3    0    0  0.46860169391E+01 -0.24296375588E+02  0.11010842375E+03  0.11285449748E+03  0.00000000000E+00 0.  1.
         11    1    3    3    0    0 -0.82047423217E+02  0.64504534675E+01  0.10234972151E+03  0.13133489064E+03  0.00000000000E+00 0. -1.
          2    1    1    2  501    0  0.11394012752E+03 -0.89095292858E+02  0.76602285458E+03  0.77955842476E+03  0.00000000000E+00 0. -1.
<scales pt_clust_5="13000.00000" pt_clust_6="13000.00000" pt_clust_7="13000.00000" pt_clust_8="13000.00000" pt_clust_9="114.64455"></scales>
<clustering>
<clus scale="   73.227">  5  6 -1 -1</clus>
<clus scale="   90.481">  7  8 -1 -1</clus>
<clus scale="  120.374">  1  7  2 -1</clus>
<clus scale="  114.645">  2  9  1 -1</clus>
<clus scale="  114.645">  2  5  1 -1</clus>
</clustering>
</event>
<event>
 9    1  0.4731329E-005  0.1101430E+03  0.7546771E-02  0.1264468E+00
         21   -1    0    0  501  502  0.00000000000E+00  0.00000000000E+00  0.71431650595E+03  0.71431650595E+03  0.00000000000E+00 0. -1.
          1   -1    0    0  502    0 -0.00000000000E+00 -0.00000000000E+00 -0.50397448771E+02  0.50397448771E+02  0.00000000000E+00 0. -1.
        -24    2    1    2    0    0  0.62042486239E+02 -0.29153997314E+02  0.28438974774E+02  0.10920352158E+03  0.80108727248E+02 0.  0.
         23    2    1    2    0    0 -0.16280706734E+02  0.42803373248E+02  0.30271121353E+03  0.31933255461E+03  0.90785524498E+02 0.  0.
         11    1    3    3    0    0  0.46743686007E+02 -0.42993963827E+02 -0.11226348096E+02  0.64494061732E+02  0.00000000000E+00 0. -1.
        -12    1    3    3    0    0  0.15298800232E+02  0.13839966513E+02  0.39665322870E+02  0.44709459849E+02  0.00000000000E+00 0.  1.
        -13    1    4    4    0    0 -0.51480848458E+02  0.16342293122E+02  0.20776627842E+03  0.21467224960E+03  0.00000000000E+00 0.  1.
         13    1    4    4    0    0  0.35200141724E+02  0.26461080126E+02  0.94944935119E+02  0.10466030500E+03  0.00000000000E+00 0. -1.
          2    1    1    2  501    0 -0.45761779505E+02 -0.13649375934E+02  0.33276886888E+03  0.33617787854E+03  0.00000000000E+00 0. -1.
<scales pt_clust_5="13000.00000" pt_clust_6="13000.00000" pt_clust_7="13000.00000" pt_clust_8="13000.00000" pt_clust_9="47.75401"></scales>
<clustering>
<clus scale="   47.754">  1  9  2 -1</clus>
<clus scale="   80.109">  5  6 -1 -1</clus>
<clus scale="   90.786">  7  8 -1 -1</clus>
<clus scale="  101.523">  2  5  1 -1</clus>
<clus scale="   47.754">  1  5  2 -1</clus>
</clustering>
</event>
<event>
 9    1  0.4731329E-005  0.2014360E+03  0.7546771E-02  0.1149745E+00
         21   -1    0    0  501  502  0.00000000000E+00  0.00000000000E+00  0.89340727449E+02  0.89340727449E+02  0.00000000000E+00 0. -1.
          1   -1    0    0  502    0 -0.00000000000E+00 -0.00000000000E+00 -0.67321213914E+03  0.67321213914E+03  0.00000000000E+00 0. -1.
        -24    2    1    2    0    0  0.54079338027E+02  0.16778908001E+03 -0.30776403356E+03  0.36394008707E+03  0.81583922717E+02 0.  0.
         23    2    1    2    0    0 -0.11292901564E+03 -0.14999478951E+03 -0.14968092253E+03  0.25802981468E+03  0.94464846581E+02 0.  0.
         11    1    3    3    0    0  0.74791522054E-02  0.34191847979E+02 -0.13344763638E+03  0.13775831800E+03  0.00000000000E+00 0. -1.
        -12    1    3    3    0    0  0.54071858874E+02  0.13359723203E+03 -0.17431639719E+03  0.22618176906E+03  0.00000000000E+00 0.  1.
        -13    1    4    4    0    0 -0.54938194899E+02 -0.23322218782E+02 -0.95726321487E+01  0.60446393060E+02  0.00000000000E+00 0.  1.
         13    1    4    4    0    0 -0.57990820744E+02 -0.12667257072E+03 -0.14010829038E+03  0.19758342162E+03  0.00000000000E+00 0. -1.
          2    1    1    2  501    0  0.58849677617E+02 -0.17794290504E+02 -0.12642645560E+03  0.14058296485E+03  0.00000000000E+00 0. -1.
<scales pt_clust_5="13000.00000" pt_clust_6="13000.00000" pt_clust_7="13000.00000" pt_clust_8="13000.00000" pt_clust_9="61.48110"></scales>
<clustering>
<clus scale="   61.481">  1  9  2 -1</clus>
<clus scale="   81.584">  5  6 -1 -1</clus>
<clus scale="   94.465">  7  8 -1 -1</clus>
<clus scale="  195.726">  2  5  1 -1</clus>
<clus scale="   61.481">  1  5  2 -1</clus>
</clustering>
</event>
<event>
 9    1  0.4731329E-005  0.1092678E+03  0.7546771E-02  0.1265294E+00
          1   -1    0    0  502    0 -0.00000000000E+00  0.00000000000E+00  0.16778673191E+03  0.16778673191E+03  0.00000000000E+00 0. -1.
         21   -1    0    0  501  502  0.00000000000E+00 -0.00000000000E+00 -0.19480388489E+03  0.19480388489E+03  0.00000000000E+00 0. -1.
        -24    2    1    2    0    0 -0.18076520128E+02  0.70291906207E+02  0.27185199846E+02  0.11278486655E+03  0.81937039083E+02 0.  0.
         23    2    1    2    0    0  0.37237575216E+02 -0.13228651779E+02 -0.12344043634E+03  0.15806005147E+03  0.90464381447E+02 0.  0.
         13    1    3    3    0    0 -0.20822028456E+02  0.88048781215E+02  0.28251156904E+02  0.94785402932E+02  0.00000000000E+00 0. -1.
        -14    1    3    3    0    0  0.27455083284E+01 -0.17756875009E+02 -0.10659570585E+01  0.17999463617E+02  0.00000000000E+00 0.  1.
        -11    1    4    4    0    0  0.32660712725E+02 -0.48925280861E+02 -0.96843825367E+02  0.11330989266E+03  0.00000000000E+00 0. -1.
         11    1    4    4    0    0  0.45768624909E+01  0.35696629082E+02 -0.26596610969E+02  0.44750158805E+02  0.00000000000E+00 0.  1.
          2    1    1    2  501    0 -0.19161055088E+02 -0.57063254427E+02  0.69238083513E+02  0.91745698790E+02  0.00000000000E+00 0. -1.
<scales pt_clust_5="13000.00000" pt_clust_6="13000.00000" pt_clust_7="13000.00000" pt_clust_8="13000.00000" pt_clust_9="60.19439"></scales>
<clustering>
<clus scale="   60.194">  2  9  1 -1</clus>
<clus scale="   81.937">  5  6 -1 -1</clus>
<clus scale="   90.464">  7  8 -1 -1</clus>
<clus scale="  102.320">  1  5  2 -1</clus>
<clus scale="   60.194">  2  5  1 -1</clus>
</clustering>
</event>
<event>
 9    1  0.4731329E-005  0.1354583E+03  0.7546771E-02  0.1231819E+00
         21   -1    0    0  501  502  0.00000000000E+00  0.00000000000E+00  0.59488588272E+02  0.59488588272E+02  0.00000000000E+00 0.  1.
          1   -1    0    0  502    0 -0.00000000000E+00 -0.00000000000E+00 -0.57314591482E+03  0.57314591482E+03  0.00000000000E+00 0. -1.
        -24    2    1    2    0    0  0.17361953138E+02  0.66030774942E+02 -0.69805825519E+02  0.12608986608E+03  0.79776565447E+02 0.  0.
         23    2    1    2    0    0  0.85316182067E+02 -0.10402831256E+02 -0.25251935516E+03  0.28239009744E+03  0.92688039050E+02 0.  0.
         13    1    3    3    0    0 -0.29223314909E+02  0.34877869640E+02 -0.47483655991E+02  0.65765990536E+02  0.00000000000E+00 0. -1.
        -14    1    3    3    0    0  0.46585268047E+02  0.31152905302E+02 -0.22322169528E+02  0.60323875540E+02  0.00000000000E+00 0.  1.
        -11    1    4    4    0    0  0.97090520805E+02 -0.31176877379E+02 -0.19355416911E+03  0.21877336057E+03  0.00000000000E+00 0. -1.
         11    1    4    4    0    0 -0.11774338739E+02  0.20774046123E+02 -0.58965186045E+02  0.63616736873E+02  0.00000000000E+00 0.  1.
          2    1    1    2  501    0 -0.10267813521E+03 -0.55627943686E+02 -0.19133214587E+03  0.22415453958E+03  0.00000000000E+00 0. -1.
<scales pt_clust_5="13000.00000" pt_clust_6="13000.00000" pt_clust_7="13000.00000" pt_clust_8="13000.00000" pt_clust_9="98.78204"></scales>
<clustering>
<clus scale="   79.777">  5  6 -1 -1</clus>
<clus scale="   92.688">  7  8 -1 -1</clus>
<clus scale="  105.004">  2  5  1 -1</clus>
<clus scale="   98.782">  1  9  2 -1</clus>
<clus scale="   98.782">  1  5  2 -1</clus>
</clustering>
</event>
<event>
 9    1  0.4731329E-005  0.9113508E+02  0.7546771E-02  0.1304871E+00
          1   -1    0    0  502    0 -0.00000000000E+00  0.00000000000E+00  0.19610358393E+03  0.19610358393E+03  0.00000000000E+00 0. -1.
         21   -1    0    0  501  502  0.00000000000E+00 -0.00000000000E+00 -0.16287017426E+03  0.16287017426E+03  0.00000000000E+00 0.  1.
         23    2    1    2    0    0  0.78886984290E+01 -0.12208132911E+02  0.15046872631E+03  0.17615797751E+03  0.90440728497E+02 0.  0.
        -24    2    1    2    0    0 -0.56129650393E+01 -0.78502950440E+01 -0.23008839391E+02  0.86451116465E+02  0.82772316261E+02 0.  0.
         13    1    4    4    0    0 -0.45303596951E+01  0.36951319441E+02 -0.29275897053E+01  0.37342937068E+02  0.00000000000E+00 0. -1.
        -14    1    4    4    0    0 -0.10826053443E+01 -0.44801614485E+02 -0.20081249686E+02  0.49108179397E+02  0.00000000000E+00 0.  1.
        -11    1    3    3    0    0 -0.31834977650E+00  0.27481653852E+02  0.12567765539E+03  0.12864764167E+03  0.00000000000E+00 0.  1.
         11    1    3    3    0    0  0.82070482055E+01 -0.39689786763E+02  0.24791070920E+02  0.47510335832E+02  0.00000000000E+00 0. -1.
          2    1    1    2  501    0 -0.22757333896E+01  0.20058427955E+02 -0.94226477249E+02  0.96364664215E+02  0.00000000000E+00 0. -1.
<scales pt_clust_5="13000.00000" pt_clust_6="13000.00000" pt_clust_7="13000.00000" pt_clust_8="13000.00000" pt_clust_9="20.18711"></scales>
<clustering>
<clus scale="   20.187">  2  9  1 -1</clus>
<clus scale="   82.772">  5  6 -1 -1</clus>
<clus scale="   83.530">  2  5  1 -1</clus>
<clus scale="   90.441">  7  8 -1 -1</clus>
<clus scale="   20.187">  2  5  1 -1</clus>
</clustering>
</event>
<event>
 9    1  0.4731329E-005  0.2070297E+03  0.7546771E-02  0.1145056E+00
         21   -1    0    0  501  502  0.00000000000E+00  0.00000000000E+00  0.14857668235E+03  0.14857668235E+03  0.00000000000E+00 0.  1.
          1   -1    0    0  502    0 -0.00000000000E+00 -0.00000000000E+00 -0.52729920769E+03  0.52729920769E+03  0.00000000000E+00 0. -1.
         23    2    1    2    0    0 -0.87903386429E+02 -0.17804278099E+03 -0.24196514791E+03  0.32663984325E+03  0.93382103126E+02 0.  0.
        -24    2    1    2    0    0  0.16190595141E+03  0.90611866932E+02 -0.11488243760E+03  0.23262105055E+03  0.80563832839E+02 0.  0.
         11    1    4    4    0    0  0.29306026377E+02  0.13177516951E+02 -0.62679890025E+02  0.70436203394E+02  0.00000000000E+00 0. -1.
        -12    1    4    4    0    0  0.13259992503E+03  0.77434349980E+02 -0.52202547575E+02  0.16218484716E+03  0.00000000000E+00 0.  1.
        -11    1    3    3    0    0  0.11071732346E+02 -0.60023744213E+02 -0.41389821898E+02  0.73746528618E+02  0.00000000000E+00 0.  1.
         11    1    3    3    0    0 -0.98975118775E+02 -0.11801903678E+03 -0.20057532602E+03  0.25289331463E+03  0.00000000000E+00 0. -1.
          2    1    1    2  501    0 -0.74002564977E+02  0.87430914058E+02 -0.21874939819E+02  0.11661499624E+03  0.00000000000E+00 0. -1.
<scales pt_clust_5="13000.00000" pt_clust_6="13000.00000" pt_clust_7="13000.00000" pt_clust_8="13000.00000" pt_clust_9="114.54494"></scales>
<clustering>
<clus scale="   80.564">  5  6 -1 -1</clus>
<clus scale="   93.382">  7  8 -1 -1</clus>
<clus scale="  114.545">  1  9  2 -1</clus>
<clus scale="  201.573">  1  5  2 -1</clus>
<clus scale="  114.545">  1  5  2 -1</clus>
</clustering>
</event>
<event>
 9    1  0.4731329E-005  0.1204517E+03  0.7546771E-02  0.1245398E+00
         21   -1    0    0  501  502  0.00000000000E+00  0.00000000000E+00  0.80701527937E+02  0.80701527937E+02  0.00000000000E+00 0. -1.
          1   -1    0    0  502    0 -0.00000000000E+00 -0.00000000000E+00 -0.21287414489E+03  0.21287414489E+03  0.00000000000E+00 0. -1.
         23    2    1    2    0    0 -0.41317780309E+02 -0.69209553720E+02 -0.71465105318E+02  0.14127964823E+03  0.91408732795E+02 0.  0.
        -24    2    1    2    0    0  0.17909155854E+02  0.75837297322E+02 -0.38344266085E+02  0.11925051906E+03  0.81721294816E+02 0.  0.
         13    1    4    4    0    0  0.19013085402E+02  0.76499004558E+02 -0.59058586407E+02  0.98496252432E+02  0.00000000000E+00 0. -1.
        -14    1    4    4    0    0 -0.11039295484E+01 -0.66170723611E+00  0.20714320322E+02  0.20754266629E+02  0.00000000000E+00 0.  1.
        -13    1    3    3    0    0 -0.18258741975E+02  0.20846797022E+02 -0.84458197764E+01  0.28970717565E+02  0.00000000000E+00 0.  1.
         13    1    3    3    0    0 -0.23059038334E+02 -0.90056350742E+02 -0.63019285541E+02  0.11230893067E+03  0.00000000000E+00 0. -1.
          2    1    1    2  501    0  0.23408624455E+02 -0.66277436016E+01 -0.22363245547E+02  0.33045505527E+02  0.00000000000E+00 0. -1.
<scales pt_clust_5="13000.00000" pt_clust_6="13000.00000" pt_clust_7="13000.00000" pt_clust_8="13000.00000" pt_clust_9="24.32882"></scales>
<clustering>
<clus scale="   24.329">  1  9  2 -1</clus>
<clus scale="   81.721">  5  6 -1 -1</clus>
<clus scale="   91.409">  7  8 -1 -1</clus>
<clus scale="  113.276">  1  5  2 -1</clus>
<clus scale="   24.329">  1  5  2 -1</clus>
</clustering>
</event>
<event>
 9    1  0.4731329E-005  0.1314082E+03  0.7546771E-02  0.1228594E+00
         21   -1    0    0  501  502  0.00000000000E+00  0.00000000000E+00  0.19721670990E+03  0.19721670990E+03  0.00000000000E+00 0. -1.
          1   -1    0    0  502    0 -0.00000000000E+00 -0.00000000000E+00 -0.13671568440E+03  0.13671568440E+03  0.00000000000E+00 0. -1.
        -24    2    1    2    0    0  0.71608313478E+01 -0.10501023431E+03 -0.46951527944E+02  0.14026263265E+03  0.79942062318E+02 0.  0.
         23    2    1    2    0    0  0.17840012386E+02  0.66969833710E+02  0.74581949756E+02  0.13752182445E+03  0.92447608408E+02 0.  0.
         11    1    3    3    0    0  0.24855346954E+02 -0.11079099646E+03 -0.39699172804E+02  0.12028490133E+03  0.00000000000E+00 0. -1.
        -12    1    3    3    0    0 -0.17694515606E+02  0.57807621486E+01 -0.72523551393E+01  0.19977731318E+02  0.00000000000E+00 0.  1.
        -13    1    4    4    0    0  0.38588463491E+02  0.72055569370E+02  0.28215457293E+02  0.86470726967E+02  0.00000000000E+00 0.  1.
         13    1    4    4    0    0 -0.20748451105E+02 -0.50857356606E+01  0.46366492463E+02  0.51051097479E+02  0.00000000000E+00 0. -1.
          2    1    1    2  501    0 -0.25000843734E+02  0.38040400597E+02  0.32870603687E+02  0.56147937199E+02  0.00000000000E+00 0. -1.
<scales pt_clust_5="13000.00000" pt_clust_6="13000.00000" pt_clust_7="13000.00000" pt_clust_8="13000.00000" pt_clust_9="45.52048"></scales>
<clustering>
<clus scale="   45.520">  1  9  2 -1</clus>
<clus scale="   79.942">  5  6 -1 -1</clus>
<clus scale="   92.448">  7  8 -1 -1</clus>
<clus scale="  122.932">  2  5  1 -1</clus>
<clus scale="   45.520">  1  5  2 -1</clus>
</clustering>
</event>
<event>
 9    1  0.4731329E-005  0.1241633E+03  0.7546771E-02  0.1240648E+00
         21   -1    0    0  501  502  0.00000000000E+00  0.00000000000E+00  0.62315092643E+02  0.62315092643E+02  0.00000000000E+00 0. -1.
          1   -1    0    0  502    0 -0.00000000000E+00 -0.00000000000E+00 -0.31050763289E+03  0.31050763289E+03  0.00000000000E+00 0. -1.
        -24    2    1    2    0    0  0.57116913446E+02  0.29801888588E+02 -0.97978258929E+02  0.14525401779E+03  0.85723369607E+02 0.  0.
         23    2    1    2    0    0 -0.85615766160E+02 -0.30821444532E+02 -0.92597153087E+02  0.16328062513E+03  0.99026809120E+02 0.  0.
         13    1    3    3    0    0  0.33059193426E+02  0.48784939088E+02 -0.98295058100E+02  0.11460715073E+03  0.00000000000E+00 0. -1.
        -14    1    3    3    0    0  0.24057720021E+02 -0.18983050501E+02  0.31679917142E+00  0.30646867060E+02  0.00000000000E+00 0.  1.
        -11    1    4    4    0    0 -0.17068208553E+02 -0.49279993729E+02 -0.78664387828E+01  0.52742036216E+02  0.00000000000E+00 0.  1.
         11    1    4    4    0    0 -0.68547557607E+02  0.18458549197E+02 -0.84730714304E+02  0.11053858891E+03  0.00000000000E+00 0. -1.
          2    1    1    2  501    0  0.28498852713E+02  0.10195559441E+01 -0.57617128227E+02  0.64288082608E+02  0.00000000000E+00 0. -1.
<scales pt_clust_5="13000.00000" pt_clust_6="13000.00000" pt_clust_7="13000.00000" pt_clust_8="13000.00000" pt_clust_9="28.51710"></scales>
<clustering>
<clus scale="   28.517">  1  9  2 -1</clus>
<clus scale="   85.723">  5  6 -1 -1</clus>
<clus scale="   99.027">  7  8 -1 -1</clus>
<clus scale="  113.836">  2  5  1 -1</clus>
<clus scale="   28.517">  1  5  2 -1</clus>
</clustering>
</event>
<event>
 9    1  0.4731329E-005  0.2048222E+03  0.7546771E-02  0.1151467E+00
          1   -1    0    0  502    0 -0.00000000000E+00  0.00000000000E+00  0.38706339113E+03  0.38706339113E+03  0.00000000000E+00 0. -1.
         21   -1    0    0  501  502  0.00000000000E+00 -0.00000000000E+00 -0.23460405436E+03  0.23460405436E+03  0.00000000000E+00 0. -1.
         23    2    1    2    0    0  0.13839099621E+03  0.46505346801E+02  0.80479235112E+02  0.19602529316E+03  0.10312222438E+03 0.  0.
        -24    2    1    2    0    0 -0.52343798326E+02  0.16249798311E+03  0.64751026851E+02  0.19950331952E+03  0.80395343651E+02 0.  0.
         13    1    4    4    0    0 -0.73130506314E+02  0.11100350719E+03  0.50257105450E+02  0.14211131626E+03  0.00000000000E+00 0. -1.
        -14    1    4    4    0    0  0.20786707989E+02  0.51494475927E+02  0.14493921402E+02  0.57392003255E+02  0.00000000000E+00 0.  1.
        -13    1    3    3    0    0  0.37629276110E+02  0.64698145938E+02  0.21543202240E+02  0.77884029628E+02  0.00000000000E+00 0.  1.
         13    1    3    3    0    0  0.10076172010E+03 -0.18192799137E+02  0.58936032873E+02  0.11814126353E+03  0.00000000000E+00 0. -1.
          2    1    1    2  501    0 -0.86047197884E+02 -0.20900332992E+03  0.72290748066E+01  0.22613883280E+03  0.00000000000E+00 0. -1.
<scales pt_clust_5="13000.00000" pt_clust_6="13000.00000" pt_clust_7="13000.00000" pt_clust_8="13000.00000" pt_clust_9="188.38454"></scales>
<clustering>
<clus scale="   80.395">  5  6 -1 -1</clus>
<clus scale="  103.122">  7  8 -1 -1</clus>
<clus scale="  178.743">  1  7  2 -1</clus>
<clus scale="  188.385">  2  9  1 -1</clus>
<clus scale="  188.385">  2  5  1 -1</clus>
</clustering>
</event>
<event>
 9    1  0.4731329E-005  0.2454685E+03  0.7546771E-02  0.1116923E+00
          3   -1    0    0  502    0 -0.00000000000E+00  0.00000000000E+00  0.54222801738E+03  0.54222801738E+03  0.00000000000E+00 0. -1.
         21   -1    0    0  501  502  0.00000000000E+00 -0.00000000000E+00 -0.19637532076E+03  0.19637532076E+03  0.00000000000E+00 0.  1.
        -24    2    1    2    0    0 -0.70192004639E+02  0.18542433566E+03  0.85905337345E+02  0.23039803627E+03  0.79965157172E+02 0.  0.
         23    2    1    2    0    0  0.19791028006E+02 -0.27701441466E+03  0.85664884433E+02  0.30497296671E+03  0.92419517869E+02 0.  0.
         11    1    3    3    0    0 -0.76651479696E+02  0.92063899251E+02  0.41186816683E+02  0.12667898308E+03  0.00000000000E+00 0. -1.
        -12    1    3    3    0    0  0.64594750575E+01  0.93360436413E+02  0.44718520663E+02  0.10371905319E+03  0.00000000000E+00 0.  1.
        -13    1    4    4    0    0 -0.16443705909E+02 -0.17413161397E+03  0.88157781142E+02  0.19586732454E+03  0.00000000000E+00 0.  1.
         13    1    4    4    0    0  0.36234733915E+02 -0.10288280069E+03 -0.24928967093E+01  0.10910564217E+03  0.00000000000E+00 0. -1.
          4    1    1    2  501    0  0.50400976633E+02  0.91590078993E+02  0.17428247484E+03  0.20323233516E+03  0.00000000000E+00 0. -1.
<scales pt_clust_5="13000.00000" pt_clust_6="13000.00000" pt_clust_7="13000.00000" pt_clust_8="13000.00000" pt_clust_9="104.54191"></scales>
<clustering>
<clus scale="   79.965">  5  6 -1 -1</clus>
<clus scale="   92.420">  7  8 -1 -1</clus>
<clus scale="  104.542">  2  9  1 -1</clus>
<clus scale="  241.056">  1  5  2 -1</clus>
<clus scale="  104.542">  2  5  1 -1</clus>
</clustering>
</event>
<event>
 9    1  0.4731329E-005  0.9138635E+02  0.7546771E-02  0.1307253E+00
          1   -1    0    0  502    0 -0.00000000000E+00  0.00000000000E+00  0.19171111709E+03  0.19171111709E+03  0.00000000000E+00 0. -1.
         21   -1    0    0  501  502  0.00000000000E+00 -0.00000000000E+00 -0.12741898644E+03  0.12741898644E+03  0.00000000000E+00 0. -1.
         23    2    1    2    0    0 -0.12688921978E+02  0.87973326121E+01  0.14865522199E+03  0.17482128886E+03  0.90695679126E+02 0.  0.
        -24    2    1    2    0    0 -0.31992931245E+01  0.80026034097E+01 -0.28718013238E+02  0.84050637259E+02  0.78520750133E+02 0.  0.
         11    1    4    4    0    0 -0.38491266105E+02  0.71573111897E+01 -0.29042560254E+02  0.48747050946E+02  0.00000000000E+00 0. -1.
        -12    1    4    4    0    0  0.35291972980E+02  0.84529222006E+00  0.32454701687E+00  0.35303586313E+02  0.00000000000E+00 0.  1.
        -13    1    3    3    0    0  0.38064678752E+02  0.92974130091E+01  0.46936272107E+02  0.61142254591E+02  0.00000000000E+00 0.  1.
         13    1    3    3    0    0 -0.50753600730E+02 -0.50008039697E+00  0.10171894988E+03  0.11367903427E+03  0.00000000000E+00 0. -1.
          2    1    1    2  501    0  0.15888215103E+02 -0.16799936022E+02 -0.55645078095E+02  0.60258177417E+02  0.00000000000E+00 0. -1.
<scales pt_clust_5="13000.00000" pt_clust_6="13000.00000" pt_clust_7="13000.00000" pt_clust_8="13000.00000" pt_clust_9="23.12300"></scales>
<clustering>
<clus scale="   23.123">  2  9  1 -1</clus>
<clus scale="   78.521">  5  6 -1 -1</clus>
<clus scale="   79.318">  2  5  1 -1</clus>
<clus scale="   90.696">  7  8 -1 -1</clus>
<clus scale="   23.123">  2  5  1 -1</clus>
</clustering>
</event>
<event>
 9    1  0.4731329E-005  0.1024096E+03  0.7546771E-02  0.1280084E+00
         21   -1    0    0  501  502  0.00000000000E+00  0.00000000000E+00  0.27223787261E+03  0.27223787261E+03  0.00000000000E+00 0.  1.
          3   -1    0    0  502    0 -0.00000000000E+00 -0.00000000000E+00 -0.10213953557E+03  0.10213953557E+03  0.00000000000E+00 0. -1.
         23    2    1    2    0    0  0.46858893600E+02 -0.46242630535E+01 -0.53091289316E+02  0.11584004670E+03  0.91559225097E+02 0.  0.
        -24    2    1    2    0    0 -0.37029250162E+02  0.27320470620E+02  0.11855794256E+03  0.15102211149E+03  0.81450100865E+02 0.  0.
         13    1    4    4    0    0 -0.27710647689E+02  0.11577954856E+02 -0.10233848821E+01  0.30049564899E+02  0.00000000000E+00 0. -1.
        -14    1    4    4    0    0 -0.93186024730E+01  0.15742515764E+02  0.11958132744E+03  0.12097254659E+03  0.00000000000E+00 0.  1.
        -13    1    3    3    0    0  0.31692834771E+02  0.42557090239E+02 -0.32124152216E+02  0.62028242447E+02  0.00000000000E+00 0.  1.
         13    1    3    3    0    0  0.15166058829E+02 -0.47181353293E+02 -0.20967137100E+02  0.53811804254E+02  0.00000000000E+00 0. -1.
          4    1    1    2  501    0 -0.98296434376E+01 -0.22696207567E+02  0.10463168379E+03  0.10751524999E+03  0.00000000000E+00 0. -1.
<scales pt_clust_5="13000.00000" pt_clust_6="13000.00000" pt_clust_7="13000.00000" pt_clust_8="13000.00000" pt_clust_9="24.73337"></scales>
<clustering>
<clus scale="   24.733">  1  9  2 -1</clus>
<clus scale="   81.450">  5  6 -1 -1</clus>
<clus scale="   91.559">  7  8 -1 -1</clus>
<clus scale="   93.481">  1  5  2 -1</clus>
<clus scale="   24.733">  1  5  2 -1</clus>
</clustering>
</event>
<event>
 9    1  0.4731329E-005  0.9667431E+02  0.7546771E-02  0.1292759E+00
          1   -1    0    0  502    0 -0.00000000000E+00  0.00000000000E+00  0.24510809608E+03  0.24510809608E+03  0.00000000000E+00 0. -1.
         21   -1    0    0  501  502  0.00000000000E+00 -0.00000000000E+00 -0.20366871614E+03  0.20366871614E+03  0.00000000000E+00 0. -1.
         23    2    1    2    0    0  0.26915800286E+02  0.10161718383E+02  0.19060877721E+03  0.21286261790E+03  0.90283261599E+02 0.  0.
        -24    2    1    2    0    0 -0.73008994086E+02 -0.35742208115E+02 -0.52522601921E+02  0.12582538008E+03  0.80408854614E+02 0.  0.
         11    1    4    4    0    0 -0.76191781678E+02  0.21033555594E+01 -0.37956647829E+02  0.85148803951E+02  0.00000000000E+00 0. -1.
        -12    1    4    4    0    0  0.31827875912E+01 -0.37845563675E+02 -0.14565954092E+02  0.40676576125E+02  0.00000000000E+00 0.  1.
        -13    1    3    3    0    0 -0.84121302599E+01 -0.30165174034E+02  0.12107937347E+03  0.12506364915E+03  0.00000000000E+00 0.  1.
         13    1    3    3    0    0  0.35327930546E+02  0.40326892417E+02  0.69529403740E+02  0.87798968747E+02  0.00000000000E+00 0. -1.
          2    1    1    2  501    0  0.46093193801E+02  0.25580489732E+02 -0.96646795351E+02  0.11008881424E+03  0.00000000000E+00 0. -1.
<scales pt_clust_5="13000.00000" pt_clust_6="13000.00000" pt_clust_7="13000.00000" pt_clust_8="13000.00000" pt_clust_9="52.71569"></scales>
<clustering>
<clus scale="   52.716">  2  9  1 -1</clus>
<clus scale="   80.409">  5  6 -1 -1</clus>
<clus scale="   87.524">  2  5  1 -1</clus>
<clus scale="   90.283">  7  8 -1 -1</clus>
<clus scale="   52.716">  2  5  1 -1</clus>
</clustering>
</event>
<event>
 9    1  0.4731329E-005  0.1160460E+03  0.7546771E-02  0.1251213E+00
         21   -1    0    0  501  502  0.00000000000E+00  0.00000000000E+00  0.28990796425E+03  0.28990796425E+03  0.00000000000E+00 0. -1.
          1   -1    0    0  502    0 -0.00000000000E+00 -0.00000000000E+00 -0.22448408766E+03  0.22448408766E+03  0.00000000000E+00 0. -1.
         23    2    1    2    0    0  0.56926847502E+02 -0.32731701071E+02 -0.16226498385E+03  0.19781010554E+03  0.92124278287E+02 0.  0.
        -24    2    1    2    0    0 -0.89485407581E+02  0.42640722789E+02  0.59963843533E+02  0.14543893646E+03  0.87925834065E+02 0.  0.
         11    1    4    4    0    0 -0.10312717189E+02 -0.25625246213E+02  0.83838205993E+01  0.28866829184E+02  0.00000000000E+00 0. -1.
        -12    1    4    4    0    0 -0.79172690392E+02  0.68265969002E+02  0.51580022934E+02  0.11657210727E+03  0.00000000000E+00 0.  1.
        -11    1    3    3    0    0  0.78984606807E+02 -0.25632360517E+02 -0.15034152639E+03  0.17175028552E+03  0.00000000000E+00 0.  1.
         11    1    3    3    0    0 -0.22057759305E+02 -0.70993405533E+01 -0.11923457452E+02  0.26059820019E+02  0.00000000000E+00 0. -1.
          2    1    1    2  501    0  0.32558560079E+02 -0.99090217185E+01  0.16772501691E+03  0.17114300991E+03  0.00000000000E+00 0. -1.
<scales pt_clust_5="13000.00000" pt_clust_6="13000.00000" pt_clust_7="13000.00000" pt_clust_8="13000.00000" pt_clust_9="34.03305"></scales>
<clustering>
<clus scale="   34.033">  1  9  2 -1</clus>
<clus scale="   87.926">  5  6 -1 -1</clus>
<clus scale="   92.124">  7  8 -1 -1</clus>
<clus scale="  112.742">  1  5  2 -1</clus>
<clus scale="   34.033">  1  5  2 -1</clus>
</clustering>
</event>
<event>
 9    1  0.4731329E-005  0.2450468E+03  0.7546771E-02  0.1117088E+00
         21   -1    0    0  501  502  0.00000000000E+00  0.00000000000E+00  0.12685733570E+04  0.12685733570E+04  0.00000000000E+00 0.  1.
         -4   -1    0    0    0  501 -0.00000000000E+00 -0.00000000000E+00 -0.15717278323E+03  0.15717278323E+03  0.00000000000E+00 0.  1.
         23    2    1    2    0    0 -0.18177063630E+03 -0.91166037070E+02  0.16051775515E+03  0.27513578431E+03  0.92638758375E+02 0.  0.
        -24    2    1    2    0    0  0.31546321022E+03  0.11268573198E+03  0.95474447423E+03  0.10151418579E+04  0.82224505572E+02 0.  0.
         13    1    4    4    0    0  0.95474927166E+02  0.39269308298E+02  0.19299622809E+03  0.21887230146E+03  0.00000000000E+00 0. -1.
        -14    1    4    4    0    0  0.21998828305E+03  0.73416423686E+02  0.76174824614E+03  0.79626955640E+03  0.00000000000E+00 0.  1.
        -11    1    3    3    0    0 -0.96968137653E+02  0.84457551965E+00  0.85225188499E+02  0.12910021604E+03  0.00000000000E+00 0.  1.
         11    1    3    3    0    0 -0.84802498648E+02 -0.92010612590E+02  0.75292566647E+02  0.14603556826E+03  0.00000000000E+00 0. -1.
         -3    1    1    2    0  502 -0.13369257392E+03 -0.21519694913E+02 -0.38616555872E+01  0.13546849809E+03  0.00000000000E+00 0.  1.
<scales pt_clust_5="13000.00000" pt_clust_6="13000.00000" pt_clust_7="13000.00000" pt_clust_8="13000.00000" pt_clust_9="135.41351"></scales>
<clustering>
<clus scale="   82.225">  5  6 -1 -1</clus>
<clus scale="   92.639">  7  8 -1 -1</clus>
<clus scale="  135.414">  1  9  2 -1</clus>
<clus scale="  241.302">  1  5  2 -1</clus>
<clus scale="  135.414">  1  5  2 -1</clus>
</clustering>
</event>
<event>
 9    1  0.4731329E-005  0.9802468E+02  0.7546771E-02  0.1289591E+00
         21   -1    0    0  501  502  0.00000000000E+00  0.00000000000E+00  0.18756954307E+03  0.18756954307E+03  0.00000000000E+00 0.  1.
          1   -1    0    0  502    0 -0.00000000000E+00 -0.00000000000E+00 -0.88800680343E+03  0.88800680343E+03  0.00000000000E+00 0. -1.
        -24    2    1    2    0    0  0.26718234767E+02 -0.22319716002E+02 -0.81733545587E+03  0.82219134031E+03  0.82154238299E+02 0.  0.
         23    2    1    2    0    0  0.12710264360E+02  0.25109785288E+02  0.16514217306E+03  0.19101616461E+03  0.91777915004E+02 0.  0.
         13    1    3    3    0    0  0.18199439953E+02 -0.18553814864E+02 -0.67991104589E+02  0.72789106080E+02  0.00000000000E+00 0. -1.
        -14    1    3    3    0    0  0.85187948143E+01 -0.37659011388E+01 -0.74934435128E+03  0.74940223423E+03  0.00000000000E+00 0.  1.
        -13    1    4    4    0    0  0.19537946727E+02 -0.22247632196E+02  0.12530553621E+03  0.12875622667E+03  0.00000000000E+00 0.  1.
         13    1    4    4    0    0 -0.68276823667E+01  0.47357417484E+02  0.39836636850E+02  0.62259937944E+02  0.00000000000E+00 0. -1.
          2    1    1    2  501    0 -0.39428499127E+02 -0.27900692856E+01 -0.48243977544E+02  0.62368841574E+02  0.00000000000E+00 0. -1.
<scales pt_clust_5="13000.00000" pt_clust_6="13000.00000" pt_clust_7="13000.00000" pt_clust_8="13000.00000" pt_clust_9="39.52711"></scales>
<clustering>
<clus scale="   39.527">  1  9  2 -1</clus>
<clus scale="   82.154">  5  6 -1 -1</clus>
<clus scale="   89.078">  2  5  1 -1</clus>
<clus scale="   91.778">  7  8 -1 -1</clus>
<clus scale="   39.527">  1  5  2 -1</clus>
</clustering>
</event>
<event>
 9    1  0.4731329E-005  0.9333549E+02  0.7546771E-02  0.1302654E+00
         21   -1    0    0  501  502  0.00000000000E+00  0.00000000000E+00  0.13544683524E+03  0.13544683524E+03  0.00000000000E+00 0. -1.
          1   -1    0    0  502    0 -0.00000000000E+00 -0.00000000000E+00 -0.52040958539E+03  0.52040958539E+03  0.00000000000E+00 0. -1.
         23    2    1    2    0    0 -0.23521791830E+02 -0.34324538670E+01 -0.46572924486E+03  0.47513449655E+03  0.91016503229E+02 0.  0.
        -24    2    1    2    0    0 -0.13967242820E+01  0.64374264431E+01 -0.16480467715E+02  0.80288194658E+02  0.78301960942E+02 0.  0.
         11    1    4    4    0    0  0.46859135497E+01 -0.23207900238E+02 -0.36855752460E+02  0.43805375339E+02  0.00000000000E+00 0. -1.
        -12    1    4    4    0    0 -0.60826378316E+01  0.29645326681E+02  0.20375284744E+02  0.36482819319E+02  0.00000000000E+00 0.  1.
        -11    1    3    3    0    0 -0.37644920389E+02  0.35125692421E+02 -0.30050727089E+03  0.30488616590E+03  0.00000000000E+00 0. -1.
         11    1    3    3    0    0  0.14123128558E+02 -0.38558146288E+02 -0.16522197397E+03  0.17024833065E+03  0.00000000000E+00 0.  1.
          2    1    1    2  501    0  0.24918516112E+02 -0.30049725761E+01  0.97246962427E+02  0.10043372943E+03  0.00000000000E+00 0. -1.
<scales pt_clust_5="13000.00000" pt_clust_6="13000.00000" pt_clust_7="13000.00000" pt_clust_8="13000.00000" pt_clust_9="25.09905"></scales>
<clustering>
<clus scale="   25.099">  1  9  2 -1</clus>
<clus scale="   78.302">  5  6 -1 -1</clus>
<clus scale="   80.986">  1  5  2 -1</clus>
<clus scale="   91.017">  7  8 -1 -1</clus>
<clus scale="   25.099">  1  5  2 -1</clus>
</clustering>
</event>
<event>
 9    1  0.4731329E-005  0.9441280E+02  0.7546771E-02  0.1305703E+00
          1   -1    0    0  502    0 -0.00000000000E+00  0.00000000000E+00  0.33702596076E+03  0.33702596076E+03  0.00000000000E+00 0. -1.
         21   -1    0    0  501  502  0.00000000000E+00 -0.00000000000E+00 -0.37911978380E+02  0.37911978380E+02  0.00000000000E+00 0. -1.
         23    2    1    2    0    0 -0.94275181534E+00 -0.30513858807E+02  0.17103187598E+03  0.19594078099E+03  0.90602994930E+02 0.  0.
        -24    2    1    2    0    0 -0.22815026768E+02  0.17981765924E+02  0.13206793157E+03  0.15184256006E+03  0.69067757645E+02 0.  0.
         11    1    4    4    0    0  0.14684131396E+02 -0.16799318489E+02  0.54933044206E+02  0.59291484737E+02  0.00000000000E+00 0. -1.
        -12    1    4    4    0    0 -0.37499158164E+02  0.34781084413E+02  0.77134887359E+02  0.92551075325E+02  0.00000000000E+00 0.  1.
        -13    1    3    3    0    0  0.29574050390E+02 -0.44658082741E+01  0.12509863836E+02  0.32420126360E+02  0.00000000000E+00 0.  1.
         13    1    3    3    0    0 -0.30516802206E+02 -0.26048050533E+02  0.15852201215E+03  0.16352065463E+03  0.00000000000E+00 0. -1.
          2    1    1    2  501    0  0.23757778584E+02  0.12532092882E+02 -0.39858251696E+01  0.27154598092E+02  0.00000000000E+00 0. -1.
<scales pt_clust_5="13000.00000" pt_clust_6="13000.00000" pt_clust_7="13000.00000" pt_clust_8="13000.00000" pt_clust_9="26.86048"></scales>
<clustering>
<clus scale="   26.860">  2  9  1 -1</clus>
<clus scale="   69.068">  5  6 -1 -1</clus>
<clus scale="   73.995">  2  5  1 -1</clus>
<clus scale="   90.603">  7  8 -1 -1</clus>
<clus scale="   26.860">  2  5  1 -1</clus>
</clustering>
</event>
<event>
 9    1  0.4731329E-005  0.9114571E+02  0.7546771E-02  0.1308955E+00
         21   -1    0    0  501  502  0.00000000000E+00  0.00000000000E+00  0.16979780318E+03  0.16979780318E+03  0.00000000000E+00 0. -1.
          1   -1    0    0  502    0 -0.00000000000E+00 -0.00000000000E+00 -0.25223338166E+03  0.25223338166E+03  0.00000000000E+00 0. -1.
        -24    2    1    2    0    0  0.77800423069E+00 -0.75915576247E+01 -0.18093793632E+03  0.19667390159E+03  0.76706256130E+02 0.  0.
         23    2    1    2    0    0 -0.19493013001E+02  0.23098741468E+02 -0.25713795741E+02  0.98785654845E+02  0.90464782642E+02 0.  0.
         11    1    3    3    0    0  0.26850163494E+02 -0.24766360326E+02 -0.49144835180E+02  0.61233313713E+02  0.00000000000E+00 0. -1.
        -12    1    3    3    0    0 -0.26072159263E+02  0.17174802701E+02 -0.13179310114E+03  0.13544058788E+03  0.00000000000E+00 0.  1.
        -13    1    4    4    0    0  0.23623460977E+01  0.22651361861E+02  0.30734325204E+02  0.38252628916E+02  0.00000000000E+00 0.  1.
         13    1    4    4    0    0 -0.21855359098E+02  0.44737960661E+00 -0.56448120945E+02  0.60533025929E+02  0.00000000000E+00 0. -1.
          2    1    1    2  501    0  0.18715008770E+02 -0.15507183843E+02  0.12421615358E+03  0.12657162840E+03  0.00000000000E+00 0. -1.
<scales pt_clust_5="13000.00000" pt_clust_6="13000.00000" pt_clust_7="13000.00000" pt_clust_8="13000.00000" pt_clust_9="24.30482"></scales>
<clustering>
<clus scale="   24.305">  1  9  2 -1</clus>
<clus scale="   76.706">  5  6 -1 -1</clus>
<clus scale="   77.508">  2  5  1 -1</clus>
<clus scale="   90.465">  7  8 -1 -1</clus>
<clus scale="   24.305">  1  5  2 -1</clus>
</clustering>
</event>
<event>
 9    1  0.4731329E-005  0.1008168E+03  0.7546771E-02  0.1286677E+00
          1   -1    0    0  502    0 -0.00000000000E+00  0.00000000000E+00  0.28155877994E+03  0.28155877994E+03  0.00000000000E+00 0. -1.
         21   -1    0    0  501  502  0.00000000000E+00 -0.00000000000E+00 -0.10710144616E+03  0.10710144616E+03  0.00000000000E+00 0. -1.
        -24    2    1    2    0    0  0.18366600655E+02 -0.34943263658E+02  0.10964077844E+03  0.13816973117E+03  0.74238875383E+02 0.  0.
         23    2    1    2    0    0  0.59093924942E+02  0.62472004180E+02  0.10107399079E+03  0.16064303417E+03  0.90528390813E+02 0.  0.
         13    1    3    3    0    0  0.17287202563E+02 -0.43179147420E+02  0.24395501514E+02  0.52520725799E+02  0.00000000000E+00 0. -1.
        -14    1    3    3    0    0  0.10793980917E+01  0.82358837614E+01  0.85245276930E+02  0.85649005367E+02  0.00000000000E+00 0.  1.
        -13    1    4    4    0    0  0.40749330506E+02  0.20843807293E+02 -0.41975337930E+01  0.45962936472E+02  0.00000000000E+00 0.  1.
         13    1    4    4    0    0  0.18344594435E+02  0.41628196887E+02  0.10527152458E+03  0.11468009770E+03  0.00000000000E+00 0. -1.
          2    1    1    2  501    0 -0.77460525596E+02 -0.27528740522E+02 -0.36257435454E+02  0.89847460766E+02  0.00000000000E+00 0. -1.
<scales pt_clust_5="13000.00000" pt_clust_6="13000.00000" pt_clust_7="13000.00000" pt_clust_8="13000.00000" pt_clust_9="82.20684"></scales>
<clustering>
<clus scale="   74.239">  5  6 -1 -1</clus>
<clus scale="   82.207">  2  9  1 -1</clus>
<clus scale="   86.487">  1  5  2 -1</clus>
<clus scale="   90.528">  7  8 -1 -1</clus>
<clus scale="   82.207">  2  5  1 -1</clus>
</clustering>
</event>
<event>
 9    1  0.4731329E-005  0.9603000E+02  0.7546771E-02  0.1294826E+00
          1   -1    0    0  502    0 -0.00000000000E+00  0.00000000000E+00  0.22143066444E+03  0.22143066444E+03  0.00000000000E+00 0. -1.
         21   -1    0    0  501  502  0.00000000000E+00 -0.00000000000E+00 -0.59048837370E+02  0.59048837370E+02  0.00000000000E+00 0.  1.
         23    2    1    2    0    0 -0.12465668912E+01 -0.33104024689E+02  0.10544980683E+03  0.14334038819E+03  0.91265408265E+02 0.  0.
        -24    2    1    2    0    0 -0.16233832814E+02  0.22340190511E+02  0.97997956289E+01  0.85730251577E+02  0.80566857958E+02 0.  0.
         13    1    4    4    0    0  0.11067707698E+02 -0.21996945730E+02  0.21124874470E+02  0.32444107269E+02  0.00000000000E+00 0. -1.
        -14    1    4    4    0    0 -0.27301540512E+02  0.44337136242E+02 -0.11325078841E+02  0.53286144308E+02  0.00000000000E+00 0.  1.
        -13    1    3    3    0    0 -0.45879573724E+02 -0.11107518608E+02  0.47665049679E+02  0.67084045910E+02  0.00000000000E+00 0. -1.
         13    1    3    3    0    0  0.44633006832E+02 -0.21996506081E+02  0.57784757155E+02  0.76256342282E+02  0.00000000000E+00 0.  1.
          2    1    1    2  501    0  0.17480399706E+02  0.10763834178E+02  0.47132224608E+02  0.51408862043E+02  0.00000000000E+00 0. -1.
<scales pt_clust_5="13000.00000" pt_clust_6="13000.00000" pt_clust_7="13000.00000" pt_clust_8="13000.00000" pt_clust_9="20.52864"></scales>
<clustering>
<clus scale="   20.529">  2  9  1 -1</clus>
<clus scale="   80.567">  5  6 -1 -1</clus>
<clus scale="   85.927">  2  5  1 -1</clus>
<clus scale="   91.265">  7  8 -1 -1</clus>
<clus scale="   20.529">  2  5  1 -1</clus>
</clustering>
</event>
<event>
 9    1  0.4731329E-005  0.1227037E+03  0.7546771E-02  0.1265270E+00
         21   -1    0    0  501  502  0.00000000000E+00  0.00000000000E+00  0.21447532023E+03  0.21447532023E+03  0.00000000000E+00 0.  1.
         -2   -1    0    0    0  501 -0.00000000000E+00 -0.00000000000E+00 -0.10000508541E+03  0.10000508541E+03  0.00000000000E+00 0.  1.
        -24    2    1    2    0    0  0.97948367635E+01  0.28115838864E+02  0.62367451248E+02  0.95474071779E+02  0.65872302105E+02 0.  0.
         23    2    1    2    0    0  0.28943627132E+02  0.57435515386E+02  0.49777894466E+02  0.12506428838E+03  0.95008765235E+02 0.  0.
         13    1    3    3    0    0  0.62110564184E+01  0.23970147091E+02  0.76451464193E+02  0.80361505403E+02  0.00000000000E+00 0. -1.
        -14    1    3    3    0    0  0.35837803451E+01  0.41456917724E+01 -0.14084012945E+02  0.15112566376E+02  0.00000000000E+00 0.  1.
        -13    1    4    4    0    0 -0.27527294720E+02  0.42294337811E+02  0.42827056259E+02  0.66187005623E+02  0.00000000000E+00 0.  1.
         13    1    4    4    0    0  0.56470921852E+02  0.15141177576E+02  0.69508382071E+01  0.58877282758E+02  0.00000000000E+00 0. -1.
         -1    1    1    2    0  502 -0.38738463895E+02 -0.85551354250E+02  0.23248891043E+01  0.93942045477E+02  0.00000000000E+00 0.  1.
<scales pt_clust_5="13000.00000" pt_clust_6="13000.00000" pt_clust_7="13000.00000" pt_clust_8="13000.00000" pt_clust_9="77.65014"></scales>
<clustering>
<clus scale="   65.872">  5  6 -1 -1</clus>
<clus scale="   72.288">  2  5  1 -1</clus>
<clus scale="   77.650">  1  9  2 -1</clus>
<clus scale="   95.009">  7  8 -1 -1</clus>
<clus scale="   77.650">  1  5  2 -1</clus>
</clustering>
</event>
<event>
 9    1  0.4731329E-005  0.9205924E+02  0.7546771E-02  0.1304865E+00
          3   -1    0    0  502    0 -0.00000000000E+00  0.00000000000E+00  0.40555961792E+02  0.40555961792E+02  0.00000000000E+00 0. -1.
         21   -1    0    0  501  502  0.00000000000E+00 -0.00000000000E+00 -0.44376960995E+03  0.44376960995E+03  0.00000000000E+00 0.  1.
         23    2    1    2    0    0 -0.14133652548E+01  0.11539517011E+02 -0.35469017697E+02  0.98885450081E+02  0.91570317064E+02 0.  0.
        -24    2    1    2    0    0 -0.25629041501E+02  0.32946787832E+01 -0.27502112231E+03  0.28772116704E+03  0.80493164751E+02 0.  0.
         13    1    4    4    0    0  0.25952404412E+02  0.83617210219E+01 -0.51532978318E+02  0.58301745493E+02  0.00000000000E+00 0. -1.
        -14    1    4    4    0    0 -0.51581445913E+02 -0.50670422388E+01 -0.22348814399E+03  0.22941942155E+03  0.00000000000E+00 0.  1.
        -13    1    3    3    0    0 -0.26009710186E+02 -0.25361800464E+02  0.75462963240E+01  0.37103538038E+02  0.00000000000E+00 0.  1.
         13    1    3    3    0    0  0.24596344932E+02  0.36901317474E+02 -0.43015314021E+02  0.61781912043E+02  0.00000000000E+00 0. -1.
          4    1    1    2  501    0  0.27042406755E+02 -0.14834195794E+02 -0.92723508158E+02  0.97718954626E+02  0.00000000000E+00 0. -1.
<scales pt_clust_5="13000.00000" pt_clust_6="13000.00000" pt_clust_7="13000.00000" pt_clust_8="13000.00000" pt_clust_9="30.84388"></scales>
<clustering>
<clus scale="   30.844">  2  9  1 -1</clus>
<clus scale="   80.493">  5  6 -1 -1</clus>
<clus scale="   81.049">  2  5  1 -1</clus>
<clus scale="   91.570">  7  8 -1 -1</clus>
<clus scale="   30.844">  2  5  1 -1</clus>
</clustering>
</event>
<event>
 9    1  0.4731329E-005  0.9548237E+02  0.7546771E-02  0.1295713E+00
         21   -1    0    0  501  502  0.00000000000E+00  0.00000000000E+00  0.25077336721E+02  0.25077336721E+02  0.00000000000E+00 0. -1.
          1   -1    0    0  502    0 -0.00000000000E+00 -0.00000000000E+00 -0.46817224062E+03  0.46817224062E+03  0.00000000000E+00 0. -1.
         23    2    1    2    0    0 -0.15908318465E+02  0.37292698832E+02 -0.27042524625E+03  0.28811360849E+03  0.90751405512E+02 0.  0.
        -24    2    1    2    0    0  0.10344006379E+02 -0.13869324870E+02 -0.15380514047E+03  0.17455025282E+03  0.80699522219E+02 0.  0.
         13    1    4    4    0    0 -0.16003537418E+02  0.23464666111E+02 -0.24851390298E+02  0.37739837908E+02  0.00000000000E+00 0. -1.
        -14    1    4    4    0    0  0.26347543797E+02 -0.37333990980E+02 -0.12895375017E+03  0.13681041492E+03  0.00000000000E+00 0.  1.
        -11    1    3    3    0    0  0.37956384116E+02  0.14512795813E+02 -0.12156462741E+03  0.12817670215E+03  0.00000000000E+00 0.  1.
         11    1    3    3    0    0 -0.53864702581E+02  0.22779903019E+02 -0.14886061884E+03  0.15993690633E+03  0.00000000000E+00 0. -1.
          2    1    1    2  501    0  0.55643120863E+01 -0.23423373962E+02 -0.18864517184E+02  0.30585716034E+02  0.00000000000E+00 0. -1.
<scales pt_clust_5="13000.00000" pt_clust_6="13000.00000" pt_clust_7="13000.00000" pt_clust_8="13000.00000" pt_clust_9="24.07522"></scales>
<clustering>
<clus scale="   24.075">  1  9  2 -1</clus>
<clus scale="   80.700">  5  6 -1 -1</clus>
<clus scale="   85.985">  1  5  2 -1</clus>
<clus scale="   90.751">  7  8 -1 -1</clus>
<clus scale="   24.075">  1  5  2 -1</clus>
</clustering>
</event>
<event>
 9    1  0.4731329E-005  0.1524696E+03  0.7546771E-02  0.1214702E+00
         -4   -1    0    0    0  501 -0.00000000000E+00  0.00000000000E+00  0.61361538494E+02  0.61361538494E+02  0.00000000000E+00 0.  1.
         21   -1    0    0  501  502  0.00000000000E+00 -0.00000000000E+00 -0.91993031875E+03  0.91993031875E+03  0.00000000000E+00 0.  1.
        -24    2    1    2    0    0  0.64101649284E+02 -0.17077997630E+02 -0.49072588984E+03  0.50189083315E+03  0.81742461428E+02 0.  0.
         23    2    1    2    0    0 -0.16633595403E+03 -0.29322279129E+02 -0.18129591124E+03  0.26167501694E+03  0.84131809686E+02 0.  0.
         13    1    3    3    0    0  0.13581071849E+02  0.31737101839E+02 -0.13947191026E+03  0.14368055852E+03  0.00000000000E+00 0. -1.
        -14    1    3    3    0    0  0.50520577436E+02 -0.48815099469E+02 -0.35125397958E+03  0.35821027463E+03  0.00000000000E+00 0.  1.
        -11    1    4    4    0    0 -0.14602088615E+03 -0.17534227765E+02 -0.10201400630E+03  0.17898716663E+03  0.00000000000E+00 0.  1.
         11    1    4    4    0    0 -0.20315067876E+02 -0.11788051363E+02 -0.79281904941E+02  0.82687850310E+02  0.00000000000E+00 0. -1.
         -3    1    1    2    0  502  0.10223430475E+03  0.46400276759E+02 -0.18654697918E+03  0.21772600715E+03  0.00000000000E+00 0.  1.
<scales pt_clust_5="13000.00000" pt_clust_6="13000.00000" pt_clust_7="13000.00000" pt_clust_8="13000.00000" pt_clust_9="127.15666"></scales>
<clustering>
<clus scale="   81.742">  5  6 -1 -1</clus>
<clus scale="   84.132">  7  8 -1 -1</clus>
<clus scale="  105.274">  1  5  2 -1</clus>
<clus scale="  127.157">  2  9  1 -1</clus>
<clus scale="  127.157">  2  5  1 -1</clus>
</clustering>
</event>
<event>
 9    1  0.4731329E-005  0.1821086E+03  0.7546771E-02  0.1176992E+00
          1   -1    0    0  502    0 -0.00000000000E+00  0.00000000000E+00  0.71006225741E+03  0.71006225741E+03  0.00000000000E+00 0. -1.
         21   -1    0    0  501  502  0.00000000000E+00 -0.00000000000E+00 -0.24318641585E+03  0.24318641585E+03  0.00000000000E+00 0. -1.
         23    2    1    2    0    0 -0.93514829334E+02 -0.47895166407E+02  0.33909000215E+03  0.36723469226E+03  0.94022972557E+02 0.  0.
        -24    2    1    2    0    0  0.23513661358E+03 -0.22270564690E+02  0.27437032411E+03  0.37045199282E+03  0.78551888171E+02 0.  0.
         11    1    4    4    0    0  0.21231498195E+03  0.37367993532E-01  0.21011123171E+03  0.29870450725E+03  0.00000000000E+00 0. -1.
        -12    1    4    4    0    0  0.22821631633E+02 -0.22307932683E+02  0.64259092398E+02  0.71747485579E+02  0.00000000000E+00 0.  1.
        -13    1    3    3    0    0  0.84123142874E+01 -0.32239494107E+02  0.12852936514E+03  0.13277782087E+03  0.00000000000E+00 0. -1.
         13    1    3    3    0    0 -0.10192714362E+03 -0.15655672300E+02  0.21056063701E+03  0.23445687138E+03  0.00000000000E+00 0.  1.
          2    1    1    2  501    0 -0.14162178425E+03  0.70165731096E+02 -0.14658448470E+03  0.21556198818E+03  0.00000000000E+00 0. -1.
<scales pt_clust_5="13000.00000" pt_clust_6="13000.00000" pt_clust_7="13000.00000" pt_clust_8="13000.00000" pt_clust_9="164.29590"></scales>
<clustering>
<clus scale="   78.552">  5  6 -1 -1</clus>
<clus scale="   94.023">  7  8 -1 -1</clus>
<clus scale="  140.994">  1  7  2 -1</clus>
<clus scale="  164.296">  2  9  1 -1</clus>
<clus scale="  164.296">  2  5  1 -1</clus>
</clustering>
</event>
<event>
 9    1  0.4731329E-005  0.8452072E+02  0.7546771E-02  0.1317676E+00
         21   -1    0    0  501  502  0.00000000000E+00  0.00000000000E+00  0.67496953815E+02  0.67496953815E+02  0.00000000000E+00 0.  1.
          1   -1    0    0  502    0 -0.00000000000E+00 -0.00000000000E+00 -0.19105156980E+03  0.19105156980E+03  0.00000000000E+00 0. -1.
         23    2    1    2    0    0  0.27039625615E+02  0.78626441006E+00 -0.12652385352E+03  0.15304355818E+03  0.81745248353E+02 0.  0.
        -24    2    1    2    0    0 -0.54689893570E+01 -0.68395317353E+01 -0.69825934630E+01  0.80990207956E+02  0.80212019887E+02 0.  0.
         11    1    4    4    0    0  0.28594160095E+02 -0.39594193066E+01 -0.28525753269E+02  0.40583513800E+02  0.00000000000E+00 0. -1.
        -12    1    4    4    0    0 -0.34063149452E+02 -0.28801124287E+01  0.21543159806E+02  0.40406694156E+02  0.00000000000E+00 0.  1.
        -11    1    3    3    0    0  0.31451746571E+02 -0.36357476040E+02 -0.61901651767E+02  0.78376609508E+02  0.00000000000E+00 0.  1.
         11    1    3    3    0    0 -0.44121209566E+01  0.37143740450E+02 -0.64622201748E+02  0.74666948677E+02  0.00000000000E+00 0. -1.
          2    1    1    2  501    0 -0.21570636258E+02  0.60532673253E+01  0.99518309937E+01  0.24514757474E+02  0.00000000000E+00 0. -1.
<scales pt_clust_5="13000.00000" pt_clust_6="13000.00000" pt_clust_7="13000.00000" pt_clust_8="13000.00000" pt_clust_9="22.40389"></scales>
<clustering>
<clus scale="   22.404">  1  9  2 -1</clus>
<clus scale="   80.212">  5  6 -1 -1</clus>
<clus scale="   81.745">  7  8 -1 -1</clus>
<clus scale="   83.039">  1  5  2 -1</clus>
<clus scale="   22.404">  1  5  2 -1</clus>
</clustering>
</event>
<event>
 9    1  0.4731329E-005  0.1886379E+03  0.7546771E-02  0.1163153E+00
          1   -1    0    0  502    0 -0.00000000000E+00  0.00000000000E+00  0.15413618928E+03  0.15413618928E+03  0.00000000000E+00 0. -1.
         21   -1    0    0  501  502  0.00000000000E+00 -0.00000000000E+00 -0.51880978247E+03  0.51880978247E+03  0.00000000000E+00 0. -1.
         23    2    1    2    0    0  0.47624263203E+02  0.14118645241E+03 -0.13403156610E+03  0.21970382040E+03  0.90020126619E+02 0.  0.
        -24    2    1    2    0    0  0.13747086658E+03 -0.12658690185E+03 -0.10219556352E+03  0.22747269383E+03  0.79858689912E+02 0.  0.
         13    1    4    4    0    0  0.12161321539E+03 -0.66672511739E+02 -0.53491779353E+02  0.14864847270E+03  0.00000000000E+00 0. -1.
        -14    1    4    4    0    0  0.15857651199E+02 -0.59914390111E+02 -0.48703784170E+02  0.78824221127E+02  0.00000000000E+00 0.  1.
        -13    1    3    3    0    0  0.14232642710E+02  0.40286416244E+02  0.68045714000E+01  0.43265062628E+02  0.00000000000E+00 0.  1.
         13    1    3    3    0    0  0.33391620493E+02  0.10090003617E+03 -0.14083613750E+03  0.17643875777E+03  0.00000000000E+00 0. -1.
          2    1    1    2  501    0 -0.18509512979E+03 -0.14599550564E+02 -0.12844646356E+03  0.22576945752E+03  0.00000000000E+00 0. -1.
<scales pt_clust_5="13000.00000" pt_clust_6="13000.00000" pt_clust_7="13000.00000" pt_clust_8="13000.00000" pt_clust_9="170.90005"></scales>
<clustering>
<clus scale="   79.859">  5  6 -1 -1</clus>
<clus scale="   90.020">  7  8 -1 -1</clus>
<clus scale="  174.084">  1  7  2 -1</clus>
<clus scale="  170.900">  2  9  1 -1</clus>
<clus scale="  170.900">  2  5  1 -1</clus>
</clustering>
</event>
<event>
 9    1  0.4731329E-005  0.9341378E+02  0.7546771E-02  0.1300050E+00
         21   -1    0    0  501  502  0.00000000000E+00  0.00000000000E+00  0.31311885912E+03  0.31311885912E+03  0.00000000000E+00 0. -1.
          3   -1    0    0  502    0 -0.00000000000E+00 -0.00000000000E+00 -0.77447609185E+02  0.77447609185E+02  0.00000000000E+00 0. -1.
        -24    2    1    2    0    0  0.18122846934E+00 -0.23208620826E+01  0.78529247843E+02  0.11234464761E+03  0.80306026150E+02 0.  0.
         23    2    1    2    0    0 -0.36427370651E+02  0.66211846358E+02  0.16717032521E+03  0.20408405731E+03  0.89405944350E+02 0.  0.
         11    1    3    3    0    0  0.29725743426E+02 -0.27831922264E+01  0.77193938776E+02  0.82766358896E+02  0.00000000000E+00 0. -1.
        -12    1    3    3    0    0 -0.29544514956E+02  0.46233014374E+00  0.13353090674E+01  0.29578288718E+02  0.00000000000E+00 0.  1.
        -11    1    4    4    0    0  0.22719116822E+02 -0.60563664587E+01  0.29395725100E+02  0.37642349794E+02  0.00000000000E+00 0.  1.
         11    1    4    4    0    0 -0.59146487473E+02  0.72268212817E+02  0.13777460011E+03  0.16644170751E+03  0.00000000000E+00 0. -1.
          4    1    1    2  501    0  0.36246142182E+02 -0.63890984275E+02 -0.10028323120E+02  0.74137763382E+02  0.00000000000E+00 0. -1.
<scales pt_clust_5="13000.00000" pt_clust_6="13000.00000" pt_clust_7="13000.00000" pt_clust_8="13000.00000" pt_clust_9="73.45642"></scales>
<clustering>
<clus scale="   73.456">  1  9  2 -1</clus>
<clus scale="   80.306">  5  6 -1 -1</clus>
<clus scale="   84.745">  2  5  1 -1</clus>
<clus scale="   89.406">  7  8 -1 -1</clus>
<clus scale="   73.456">  1  5  2 -1</clus>
</clustering>
</event>
<event>
 9    1  0.4731329E-005  0.1038050E+03  0.7546771E-02  0.1278940E+00
         21   -1    0    0  501  502  0.00000000000E+00  0.00000000000E+00  0.46971794024E+03  0.46971794024E+03  0.00000000000E+00 0. -1.
         -4   -1    0    0    0  501 -0.00000000000E+00 -0.00000000000E+00 -0.15810171042E+03  0.15810171042E+03  0.00000000000E+00 0.  1.
         23    2    1    2    0    0  0.20604803543E+02  0.37650351516E+02 -0.12710895574E+03  0.16356907044E+03  0.93573753138E+02 0.  0.
        -24    2    1    2    0    0 -0.46968059713E+02 -0.63836427909E+02  0.29376908029E+03  0.31460765748E+03  0.79978856232E+02 0.  0.
         13    1    4    4    0    0 -0.52600500510E+02 -0.76642228650E+02  0.27980301879E+03  0.29483991113E+03  0.00000000000E+00 0. -1.
        -14    1    4    4    0    0  0.56324407972E+01  0.12805800740E+02  0.13966061500E+02  0.19767746350E+02  0.00000000000E+00 0.  1.
        -11    1    3    3    0    0  0.31689403127E+02  0.76073243623E+01 -0.12744372743E+03  0.13154464381E+03  0.00000000000E+00 0.  1.
         11    1    3    3    0    0 -0.11084599584E+02  0.30043027153E+02  0.33477169203E+00  0.32024426623E+02  0.00000000000E+00 0. -1.
         -3    1    1    2    0  502  0.26363256169E+02  0.26186076394E+02  0.14495610527E+03  0.14964292274E+03  0.00000000000E+00 0.  1.
<scales pt_clust_5="13000.00000" pt_clust_6="13000.00000" pt_clust_7="13000.00000" pt_clust_8="13000.00000" pt_clust_9="37.15820"></scales>
<clustering>
<clus scale="   37.158">  1  9  2 -1</clus>
<clus scale="   79.979">  5  6 -1 -1</clus>
<clus scale="   91.739">  1  5  2 -1</clus>
<clus scale="   93.574">  7  8 -1 -1</clus>
<clus scale="   37.158">  1  5  2 -1</clus>
</clustering>
</event>
<event>
 9    1  0.4731329E-005  0.1057484E+03  0.7546771E-02  0.1273052E+00
          1   -1    0    0  502    0 -0.00000000000E+00  0.00000000000E+00  0.73196744597E+03  0.73196744597E+03  0.00000000000E+00 0. -1.
         21   -1    0    0  501  502  0.00000000000E+00 -0.00000000000E+00 -0.20944719649E+02  0.20944719649E+02  0.00000000000E+00 0. -1.
         23    2    1    2    0    0  0.41444908944E+02  0.13121584583E+02  0.32644479062E+03  0.34174752732E+03  0.91297944354E+02 0.  0.
        -24    2    1    2    0    0 -0.70126070060E+02  0.51130842870E+01  0.24484851598E+03  0.26736122080E+03  0.81162905780E+02 0.  0.
         11    1    4    4    0    0 -0.58248221728E+02 -0.31442705802E+02  0.18231299003E+03  0.19395753509E+03  0.00000000000E+00 0. -1.
        -12    1    4    4    0    0 -0.11877848332E+02  0.36555790089E+02  0.62535525952E+02  0.73403685712E+02  0.00000000000E+00 0.  1.
        -11    1    3    3    0    0 -0.21120304678E+02 -0.22404403473E+01  0.22070246860E+02  0.30629767206E+02  0.00000000000E+00 0.  1.
         11    1    3    3    0    0  0.62565213622E+02  0.15362024931E+02  0.30437454376E+03  0.31111776011E+03  0.00000000000E+00 0. -1.
          2    1    1    2  501    0  0.28681161116E+02 -0.18234668870E+02  0.13972941972E+03  0.14380341751E+03  0.00000000000E+00 0. -1.
<scales pt_clust_5="13000.00000" pt_clust_6="13000.00000" pt_clust_7="13000.00000" pt_clust_8="13000.00000" pt_clust_9="33.98696"></scales>
<clustering>
<clus scale="   33.987">  2  9  1 -1</clus>
<clus scale="   81.163">  5  6 -1 -1</clus>
<clus scale="   91.298">  7  8 -1 -1</clus>
<clus scale="   97.133">  2  5  1 -1</clus>
<clus scale="   33.987">  2  5  1 -1</clus>
</clustering>
</event>
<event>
 9    1  0.4731329E-005  0.9396583E+02  0.7546771E-02  0.1296559E+00
         21   -1    0    0  501  502  0.00000000000E+00  0.00000000000E+00  0.82647290288E+02  0.82647290288E+02  0.00000000000E+00 0.  1.
          1   -1    0    0  502    0 -0.00000000000E+00 -0.00000000000E+00 -0.38242434626E+03  0.38242434626E+03  0.00000000000E+00 0. -1.
         23    2    1    2    0    0  0.25516866965E+02 -0.13401273254E+02 -0.26673755852E+03  0.28291820005E+03  0.89794644445E+02 0.  0.
        -24    2    1    2    0    0 -0.37243671882E+02 -0.44754982613E+02  0.17759064034E+02  0.10404990329E+03  0.84385416130E+02 0.  0.
         11    1    4    4    0    0 -0.37978470082E+02 -0.16362964234E+02 -0.28178600253E+02  0.50041425844E+02  0.00000000000E+00 0. -1.
        -12    1    4    4    0    0  0.73479819969E+00 -0.28392018379E+02  0.45937664286E+02  0.54008477447E+02  0.00000000000E+00 0.  1.
        -13    1    3    3    0    0  0.56625489901E+02 -0.34452935258E+01 -0.20920486014E+03  0.21676021235E+03  0.00000000000E+00 0. -1.
         13    1    3    3    0    0 -0.31108622936E+02 -0.99559797279E+01 -0.57532698387E+02  0.66157987704E+02  0.00000000000E+00 0.  1.
          2    1    1    2  501    0  0.11726804917E+02  0.58156255866E+02 -0.50798561482E+02  0.78103533202E+02  0.00000000000E+00 0. -1.
<scales pt_clust_5="13000.00000" pt_clust_6="13000.00000" pt_clust_7="13000.00000" pt_clust_8="13000.00000" pt_clust_9="59.32682"></scales>
<clustering>
<clus scale="   59.327">  1  9  2 -1</clus>
<clus scale="   84.385">  5  6 -1 -1</clus>
<clus scale="   88.811">  1  5  2 -1</clus>
<clus scale="   89.795">  7  8 -1 -1</clus>
<clus scale="   59.327">  1  5  2 -1</clus>
</clustering>
</event>
<event>
 9    1  0.4731329E-005  0.1018146E+03  0.7546771E-02  0.1286045E+00
         21   -1    0    0  501  502  0.00000000000E+00  0.00000000000E+00  0.25271856914E+02  0.25271856914E+02  0.00000000000E+00 0.  1.
          1   -1    0    0  502    0 -0.00000000000E+00 -0.00000000000E+00 -0.50422321613E+03  0.50422321613E+03  0.00000000000E+00 0. -1.
        -24    2    1    2    0    0 -0.21175514329E+02  0.28341155015E+02 -0.23142772764E+03  0.24736204350E+03  0.79859651702E+02 0.  0.
         23    2    1    2    0    0  0.22967941928E+02 -0.13931518215E+01 -0.14622922734E+03  0.17730000039E+03  0.97585019236E+02 0.  0.
         13    1    3    3    0    0  0.25995656930E+02 -0.12482413231E+00 -0.36590229893E+02  0.44884682063E+02  0.00000000000E+00 0. -1.
        -14    1    3    3    0    0 -0.47171171259E+02  0.28465979147E+02 -0.19483749774E+03  0.20247736143E+03  0.00000000000E+00 0.  1.
        -13    1    4    4    0    0 -0.35002921172E+01 -0.46201905329E+02 -0.86110414065E+02  0.97784822500E+02  0.00000000000E+00 0. -1.
         13    1    4    4    0    0  0.26468234045E+02  0.44808753507E+02 -0.60118813277E+02  0.79515177886E+02  0.00000000000E+00 0.  1.
          2    1    1    2  501    0 -0.17924275992E+01 -0.26948003194E+02 -0.10129440424E+03  0.10483302916E+03  0.00000000000E+00 0. -1.
<scales pt_clust_5="13000.00000" pt_clust_6="13000.00000" pt_clust_7="13000.00000" pt_clust_8="13000.00000" pt_clust_9="27.00756"></scales>
<clustering>
<clus scale="   27.008">  1  9  2 -1</clus>
<clus scale="   79.860">  5  6 -1 -1</clus>
<clus scale="   84.976">  2  5  1 -1</clus>
<clus scale="   97.585">  7  8 -1 -1</clus>
<clus scale="   27.008">  1  5  2 -1</clus>
</clustering>
</event>
<event>
 9    1  0.4731329E-005  0.1294826E+03  0.7546771E-02  0.1230938E+00
          3   -1    0    0  502    0 -0.00000000000E+00  0.00000000000E+00  0.86800505941E+03  0.86800505941E+03  0.00000000000E+00 0. -1.
         21   -1    0    0  501  502  0.00000000000E+00 -0.00000000000E+00 -0.13674089385E+03  0.13674089385E+03  0.00000000000E+00 0. -1.
        -24    2    1    2    0    0  0.70959603237E+02 -0.61026451004E+02  0.79692933787E+03  0.80650812850E+03  0.81237299173E+02 0.  0.
         23    2    1    2    0    0 -0.68780750388E+02  0.24488168061E+02  0.65624155154E+01  0.11726487889E+03  0.91528818007E+02 0.  0.
         11    1    3    3    0    0  0.27969747807E+02 -0.73485271793E+02  0.47056422645E+03  0.47708812937E+03  0.00000000000E+00 0. -1.
        -12    1    3    3    0    0  0.42989855431E+02  0.12458820789E+02  0.32636511141E+03  0.32941999914E+03  0.00000000000E+00 0.  1.
        -11    1    4    4    0    0  0.22344437889E+02  0.10928865470E+02  0.31568742147E+01  0.25073489184E+02  0.00000000000E+00 0. -1.
         11    1    4    4    0    0 -0.91125188277E+02  0.13559302591E+02  0.34055413007E+01  0.92191389711E+02  0.00000000000E+00 0.  1.
          4    1    1    2  501    0 -0.21788528492E+01  0.36538282943E+02 -0.72227587815E+02  0.80972945863E+02  0.00000000000E+00 0. -1.
<scales pt_clust_5="13000.00000" pt_clust_6="13000.00000" pt_clust_7="13000.00000" pt_clust_8="13000.00000" pt_clust_9="36.60319"></scales>
<clustering>
<clus scale="   36.603">  2  9  1 -1</clus>
<clus scale="   81.237">  5  6 -1 -1</clus>
<clus scale="   91.529">  7  8 -1 -1</clus>
<clus scale="  122.424">  1  5  2 -1</clus>
<clus scale="   36.603">  2  5  1 -1</clus>
</clustering>
</event>
<event>
 9    1  0.4731329E-005  0.1102257E+03  0.7546771E-02  0.1264457E+00
         21   -1    0    0  501  502  0.00000000000E+00  0.00000000000E+00  0.38655851242E+03  0.38655851242E+03  0.00000000000E+00 0. -1.
          3   -1    0    0  502    0 -0.00000000000E+00 -0.00000000000E+00 -0.55330906736E+02  0.55330906736E+02  0.00000000000E+00 0. -1.
         23    2    1    2    0    0  0.56603433738E+02 -0.13545088386E+02  0.96926385287E+02  0.14531930238E+03  0.91299273538E+02 0.  0.
        -24    2    1    2    0    0 -0.64272682297E+02 -0.51930175305E+02  0.13664940032E+03  0.17874946709E+03  0.80315581180E+02 0.  0.
         13    1    4    4    0    0 -0.36257298351E+02  0.10590340193E+02  0.18233223197E+02  0.41942787429E+02  0.00000000000E+00 0. -1.
        -14    1    4    4    0    0 -0.28015383945E+02 -0.62520515497E+02  0.11841617712E+03  0.13680667966E+03  0.00000000000E+00 0.  1.
        -11    1    3    3    0    0 -0.15908462706E+02  0.14357946586E+02  0.43281503282E+00  0.21434018398E+02  0.00000000000E+00 0.  1.
         11    1    3    3    0    0  0.72511896443E+02 -0.27903034971E+02  0.96493570254E+02  0.12388528398E+03  0.00000000000E+00 0. -1.
          4    1    1    2  501    0  0.76692485591E+01  0.65475263690E+02  0.97651820082E+02  0.11782064969E+03  0.00000000000E+00 0. -1.
<scales pt_clust_5="13000.00000" pt_clust_6="13000.00000" pt_clust_7="13000.00000" pt_clust_8="13000.00000" pt_clust_9="65.92289"></scales>
<clustering>
<clus scale="   65.923">  1  9  2 -1</clus>
<clus scale="   80.316">  5  6 -1 -1</clus>
<clus scale="   91.299">  7  8 -1 -1</clus>
<clus scale="  101.315">  1  5  2 -1</clus>
<clus scale="   65.923">  1  5  2 -1</clus>
</clustering>
</event>
<event>
 9    1  0.4731329E-005  0.9737630E+02  0.7546771E-02  0.1292127E+00
         21   -1    0    0  501  502  0.00000000000E+00  0.00000000000E+00  0.21557000713E+03  0.21557000713E+03  0.00000000000E+00 0.  1.
          1   -1    0    0  502    0 -0.00000000000E+00 -0.00000000000E+00 -0.10692421579E+03  0.10692421579E+03  0.00000000000E+00 0. -1.
         23    2    1    2    0    0  0.19418915144E+02 -0.13816716671E+02 -0.29817529583E+02  0.99458602200E+02  0.91841888897E+02 0.  0.
        -24    2    1    2    0    0 -0.41970241156E+02  0.17592109037E+02  0.10417306402E+02  0.92964110659E+02  0.80391679638E+02 0.  0.
         13    1    4    4    0    0 -0.35387374257E+02  0.37637754989E+01 -0.32005062241E+02  0.47861845679E+02  0.00000000000E+00 0. -1.
        -14    1    4    4    0    0 -0.65828668984E+01  0.13828333538E+02  0.42422368643E+02  0.45102264980E+02  0.00000000000E+00 0.  1.
        -13    1    3    3    0    0  0.24188938194E+02  0.25382024597E+02 -0.45091932269E+02  0.57119473556E+02  0.00000000000E+00 0.  1.
         13    1    3    3    0    0 -0.47700230503E+01 -0.39198741268E+02  0.15274402685E+02  0.42339128644E+02  0.00000000000E+00 0. -1.
          2    1    1    2  501    0  0.22551326012E+02 -0.37753923660E+01  0.12804601453E+03  0.13007151006E+03  0.00000000000E+00 0. -1.
<scales pt_clust_5="13000.00000" pt_clust_6="13000.00000" pt_clust_7="13000.00000" pt_clust_8="13000.00000" pt_clust_9="22.86517"></scales>
<clustering>
<clus scale="   22.865">  1  9  2 -1</clus>
<clus scale="   80.392">  5  6 -1 -1</clus>
<clus scale="   86.660">  1  5  2 -1</clus>
<clus scale="   91.842">  7  8 -1 -1</clus>
<clus scale="   22.865">  1  5  2 -1</clus>
</clustering>
</event>
<event>
 9    1  0.4731329E-005  0.1007533E+03  0.7546771E-02  0.1283338E+00
         21   -1    0    0  501  502  0.00000000000E+00  0.00000000000E+00  0.20352784118E+02  0.20352784118E+02  0.00000000000E+00 0. -1.
          1   -1    0    0  502    0 -0.00000000000E+00 -0.00000000000E+00 -0.10279516542E+04  0.10279516542E+04  0.00000000000E+00 0. -1.
         23    2    1    2    0    0 -0.52600408333E+02  0.28319968652E+02 -0.53378160984E+03  0.54466183014E+03  0.90359717939E+02 0.  0.
        -24    2    1    2    0    0  0.19414974569E+02  0.20179777464E+02 -0.13533246108E+03  0.16009427439E+03  0.80815450339E+02 0.  0.
         13    1    4    4    0    0 -0.29130235875E+02 -0.67911018579E+01 -0.50794594436E+02  0.58947269067E+02  0.00000000000E+00 0. -1.
        -14    1    4    4    0    0  0.48545210444E+02  0.26970879322E+02 -0.84537866648E+02  0.10114700532E+03  0.00000000000E+00 0.  1.
        -11    1    3    3    0    0  0.12623656201E+02 -0.18359181744E+02 -0.57347934412E+02  0.61523993950E+02  0.00000000000E+00 0. -1.
         11    1    3    3    0    0 -0.65224064534E+02  0.46679150396E+02 -0.47643367543E+03  0.48313783619E+03  0.00000000000E+00 0.  1.
          2    1    1    2  501    0  0.33185433764E+02 -0.48499746116E+02 -0.33848479917E+03  0.34354833380E+03  0.00000000000E+00 0. -1.
<scales pt_clust_5="13000.00000" pt_clust_6="13000.00000" pt_clust_7="13000.00000" pt_clust_8="13000.00000" pt_clust_9="58.76650"></scales>
<clustering>
<clus scale="   58.767">  1  9  2 -1</clus>
<clus scale="   80.815">  5  6 -1 -1</clus>
<clus scale="   90.360">  7  8 -1 -1</clus>
<clus scale="   92.290">  1  5  2 -1</clus>
<clus scale="   58.767">  1  5  2 -1</clus>
</clustering>
</event>
<event>
 9    1  0.4731329E-005  0.1023769E+03  0.7546771E-02  0.1280146E+00
         21   -1    0    0  501  502  0.00000000000E+00  0.00000000000E+00  0.71061313303E+02  0.71061313303E+02  0.00000000000E+00 0.  1.
          3   -1    0    0  502    0 -0.00000000000E+00 -0.00000000000E+00 -0.28662980313E+03  0.28662980313E+03  0.00000000000E+00 0. -1.
        -24    2    1    2    0    0  0.37746006172E+02 -0.31080828539E+02 -0.20337143642E+03  0.22391363590E+03  0.79916183004E+02 0.  0.
         23    2    1    2    0    0 -0.50635106625E+02  0.10049178786E+02 -0.23669847646E+02  0.10657299176E+03  0.90181155840E+02 0.  0.
         13    1    3    3    0    0  0.43936031014E+02 -0.53315606522E+02 -0.13330655307E+03  0.15014514915E+03  0.00000000000E+00 0. -1.
        -14    1    3    3    0    0 -0.61900248420E+01  0.22234777983E+02 -0.70064883345E+02  0.73768486751E+02  0.00000000000E+00 0.  1.
        -11    1    4    4    0    0  0.31608495713E+01  0.35052049169E+02 -0.30870976691E+02  0.46815107848E+02  0.00000000000E+00 0. -1.
         11    1    4    4    0    0 -0.53795956196E+02 -0.25002870384E+02  0.72011290449E+01  0.59757883915E+02  0.00000000000E+00 0.  1.
          4    1    1    2  501    0  0.12889100452E+02  0.21031649753E+02  0.11472794236E+02  0.27204488773E+02  0.00000000000E+00 0. -1.
<scales pt_clust_5="13000.00000" pt_clust_6="13000.00000" pt_clust_7="13000.00000" pt_clust_8="13000.00000" pt_clust_9="24.66697"></scales>
<clustering>
<clus scale="   24.667">  1  9  2 -1</clus>
<clus scale="   79.916">  5  6 -1 -1</clus>
<clus scale="   90.181">  7  8 -1 -1</clus>
<clus scale="   93.461">  2  5  1 -1</clus>
<clus scale="   24.667">  1  5  2 -1</clus>
</clustering>
</event>
<event>
 9    1  0.4731329E-005  0.2767496E+03  0.7546771E-02  0.1097478E+00
         21   -1    0    0  501  502  0.00000000000E+00  0.00000000000E+00  0.57267250043E+03  0.57267250043E+03  0.00000000000E+00 0. -1.
          1   -1    0    0  502    0 -0.00000000000E+00 -0.00000000000E+00 -0.12412267011E+03  0.12412267011E+03  0.00000000000E+00 0. -1.
        -24    2    1    2    0    0 -0.70911615327E+02 -0.11449435823E+03  0.52724675336E+02  0.16608203909E+03  0.81645190086E+02 0.  0.
         23    2    1    2    0    0 -0.12661900762E+02 -0.38705988242E+02  0.25787474394E+02  0.12158874474E+03  0.11162594570E+03 0.  0.
         13    1    3    3    0    0 -0.22842787892E+02 -0.10060395884E+03  0.53136123297E+02  0.11604480639E+03  0.00000000000E+00 0. -1.
        -14    1    3    3    0    0 -0.48068827436E+02 -0.13890399393E+02 -0.41144796146E+00  0.50037232695E+02  0.00000000000E+00 0.  1.
        -11    1    4    4    0    0  0.19867351281E+01  0.21648887159E+02  0.50317357597E+02  0.54812935583E+02  0.00000000000E+00 0.  1.
         11    1    4    4    0    0 -0.14648635890E+02 -0.60354875401E+02 -0.24529883204E+02  0.66775809154E+02  0.00000000000E+00 0. -1.
          2    1    1    2  501    0  0.83573516089E+02  0.15320034647E+03  0.37003768059E+03  0.40912438672E+03  0.00000000000E+00 0. -1.
<scales pt_clust_5="13000.00000" pt_clust_6="13000.00000" pt_clust_7="13000.00000" pt_clust_8="13000.00000" pt_clust_9="174.51326"></scales>
<clustering>
<clus scale="   81.645">  5  6 -1 -1</clus>
<clus scale="  111.626">  7  8 -1 -1</clus>
<clus scale="  116.790">  5  7 -1 -1</clus>
<clus scale="  174.513">  1  9  2 -1</clus>
<clus scale="  174.513">  1  5  2 -1</clus>
</clustering>
</event>
<event>
 9    1  0.1804877E-004  0.1349581E+03  0.7546771E-02  0.1234333E+00
         21   -1    0    0  501  502  0.00000000000E+00  0.00000000000E+00  0.56033088667E+03  0.56033088667E+03  0.00000000000E+00 0. -1.
         -4   -1    0    0    0  501 -0.00000000000E+00 -0.00000000000E+00 -0.18352254279E+03  0.18352254279E+03  0.00000000000E+00 0.  1.
        -24    2    1    2    0    0 -0.56071307102E+02  0.25177858372E+02 -0.14626061320E+03  0.17870897700E+03  0.82260655576E+02 0.  0.
         23    2    1    2    0    0  0.27727952089E+02  0.27519587090E+02  0.20568408711E+03  0.24216841275E+03  0.12171043277E+03 0.  0.
         11    1    3    3    0    0  0.14530167458E+02  0.28132998578E+02 -0.38533286013E+02  0.49873896041E+02  0.00000000000E+00 0. -1.
        -12    1    3    3    0    0 -0.70601474561E+02 -0.29551402062E+01 -0.10772732719E+03  0.12883508096E+03  0.00000000000E+00 0.  1.
        -13    1    4    4    0    0  0.49905876630E+02 -0.31322006285E+02  0.63091927113E+02  0.86326449404E+02  0.00000000000E+00 0.  1.
         13    1    4    4    0    0 -0.22177924541E+02  0.58841593375E+02  0.14259216000E+03  0.15584196335E+03  0.00000000000E+00 0. -1.
         -3    1    1    2    0  502  0.28343355013E+02 -0.52697445463E+02  0.31738486998E+03  0.32297603970E+03  0.00000000000E+00 0.  1.
<scales pt_clust_5="13000.00000" pt_clust_6="13000.00000" pt_clust_7="13000.00000" pt_clust_8="13000.00000" pt_clust_9="59.83616"></scales>
<clustering>
<clus scale="   59.836">  1  9  2 -1</clus>
<clus scale="   82.261">  5  6 -1 -1</clus>
<clus scale="  100.832">  2  5  1 -1</clus>
<clus scale="  121.710">  7  8 -1 -1</clus>
<clus scale="   59.836">  1  5  2 -1</clus>
</clustering>
</event>
<event>
 9    1  0.4731329E-005  0.8990435E+02  0.7546771E-02  0.1305655E+00
         21   -1    0    0  501  502  0.00000000000E+00  0.00000000000E+00  0.63239870360E+02  0.63239870360E+02  0.00000000000E+00 0. -1.
         -4   -1    0    0    0  501 -0.00000000000E+00 -0.00000000000E+00 -0.33331030671E+03  0.33331030671E+03  0.00000000000E+00 0.  1.
         23    2    1    2    0    0 -0.28841821294E+02  0.19710243856E+02 -0.22549755967E+03  0.24340282796E+03  0.84707985903E+02 0.  0.
        -24    2    1    2    0    0 -0.20627085677E+02 -0.40168116903E+02 -0.36093175208E+02  0.98947693539E+02  0.80305507165E+02 0.  0.
         13    1    4    4    0    0 -0.40595187271E+02 -0.38284287016E+02  0.20662103216E+01  0.55838383636E+02  0.00000000000E+00 0. -1.
        -14    1    4    4    0    0  0.19968101595E+02 -0.18838298870E+01 -0.38159385530E+02  0.43109309904E+02  0.00000000000E+00 0.  1.
        -11    1    3    3    0    0 -0.56984158483E+02  0.17593012276E+02 -0.11736676416E+03  0.13164978438E+03  0.00000000000E+00 0. -1.
         11    1    3    3    0    0  0.28142337189E+02  0.21172315801E+01 -0.10813079551E+03  0.11175304358E+03  0.00000000000E+00 0.  1.
         -3    1    1    2    0  502  0.49468906970E+02  0.20457873047E+02 -0.84797014723E+01  0.54199655567E+02  0.00000000000E+00 0.  1.
<scales pt_clust_5="13000.00000" pt_clust_6="13000.00000" pt_clust_7="13000.00000" pt_clust_8="13000.00000" pt_clust_9="53.53221"></scales>
<clustering>
<clus scale="   53.532">  1  9  2 -1</clus>
<clus scale="   80.306">  5  6 -1 -1</clus>
<clus scale="   84.708">  7  8 -1 -1</clus>
<clus scale="   85.769">  1  5  2 -1</clus>
<clus scale="   53.532">  1  5  2 -1</clus>
</clustering>
</event>
<event>
 9    1  0.4731329E-005  0.2885202E+03  0.7546771E-02  0.1091124E+00
          1   -1    0    0  502    0 -0.00000000000E+00  0.00000000000E+00  0.63955866742E+02  0.63955866742E+02  0.00000000000E+00 0. -1.
         21   -1    0    0  501  502  0.00000000000E+00 -0.00000000000E+00 -0.10475210665E+04  0.10475210665E+04  0.00000000000E+00 0. -1.
        -24    2    1    2    0    0 -0.11675520730E+03  0.12490739178E+03 -0.20908657828E+03  0.28184273709E+03  0.80526370105E+02 0.  0.
         23    2    1    2    0    0 -0.13353268458E+02  0.51382667858E+01 -0.15095116335E+03  0.17953683435E+03  0.96137971718E+02 0.  0.
         13    1    3    3    0    0 -0.11878205434E+03  0.84211031253E+02 -0.14220401023E+03  0.20352556287E+03  0.00000000000E+00 0. -1.
        -14    1    3    3    0    0  0.20268470335E+01  0.40696360528E+02 -0.66882568050E+02  0.78317174222E+02  0.00000000000E+00 0.  1.
        -13    1    4    4    0    0 -0.24266765896E+02  0.31272661730E+02 -0.17790496282E+02  0.43397661880E+02  0.00000000000E+00 0.  1.
         13    1    4    4    0    0  0.10913497438E+02 -0.26134394944E+02 -0.13316066707E+03  0.13613917247E+03  0.00000000000E+00 0. -1.
          2    1    1    2  501    0  0.13010847576E+03 -0.13004565857E+03 -0.62352745810E+03  0.65009736177E+03  0.00000000000E+00 0. -1.
<scales pt_clust_5="13000.00000" pt_clust_6="13000.00000" pt_clust_7="13000.00000" pt_clust_8="13000.00000" pt_clust_9="183.95676"></scales>
<clustering>
<clus scale="   80.526">  5  6 -1 -1</clus>
<clus scale="   96.138">  7  8 -1 -1</clus>
<clus scale="   96.647">  5  7 -1 -1</clus>
<clus scale="  183.957">  2  9  1 -1</clus>
<clus scale="  183.957">  2  5  1 -1</clus>
</clustering>
</event>
<event>
 9    1  0.4731329E-005  0.1016483E+03  0.7546771E-02  0.1282755E+00
         21   -1    0    0  501  502  0.00000000000E+00  0.00000000000E+00  0.91667362149E+03  0.91667362149E+03  0.00000000000E+00 0.  1.
          3   -1    0    0  502    0 -0.00000000000E+00 -0.00000000000E+00 -0.21206999428E+03  0.21206999428E+03  0.00000000000E+00 0. -1.
         23    2    1    2    0    0 -0.22888176083E+02  0.35285058758E+02 -0.18605194029E+03  0.21201665602E+03  0.92557192949E+02 0.  0.
        -24    2    1    2    0    0  0.42867383314E+02 -0.18881916369E+02  0.88547063481E+03  0.89036191985E+03  0.80572724246E+02 0.  0.
         13    1    4    4    0    0  0.19215279625E+02  0.15452395306E+02  0.77757925616E+02  0.81573883614E+02  0.00000000000E+00 0. -1.
        -14    1    4    4    0    0  0.23652103689E+02 -0.34334311676E+02  0.80771270919E+03  0.80878803624E+03  0.00000000000E+00 0.  1.
        -11    1    3    3    0    0 -0.14975445457E+02 -0.30976341966E+02 -0.73813569400E+02  0.81438570443E+02  0.00000000000E+00 0.  1.
         11    1    3    3    0    0 -0.79127306261E+01  0.66261400724E+02 -0.11223837089E+03  0.13057808558E+03  0.00000000000E+00 0. -1.
          4    1    1    2  501    0 -0.19979207231E+02 -0.16403142389E+02  0.51849327016E+01  0.26365039900E+02  0.00000000000E+00 0. -1.
<scales pt_clust_5="13000.00000" pt_clust_6="13000.00000" pt_clust_7="13000.00000" pt_clust_8="13000.00000" pt_clust_9="25.85019"></scales>
<clustering>
<clus scale="   25.850">  1  9  2 -1</clus>
<clus scale="   80.573">  5  6 -1 -1</clus>
<clus scale="   90.871">  1  5  2 -1</clus>
<clus scale="   92.557">  7  8 -1 -1</clus>
<clus scale="   25.850">  1  5  2 -1</clus>
</clustering>
</event>
<event>
 9    1  0.4731329E-005  0.1514602E+03  0.7546771E-02  0.1220165E+00
          1   -1    0    0  502    0 -0.00000000000E+00  0.00000000000E+00  0.72176071586E+03  0.72176071586E+03  0.00000000000E+00 0. -1.
         21   -1    0    0  501  502  0.00000000000E+00 -0.00000000000E+00 -0.74755043327E+02  0.74755043327E+02  0.00000000000E+00 0. -1.
         23    2    1    2    0    0 -0.27292498440E+02 -0.31332136239E+01  0.48098342526E+02  0.10711305540E+03  0.91679106586E+02 0.  0.
        -24    2    1    2    0    0 -0.52047391344E+02  0.10431415904E+03  0.51784013640E+03  0.53740174423E+03  0.83975312521E+02 0.  0.
         13    1    4    4    0    0 -0.58473427068E+02  0.96952715081E+02  0.51489461152E+03  0.52719581903E+03  0.00000000000E+00 0. -1.
        -14    1    4    4    0    0  0.64260357241E+01  0.73614439627E+01  0.29455248827E+01  0.10205925200E+02  0.00000000000E+00 0.  1.
        -13    1    3    3    0    0 -0.42098490957E+02  0.18188556220E+02 -0.68246208398E+01  0.46364662922E+02  0.00000000000E+00 0. -1.
         13    1    3    3    0    0  0.14805992517E+02 -0.21321769844E+02  0.54922963366E+02  0.60748392477E+02  0.00000000000E+00 0.  1.
          2    1    1    2  501    0  0.79339889784E+02 -0.10118094542E+03  0.81067193608E+02  0.15200095956E+03  0.00000000000E+00 0. -1.
<scales pt_clust_5="13000.00000" pt_clust_6="13000.00000" pt_clust_7="13000.00000" pt_clust_8="13000.00000" pt_clust_9="126.04891"></scales>
<clustering>
<clus scale="   83.975">  5  6 -1 -1</clus>
<clus scale="   91.679">  7  8 -1 -1</clus>
<clus scale="   95.707">  1  7  2 -1</clus>
<clus scale="  126.049">  2  9  1 -1</clus>
<clus scale="  126.049">  2  5  1 -1</clus>
</clustering>
</event>
<event>
 9    1  0.4731329E-005  0.1655762E+03  0.7546771E-02  0.1183455E+00
          1   -1    0    0  502    0 -0.00000000000E+00  0.00000000000E+00  0.12276587682E+04  0.12276587682E+04  0.00000000000E+00 0. -1.
         21   -1    0    0  501  502  0.00000000000E+00 -0.00000000000E+00 -0.80102170323E+02  0.80102170323E+02  0.00000000000E+00 0. -1.
         23    2    1    2    0    0  0.10016786867E+03 -0.63263938116E+02  0.64394250078E+03  0.66129311323E+03  0.92793908839E+02 0.  0.
        -24    2    1    2    0    0 -0.18177212482E+03  0.38587399609E+02  0.52061289145E+03  0.55953598315E+03  0.86675492094E+02 0.  0.
         13    1    4    4    0    0 -0.16208487694E+03  0.34503973226E+02  0.34457069859E+03  0.38234931388E+03  0.00000000000E+00 0. -1.
        -14    1    4    4    0    0 -0.19687247883E+02  0.40834263833E+01  0.17604219286E+03  0.17718666927E+03  0.00000000000E+00 0.  1.
        -11    1    3    3    0    0  0.93993019005E+02 -0.84857880053E+02  0.51034150831E+03  0.52581746123E+03  0.00000000000E+00 0.  1.
         11    1    3    3    0    0  0.61748496629E+01  0.21593941937E+02  0.13360099247E+03  0.13547565200E+03  0.00000000000E+00 0. -1.
          2    1    1    2  501    0  0.81604256154E+02  0.24676538507E+02 -0.16998794318E+02  0.86931842172E+02  0.00000000000E+00 0. -1.
<scales pt_clust_5="13000.00000" pt_clust_6="13000.00000" pt_clust_7="13000.00000" pt_clust_8="13000.00000" pt_clust_9="85.25366"></scales>
<clustering>
<clus scale="   85.254">  2  9  1 -1</clus>
<clus scale="   86.675">  5  6 -1 -1</clus>
<clus scale="   92.794">  7  8 -1 -1</clus>
<clus scale="  162.226">  2  5  1 -1</clus>
<clus scale="   85.254">  2  5  1 -1</clus>
</clustering>
</event>
<event>
 9    1  0.4731329E-005  0.1352292E+03  0.7546771E-02  0.1239241E+00
         -2   -1    0    0    0  501 -0.00000000000E+00  0.00000000000E+00  0.12280256179E+03  0.12280256179E+03  0.00000000000E+00 0.  1.
         21   -1    0    0  501  502  0.00000000000E+00 -0.00000000000E+00 -0.65255339024E+03  0.65255339024E+03  0.00000000000E+00 0.  1.
        -24    2    1    2    0    0  0.37690578664E+02 -0.19822194028E+02  0.54750450491E+02  0.10591770162E+03  0.80046540154E+02 0.  0.
         23    2    1    2    0    0  0.37786509584E+02 -0.41073232658E+02 -0.45792360864E+02  0.12206968878E+03  0.98433926356E+02 0.  0.
         11    1    3    3    0    0  0.78318802677E+01  0.24968342138E+02 -0.37316021260E+01  0.26432580504E+02  0.00000000000E+00 0. -1.
        -12    1    3    3    0    0  0.29858698396E+02 -0.44790536166E+02  0.58482052617E+02  0.79485121112E+02  0.00000000000E+00 0.  1.
        -13    1    4    4    0    0 -0.91876744729E+01  0.19206028835E+02  0.13617126947E+02  0.25272733373E+02  0.00000000000E+00 0. -1.
         13    1    4    4    0    0  0.46974184057E+02 -0.60279261494E+02 -0.59409487811E+02  0.96796955407E+02  0.00000000000E+00 0.  1.
         -1    1    1    2    0  502 -0.75477088248E+02  0.60895426686E+02 -0.53870891809E+03  0.54736856163E+03  0.00000000000E+00 0.  1.
<scales pt_clust_5="13000.00000" pt_clust_6="13000.00000" pt_clust_7="13000.00000" pt_clust_8="13000.00000" pt_clust_9="92.72373"></scales>
<clustering>
<clus scale="   80.047">  5  6 -1 -1</clus>
<clus scale="   90.669">  1  5  2 -1</clus>
<clus scale="   92.724">  2  9  1 -1</clus>
<clus scale="   98.434">  7  8 -1 -1</clus>
<clus scale="   92.724">  2  5  1 -1</clus>
</clustering>
</event>
<event>
 9    1  0.4731329E-005  0.9378093E+02  0.7546771E-02  0.1301826E+00
         -2   -1    0    0    0  501 -0.00000000000E+00  0.00000000000E+00  0.46809606159E+03  0.46809606159E+03  0.00000000000E+00 0.  1.
         21   -1    0    0  501  502  0.00000000000E+00 -0.00000000000E+00 -0.81965084196E+02  0.81965084196E+02  0.00000000000E+00 0.  1.
        -24    2    1    2    0    0 -0.13920365252E+02  0.66762941931E+01  0.24483679229E+03  0.25832099620E+03  0.80909410742E+02 0.  0.
         23    2    1    2    0    0 -0.94824353309E+01  0.13256643310E+02  0.20224792796E+03  0.22347323343E+03  0.93650448622E+02 0.  0.
         11    1    3    3    0    0  0.36276090256E+01  0.31032658947E+02  0.37445458033E+02  0.48768307289E+02  0.00000000000E+00 0. -1.
        -12    1    3    3    0    0 -0.17547974277E+02 -0.24356364754E+02  0.20739133426E+03  0.20955268891E+03  0.00000000000E+00 0.  1.
        -13    1    4    4    0    0  0.94817227726E+01 -0.36148864786E+02  0.50945479113E+02  0.63182951293E+02  0.00000000000E+00 0. -1.
         13    1    4    4    0    0 -0.18964158103E+02  0.49405508096E+02  0.15130244884E+03  0.16029028214E+03  0.00000000000E+00 0.  1.
         -1    1    1    2    0  502  0.23402800583E+02 -0.19932937503E+02 -0.60953742854E+02  0.68266916149E+02  0.00000000000E+00 0.  1.
<scales pt_clust_5="13000.00000" pt_clust_6="13000.00000" pt_clust_7="13000.00000" pt_clust_8="13000.00000" pt_clust_9="30.74106"></scales>
<clustering>
<clus scale="   30.741">  2  9  1 -1</clus>
<clus scale="   80.909">  5  6 -1 -1</clus>
<clus scale="   81.060">  1  5  2 -1</clus>
<clus scale="   93.650">  7  8 -1 -1</clus>
<clus scale="   30.741">  2  5  1 -1</clus>
</clustering>
</event>
<event>
 9    1  0.4731329E-005  0.9203617E+02  0.7546771E-02  0.1302303E+00
          1   -1    0    0  502    0 -0.00000000000E+00  0.00000000000E+00  0.15518470427E+03  0.15518470427E+03  0.00000000000E+00 0. -1.
         21   -1    0    0  501  502  0.00000000000E+00 -0.00000000000E+00 -0.16253558548E+03  0.16253558548E+03  0.00000000000E+00 0. -1.
        -24    2    1    2    0    0 -0.24814417566E+02 -0.39804454978E+02  0.76050930974E+02  0.12064350194E+03  0.81061461262E+02 0.  0.
         23    2    1    2    0    0 -0.51149788110E+01 -0.31532301791E+02 -0.17848187439E+02  0.95676692402E+02  0.88402616532E+02 0.  0.
         11    1    3    3    0    0 -0.38230597303E+01 -0.55145575680E+02  0.76809473466E+02  0.94632687360E+02  0.00000000000E+00 0. -1.
        -12    1    3    3    0    0 -0.20991357836E+02  0.15341120702E+02 -0.75854249210E+00  0.26010814576E+02  0.00000000000E+00 0.  1.
        -11    1    4    4    0    0 -0.38035106420E+02  0.71021934037E+01  0.67428457266E+01  0.39275646907E+02  0.00000000000E+00 0. -1.
         11    1    4    4    0    0  0.32920127609E+02 -0.38634495195E+02 -0.24591033166E+02  0.56401045495E+02  0.00000000000E+00 0.  1.
          2    1    1    2  501    0  0.29929396377E+02  0.71336756769E+02 -0.65553624746E+02  0.10140009542E+03  0.00000000000E+00 0. -1.
<scales pt_clust_5="13000.00000" pt_clust_6="13000.00000" pt_clust_7="13000.00000" pt_clust_8="13000.00000" pt_clust_9="77.36085"></scales>
<clustering>
<clus scale="   77.361">  2  9  1 -1</clus>
<clus scale="   81.061">  5  6 -1 -1</clus>
<clus scale="   85.009">  1  5  2 -1</clus>
<clus scale="   88.403">  7  8 -1 -1</clus>
<clus scale="   77.361">  2  5  1 -1</clus>
</clustering>
</event>
<event>
 9    1  0.4731329E-005  0.1522684E+03  0.7546771E-02  0.1220220E+00
         21   -1    0    0  501  502  0.00000000000E+00  0.00000000000E+00  0.27372069818E+03  0.27372069818E+03  0.00000000000E+00 0. -1.
          3   -1    0    0  502    0 -0.00000000000E+00 -0.00000000000E+00 -0.13415488178E+03  0.13415488178E+03  0.00000000000E+00 0. -1.
        -24    2    1    2    0    0 -0.25981595539E+02 -0.10104290082E+02  0.79547302911E+02  0.12320353176E+03  0.89856534844E+02 0.  0.
         23    2    1    2    0    0  0.60091780612E+02  0.10026322892E+03  0.91702862351E+02  0.18320265901E+03  0.10719170740E+03 0.  0.
         11    1    3    3    0    0 -0.51707716236E+02  0.83301253467E+01  0.20566461684E+02  0.56267737229E+02  0.00000000000E+00 0. -1.
        -12    1    3    3    0    0  0.25726120697E+02 -0.18434415429E+02  0.58980841226E+02  0.66935794535E+02  0.00000000000E+00 0.  1.
        -11    1    4    4    0    0  0.15613499399E+02  0.11003215638E+03  0.51624982004E+02  0.12253977137E+03  0.00000000000E+00 0. -1.
         11    1    4    4    0    0  0.44478281214E+02 -0.97689274660E+01  0.40077880347E+02  0.60662887639E+02  0.00000000000E+00 0.  1.
          4    1    1    2  501    0 -0.34110185073E+02 -0.90158938834E+02 -0.31684348866E+02  0.10146938918E+03  0.00000000000E+00 0. -1.
<scales pt_clust_5="13000.00000" pt_clust_6="13000.00000" pt_clust_7="13000.00000" pt_clust_8="13000.00000" pt_clust_9="108.14630"></scales>
<clustering>
<clus scale="   89.857">  5  6 -1 -1</clus>
<clus scale="   94.082">  2  5  1 -1</clus>
<clus scale="  107.192">  7  8 -1 -1</clus>
<clus scale="  108.146">  1  9  2 -1</clus>
<clus scale="  108.146">  1  5  2 -1</clus>
</clustering>
</event>
<event>
 9    1  0.4731329E-005  0.1481208E+03  0.7546771E-02  0.1205218E+00
         21   -1    0    0  501  502  0.00000000000E+00  0.00000000000E+00  0.21789705828E+03  0.21789705828E+03  0.00000000000E+00 0.  1.
          3   -1    0    0  502    0 -0.00000000000E+00 -0.00000000000E+00 -0.17177875632E+03  0.17177875632E+03  0.00000000000E+00 0. -1.
        -24    2    1    2    0    0 -0.31891153431E+02 -0.11008568577E+03 -0.69492263826E+02  0.15732772293E+03  0.82382848900E+02 0.  0.
         23    2    1    2    0    0  0.55344243391E+02  0.99259176162E+02  0.13484268883E+03  0.20014350666E+03  0.94654652282E+02 0.  0.
         11    1    3    3    0    0 -0.53514553897E+02 -0.10518509812E+03 -0.64905675933E+02  0.13468652165E+03  0.00000000000E+00 0. -1.
        -12    1    3    3    0    0  0.21623400466E+02 -0.49005876457E+01 -0.45865878923E+01  0.22641201281E+02  0.00000000000E+00 0.  1.
        -11    1    4    4    0    0  0.55922573510E+01  0.32998619328E+02 -0.85392251975E+01  0.34541288147E+02  0.00000000000E+00 0. -1.
         11    1    4    4    0    0  0.49751986040E+02  0.66260556834E+02  0.14338191402E+03  0.16560221851E+03  0.00000000000E+00 0.  1.
          4    1    1    2  501    0 -0.23453089960E+02  0.10826509608E+02 -0.19232123035E+02  0.32204585006E+02  0.00000000000E+00 0. -1.
<scales pt_clust_5="13000.00000" pt_clust_6="13000.00000" pt_clust_7="13000.00000" pt_clust_8="13000.00000" pt_clust_9="25.83140"></scales>
<clustering>
<clus scale="   25.831">  1  9  2 -1</clus>
<clus scale="   82.383">  5  6 -1 -1</clus>
<clus scale="   94.655">  7  8 -1 -1</clus>
<clus scale="  140.596">  2  5  1 -1</clus>
<clus scale="   25.831">  1  5  2 -1</clus>
</clustering>
</event>
<event>
 9    1  0.4731329E-005  0.9419663E+02  0.7546771E-02  0.1301231E+00
         -4   -1    0    0    0  501 -0.00000000000E+00  0.00000000000E+00  0.43095002083E+03  0.43095002083E+03  0.00000000000E+00 0.  1.
         21   -1    0    0  501  502  0.00000000000E+00 -0.00000000000E+00 -0.85923865813E+02  0.85923865813E+02  0.00000000000E+00 0.  1.
        -24    2    1    2    0    0  0.21073285091E+02  0.65345769889E+01  0.26529419229E+03  0.27807674640E+03  0.80367184764E+02 0.  0.
         23    2    1    2    0    0  0.30076678864E+02 -0.48742987660E+01  0.13258763664E+03  0.16522542284E+03  0.93763498024E+02 0.  0.
         11    1    3    3    0    0  0.35222672145E+02 -0.43163158454E+01  0.46187119992E+02  0.58245319715E+02  0.00000000000E+00 0. -1.
        -12    1    3    3    0    0 -0.14149387054E+02  0.10850892834E+02  0.21910707229E+03  0.21983142668E+03  0.00000000000E+00 0.  1.
        -11    1    4    4    0    0  0.29997676888E+02  0.42056514821E+02  0.69699241722E+02  0.86755952846E+02  0.00000000000E+00 0.  1.
         11    1    4    4    0    0  0.79001975599E-01 -0.46930813587E+02  0.62888394922E+02  0.78469469994E+02  0.00000000000E+00 0. -1.
         -3    1    1    2    0  502 -0.51149963955E+02 -0.16602782229E+01 -0.52855673915E+02  0.73571717401E+02  0.00000000000E+00 0.  1.
<scales pt_clust_5="13000.00000" pt_clust_6="13000.00000" pt_clust_7="13000.00000" pt_clust_8="13000.00000" pt_clust_9="51.17690"></scales>
<clustering>
<clus scale="   51.177">  2  9  1 -1</clus>
<clus scale="   80.367">  5  6 -1 -1</clus>
<clus scale="   80.872">  1  5  2 -1</clus>
<clus scale="   93.763">  7  8 -1 -1</clus>
<clus scale="   51.177">  2  5  1 -1</clus>
</clustering>
</event>
<event>
 9    1  0.4731329E-005  0.1093768E+03  0.7546771E-02  0.1266600E+00
         21   -1    0    0  501  502  0.00000000000E+00  0.00000000000E+00  0.17240988606E+03  0.17240988606E+03  0.00000000000E+00 0. -1.
          3   -1    0    0  502    0 -0.00000000000E+00 -0.00000000000E+00 -0.37137495512E+03  0.37137495512E+03  0.00000000000E+00 0. -1.
        -24    2    1    2    0    0 -0.53411040988E+02 -0.13046944841E+02 -0.20715258421E+03  0.22908946544E+03  0.80912470996E+02 0.  0.
         23    2    1    2    0    0  0.98438359722E+02  0.12616736546E+02  0.12800791591E+03  0.18669313768E+03  0.92838614894E+02 0.  0.
         13    1    3    3    0    0 -0.69804273323E+02 -0.27737516713E+02 -0.14791302897E+03  0.16589234626E+03  0.00000000000E+00 0. -1.
        -14    1    3    3    0    0  0.16393232335E+02  0.14690571872E+02 -0.59239555236E+02  0.63197119181E+02  0.00000000000E+00 0.  1.
        -11    1    4    4    0    0  0.79338356504E+02 -0.25880897045E+02  0.11442096606E+03  0.14162116056E+03  0.00000000000E+00 0. -1.
         11    1    4    4    0    0  0.19100003218E+02  0.38497633591E+02  0.13586949846E+02  0.45071977116E+02  0.00000000000E+00 0.  1.
          4    1    1    2  501    0 -0.45027318734E+02  0.43020829478E+00 -0.11982040076E+03  0.12800223807E+03  0.00000000000E+00 0. -1.
<scales pt_clust_5="13000.00000" pt_clust_6="13000.00000" pt_clust_7="13000.00000" pt_clust_8="13000.00000" pt_clust_9="45.02940"></scales>
<clustering>
<clus scale="   45.029">  1  9  2 -1</clus>
<clus scale="   80.912">  5  6 -1 -1</clus>
<clus scale="   92.839">  7  8 -1 -1</clus>
<clus scale="   99.454">  2  5  1 -1</clus>
<clus scale="   45.029">  1  5  2 -1</clus>
</clustering>
</event>
<event>
 9    1  0.4731329E-005  0.1163774E+03  0.7546771E-02  0.1251752E+00
          1   -1    0    0  502    0 -0.00000000000E+00  0.00000000000E+00  0.46680737892E+03  0.46680737892E+03  0.00000000000E+00 0. -1.
         21   -1    0    0  501  502  0.00000000000E+00 -0.00000000000E+00 -0.86316523963E+02  0.86316523963E+02  0.00000000000E+00 0. -1.
         23    2    1    2    0    0 -0.41554265599E+02 -0.52697366361E+02  0.28493225361E+03  0.30631338558E+03  0.90209376599E+02 0.  0.
        -24    2    1    2    0    0  0.10802298130E+03  0.24383323835E+02  0.10556794813E+03  0.17387244635E+03  0.82604630370E+02 0.  0.
         11    1    4    4    0    0  0.11498350068E+03  0.33778140523E+02  0.10867000567E+03  0.16177558017E+03  0.00000000000E+00 0. -1.
        -12    1    4    4    0    0 -0.69605193744E+01 -0.93948166881E+01 -0.31020575446E+01  0.12096866188E+02  0.00000000000E+00 0.  1.
        -13    1    3    3    0    0  0.23710124725E+02  0.24307468181E+01  0.36412537320E+02  0.43519552143E+02  0.00000000000E+00 0.  1.
         13    1    3    3    0    0 -0.65264390324E+02 -0.55128113179E+02  0.24851971629E+03  0.26279383344E+03  0.00000000000E+00 0. -1.
          2    1    1    2  501    0 -0.66468715702E+02  0.28314042526E+02 -0.10009346782E+02  0.72938070952E+02  0.00000000000E+00 0. -1.
<scales pt_clust_5="13000.00000" pt_clust_6="13000.00000" pt_clust_7="13000.00000" pt_clust_8="13000.00000" pt_clust_9="72.24801"></scales>
<clustering>
<clus scale="   72.248">  2  9  1 -1</clus>
<clus scale="   82.605">  5  6 -1 -1</clus>
<clus scale="   90.209">  7  8 -1 -1</clus>
<clus scale="  110.587">  2  5  1 -1</clus>
<clus scale="   72.248">  2  5  1 -1</clus>
</clustering>
</event>
<event>
 9    1  0.4731329E-005  0.9674285E+02  0.7546771E-02  0.1298199E+00
          1   -1    0    0  502    0 -0.00000000000E+00  0.00000000000E+00  0.22400169968E+03  0.22400169968E+03  0.00000000000E+00 0. -1.
         21   -1    0    0  501  502  0.00000000000E+00 -0.00000000000E+00 -0.67542929130E+02  0.67542929130E+02  0.00000000000E+00 0.  1.
        -24    2    1    2    0    0  0.21424039773E+01  0.68346376799E+00  0.82310423344E+02  0.11380241244E+03  0.78555243415E+02 0.  0.
         23    2    1    2    0    0 -0.66738386866E+01 -0.27452034053E+02  0.18275636583E+01  0.10049335885E+03  0.96423134608E+02 0.  0.
         13    1    3    3    0    0 -0.21980252334E+02  0.81649274290E+01  0.85212836915E+02  0.88380004004E+02  0.00000000000E+00 0. -1.
        -14    1    3    3    0    0  0.24122656311E+02 -0.74814636610E+01 -0.29024135712E+01  0.25422408434E+02  0.00000000000E+00 0.  1.
        -11    1    4    4    0    0 -0.49819268457E+02 -0.20430266914E+02 -0.10956882121E+02  0.54949145412E+02  0.00000000000E+00 0.  1.
         11    1    4    4    0    0  0.43145429770E+02 -0.70217671383E+01  0.12784445779E+02  0.45544213438E+02  0.00000000000E+00 0. -1.
          2    1    1    2  501    0  0.45314347094E+01  0.26768570285E+02  0.72320783551E+02  0.77248857525E+02  0.00000000000E+00 0. -1.
<scales pt_clust_5="13000.00000" pt_clust_6="13000.00000" pt_clust_7="13000.00000" pt_clust_8="13000.00000" pt_clust_9="27.14942"></scales>
<clustering>
<clus scale="   27.149">  2  9  1 -1</clus>
<clus scale="   78.555">  5  6 -1 -1</clus>
<clus scale="   78.947">  1  5  2 -1</clus>
<clus scale="   96.423">  7  8 -1 -1</clus>
<clus scale="   27.149">  2  5  1 -1</clus>
</clustering>
</event>
<event>
 9    1  0.4731329E-005  0.1386162E+03  0.7546771E-02  0.1228945E+00
         -2   -1    0    0    0  501 -0.00000000000E+00  0.00000000000E+00  0.37228793551E+03  0.37228793551E+03  0.00000000000E+00 0.  1.
         21   -1    0    0  501  502  0.00000000000E+00 -0.00000000000E+00 -0.11122564845E+03  0.11122564845E+03  0.00000000000E+00 0.  1.
         23    2    1    2    0    0  0.46768788843E+02 -0.41240250871E+01  0.89402650418E+01  0.10435976222E+03  0.92772325823E+02 0.  0.
        -24    2    1    2    0    0  0.77335135352E+02 -0.78126099779E+01  0.22564522219E+03  0.25169681649E+03  0.79960997373E+02 0.  0.
         11    1    4    4    0    0  0.23883834450E+02  0.10514105771E+02  0.86910419941E+01  0.27504875552E+02  0.00000000000E+00 0. -1.
        -12    1    4    4    0    0  0.53451300902E+02 -0.18326715749E+02  0.21695418020E+03  0.22419194094E+03  0.00000000000E+00 0.  1.
        -11    1    3    3    0    0  0.69947555347E+02 -0.14643031770E+02  0.23260507680E+02  0.75154042446E+02  0.00000000000E+00 0.  1.
         11    1    3    3    0    0 -0.23178766504E+02  0.10519006683E+02 -0.14320242638E+02  0.29205719773E+02  0.00000000000E+00 0. -1.
         -1    1    1    2    0  502 -0.12410392419E+03  0.11936635065E+02  0.26476799828E+02  0.12745700525E+03  0.00000000000E+00 0.  1.
<scales pt_clust_5="13000.00000" pt_clust_6="13000.00000" pt_clust_7="13000.00000" pt_clust_8="13000.00000" pt_clust_9="113.22844"></scales>
<clustering>
<clus scale="   79.961">  5  6 -1 -1</clus>
<clus scale="   92.772">  7  8 -1 -1</clus>
<clus scale="  103.976">  1  7  2 -1</clus>
<clus scale="  113.228">  2  9  1 -1</clus>
<clus scale="  113.228">  2  5  1 -1</clus>
</clustering>
</event>
<event>
 9    1  0.4731329E-005  0.1337427E+03  0.7546771E-02  0.1234396E+00
         21   -1    0    0  501  502  0.00000000000E+00  0.00000000000E+00  0.11044778110E+03  0.11044778110E+03  0.00000000000E+00 0. -1.
          1   -1    0    0  502    0 -0.00000000000E+00 -0.00000000000E+00 -0.40895549119E+03  0.40895549119E+03  0.00000000000E+00 0. -1.
         23    2    1    2    0    0 -0.44687505399E+02 -0.16758459326E+02 -0.24758459914E+03  0.26833608676E+03  0.91805787550E+02 0.  0.
        -24    2    1    2    0    0 -0.63965454365E+02  0.66604323878E+02 -0.47620982493E+02  0.13148048087E+03  0.80570736409E+02 0.  0.
         13    1    4    4    0    0 -0.55417133022E+02  0.81645729983E+02 -0.54658011878E+02  0.11280328949E+03  0.00000000000E+00 0. -1.
        -14    1    4    4    0    0 -0.85483213433E+01 -0.15041406106E+02  0.70370293853E+01  0.18677191384E+02  0.00000000000E+00 0.  1.
        -11    1    3    3    0    0 -0.16183372525E+02 -0.54058348306E+02 -0.14092202530E+03  0.15179994658E+03  0.00000000000E+00 0. -1.
         11    1    3    3    0    0 -0.28504132874E+02  0.37299888981E+02 -0.10666257385E+03  0.11653614018E+03  0.00000000000E+00 0.  1.
          2    1    1    2  501    0  0.10865295976E+03 -0.49845864552E+02 -0.33021284479E+01  0.11958670466E+03  0.00000000000E+00 0. -1.
<scales pt_clust_5="13000.00000" pt_clust_6="13000.00000" pt_clust_7="13000.00000" pt_clust_8="13000.00000" pt_clust_9="106.74959"></scales>
<clustering>
<clus scale="   80.571">  5  6 -1 -1</clus>
<clus scale="   91.806">  7  8 -1 -1</clus>
<clus scale="  103.470">  2  7  1 -1</clus>
<clus scale="  106.750">  1  9  2 -1</clus>
<clus scale="  106.750">  1  5  2 -1</clus>
</clustering>
</event>
<event>
 9    1  0.4731329E-005  0.1421256E+03  0.7546771E-02  0.1215236E+00
         21   -1    0    0  501  502  0.00000000000E+00  0.00000000000E+00  0.21395603102E+03  0.21395603102E+03  0.00000000000E+00 0. -1.
          1   -1    0    0  502    0 -0.00000000000E+00 -0.00000000000E+00 -0.19636228304E+03  0.19636228304E+03  0.00000000000E+00 0. -1.
         23    2    1    2    0    0 -0.71742560518E+02 -0.43238763094E+02 -0.11106134244E+02  0.13146312710E+03  0.10071058508E+03 0.  0.
        -24    2    1    2    0    0  0.32362715744E+02  0.12662224899E+03 -0.46011193162E+02  0.16017358485E+03  0.80361732678E+02 0.  0.
         11    1    4    4    0    0  0.40226525119E+02  0.13280354589E+03 -0.52375928207E+02  0.14831787815E+03  0.00000000000E+00 0. -1.
        -12    1    4    4    0    0 -0.78638093751E+01 -0.61812968982E+01  0.63647350451E+01  0.11855706703E+02  0.00000000000E+00 0.  1.
        -11    1    3    3    0    0 -0.20102817357E+02 -0.64355378045E+02  0.16211426313E+02  0.69343696845E+02  0.00000000000E+00 0.  1.
         11    1    3    3    0    0 -0.51639743161E+02  0.21116614951E+02 -0.27317560557E+02  0.62119430258E+02  0.00000000000E+00 0. -1.
          2    1    1    2  501    0  0.39379844774E+02 -0.83383485893E+02  0.74711075389E+02  0.11868160211E+03  0.00000000000E+00 0. -1.
<scales pt_clust_5="13000.00000" pt_clust_6="13000.00000" pt_clust_7="13000.00000" pt_clust_8="13000.00000" pt_clust_9="92.21485"></scales>
<clustering>
<clus scale="   80.362">  5  6 -1 -1</clus>
<clus scale="   92.215">  1  9  2 -1</clus>
<clus scale="  100.711">  7  8 -1 -1</clus>
<clus scale="  128.511">  1  5  2 -1</clus>
<clus scale="   92.215">  1  5  2 -1</clus>
</clustering>
</event>
<event>
 9    1  0.4731329E-005  0.1050701E+03  0.7546771E-02  0.1272738E+00
          1   -1    0    0  502    0 -0.00000000000E+00  0.00000000000E+00  0.26715893014E+03  0.26715893014E+03  0.00000000000E+00 0. -1.
         21   -1    0    0  501  502  0.00000000000E+00 -0.00000000000E+00 -0.83181204627E+02  0.83181204627E+02  0.00000000000E+00 0.  1.
         23    2    1    2    0    0 -0.39503220511E+02 -0.23474822375E+02  0.17936669215E+03  0.20706196276E+03  0.92685891338E+02 0.  0.
        -24    2    1    2    0    0  0.64868818505E+02  0.71218609648E+01  0.18766547912E+02  0.10994333286E+03  0.86467731564E+02 0.  0.
         13    1    4    4    0    0 -0.19421950954E+02  0.11773715755E+02  0.10800671644E+02  0.25149295606E+02  0.00000000000E+00 0. -1.
        -14    1    4    4    0    0  0.84290769458E+02 -0.46518547904E+01  0.79658762687E+01  0.84794037253E+02  0.00000000000E+00 0.  1.
        -13    1    3    3    0    0 -0.51121848332E+02  0.22325960953E+02  0.87809077501E+02  0.10403040902E+03  0.00000000000E+00 0. -1.
         13    1    3    3    0    0  0.11618627821E+02 -0.45800783328E+02  0.91557614651E+02  0.10303155374E+03  0.00000000000E+00 0.  1.
          2    1    1    2  501    0 -0.25365597993E+02  0.16352961410E+02 -0.14155514554E+02  0.33334839143E+02  0.00000000000E+00 0. -1.
<scales pt_clust_5="13000.00000" pt_clust_6="13000.00000" pt_clust_7="13000.00000" pt_clust_8="13000.00000" pt_clust_9="30.18001"></scales>
<clustering>
<clus scale="   30.180">  2  9  1 -1</clus>
<clus scale="   86.468">  5  6 -1 -1</clus>
<clus scale="   92.686">  7  8 -1 -1</clus>
<clus scale="   99.628">  2  5  1 -1</clus>
<clus scale="   30.180">  2  5  1 -1</clus>
</clustering>
</event>
<event>
 9    1  0.4731329E-005  0.1432424E+03  0.7546771E-02  0.1227854E+00
         21   -1    0    0  501  502  0.00000000000E+00  0.00000000000E+00  0.18173815148E+03  0.18173815148E+03  0.00000000000E+00 0. -1.
          1   -1    0    0  502    0 -0.00000000000E+00 -0.00000000000E+00 -0.19603649814E+03  0.19603649814E+03  0.00000000000E+00 0. -1.
        -24    2    1    2    0    0  0.24659764719E+02  0.47840465490E+02 -0.47044587660E+02  0.10724568402E+03  0.79947666499E+02 0.  0.
         23    2    1    2    0    0  0.75733959882E+02  0.25396224617E+02 -0.37990663098E+02  0.12753867811E+03  0.91881570655E+02 0.  0.
         13    1    3    3    0    0  0.47018941378E+02  0.53320068050E+01 -0.31154427406E+02  0.56655180627E+02  0.00000000000E+00 0. -1.
        -14    1    3    3    0    0 -0.22359176660E+02  0.42508458685E+02 -0.15890160254E+02  0.50590503393E+02  0.00000000000E+00 0.  1.
        -13    1    4    4    0    0  0.14563022638E+02 -0.33065825054E+02 -0.39990752478E+01  0.36351382611E+02  0.00000000000E+00 0.  1.
         13    1    4    4    0    0  0.61170937244E+02  0.58462049672E+02 -0.33991587850E+02  0.91187295495E+02  0.00000000000E+00 0. -1.
          2    1    1    2  501    0 -0.10039372460E+03 -0.73236690108E+02  0.70736904095E+02  0.14299028750E+03  0.00000000000E+00 0. -1.
<scales pt_clust_5="13000.00000" pt_clust_6="13000.00000" pt_clust_7="13000.00000" pt_clust_8="13000.00000" pt_clust_9="109.89162"></scales>
<clustering>
<clus scale="   79.948">  5  6 -1 -1</clus>
<clus scale="   91.882">  7  8 -1 -1</clus>
<clus scale="   96.377">  2  5  1 -1</clus>
<clus scale="  109.892">  1  9  2 -1</clus>
<clus scale="  109.892">  1  5  2 -1</clus>
</clustering>
</event>
<event>
 9    1  0.4731329E-005  0.1437294E+03  0.7546771E-02  0.1212442E+00
          1   -1    0    0  502    0 -0.00000000000E+00  0.00000000000E+00  0.38811677508E+03  0.38811677508E+03  0.00000000000E+00 0. -1.
         21   -1    0    0  501  502  0.00000000000E+00 -0.00000000000E+00 -0.92626776988E+02  0.92626776988E+02  0.00000000000E+00 0.  1.
         23    2    1    2    0    0 -0.92377686124E+02 -0.13023341261E+01  0.26289637443E+03  0.29369626962E+03  0.92777487208E+02 0.  0.
        -24    2    1    2    0    0  0.98501881712E+02  0.28755379452E+02  0.83933089109E+01  0.14994161303E+03  0.10900709671E+03 0.  0.
         11    1    4    4    0    0  0.86855048856E+02 -0.15473966369E+02  0.37355861997E+02  0.95805550844E+02  0.00000000000E+00 0. -1.
        -12    1    4    4    0    0  0.11646832856E+02  0.44229345821E+02 -0.28962553086E+02  0.54136062182E+02  0.00000000000E+00 0.  1.
        -11    1    3    3    0    0 -0.21765682301E+02 -0.23276654322E+02  0.15411537628E+02  0.35398630687E+02  0.00000000000E+00 0.  1.
         11    1    3    3    0    0 -0.70612003824E+02  0.21974320196E+02  0.24748483680E+03  0.25829763893E+03  0.00000000000E+00 0. -1.
          2    1    1    2  501    0 -0.61241955875E+01 -0.27453045326E+02  0.24200314756E+02  0.37105669426E+02  0.00000000000E+00 0. -1.
<scales pt_clust_5="13000.00000" pt_clust_6="13000.00000" pt_clust_7="13000.00000" pt_clust_8="13000.00000" pt_clust_9="28.12786"></scales>
<clustering>
<clus scale="   28.128">  2  9  1 -1</clus>
<clus scale="   92.777">  7  8 -1 -1</clus>
<clus scale="  109.007">  5  6 -1 -1</clus>
<clus scale="  131.846">  1  7  2 -1</clus>
<clus scale="   28.128">  2  5  1 -1</clus>
</clustering>
</event>
<event>
 9    1  0.4731329E-005  0.9554275E+02  0.7546771E-02  0.1297746E+00
         21   -1    0    0  501  502  0.00000000000E+00  0.00000000000E+00  0.45466607030E+02  0.45466607030E+02  0.00000000000E+00 0.  1.
          1   -1    0    0  502    0 -0.00000000000E+00 -0.00000000000E+00 -0.33354116376E+03  0.33354116376E+03  0.00000000000E+00 0. -1.
        -24    2    1    2    0    0  0.21986228159E+02  0.24097536778E+02 -0.16709682436E+03  0.18800431597E+03  0.79750790617E+02 0.  0.
         23    2    1    2    0    0  0.18684462431E+02 -0.40849813768E+01 -0.51520755833E+02  0.10806444689E+03  0.93046978410E+02 0.  0.
         11    1    3    3    0    0  0.57682937675E+01 -0.29462444414E+02 -0.52643492413E+02  0.60602360823E+02  0.00000000000E+00 0. -1.
        -12    1    3    3    0    0  0.16217934391E+02  0.53559981192E+02 -0.11445333195E+03  0.12740195515E+03  0.00000000000E+00 0.  1.
        -11    1    4    4    0    0 -0.12579164218E+02 -0.20107049167E+02  0.18264774062E+02  0.29935443377E+02  0.00000000000E+00 0.  1.
         11    1    4    4    0    0  0.31263626649E+02  0.16022067790E+02 -0.69785529895E+02  0.78129003515E+02  0.00000000000E+00 0. -1.
          2    1    1    2  501    0 -0.40670690590E+02 -0.20012555402E+02 -0.69456976533E+02  0.82939007926E+02  0.00000000000E+00 0. -1.
<scales pt_clust_5="13000.00000" pt_clust_6="13000.00000" pt_clust_7="13000.00000" pt_clust_8="13000.00000" pt_clust_9="45.32780"></scales>
<clustering>
<clus scale="   45.328">  1  9  2 -1</clus>
<clus scale="   79.751">  5  6 -1 -1</clus>
<clus scale="   82.649">  2  5  1 -1</clus>
<clus scale="   93.047">  7  8 -1 -1</clus>
<clus scale="   45.328">  1  5  2 -1</clus>
</clustering>
</event>
<event>
 9    1  0.4731329E-005  0.9778128E+02  0.7546771E-02  0.1291206E+00
         -2   -1    0    0    0  501 -0.00000000000E+00  0.00000000000E+00  0.26061402535E+03  0.26061402535E+03  0.00000000000E+00 0.  1.
         21   -1    0    0  501  502  0.00000000000E+00 -0.00000000000E+00 -0.10149897896E+03  0.10149897896E+03  0.00000000000E+00 0.  1.
        -24    2    1    2    0    0 -0.34781504755E+02  0.37768233736E+02  0.15184873672E+03  0.17840561038E+03  0.78321966376E+02 0.  0.
         23    2    1    2    0    0  0.29342613226E+02  0.34448713291E+02  0.34187173411E+02  0.10644419516E+03  0.90077195005E+02 0.  0.
         11    1    3    3    0    0  0.15145094406E+02  0.18602142438E+02  0.85717748469E+01  0.25473298017E+02  0.00000000000E+00 0. -1.
        -12    1    3    3    0    0 -0.49926599160E+02  0.19166091298E+02  0.14327696188E+03  0.15293231236E+03  0.00000000000E+00 0.  1.
        -11    1    4    4    0    0  0.16807139155E+02 -0.28822023344E+02 -0.16770971402E+00  0.33364907954E+02  0.00000000000E+00 0. -1.
         11    1    4    4    0    0  0.12535474071E+02  0.63270736635E+02  0.34354883125E+02  0.73079287210E+02  0.00000000000E+00 0.  1.
         -1    1    1    2    0  502  0.54388915285E+01 -0.72216947026E+02 -0.26920863748E+02  0.77263198768E+02  0.00000000000E+00 0.  1.
<scales pt_clust_5="13000.00000" pt_clust_6="13000.00000" pt_clust_7="13000.00000" pt_clust_8="13000.00000" pt_clust_9="72.42147"></scales>
<clustering>
<clus scale="   72.421">  2  9  1 -1</clus>
<clus scale="   78.322">  5  6 -1 -1</clus>
<clus scale="   87.072">  1  5  2 -1</clus>
<clus scale="   90.077">  7  8 -1 -1</clus>
<clus scale="   72.421">  2  5  1 -1</clus>
</clustering>
</event>
<event>
 9    1  0.4731329E-005  0.9478489E+02  0.7546771E-02  0.1295686E+00
         21   -1    0    0  501  502  0.00000000000E+00  0.00000000000E+00  0.28068665331E+03  0.28068665331E+03  0.00000000000E+00 0. -1.
          1   -1    0    0  502    0 -0.00000000000E+00 -0.00000000000E+00 -0.16137470218E+03  0.16137470218E+03  0.00000000000E+00 0. -1.
        -24    2    1    2    0    0 -0.30142781177E+02 -0.26299422352E+02 -0.11191932195E+03  0.14338625822E+03  0.80208712421E+02 0.  0.
         23    2    1    2    0    0  0.28881536690E+02 -0.55959577731E+01  0.33440636361E+02  0.98325298214E+02  0.87659170677E+02 0.  0.
         11    1    3    3    0    0 -0.23377598748E+02 -0.44894659436E+02 -0.11274027333E+03  0.12358159976E+03  0.00000000000E+00 0. -1.
        -12    1    3    3    0    0 -0.67651824294E+01  0.18595237084E+02  0.82095138226E+00  0.19804658459E+02  0.00000000000E+00 0.  1.
        -13    1    4    4    0    0  0.58461235855E+02 -0.16439909048E+02  0.25282588601E+02  0.65781425901E+02  0.00000000000E+00 0. -1.
         13    1    4    4    0    0 -0.29579699165E+02  0.10843951274E+02  0.81580477602E+01  0.32543872314E+02  0.00000000000E+00 0.  1.
          2    1    1    2  501    0  0.12612444870E+01  0.31895380125E+02  0.19779063672E+03  0.20034979906E+03  0.00000000000E+00 0. -1.
<scales pt_clust_5="13000.00000" pt_clust_6="13000.00000" pt_clust_7="13000.00000" pt_clust_8="13000.00000" pt_clust_9="31.92031"></scales>
<clustering>
<clus scale="   31.920">  1  9  2 -1</clus>
<clus scale="   80.209">  5  6 -1 -1</clus>
<clus scale="   87.659">  7  8 -1 -1</clus>
<clus scale="   87.940">  2  5  1 -1</clus>
<clus scale="   31.920">  1  5  2 -1</clus>
</clustering>
</event>
<event>
 9    1  0.4731329E-005  0.1543007E+03  0.7546771E-02  0.1197612E+00
         21   -1    0    0  501  502  0.00000000000E+00  0.00000000000E+00  0.59698926499E+02  0.59698926499E+02  0.00000000000E+00 0.  1.
          3   -1    0    0  502    0 -0.00000000000E+00 -0.00000000000E+00 -0.62870557718E+03  0.62870557718E+03  0.00000000000E+00 0. -1.
         23    2    1    2    0    0 -0.56147704427E+02  0.12029656163E+03 -0.33887776795E+03  0.37588521128E+03  0.93955963088E+02 0.  0.
        -24    2    1    2    0    0  0.39720232120E+02 -0.10523165630E+03 -0.24793619878E+03  0.28399011918E+03  0.80787565866E+02 0.  0.
         13    1    4    4    0    0 -0.23628026848E+02 -0.22661798752E+02 -0.42014712331E+02  0.53264217141E+02  0.00000000000E+00 0. -1.
        -14    1    4    4    0    0  0.63348258969E+02 -0.82569857551E+02 -0.20592148645E+03  0.23072590204E+03  0.00000000000E+00 0.  1.
        -13    1    3    3    0    0 -0.13850571585E+02  0.47306915340E+02 -0.24399126805E+03  0.24892071319E+03  0.00000000000E+00 0. -1.
         13    1    3    3    0    0 -0.42297132842E+02  0.72989646291E+02 -0.94886499899E+02  0.12696449809E+03  0.00000000000E+00 0.  1.
          4    1    1    2  501    0  0.16427472307E+02 -0.15064905328E+02  0.17807316054E+02  0.28529173208E+02  0.00000000000E+00 0. -1.
<scales pt_clust_5="13000.00000" pt_clust_6="13000.00000" pt_clust_7="13000.00000" pt_clust_8="13000.00000" pt_clust_9="22.28931"></scales>
<clustering>
<clus scale="   22.289">  1  9  2 -1</clus>
<clus scale="   80.788">  5  6 -1 -1</clus>
<clus scale="   93.956">  7  8 -1 -1</clus>
<clus scale="  146.655">  1  5  2 -1</clus>
<clus scale="   22.289">  1  5  2 -1</clus>
</clustering>
</event>
<event>
 9    1  0.4731329E-005  0.8713683E+02  0.7546771E-02  0.1315881E+00
          1   -1    0    0  502    0 -0.00000000000E+00  0.00000000000E+00  0.12936100310E+03  0.12936100310E+03  0.00000000000E+00 0. -1.
         21   -1    0    0  501  502  0.00000000000E+00 -0.00000000000E+00 -0.14946495449E+03  0.14946495449E+03  0.00000000000E+00 0. -1.
        -24    2    1    2    0    0 -0.13195312238E+02 -0.83960704232E+01  0.10633829634E+02  0.76873074943E+02  0.74510274827E+02 0.  0.
         23    2    1    2    0    0  0.91277310464E+01  0.59453942174E+02 -0.80276042352E+02  0.13069636843E+03  0.83780731854E+02 0.  0.
         13    1    3    3    0    0 -0.33519814875E+02 -0.43088000984E+01  0.32397226499E+02  0.46815852362E+02  0.00000000000E+00 0. -1.
        -14    1    3    3    0    0  0.20324502637E+02 -0.40872703247E+01 -0.21763396866E+02  0.30057222581E+02  0.00000000000E+00 0.  1.
        -13    1    4    4    0    0 -0.33436171820E+02  0.48966834081E+02 -0.46900043686E+02  0.75599884415E+02  0.00000000000E+00 0. -1.
         13    1    4    4    0    0  0.42563902867E+02  0.10487108093E+02 -0.33375998667E+02  0.55096484011E+02  0.00000000000E+00 0.  1.
          2    1    1    2  501    0  0.40675811920E+01 -0.51057871751E+02  0.49538261323E+02  0.71256514224E+02  0.00000000000E+00 0. -1.
<scales pt_clust_5="13000.00000" pt_clust_6="13000.00000" pt_clust_7="13000.00000" pt_clust_8="13000.00000" pt_clust_9="51.21967"></scales>
<clustering>
<clus scale="   51.220">  2  9  1 -1</clus>
<clus scale="   74.510">  5  6 -1 -1</clus>
<clus scale="   78.265">  1  5  2 -1</clus>
<clus scale="   83.781">  7  8 -1 -1</clus>
<clus scale="   51.220">  2  5  1 -1</clus>
</clustering>
</event>
<event>
 9    1  0.4731329E-005  0.1356874E+03  0.7546771E-02  0.1221812E+00
          1   -1    0    0  502    0 -0.00000000000E+00  0.00000000000E+00  0.53000633746E+03  0.53000633746E+03  0.00000000000E+00 0. -1.
         21   -1    0    0  501  502  0.00000000000E+00 -0.00000000000E+00 -0.67633858941E+02  0.67633858941E+02  0.00000000000E+00 0. -1.
         23    2    1    2    0    0 -0.11145559049E+03  0.15434208127E+02  0.12870365588E+03  0.19363042107E+03  0.90926044095E+02 0.  0.
        -24    2    1    2    0    0  0.79575537723E+02 -0.47778135858E+02  0.80017275881E+02  0.14632474550E+03  0.79957177521E+02 0.  0.
         13    1    4    4    0    0  0.70534559591E+02 -0.20367754412E+02  0.89669720264E+02  0.11589058740E+03  0.00000000000E+00 0. -1.
        -14    1    4    4    0    0  0.90409781316E+01 -0.27410381446E+02 -0.96524443835E+01  0.30434158099E+02  0.00000000000E+00 0.  1.
        -11    1    3    3    0    0 -0.11576005362E+03 -0.11348600865E+02  0.11358489432E+03  0.16257524096E+03  0.00000000000E+00 0.  1.
         11    1    3    3    0    0  0.43044631349E+01  0.26782808992E+02  0.15118761565E+02  0.31055180110E+02  0.00000000000E+00 0. -1.
          2    1    1    2  501    0  0.31880052766E+02  0.32343927731E+02  0.25365154676E+03  0.25768502983E+03  0.00000000000E+00 0. -1.
<scales pt_clust_5="13000.00000" pt_clust_6="13000.00000" pt_clust_7="13000.00000" pt_clust_8="13000.00000" pt_clust_9="45.41442"></scales>
<clustering>
<clus scale="   45.414">  2  9  1 -1</clus>
<clus scale="   79.957">  5  6 -1 -1</clus>
<clus scale="   90.926">  7  8 -1 -1</clus>
<clus scale="  128.595">  2  5  1 -1</clus>
<clus scale="   45.414">  2  5  1 -1</clus>
</clustering>
</event>
<event>
 9    1  0.4731329E-005  0.1307494E+03  0.7546771E-02  0.1242601E+00
         21   -1    0    0  501  502  0.00000000000E+00  0.00000000000E+00  0.26067563147E+03  0.26067563147E+03  0.00000000000E+00 0. -1.
          1   -1    0    0  502    0 -0.00000000000E+00 -0.00000000000E+00 -0.30623222814E+03  0.30623222814E+03  0.00000000000E+00 0. -1.
         23    2    1    2    0    0  0.24268399154E+02  0.24208682992E+01 -0.21412188007E+03  0.23372758236E+03  0.90474236267E+02 0.  0.
        -24    2    1    2    0    0  0.58773541485E+01 -0.10517106151E+03 -0.41076954753E+01  0.12999975092E+03  0.76076058041E+02 0.  0.
         13    1    4    4    0    0  0.35202285334E+02 -0.28926491874E+02  0.11127477584E+02  0.46901637309E+02  0.00000000000E+00 0. -1.
        -14    1    4    4    0    0 -0.29324931186E+02 -0.76244569638E+02 -0.15235173059E+02  0.83098113615E+02  0.00000000000E+00 0.  1.
        -13    1    3    3    0    0  0.25917554580E+02  0.26764027612E+02 -0.20389692019E+03  0.20727273547E+03  0.00000000000E+00 0.  1.
         13    1    3    3    0    0 -0.16491554255E+01 -0.24343159313E+02 -0.10224959887E+02  0.26454846884E+02  0.00000000000E+00 0. -1.
          2    1    1    2  501    0 -0.30145753303E+02  0.10275019321E+03  0.17267297888E+03  0.20318052634E+03  0.00000000000E+00 0. -1.
<scales pt_clust_5="13000.00000" pt_clust_6="13000.00000" pt_clust_7="13000.00000" pt_clust_8="13000.00000" pt_clust_9="106.33828"></scales>
<clustering>
<clus scale="   76.076">  5  6 -1 -1</clus>
<clus scale="   90.474">  7  8 -1 -1</clus>
<clus scale="   93.704">  2  7  1 -1</clus>
<clus scale="  106.338">  1  9  2 -1</clus>
<clus scale="  106.338">  1  5  2 -1</clus>
</clustering>
</event>
<event>
 9    1  0.4731329E-005  0.1131974E+03  0.7546771E-02  0.1258877E+00
          1   -1    0    0  502    0 -0.00000000000E+00  0.00000000000E+00  0.12151450051E+03  0.12151450051E+03  0.00000000000E+00 0. -1.
         21   -1    0    0  501  502  0.00000000000E+00 -0.00000000000E+00 -0.27216349605E+03  0.27216349605E+03  0.00000000000E+00 0.  1.
        -24    2    1    2    0    0  0.29102418849E+02 -0.12011674910E+02 -0.10180517388E+03  0.13340724053E+03  0.80261866899E+02 0.  0.
         23    2    1    2    0    0 -0.99975647773E+02  0.37586703373E+02 -0.97019488198E+02  0.17083926546E+03  0.91462468345E+02 0.  0.
         13    1    3    3    0    0 -0.27888205637E+02 -0.80950891691E+01 -0.32148375459E+02  0.43322055895E+02  0.00000000000E+00 0. -1.
        -14    1    3    3    0    0  0.56990624486E+02 -0.39165857412E+01 -0.69656798425E+02  0.90085184631E+02  0.00000000000E+00 0.  1.
        -11    1    4    4    0    0 -0.21652866703E+02  0.13406165988E+02  0.16848361090E+02  0.30535867342E+02  0.00000000000E+00 0. -1.
         11    1    4    4    0    0 -0.78322781071E+02  0.24180537385E+02 -0.11386784929E+03  0.14030339812E+03  0.00000000000E+00 0.  1.
          2    1    1    2  501    0  0.70873228925E+02 -0.25575028463E+02  0.48175666537E+02  0.89431490569E+02  0.00000000000E+00 0. -1.
<scales pt_clust_5="13000.00000" pt_clust_6="13000.00000" pt_clust_7="13000.00000" pt_clust_8="13000.00000" pt_clust_9="75.34655"></scales>
<clustering>
<clus scale="   75.347">  2  9  1 -1</clus>
<clus scale="   80.262">  5  6 -1 -1</clus>
<clus scale="   91.462">  7  8 -1 -1</clus>
<clus scale="  104.356">  1  5  2 -1</clus>
<clus scale="   75.347">  2  5  1 -1</clus>
</clustering>
</event>
<event>
 9    1  0.4731329E-005  0.9036377E+02  0.7546771E-02  0.1306871E+00
          1   -1    0    0  502    0 -0.00000000000E+00  0.00000000000E+00  0.36724711355E+03  0.36724711355E+03  0.00000000000E+00 0. -1.
         21   -1    0    0  501  502  0.00000000000E+00 -0.00000000000E+00 -0.45322930801E+02  0.45322930801E+02  0.00000000000E+00 0.  1.
        -24    2    1    2    0    0  0.35626346380E+02  0.38658729576E+02  0.10477027491E+03  0.14137320508E+03  0.79030618620E+02 0.  0.
         23    2    1    2    0    0  0.83530304695E+01  0.39331679247E+01  0.71042946788E+02  0.11277755933E+03  0.87100141628E+02 0.  0.
         13    1    3    3    0    0 -0.22837051762E+02  0.11836691163E+02  0.52603076432E+02  0.58555288753E+02  0.00000000000E+00 0. -1.
        -14    1    3    3    0    0  0.58463398141E+02  0.26822038413E+02  0.52167198483E+02  0.82817916325E+02  0.00000000000E+00 0.  1.
        -11    1    4    4    0    0 -0.17477455451E+02 -0.33472636519E+02  0.15035676066E+02  0.40644192689E+02  0.00000000000E+00 0.  1.
         11    1    4    4    0    0  0.25830485921E+02  0.37405804443E+02  0.56007270722E+02  0.72133366639E+02  0.00000000000E+00 0. -1.
          2    1    1    2  501    0 -0.43979376849E+02 -0.42591897500E+02  0.14611096104E+03  0.15841927994E+03  0.00000000000E+00 0. -1.
<scales pt_clust_5="13000.00000" pt_clust_6="13000.00000" pt_clust_7="13000.00000" pt_clust_8="13000.00000" pt_clust_9="61.22303"></scales>
<clustering>
<clus scale="   61.223">  2  9  1 -1</clus>
<clus scale="   79.031">  5  6 -1 -1</clus>
<clus scale="   82.614">  1  5  2 -1</clus>
<clus scale="   87.100">  7  8 -1 -1</clus>
<clus scale="   61.223">  2  5  1 -1</clus>
</clustering>
</event>
<event>
 9    1  0.4731329E-005  0.1021799E+03  0.7546771E-02  0.1282582E+00
         21   -1    0    0  501  502  0.00000000000E+00  0.00000000000E+00  0.11517521159E+03  0.11517521159E+03  0.00000000000E+00 0.  1.
         -4   -1    0    0    0  501 -0.00000000000E+00 -0.00000000000E+00 -0.19937822456E+03  0.19937822456E+03  0.00000000000E+00 0.  1.
         23    2    1    2    0    0 -0.63491915032E+02  0.25626334925E+02 -0.67704184784E+02  0.13471986963E+03  0.94221305015E+02 0.  0.
        -24    2    1    2    0    0 -0.22600612281E+02 -0.37950060215E+02 -0.12888035801E+02  0.92788547801E+02  0.80576785679E+02 0.  0.
         13    1    4    4    0    0 -0.25172082554E+02 -0.33912057474E+02  0.28612311379E+02  0.51012995841E+02  0.00000000000E+00 0. -1.
        -14    1    4    4    0    0  0.25714702736E+01 -0.40380027418E+01 -0.41500347180E+02  0.41775551960E+02  0.00000000000E+00 0.  1.
        -11    1    3    3    0    0 -0.28438459520E+02  0.11018772674E+01  0.21579465634E+02  0.35716011122E+02  0.00000000000E+00 0.  1.
         11    1    3    3    0    0 -0.35053455511E+02  0.24524457658E+02 -0.89283650418E+02  0.99003858504E+02  0.00000000000E+00 0. -1.
         -3    1    1    2    0  502  0.86092527312E+02  0.12323725290E+02 -0.36107923880E+01  0.87045018730E+02  0.00000000000E+00 0.  1.
<scales pt_clust_5="13000.00000" pt_clust_6="13000.00000" pt_clust_7="13000.00000" pt_clust_8="13000.00000" pt_clust_9="86.97010"></scales>
<clustering>
<clus scale="   80.577">  5  6 -1 -1</clus>
<clus scale="   86.970">  1  9  2 -1</clus>
<clus scale="   89.754">  1  5  2 -1</clus>
<clus scale="   94.221">  7  8 -1 -1</clus>
<clus scale="   86.970">  1  5  2 -1</clus>
</clustering>
</event>
<event>
 9    1  0.4731329E-005  0.1110549E+03  0.7546771E-02  0.1262418E+00
          3   -1    0    0  502    0 -0.00000000000E+00  0.00000000000E+00  0.11581016591E+03  0.11581016591E+03  0.00000000000E+00 0. -1.
         21   -1    0    0  501  502  0.00000000000E+00 -0.00000000000E+00 -0.22517243341E+03  0.22517243341E+03  0.00000000000E+00 0. -1.
        -24    2    1    2    0    0 -0.97257688575E+01 -0.40045430552E+02 -0.72882535222E+02  0.11668230210E+03  0.81269112186E+02 0.  0.
         23    2    1    2    0    0 -0.24931896136E+02  0.90808429581E+02 -0.75731657474E+02  0.15137054029E+03  0.91159125686E+02 0.  0.
         13    1    3    3    0    0 -0.13866888716E+02 -0.62799143854E+02 -0.37604526382E+02  0.74499150839E+02  0.00000000000E+00 0. -1.
        -14    1    3    3    0    0  0.41411198586E+01  0.22753713302E+02 -0.35278008840E+02  0.42183151262E+02  0.00000000000E+00 0.  1.
        -13    1    4    4    0    0 -0.50601603312E+02  0.29769920365E+02 -0.12945336421E+02  0.60119482294E+02  0.00000000000E+00 0.  1.
         13    1    4    4    0    0  0.25669707176E+02  0.61038509216E+02 -0.62786321053E+02  0.91251057995E+02  0.00000000000E+00 0. -1.
          4    1    1    2  501    0  0.34657664993E+02 -0.50762999029E+02  0.39251925200E+02  0.72929756925E+02  0.00000000000E+00 0. -1.
<scales pt_clust_5="13000.00000" pt_clust_6="13000.00000" pt_clust_7="13000.00000" pt_clust_8="13000.00000" pt_clust_9="61.46576"></scales>
<clustering>
<clus scale="   61.466">  2  9  1 -1</clus>
<clus scale="   81.269">  5  6 -1 -1</clus>
<clus scale="   91.159">  7  8 -1 -1</clus>
<clus scale="  103.092">  1  5  2 -1</clus>
<clus scale="   61.466">  2  5  1 -1</clus>
</clustering>
</event>
<event>
 9    1  0.4731329E-005  0.1012761E+03  0.7546771E-02  0.1283689E+00
          1   -1    0    0  502    0 -0.00000000000E+00  0.00000000000E+00  0.10201175663E+03  0.10201175663E+03  0.00000000000E+00 0. -1.
         21   -1    0    0  501  502  0.00000000000E+00 -0.00000000000E+00 -0.50204756477E+03  0.50204756477E+03  0.00000000000E+00 0. -1.
         23    2    1    2    0    0  0.18529089430E+02  0.97893060572E+01  0.31572059447E+02  0.10769856960E+03  0.10081185093E+03 0.  0.
        -24    2    1    2    0    0  0.36931236652E+02  0.61430326122E+02 -0.81145273655E+02  0.13446005614E+03  0.79732992253E+02 0.  0.
         13    1    4    4    0    0  0.42881544280E+02  0.73784014432E+02 -0.46469527918E+02  0.97171624718E+02  0.00000000000E+00 0. -1.
        -14    1    4    4    0    0 -0.59503076279E+01 -0.12353688310E+02 -0.34675745737E+02  0.37288431426E+02  0.00000000000E+00 0.  1.
        -11    1    3    3    0    0 -0.96301488128E+01 -0.20855257953E+02 -0.27251321664E+02  0.35641493837E+02  0.00000000000E+00 0.  1.
         11    1    3    3    0    0  0.28159238243E+02  0.30644564011E+02  0.58823381111E+02  0.72057075761E+02  0.00000000000E+00 0. -1.
          2    1    1    2  501    0 -0.55460326082E+02 -0.71219632179E+02 -0.35046259393E+03  0.36190069566E+03  0.00000000000E+00 0. -1.
<scales pt_clust_5="13000.00000" pt_clust_6="13000.00000" pt_clust_7="13000.00000" pt_clust_8="13000.00000" pt_clust_9="90.26674"></scales>
<clustering>
<clus scale="   79.733">  5  6 -1 -1</clus>
<clus scale="   90.267">  2  9  1 -1</clus>
<clus scale="   90.267">  2  5  1 -1</clus>
<clus scale="  100.812">  7  8 -1 -1</clus>
<clus scale="   90.267">  2  5  1 -1</clus>
</clustering>
</event>
<event>
 9    1  0.4731329E-005  0.9491962E+02  0.7546771E-02  0.1297567E+00
         21   -1    0    0  501  502  0.00000000000E+00  0.00000000000E+00  0.28586883601E+03  0.28586883601E+03  0.00000000000E+00 0. -1.
          1   -1    0    0  502    0 -0.00000000000E+00 -0.00000000000E+00 -0.73463837859E+02  0.73463837859E+02  0.00000000000E+00 0. -1.
         23    2    1    2    0    0  0.25097812006E+02  0.19648300086E+02 -0.75259885607E+01  0.96727590983E+02  0.91014452093E+02 0.  0.
        -24    2    1    2    0    0  0.18831685183E+02 -0.34067264603E+02  0.99322691943E+02  0.13343826041E+03  0.80159599067E+02 0.  0.
         13    1    4    4    0    0  0.28841457918E+02 -0.12875847108E+02  0.10472732957E+03  0.10938661112E+03  0.00000000000E+00 0. -1.
        -14    1    4    4    0    0 -0.10009772735E+02 -0.21191417495E+02 -0.54046376284E+01  0.24051649290E+02  0.00000000000E+00 0.  1.
        -13    1    3    3    0    0  0.13717569544E+02 -0.21323309418E+02  0.30513908047E+02  0.39673086886E+02  0.00000000000E+00 0.  1.
         13    1    3    3    0    0  0.11380242461E+02  0.40971609504E+02 -0.38039896608E+02  0.57054504097E+02  0.00000000000E+00 0. -1.
          2    1    1    2  501    0 -0.43929497189E+02  0.14418964517E+02  0.12060829477E+03  0.12916682247E+03  0.00000000000E+00 0. -1.
<scales pt_clust_5="13000.00000" pt_clust_6="13000.00000" pt_clust_7="13000.00000" pt_clust_8="13000.00000" pt_clust_9="46.23535"></scales>
<clustering>
<clus scale="   46.235">  1  9  2 -1</clus>
<clus scale="   80.160">  5  6 -1 -1</clus>
<clus scale="   84.568">  1  5  2 -1</clus>
<clus scale="   91.014">  7  8 -1 -1</clus>
<clus scale="   46.235">  1  5  2 -1</clus>
</clustering>
</event>
<event>
 9    1  0.4731329E-005  0.2291429E+03  0.7546771E-02  0.1159836E+00
          1   -1    0    0  502    0 -0.00000000000E+00  0.00000000000E+00  0.19949738079E+03  0.19949738079E+03  0.00000000000E+00 0. -1.
         21   -1    0    0  501  502  0.00000000000E+00 -0.00000000000E+00 -0.63875689724E+03  0.63875689724E+03  0.00000000000E+00 0. -1.
         23    2    1    2    0    0  0.50514596320E+02  0.32761703793E+01  0.13270254242E+02  0.10573524199E+03  0.91877004834E+02 0.  0.
        -24    2    1    2    0    0 -0.17603073567E+03 -0.13612697374E+03 -0.49161705517E+03  0.54561945606E+03  0.80597078222E+02 0.  0.
         13    1    4    4    0    0 -0.11115902058E+03 -0.78618457116E+02 -0.38403018456E+03  0.40745106738E+03  0.00000000000E+00 0. -1.
        -14    1    4    4    0    0 -0.64871715095E+02 -0.57508516621E+02 -0.10758687061E+03  0.13816838868E+03  0.00000000000E+00 0.  1.
        -11    1    3    3    0    0  0.72799051690E+02  0.20142919306E+02  0.17322226818E+02  0.77495152539E+02  0.00000000000E+00 0. -1.
         11    1    3    3    0    0 -0.22284455369E+02 -0.16866748926E+02 -0.40519725759E+01  0.28240089451E+02  0.00000000000E+00 0.  1.
          2    1    1    2  501    0  0.12551613935E+03  0.13285080336E+03  0.39087284473E+02  0.18689957999E+03  0.00000000000E+00 0. -1.
<scales pt_clust_5="13000.00000" pt_clust_6="13000.00000" pt_clust_7="13000.00000" pt_clust_8="13000.00000" pt_clust_9="214.50083"></scales>
<clustering>
<clus scale="   80.597">  5  6 -1 -1</clus>
<clus scale="   91.877">  7  8 -1 -1</clus>
<clus scale="  104.899">  1  7  2 -1</clus>
<clus scale="  214.501">  2  9  1 -1</clus>
<clus scale="  214.501">  2  5  1 -1</clus>
</clustering>
</event>
<event>
 9    1  0.4731329E-005  0.9406106E+02  0.7546771E-02  0.1303443E+00
         21   -1    0    0  501  502  0.00000000000E+00  0.00000000000E+00  0.17467366665E+03  0.17467366665E+03  0.00000000000E+00 0. -1.
          1   -1    0    0  502    0 -0.00000000000E+00 -0.00000000000E+00 -0.35463372719E+03  0.35463372719E+03  0.00000000000E+00 0. -1.
         23    2    1    2    0    0 -0.28138045480E+02 -0.10187074878E+02 -0.27130222764E+03  0.28793390901E+03  0.91681574681E+02 0.  0.
        -24    2    1    2    0    0 -0.89547353316E+01  0.15550446527E+02 -0.52079017820E+02  0.93136254601E+02  0.75100826574E+02 0.  0.
         11    1    4    4    0    0 -0.22484796410E+02 -0.23471857187E+02 -0.36800243216E+02  0.49099409876E+02  0.00000000000E+00 0. -1.
        -12    1    4    4    0    0  0.13530061079E+02  0.39022303714E+02 -0.15278774604E+02  0.44036844725E+02  0.00000000000E+00 0.  1.
        -13    1    3    3    0    0  0.25853829816E+01  0.37866789633E+02 -0.13360351678E+03  0.13889016401E+03  0.00000000000E+00 0.  1.
         13    1    3    3    0    0 -0.30723428462E+02 -0.48053864511E+02 -0.13769871086E+03  0.14904374500E+03  0.00000000000E+00 0. -1.
          2    1    1    2  501    0  0.37092780812E+02 -0.53633716482E+01  0.14342118491E+03  0.14823723023E+03  0.00000000000E+00 0. -1.
<scales pt_clust_5="13000.00000" pt_clust_6="13000.00000" pt_clust_7="13000.00000" pt_clust_8="13000.00000" pt_clust_9="37.47853"></scales>
<clustering>
<clus scale="   37.479">  1  9  2 -1</clus>
<clus scale="   75.101">  5  6 -1 -1</clus>
<clus scale="   77.988">  1  5  2 -1</clus>
<clus scale="   91.682">  7  8 -1 -1</clus>
<clus scale="   37.479">  1  5  2 -1</clus>
</clustering>
</event>
<event>
 9    1  0.4731329E-005  0.2010297E+03  0.7546771E-02  0.1149910E+00
          1   -1    0    0  502    0 -0.00000000000E+00  0.00000000000E+00  0.63430957205E+03  0.63430957205E+03  0.00000000000E+00 0. -1.
         21   -1    0    0  501  502  0.00000000000E+00 -0.00000000000E+00 -0.17213161205E+03  0.17213161205E+03  0.00000000000E+00 0. -1.
         23    2    1    2    0    0 -0.17180991054E+03  0.71401598103E+02  0.48173778884E+03  0.52443147098E+03  0.91324897948E+02 0.  0.
        -24    2    1    2    0    0  0.15065267421E+03 -0.51564687344E+02  0.67261558487E+02  0.19047237116E+03  0.80002885551E+02 0.  0.
         11    1    4    4    0    0  0.15408647608E+03 -0.31265165266E+02  0.63387033686E+02  0.16952306248E+03  0.00000000000E+00 0. -1.
        -12    1    4    4    0    0 -0.34338018724E+01 -0.20299522078E+02  0.38745248011E+01  0.20949308684E+02  0.00000000000E+00 0.  1.
        -11    1    3    3    0    0 -0.12956468520E+02  0.25503551434E+02  0.22692112119E+02  0.36513465525E+02  0.00000000000E+00 0.  1.
         11    1    3    3    0    0 -0.15885344202E+03  0.45898046669E+02  0.45904567672E+03  0.48791800545E+03  0.00000000000E+00 0. -1.
          2    1    1    2  501    0  0.21157236325E+02 -0.19836910759E+02 -0.86821387321E+02  0.91537341963E+02  0.00000000000E+00 0. -1.
<scales pt_clust_5="13000.00000" pt_clust_6="13000.00000" pt_clust_7="13000.00000" pt_clust_8="13000.00000" pt_clust_9="29.00227"></scales>
<clustering>
<clus scale="   29.002">  2  9  1 -1</clus>
<clus scale="   80.003">  5  6 -1 -1</clus>
<clus scale="   91.325">  7  8 -1 -1</clus>
<clus scale="  196.146">  2  5  1 -1</clus>
<clus scale="   29.002">  2  5  1 -1</clus>
</clustering>
</event>
<event>
 9    1  0.4731329E-005  0.9390242E+02  0.7546771E-02  0.1310794E+00
         21   -1    0    0  501  502  0.00000000000E+00  0.00000000000E+00  0.23232809690E+03  0.23232809690E+03  0.00000000000E+00 0. -1.
         -2   -1    0    0    0  501 -0.00000000000E+00 -0.00000000000E+00 -0.45780141912E+02  0.45780141912E+02  0.00000000000E+00 0.  1.
         23    2    1    2    0    0  0.62259246684E+01 -0.32316444170E+02  0.36220397685E+02  0.99372955993E+02  0.86486718475E+02 0.  0.
        -24    2    1    2    0    0  0.11347730352E+02  0.45045077743E+02  0.12470991746E+03  0.14516275038E+03  0.57981295015E+02 0.  0.
         11    1    4    4    0    0  0.21630334831E+02  0.21295439927E+02  0.11254448957E+03  0.11656598680E+03  0.00000000000E+00 0. -1.
        -12    1    4    4    0    0 -0.10282604480E+02  0.23749637816E+02  0.12165427890E+02  0.28596763576E+02  0.00000000000E+00 0.  1.
        -11    1    3    3    0    0 -0.97484722930E+01 -0.51088520385E+02 -0.40392562343E+01  0.52166897724E+02  0.00000000000E+00 0.  1.
         11    1    3    3    0    0  0.15974396961E+02  0.18772076214E+02  0.40259653919E+02  0.47206058270E+02  0.00000000000E+00 0. -1.
         -1    1    1    2    0  502 -0.17573655020E+02 -0.12728633572E+02  0.25617639844E+02  0.33572532442E+02  0.00000000000E+00 0.  1.
<scales pt_clust_5="13000.00000" pt_clust_6="13000.00000" pt_clust_7="13000.00000" pt_clust_8="13000.00000" pt_clust_9="21.69911"></scales>
<clustering>
<clus scale="   21.699">  1  9  2 -1</clus>
<clus scale="   57.981">  5  6 -1 -1</clus>
<clus scale="   68.553">  1  5  2 -1</clus>
<clus scale="   86.487">  7  8 -1 -1</clus>
<clus scale="   21.699">  1  5  2 -1</clus>
</clustering>
</event>
<event>
 9    1  0.4731329E-005  0.1894809E+03  0.7546771E-02  0.1160025E+00
          1   -1    0    0  502    0 -0.00000000000E+00  0.00000000000E+00  0.92099131629E+03  0.92099131629E+03  0.00000000000E+00 0. -1.
         21   -1    0    0  501  502  0.00000000000E+00 -0.00000000000E+00 -0.10814944696E+03  0.10814944696E+03  0.00000000000E+00 0.  1.
         23    2    1    2    0    0  0.75834373924E+02  0.10674844076E+03  0.35731611599E+03  0.39112062801E+03  0.90302032311E+02 0.  0.
        -24    2    1    2    0    0 -0.19825032366E+03 -0.15214454231E+03  0.43191196980E+03  0.50533976156E+03  0.79807094757E+02 0.  0.
         11    1    4    4    0    0 -0.50069207678E+02 -0.13926958243E+02  0.45741653990E+02  0.69232829157E+02  0.00000000000E+00 0. -1.
        -12    1    4    4    0    0 -0.14818111598E+03 -0.13821758406E+03  0.38617031581E+03  0.43610693241E+03  0.00000000000E+00 0.  1.
        -13    1    3    3    0    0  0.35558394215E+02  0.53842359763E+02  0.65954131530E+02  0.92267798120E+02  0.00000000000E+00 0. -1.
         13    1    3    3    0    0  0.40275979709E+02  0.52906080996E+02  0.29136198446E+03  0.29885282989E+03  0.00000000000E+00 0.  1.
          2    1    1    2  501    0  0.12241594974E+03  0.45396101546E+02  0.23613783537E+02  0.13268037367E+03  0.00000000000E+00 0. -1.
<scales pt_clust_5="13000.00000" pt_clust_6="13000.00000" pt_clust_7="13000.00000" pt_clust_8="13000.00000" pt_clust_9="130.56213"></scales>
<clustering>
<clus scale="   79.807">  5  6 -1 -1</clus>
<clus scale="   90.302">  7  8 -1 -1</clus>
<clus scale="  130.562">  2  9  1 -1</clus>
<clus scale="  184.710">  2  5  1 -1</clus>
<clus scale="  130.562">  2  5  1 -1</clus>
</clustering>
</event>
<event>
 9    1  0.4731329E-005  0.1262687E+03  0.7546771E-02  0.1240527E+00
         21   -1    0    0  501  502  0.00000000000E+00  0.00000000000E+00  0.25004787735E+03  0.25004787735E+03  0.00000000000E+00 0. -1.
          1   -1    0    0  502    0 -0.00000000000E+00 -0.00000000000E+00 -0.47231536882E+03  0.47231536882E+03  0.00000000000E+00 0. -1.
         23    2    1    2    0    0 -0.40118270193E+02 -0.57989132068E+02 -0.38955363447E+03  0.40952421884E+03  0.10481334194E+03 0.  0.
        -24    2    1    2    0    0  0.15644228262E+02  0.72934158956E+02 -0.28589444328E+02  0.11487544919E+03  0.82552280882E+02 0.  0.
         11    1    4    4    0    0 -0.33832484624E+02  0.23416887484E+02 -0.80617437872E+01  0.41928264311E+02  0.00000000000E+00 0. -1.
        -12    1    4    4    0    0  0.49476712886E+02  0.49517271473E+02 -0.20527700540E+02  0.72947184878E+02  0.00000000000E+00 0.  1.
        -13    1    3    3    0    0  0.35194696147E+02 -0.90375660534E+01 -0.12189039997E+03  0.12719124908E+03  0.00000000000E+00 0.  1.
         13    1    3    3    0    0 -0.75312966340E+02 -0.48951566015E+02 -0.26766323450E+03  0.28233296977E+03  0.00000000000E+00 0. -1.
          2    1    1    2  501    0  0.24474041931E+02 -0.14945026888E+02  0.19587558733E+03  0.19796357814E+03  0.00000000000E+00 0. -1.
<scales pt_clust_5="13000.00000" pt_clust_6="13000.00000" pt_clust_7="13000.00000" pt_clust_8="13000.00000" pt_clust_9="28.67634"></scales>
<clustering>
<clus scale="   28.676">  1  9  2 -1</clus>
<clus scale="   82.552">  5  6 -1 -1</clus>
<clus scale="  104.813">  7  8 -1 -1</clus>
<clus scale="  108.503">  1  5  2 -1</clus>
<clus scale="   28.676">  1  5  2 -1</clus>
</clustering>
</event>
<event>
 9    1  0.4731329E-005  0.1106600E+03  0.7546771E-02  0.1264338E+00
         21   -1    0    0  501  502  0.00000000000E+00  0.00000000000E+00  0.15814093487E+03  0.15814093487E+03  0.00000000000E+00 0.  1.
         -2   -1    0    0    0  501 -0.00000000000E+00 -0.00000000000E+00 -0.16545888594E+03  0.16545888594E+03  0.00000000000E+00 0.  1.
         23    2    1    2    0    0 -0.33271930485E+02 -0.35088416507E+02 -0.22943338237E+02  0.10737660893E+03  0.93086631933E+02 0.  0.
        -24    2    1    2    0    0  0.96590121318E+02  0.14300206757E+02  0.55867408467E+02  0.13837230801E+03  0.80570347191E+02 0.  0.
         13    1    4    4    0    0  0.28732803729E+01  0.30741649455E+02  0.19460234983E+02  0.36496650490E+02  0.00000000000E+00 0. -1.
        -14    1    4    4    0    0  0.93716840945E+02 -0.16441442699E+02  0.36407173484E+02  0.10187565752E+03  0.00000000000E+00 0.  1.
        -13    1    3    3    0    0 -0.61144049734E+02 -0.14149741351E+01 -0.14516299617E+02  0.62859525326E+02  0.00000000000E+00 0.  1.
         13    1    3    3    0    0  0.27872119249E+02 -0.33673442372E+02 -0.84270386197E+01  0.44517083603E+02  0.00000000000E+00 0. -1.
         -1    1    1    2    0  502 -0.63318190833E+02  0.20788209751E+02 -0.40242021295E+02  0.77850903867E+02  0.00000000000E+00 0.  1.
<scales pt_clust_5="13000.00000" pt_clust_6="13000.00000" pt_clust_7="13000.00000" pt_clust_8="13000.00000" pt_clust_9="66.64343"></scales>
<clustering>
<clus scale="   66.643">  1  9  2 -1</clus>
<clus scale="   80.570">  5  6 -1 -1</clus>
<clus scale="   93.087">  7  8 -1 -1</clus>
<clus scale="  100.360">  1  5  2 -1</clus>
<clus scale="   66.643">  1  5  2 -1</clus>
</clustering>
</event>
<event>
 9    1  0.4731329E-005  0.1186144E+03  0.7546771E-02  0.1255600E+00
          3   -1    0    0  502    0 -0.00000000000E+00  0.00000000000E+00  0.25507697139E+03  0.25507697139E+03  0.00000000000E+00 0. -1.
         21   -1    0    0  501  502  0.00000000000E+00 -0.00000000000E+00 -0.13084967127E+03  0.13084967127E+03  0.00000000000E+00 0.  1.
         23    2    1    2    0    0  0.59511954874E+02  0.44649904302E+02  0.13818170549E+03  0.18116243490E+03  0.90500593160E+02 0.  0.
        -24    2    1    2    0    0 -0.44102310799E+02 -0.83941246592E+02 -0.72079596613E+02  0.13293242812E+03  0.59028937821E+02 0.  0.
         13    1    4    4    0    0 -0.10500214604E+02 -0.76386693850E+02 -0.46624483652E+02  0.90105626794E+02  0.00000000000E+00 0. -1.
        -14    1    4    4    0    0 -0.33602096195E+02 -0.75545527420E+01 -0.25455112962E+02  0.42826801325E+02  0.00000000000E+00 0.  1.
        -13    1    3    3    0    0  0.77560267761E+02  0.55614623697E+02  0.10562021923E+03  0.14235242258E+03  0.00000000000E+00 0.  1.
         13    1    3    3    0    0 -0.18048312887E+02 -0.10964719395E+02  0.32561486252E+02  0.38810012322E+02  0.00000000000E+00 0. -1.
          4    1    1    2  501    0 -0.15409644075E+02  0.39291342290E+02  0.58125191238E+02  0.71831779638E+02  0.00000000000E+00 0. -1.
<scales pt_clust_5="13000.00000" pt_clust_6="13000.00000" pt_clust_7="13000.00000" pt_clust_8="13000.00000" pt_clust_9="42.20508"></scales>
<clustering>
<clus scale="   42.205">  2  9  1 -1</clus>
<clus scale="   59.029">  5  6 -1 -1</clus>
<clus scale="   90.501">  7  8 -1 -1</clus>
<clus scale="   96.765">  2  5  1 -1</clus>
<clus scale="   42.205">  2  5  1 -1</clus>
</clustering>
</event>
<event>
 9    1  0.4731329E-005  0.1877884E+03  0.7546771E-02  0.1161689E+00
          1   -1    0    0  502    0 -0.00000000000E+00  0.00000000000E+00  0.42942956777E+03  0.42942956777E+03  0.00000000000E+00 0. -1.
         21   -1    0    0  501  502  0.00000000000E+00 -0.00000000000E+00 -0.15777973829E+03  0.15777973829E+03  0.00000000000E+00 0. -1.
         23    2    1    2    0    0  0.51540453447E+02 -0.12688882695E+03  0.44688945218E+02  0.17033618427E+03  0.90885208380E+02 0.  0.
        -24    2    1    2    0    0 -0.17165470928E+03  0.11937601817E+03  0.11086680211E+03  0.24965556093E+03  0.79501436203E+02 0.  0.
         13    1    4    4    0    0 -0.17679156908E+03  0.12464879980E+03  0.10677109430E+03  0.24123152524E+03  0.00000000000E+00 0. -1.
        -14    1    4    4    0    0  0.51368598005E+01 -0.52727816350E+01  0.40957078085E+01  0.84240356856E+01  0.00000000000E+00 0.  1.
        -11    1    3    3    0    0  0.20319550527E+02 -0.13054080144E+03  0.42690375122E+02  0.13883894663E+03  0.00000000000E+00 0.  1.
         11    1    3    3    0    0  0.31220902920E+02  0.36519744868E+01  0.19985700957E+01  0.31497237644E+02  0.00000000000E+00 0. -1.
          2    1    1    2  501    0  0.12011425583E+03  0.75128087824E+01  0.11609408215E+03  0.16721756086E+03  0.00000000000E+00 0. -1.
<scales pt_clust_5="13000.00000" pt_clust_6="13000.00000" pt_clust_7="13000.00000" pt_clust_8="13000.00000" pt_clust_9="120.34904"></scales>
<clustering>
<clus scale="   79.501">  5  6 -1 -1</clus>
<clus scale="   90.885">  7  8 -1 -1</clus>
<clus scale="  120.349">  2  9  1 -1</clus>
<clus scale="  182.551">  2  5  1 -1</clus>
<clus scale="  120.349">  2  5  1 -1</clus>
</clustering>
</event>
<event>
 9    1  0.4731329E-005  0.4392055E+03  0.7546771E-02  0.1052797E+00
         21   -1    0    0  501  502  0.00000000000E+00  0.00000000000E+00  0.76467289522E+03  0.76467289522E+03  0.00000000000E+00 0.  1.
          1   -1    0    0  502    0 -0.00000000000E+00 -0.00000000000E+00 -0.60460895786E+03  0.60460895786E+03  0.00000000000E+00 0. -1.
         23    2    1    2    0    0  0.14310057758E+02  0.21382006317E+03 -0.19889059373E+03  0.30665809073E+03  0.92509022080E+02 0.  0.
        -24    2    1    2    0    0 -0.14780477273E+03  0.34787865754E+03  0.28580258989E+03  0.48066371365E+03  0.80552306125E+02 0.  0.
         13    1    4    4    0    0 -0.60484069514E+02  0.65899068314E+02  0.86933661783E+02  0.12473360181E+03  0.00000000000E+00 0. -1.
        -14    1    4    4    0    0 -0.87320703215E+02  0.28197958923E+03  0.19886892811E+03  0.35593011184E+03  0.00000000000E+00 0.  1.
        -13    1    3    3    0    0 -0.21937828361E+02  0.45750150808E+02 -0.89479439401E+02  0.10286357318E+03  0.00000000000E+00 0.  1.
         13    1    3    3    0    0  0.36247886120E+02  0.16806991236E+03 -0.10941115433E+03  0.20379451755E+03  0.00000000000E+00 0. -1.
          2    1    1    2  501    0  0.13349471497E+03 -0.56169872071E+03  0.73151941209E+02  0.58196004870E+03  0.00000000000E+00 0. -1.
<scales pt_clust_5="13000.00000" pt_clust_6="13000.00000" pt_clust_7="13000.00000" pt_clust_8="13000.00000" pt_clust_9="431.75572"></scales>
<clustering>
<clus scale="   80.552">  5  6 -1 -1</clus>
<clus scale="   92.509">  7  8 -1 -1</clus>
<clus scale="  233.413">  2  7  1 -1</clus>
<clus scale="  431.756">  1  9  2 -1</clus>
<clus scale="  431.756">  1  5  2 -1</clus>
</clustering>
</event>
<event>
 9    1  0.4731329E-005  0.1224725E+03  0.7546771E-02  0.1242210E+00
          1   -1    0    0  502    0 -0.00000000000E+00  0.00000000000E+00  0.10483992943E+04  0.10483992943E+04  0.00000000000E+00 0. -1.
         21   -1    0    0  501  502  0.00000000000E+00 -0.00000000000E+00 -0.46168062500E+02  0.46168062500E+02  0.00000000000E+00 0. -1.
         23    2    1    2    0    0 -0.86597456678E+02  0.37626080356E+02  0.67288756475E+03  0.68566460183E+03  0.91888138396E+02 0.  0.
        -24    2    1    2    0    0  0.49103003225E+02  0.69426056172E+02  0.10635850171E+03  0.15872606154E+03  0.81552127664E+02 0.  0.
         13    1    4    4    0    0 -0.14255994961E+02  0.49255253835E+02  0.48654153437E+02  0.70686208481E+02  0.00000000000E+00 0. -1.
        -14    1    4    4    0    0  0.63358998187E+02  0.20170802337E+02  0.57704348269E+02  0.88039853063E+02  0.00000000000E+00 0.  1.
        -13    1    3    3    0    0 -0.78959493616E+01  0.50462519089E+02  0.22401434169E+03  0.22976343732E+03  0.00000000000E+00 0.  1.
         13    1    3    3    0    0 -0.78701507317E+02 -0.12836438733E+02  0.44887322306E+03  0.45590116450E+03  0.00000000000E+00 0. -1.
          2    1    1    2  501    0  0.37494453453E+02 -0.10705213653E+03  0.22298516539E+03  0.25017669348E+03  0.00000000000E+00 0. -1.
<scales pt_clust_5="13000.00000" pt_clust_6="13000.00000" pt_clust_7="13000.00000" pt_clust_8="13000.00000" pt_clust_9="113.42836"></scales>
<clustering>
<clus scale="   81.552">  5  6 -1 -1</clus>
<clus scale="   91.888">  7  8 -1 -1</clus>
<clus scale="  113.428">  2  9  1 -1</clus>
<clus scale="  114.921">  2  5  1 -1</clus>
<clus scale="  113.428">  2  5  1 -1</clus>
</clustering>
</event>
<event>
 9    1  0.4731329E-005  0.1898833E+03  0.7546771E-02  0.1174873E+00
         21   -1    0    0  501  502  0.00000000000E+00  0.00000000000E+00  0.70420084918E+03  0.70420084918E+03  0.00000000000E+00 0. -1.
          3   -1    0    0  502    0 -0.00000000000E+00 -0.00000000000E+00 -0.97648775600E+02  0.97648775600E+02  0.00000000000E+00 0. -1.
         23    2    1    2    0    0  0.91494305026E+02  0.18182308750E+02  0.15951247132E+03  0.20608456236E+03  0.91240419391E+02 0.  0.
        -24    2    1    2    0    0 -0.83232267032E+02  0.15831127985E+03  0.13808680856E+03  0.23985766320E+03  0.80459059755E+02 0.  0.
         13    1    4    4    0    0 -0.83602133699E+02  0.88812700099E+02  0.62061499854E+02  0.13685262958E+03  0.00000000000E+00 0. -1.
        -14    1    4    4    0    0  0.36986666748E+00  0.69498579747E+02  0.76025308708E+02  0.10300503363E+03  0.00000000000E+00 0.  1.
        -11    1    3    3    0    0  0.78203467537E+02  0.44233421280E+02  0.15085638542E+03  0.17558481403E+03  0.00000000000E+00 0. -1.
         11    1    3    3    0    0  0.13290837488E+02 -0.26051112530E+02  0.86560858984E+01  0.30499748331E+02  0.00000000000E+00 0.  1.
          4    1    1    2  501    0 -0.82620379940E+01 -0.17649358860E+03  0.30895279370E+03  0.35590739922E+03  0.00000000000E+00 0. -1.
<scales pt_clust_5="13000.00000" pt_clust_6="13000.00000" pt_clust_7="13000.00000" pt_clust_8="13000.00000" pt_clust_9="171.99418"></scales>
<clustering>
<clus scale="   80.459">  5  6 -1 -1</clus>
<clus scale="   91.240">  7  8 -1 -1</clus>
<clus scale="  130.486">  2  7  1 -1</clus>
<clus scale="  171.994">  1  9  2 -1</clus>
<clus scale="  171.994">  1  5  2 -1</clus>
</clustering>
</event>
<event>
 9    1  0.4731329E-005  0.1465746E+03  0.7546771E-02  0.1207248E+00
         21   -1    0    0  501  502  0.00000000000E+00  0.00000000000E+00  0.16025626060E+03  0.16025626060E+03  0.00000000000E+00 0.  1.
         -2   -1    0    0    0  501 -0.00000000000E+00 -0.00000000000E+00 -0.15521634037E+03  0.15521634037E+03  0.00000000000E+00 0.  1.
        -24    2    1    2    0    0  0.11489364883E+03  0.14897236544E+02 -0.32979443163E+02  0.14561915848E+03  0.81821864112E+02 0.  0.
         23    2    1    2    0    0 -0.10720685673E+03  0.53830081165E+01  0.39189917696E+02  0.14813374420E+03  0.94262768972E+02 0.  0.
         13    1    3    3    0    0  0.96190783194E+02  0.36878982218E+01  0.10645644004E+02  0.96848320073E+02  0.00000000000E+00 0. -1.
        -14    1    3    3    0    0  0.18702865640E+02  0.11209338322E+02 -0.43625087167E+02  0.48770838409E+02  0.00000000000E+00 0.  1.
        -11    1    4    4    0    0 -0.24451762580E+02  0.43046291677E+02  0.27020894969E+02  0.56400360685E+02  0.00000000000E+00 0.  1.
         11    1    4    4    0    0 -0.82755094153E+02 -0.37663283560E+02  0.12169022726E+02  0.91733383514E+02  0.00000000000E+00 0. -1.
         -1    1    1    2    0  502 -0.76867921010E+01 -0.20280244661E+02 -0.11705543024E+01  0.21719698287E+02  0.00000000000E+00 0.  1.
<scales pt_clust_5="13000.00000" pt_clust_6="13000.00000" pt_clust_7="13000.00000" pt_clust_8="13000.00000" pt_clust_9="21.68814"></scales>
<clustering>
<clus scale="   21.688">  1  9  2 -1</clus>
<clus scale="   81.822">  5  6 -1 -1</clus>
<clus scale="   94.263">  7  8 -1 -1</clus>
<clus scale="  138.901">  2  5  1 -1</clus>
<clus scale="   21.688">  1  5  2 -1</clus>
</clustering>
</event>
<event>
 9    1  0.4731329E-005  0.3224258E+03  0.7546771E-02  0.1075092E+00
         21   -1    0    0  501  502  0.00000000000E+00  0.00000000000E+00  0.26645679963E+03  0.26645679963E+03  0.00000000000E+00 0. -1.
          1   -1    0    0  502    0 -0.00000000000E+00 -0.00000000000E+00 -0.97806369630E+03  0.97806369630E+03  0.00000000000E+00 0. -1.
         23    2    1    2    0    0  0.26303980906E+03 -0.52378361033E+02 -0.31409493762E+03  0.42507487068E+03  0.10049667654E+03 0.  0.
        -24    2    1    2    0    0 -0.42722978265E+03 -0.13328098367E+03 -0.17968325318E+03  0.48948034707E+03  0.83760556986E+02 0.  0.
         13    1    4    4    0    0 -0.33597340492E+03 -0.13852670340E+03 -0.13436044839E+03  0.38745387655E+03  0.00000000000E+00 0. -1.
        -14    1    4    4    0    0 -0.91256377732E+02  0.52457197305E+01 -0.45322804783E+02  0.10202647051E+03  0.00000000000E+00 0.  1.
        -11    1    3    3    0    0  0.15595276571E+03 -0.30201487561E+02 -0.10901706247E+03  0.19266062103E+03  0.00000000000E+00 0.  1.
         11    1    3    3    0    0  0.10708704335E+03 -0.22176873472E+02 -0.20507787515E+03  0.23241424966E+03  0.00000000000E+00 0. -1.
          2    1    1    2  501    0  0.16418997359E+03  0.18565934470E+03 -0.21782870588E+03  0.32996527818E+03  0.00000000000E+00 0. -1.
<scales pt_clust_5="13000.00000" pt_clust_6="13000.00000" pt_clust_7="13000.00000" pt_clust_8="13000.00000" pt_clust_9="247.84633"></scales>
<clustering>
<clus scale="   83.761">  5  6 -1 -1</clus>
<clus scale="  100.497">  7  8 -1 -1</clus>
<clus scale="  247.846">  1  9  2 -1</clus>
<clus scale="  317.608">  1  5  2 -1</clus>
<clus scale="  247.846">  1  5  2 -1</clus>
</clustering>
</event>
<event>
 9    1  0.4731329E-005  0.1560184E+03  0.7546771E-02  0.1194811E+00
         21   -1    0    0  501  502  0.00000000000E+00  0.00000000000E+00  0.13283874669E+03  0.13283874669E+03  0.00000000000E+00 0.  1.
          3   -1    0    0  502    0 -0.00000000000E+00 -0.00000000000E+00 -0.31717416586E+03  0.31717416586E+03  0.00000000000E+00 0. -1.
         23    2    1    2    0    0  0.88128387079E+01 -0.13448509098E+03 -0.22873308750E+03  0.27916390938E+03  0.86311975769E+02 0.  0.
        -24    2    1    2    0    0 -0.44135207538E+01  0.11096400169E+03  0.53720846322E+02  0.14516793451E+03  0.76520004196E+02 0.  0.
         11    1    4    4    0    0  0.27738031280E+02  0.71189154311E+02  0.84544440978E+01  0.76868535148E+02  0.00000000000E+00 0. -1.
        -12    1    4    4    0    0 -0.32151552034E+02  0.39774847383E+02  0.45266402224E+02  0.68299399359E+02  0.00000000000E+00 0.  1.
        -13    1    3    3    0    0  0.15859528939E+02 -0.25746506882E+02 -0.54719444065E+01  0.30730269286E+02  0.00000000000E+00 0.  1.
         13    1    3    3    0    0 -0.70466902312E+01 -0.10873858409E+03 -0.22326114310E+03  0.24843364009E+03  0.00000000000E+00 0. -1.
          4    1    1    2  501    0 -0.43993179541E+01  0.23521089281E+02 -0.93231779880E+01  0.25681068654E+02  0.00000000000E+00 0. -1.
<scales pt_clust_5="13000.00000" pt_clust_6="13000.00000" pt_clust_7="13000.00000" pt_clust_8="13000.00000" pt_clust_9="23.92897"></scales>
<clustering>
<clus scale="   23.929">  1  9  2 -1</clus>
<clus scale="   76.520">  5  6 -1 -1</clus>
<clus scale="   86.312">  7  8 -1 -1</clus>
<clus scale="  150.822">  1  5  2 -1</clus>
<clus scale="   23.929">  1  5  2 -1</clus>
</clustering>
</event>
<event>
 9    1  0.4731329E-005  0.9514243E+02  0.7546771E-02  0.1294692E+00
         -4   -1    0    0    0  501 -0.00000000000E+00  0.00000000000E+00  0.42752821718E+03  0.42752821718E+03  0.00000000000E+00 0.  1.
         21   -1    0    0  501  502  0.00000000000E+00 -0.00000000000E+00 -0.58516975569E+02  0.58516975569E+02  0.00000000000E+00 0. -1.
        -24    2    1    2    0    0  0.22825903227E+02  0.12532940086E+02  0.19856816836E+03  0.21650606674E+03  0.82264591449E+02 0.  0.
         23    2    1    2    0    0  0.11977658280E+02 -0.87535605989E+02  0.93549949130E+02  0.15662659205E+03  0.89299214676E+02 0.  0.
         13    1    3    3    0    0  0.26725341314E+02 -0.31120346063E+02  0.11579031186E+03  0.12284183379E+03  0.00000000000E+00 0. -1.
        -14    1    3    3    0    0 -0.38994380864E+01  0.43653286148E+02  0.82777856493E+02  0.93664232952E+02  0.00000000000E+00 0.  1.
        -13    1    4    4    0    0 -0.25493547324E+01 -0.62913074990E+02  0.10767914799E+03  0.12473713611E+03  0.00000000000E+00 0.  1.
         13    1    4    4    0    0  0.14527013013E+02 -0.24622531000E+02 -0.14129198856E+02  0.31889455941E+02  0.00000000000E+00 0. -1.
         -3    1    1    2    0  502 -0.34803561508E+02  0.75002665904E+02  0.76893124122E+02  0.11291253395E+03  0.00000000000E+00 0.  1.
<scales pt_clust_5="13000.00000" pt_clust_6="13000.00000" pt_clust_7="13000.00000" pt_clust_8="13000.00000" pt_clust_9="82.68427"></scales>
<clustering>
<clus scale="   82.265">  5  6 -1 -1</clus>
<clus scale="   82.684">  2  9  1 -1</clus>
<clus scale="   88.573">  1  5  2 -1</clus>
<clus scale="   89.299">  7  8 -1 -1</clus>
<clus scale="   82.684">  2  5  1 -1</clus>
</clustering>
</event>
<event>
 9    1  0.4731329E-005  0.1371736E+03  0.7546771E-02  0.1227963E+00
         -2   -1    0    0    0  501 -0.00000000000E+00  0.00000000000E+00  0.21678962413E+03  0.21678962413E+03  0.00000000000E+00 0.  1.
         21   -1    0    0  501  502  0.00000000000E+00 -0.00000000000E+00 -0.16364876730E+03  0.16364876730E+03  0.00000000000E+00 0. -1.
         23    2    1    2    0    0  0.19992010782E+02 -0.44927335012E+02  0.29907376810E+02  0.11350529864E+03  0.97830750311E+02 0.  0.
        -24    2    1    2    0    0 -0.44974536315E+02 -0.87690358679E+02 -0.12706860318E+02  0.12727892233E+03  0.79537109878E+02 0.  0.
         13    1    4    4    0    0 -0.40724638234E+02 -0.92545595851E+02 -0.32703404818E+02  0.10626709819E+03  0.00000000000E+00 0. -1.
        -14    1    4    4    0    0 -0.42498980810E+01  0.48552371719E+01  0.19996544501E+02  0.21011824139E+02  0.00000000000E+00 0.  1.
        -13    1    3    3    0    0 -0.23847375207E+02  0.52933272706E+01 -0.18899149365E+02  0.30885181958E+02  0.00000000000E+00 0.  1.
         13    1    3    3    0    0  0.43839385989E+02 -0.50220662283E+02  0.48806526176E+02  0.82620116687E+02  0.00000000000E+00 0. -1.
         -1    1    1    2    0  502  0.24982525533E+02  0.13261769369E+03  0.35940340346E+02  0.13965417046E+03  0.00000000000E+00 0.  1.
<scales pt_clust_5="13000.00000" pt_clust_6="13000.00000" pt_clust_7="13000.00000" pt_clust_8="13000.00000" pt_clust_9="111.76069"></scales>
<clustering>
<clus scale="   79.537">  5  6 -1 -1</clus>
<clus scale="   97.831">  7  8 -1 -1</clus>
<clus scale="  109.494">  1  7  2 -1</clus>
<clus scale="  111.761">  2  9  1 -1</clus>
<clus scale="  111.761">  2  5  1 -1</clus>
</clustering>
</event>
<event>
 9    1  0.4731329E-005  0.1150698E+03  0.7546771E-02  0.1254503E+00
          1   -1    0    0  502    0 -0.00000000000E+00  0.00000000000E+00  0.12349664175E+03  0.12349664175E+03  0.00000000000E+00 0. -1.
         21   -1    0    0  501  502  0.00000000000E+00 -0.00000000000E+00 -0.29281235316E+03  0.29281235316E+03  0.00000000000E+00 0. -1.
        -24    2    1    2    0    0 -0.89158164855E+02 -0.60720837191E+01  0.14868310240E+02  0.12164189087E+03  0.81176563138E+02 0.  0.
         23    2    1    2    0    0  0.74943597017E+01  0.77111254389E+02 -0.12003381024E+03  0.16884663485E+03  0.89993108181E+02 0.  0.
         11    1    3    3    0    0 -0.87971905956E+02 -0.27499615339E+02  0.28188185392E+02  0.96383913995E+02  0.00000000000E+00 0. -1.
        -12    1    3    3    0    0 -0.11862588987E+01  0.21427531620E+02 -0.13319875152E+02  0.25257976870E+02  0.00000000000E+00 0.  1.
        -13    1    4    4    0    0 -0.22505483653E+02  0.10275669873E+01 -0.68668290652E+02  0.72269542889E+02  0.00000000000E+00 0.  1.
         13    1    4    4    0    0  0.29999843354E+02  0.76083687402E+02 -0.51365519589E+02  0.96577091966E+02  0.00000000000E+00 0. -1.
          2    1    1    2  501    0  0.81663805153E+02 -0.71039170670E+02 -0.64150211410E+02  0.12582046918E+03  0.00000000000E+00 0. -1.
<scales pt_clust_5="13000.00000" pt_clust_6="13000.00000" pt_clust_7="13000.00000" pt_clust_8="13000.00000" pt_clust_9="108.23835"></scales>
<clustering>
<clus scale="   81.177">  5  6 -1 -1</clus>
<clus scale="   89.993">  7  8 -1 -1</clus>
<clus scale="  108.238">  2  9  1 -1</clus>
<clus scale="  108.314">  1  5  2 -1</clus>
<clus scale="  108.238">  2  5  1 -1</clus>
</clustering>
</event>
<event>
 9    1  0.4731329E-005  0.1047236E+03  0.7546771E-02  0.1278550E+00
         21   -1    0    0  501  502  0.00000000000E+00  0.00000000000E+00  0.74054050873E+02  0.74054050873E+02  0.00000000000E+00 0. -1.
         -2   -1    0    0    0  501 -0.00000000000E+00 -0.00000000000E+00 -0.20320770768E+03  0.20320770768E+03  0.00000000000E+00 0.  1.
        -24    2    1    2    0    0 -0.17193934451E+01 -0.39926473168E+02 -0.76641298986E+02  0.11546133910E+03  0.76552939478E+02 0.  0.
         23    2    1    2    0    0 -0.28769404358E+02  0.58810326634E+02 -0.53353462387E+02  0.12592739100E+03  0.93406545328E+02 0.  0.
         13    1    3    3    0    0 -0.34312438211E+02 -0.15944244601E+02 -0.61597788360E+02  0.72290039997E+02  0.00000000000E+00 0. -1.
        -14    1    3    3    0    0  0.32593044766E+02 -0.23982228567E+02 -0.15043510626E+02  0.43171299102E+02  0.00000000000E+00 0.  1.
        -11    1    4    4    0    0 -0.61172085097E+02  0.47690748119E+02 -0.25111239546E+02  0.81529171484E+02  0.00000000000E+00 0. -1.
         11    1    4    4    0    0  0.32402680740E+02  0.11119578515E+02 -0.28242222841E+02  0.44398219519E+02  0.00000000000E+00 0.  1.
         -1    1    1    2    0  502  0.30488797803E+02 -0.18883853466E+02  0.84110456866E+00  0.35873028449E+02  0.00000000000E+00 0.  1.
<scales pt_clust_5="13000.00000" pt_clust_6="13000.00000" pt_clust_7="13000.00000" pt_clust_8="13000.00000" pt_clust_9="35.86317"></scales>
<clustering>
<clus scale="   35.863">  1  9  2 -1</clus>
<clus scale="   76.553">  5  6 -1 -1</clus>
<clus scale="   90.014">  2  5  1 -1</clus>
<clus scale="   93.407">  7  8 -1 -1</clus>
<clus scale="   35.863">  1  5  2 -1</clus>
</clustering>
</event>
<event>
 9    1  0.4731329E-005  0.1375355E+03  0.7546771E-02  0.1226672E+00
         21   -1    0    0  501  502  0.00000000000E+00  0.00000000000E+00  0.95662143883E+02  0.95662143883E+02  0.00000000000E+00 0.  1.
          1   -1    0    0  502    0 -0.00000000000E+00 -0.00000000000E+00 -0.36240238487E+03  0.36240238487E+03  0.00000000000E+00 0. -1.
         23    2    1    2    0    0  0.26672686348E+02  0.60941957072E+02 -0.38957176815E+02  0.11818648532E+03  0.89582528190E+02 0.  0.
        -24    2    1    2    0    0  0.73580081207E+02  0.17864533190E+02 -0.15176149752E+03  0.19141808619E+03  0.88747741912E+02 0.  0.
         11    1    4    4    0    0  0.49125288042E+02 -0.33451327685E+02 -0.85285647895E+02  0.10395156077E+03  0.00000000000E+00 0. -1.
        -12    1    4    4    0    0  0.24454793165E+02  0.51315860875E+02 -0.66475849624E+02  0.87466525422E+02  0.00000000000E+00 0.  1.
        -13    1    3    3    0    0  0.25850169131E+02 -0.16855157037E+02 -0.23682615047E+02  0.38899792008E+02  0.00000000000E+00 0.  1.
         13    1    3    3    0    0  0.82251721653E+00  0.77797114109E+02 -0.15274561768E+02  0.79286693307E+02  0.00000000000E+00 0. -1.
          2    1    1    2  501    0 -0.10025276755E+03 -0.78806490262E+02 -0.76021566651E+02  0.14845995725E+03  0.00000000000E+00 0. -1.
<scales pt_clust_5="13000.00000" pt_clust_6="13000.00000" pt_clust_7="13000.00000" pt_clust_8="13000.00000" pt_clust_9="105.07070"></scales>
<clustering>
<clus scale="   88.748">  5  6 -1 -1</clus>
<clus scale="   89.583">  7  8 -1 -1</clus>
<clus scale="  111.581">  2  7  1 -1</clus>
<clus scale="  105.071">  1  9  2 -1</clus>
<clus scale="  105.071">  1  5  2 -1</clus>
</clustering>
</event>
<event>
 9    1  0.4731329E-005  0.1724378E+03  0.7546771E-02  0.1175866E+00
          1   -1    0    0  502    0 -0.00000000000E+00  0.00000000000E+00  0.94219528743E+03  0.94219528743E+03  0.00000000000E+00 0. -1.
         21   -1    0    0  501  502  0.00000000000E+00 -0.00000000000E+00 -0.77535216686E+02  0.77535216686E+02  0.00000000000E+00 0. -1.
         23    2    1    2    0    0  0.10867251495E+03  0.10283699805E+03  0.76118673517E+03  0.78111800766E+03  0.91405319383E+02 0.  0.
        -24    2    1    2    0    0 -0.11003244268E+03 -0.57292486533E+02  0.11186242260E+03  0.19228185094E+03  0.95234138614E+02 0.  0.
         11    1    4    4    0    0 -0.12086570021E+03 -0.30981714437E+02  0.74514600420E+02  0.14533000307E+03  0.00000000000E+00 0. -1.
        -12    1    4    4    0    0  0.10833257534E+02 -0.26310772096E+02  0.37347822178E+02  0.46951847871E+02  0.00000000000E+00 0.  1.
        -13    1    3    3    0    0  0.19538373226E+02  0.20878439410E+02  0.36411505060E+02  0.46297461715E+02  0.00000000000E+00 0.  1.
         13    1    3    3    0    0  0.89134141723E+02  0.81958558636E+02  0.72477523011E+03  0.73482054594E+03  0.00000000000E+00 0. -1.
          2    1    1    2  501    0  0.13599277279E+01 -0.45544511513E+02 -0.83890870308E+01  0.46330645513E+02  0.00000000000E+00 0. -1.
<scales pt_clust_5="13000.00000" pt_clust_6="13000.00000" pt_clust_7="13000.00000" pt_clust_8="13000.00000" pt_clust_9="45.56481"></scales>
<clustering>
<clus scale="   45.565">  2  9  1 -1</clus>
<clus scale="   91.405">  7  8 -1 -1</clus>
<clus scale="   95.234">  5  6 -1 -1</clus>
<clus scale="  170.353">  1  7  2 -1</clus>
<clus scale="   45.565">  2  5  1 -1</clus>
</clustering>
</event>
<event>
 9    1  0.4731329E-005  0.1084563E+03  0.7546771E-02  0.1268730E+00
         -2   -1    0    0    0  501 -0.00000000000E+00  0.00000000000E+00  0.92447342832E+02  0.92447342832E+02  0.00000000000E+00 0.  1.
         21   -1    0    0  501  502  0.00000000000E+00 -0.00000000000E+00 -0.33220715836E+03  0.33220715836E+03  0.00000000000E+00 0. -1.
        -24    2    1    2    0    0 -0.54262996786E+02 -0.41624757602E+02 -0.25554759216E+02  0.10702184442E+03  0.78253026777E+02 0.  0.
         23    2    1    2    0    0 -0.41971017835E+02  0.78904814278E+02 -0.14597364214E+03  0.19391396749E+03  0.91141574124E+02 0.  0.
         13    1    3    3    0    0 -0.58368922189E+02 -0.56567414994E+02 -0.35406339714E+02  0.88658966882E+02  0.00000000000E+00 0. -1.
        -14    1    3    3    0    0  0.41059254023E+01  0.14942657392E+02  0.98515804986E+01  0.18362877543E+02  0.00000000000E+00 0.  1.
        -11    1    4    4    0    0  0.24159957723E+02  0.19950759502E+01 -0.43066622625E+02  0.49420824250E+02  0.00000000000E+00 0.  1.
         11    1    4    4    0    0 -0.66130975558E+02  0.76909738328E+02 -0.10290701952E+03  0.14449314324E+03  0.00000000000E+00 0. -1.
         -1    1    1    2    0  502  0.96234014622E+02 -0.37280056676E+02 -0.68231414164E+02  0.12371868927E+03  0.00000000000E+00 0.  1.
<scales pt_clust_5="13000.00000" pt_clust_6="13000.00000" pt_clust_7="13000.00000" pt_clust_8="13000.00000" pt_clust_9="103.20271"></scales>
<clustering>
<clus scale="   78.253">  5  6 -1 -1</clus>
<clus scale="   91.142">  7  8 -1 -1</clus>
<clus scale="  103.203">  2  9  1 -1</clus>
<clus scale="   97.875">  1  5  2 -1</clus>
<clus scale="  103.203">  2  5  1 -1</clus>
</clustering>
</event>
<event>
 9    1  0.4731329E-005  0.9578469E+02  0.7546771E-02  0.1296058E+00
         21   -1    0    0  501  502  0.00000000000E+00  0.00000000000E+00  0.20962177616E+03  0.20962177616E+03  0.00000000000E+00 0.  1.
         -4   -1    0    0    0  501 -0.00000000000E+00 -0.00000000000E+00 -0.15951635223E+03  0.15951635223E+03  0.00000000000E+00 0.  1.
        -24    2    1    2    0    0 -0.17639826226E+02 -0.57945809792E+01 -0.94583197835E+02  0.12611234399E+03  0.81324051522E+02 0.  0.
         23    2    1    2    0    0  0.31307475571E+02  0.28752822657E+02  0.65766938032E+01  0.10235314972E+03  0.92876431453E+02 0.  0.
         11    1    3    3    0    0 -0.33618346938E+00 -0.26958800857E+02  0.71521969040E+00  0.26970381943E+02  0.00000000000E+00 0. -1.
        -12    1    3    3    0    0 -0.17303642757E+02  0.21164219877E+02 -0.95298417525E+02  0.99141962047E+02  0.00000000000E+00 0.  1.
        -11    1    4    4    0    0 -0.30948131908E+02  0.23690741955E+02  0.83820809264E+01  0.39865993072E+02  0.00000000000E+00 0.  1.
         11    1    4    4    0    0  0.62255607479E+02  0.50620807022E+01 -0.18053871233E+01  0.62487156651E+02  0.00000000000E+00 0. -1.
         -3    1    1    2    0  502 -0.13667649345E+02 -0.22958241678E+02  0.13811192796E+03  0.14067263467E+03  0.00000000000E+00 0.  1.
<scales pt_clust_5="13000.00000" pt_clust_6="13000.00000" pt_clust_7="13000.00000" pt_clust_8="13000.00000" pt_clust_9="26.71864"></scales>
<clustering>
<clus scale="   26.719">  1  9  2 -1</clus>
<clus scale="   81.324">  5  6 -1 -1</clus>
<clus scale="   84.630">  2  5  1 -1</clus>
<clus scale="   92.876">  7  8 -1 -1</clus>
<clus scale="   26.719">  1  5  2 -1</clus>
</clustering>
</event>
<event>
 9    1  0.4731329E-005  0.1180415E+03  0.7546771E-02  0.1249850E+00
          1   -1    0    0  502    0 -0.00000000000E+00  0.00000000000E+00  0.79485013394E+03  0.79485013394E+03  0.00000000000E+00 0. -1.
         21   -1    0    0  501  502  0.00000000000E+00 -0.00000000000E+00 -0.33814360299E+02  0.33814360299E+02  0.00000000000E+00 0.  1.
         23    2    1    2    0    0  0.81528915375E+02  0.59853950933E+02  0.38779789971E+03  0.41090139841E+03  0.90682350598E+02 0.  0.
        -24    2    1    2    0    0 -0.14926081025E+02 -0.38190928072E+02  0.94867694781E+02  0.13071748840E+03  0.80036537780E+02 0.  0.
         13    1    4    4    0    0 -0.42552309040E+02 -0.37197630573E+02  0.83494953928E+02  0.10082544350E+03  0.00000000000E+00 0. -1.
        -14    1    4    4    0    0  0.27626228015E+02 -0.99329749884E+00  0.11372740853E+02  0.29892044907E+02  0.00000000000E+00 0.  1.
        -11    1    3    3    0    0  0.58161247623E+02  0.38969596098E+02  0.36621884979E+03  0.37285064850E+03  0.00000000000E+00 0. -1.
         11    1    3    3    0    0  0.23367667752E+02  0.20884354835E+02  0.21579049915E+02  0.38050749904E+02  0.00000000000E+00 0.  1.
          2    1    1    2  501    0 -0.66602834350E+02 -0.21663022862E+02  0.27837017915E+03  0.28704560743E+03  0.00000000000E+00 0. -1.
<scales pt_clust_5="13000.00000" pt_clust_6="13000.00000" pt_clust_7="13000.00000" pt_clust_8="13000.00000" pt_clust_9="70.03734"></scales>
<clustering>
<clus scale="   70.037">  2  9  1 -1</clus>
<clus scale="   80.037">  5  6 -1 -1</clus>
<clus scale="   90.682">  7  8 -1 -1</clus>
<clus scale="  110.074">  2  5  1 -1</clus>
<clus scale="   70.037">  2  5  1 -1</clus>
</clustering>
</event>
<event>
 9    1  0.4731329E-005  0.1750891E+03  0.7546771E-02  0.1199675E+00
          1   -1    0    0  502    0 -0.00000000000E+00  0.00000000000E+00  0.43553353975E+03  0.43553353975E+03  0.00000000000E+00 0. -1.
         21   -1    0    0  501  502  0.00000000000E+00 -0.00000000000E+00 -0.11072375389E+03  0.11072375389E+03  0.00000000000E+00 0. -1.
         23    2    1    2    0    0 -0.22781835727E+02 -0.26337273914E+02  0.10060556348E+03  0.13903493815E+03  0.89423546038E+02 0.  0.
        -24    2    1    2    0    0  0.12628045952E+03 -0.90467599052E+02  0.16326539807E+03  0.23968464695E+03  0.81621068605E+02 0.  0.
         13    1    4    4    0    0  0.89513147595E+02 -0.82061263998E+02  0.16132086138E+03  0.20191848593E+03  0.00000000000E+00 0. -1.
        -14    1    4    4    0    0  0.36767311926E+02 -0.84063350534E+01  0.19445366862E+01  0.37766161021E+02  0.00000000000E+00 0.  1.
        -11    1    3    3    0    0  0.26035597376E+02 -0.30188913085E+02  0.19707556947E+02  0.44470333986E+02  0.00000000000E+00 0.  1.
         11    1    3    3    0    0 -0.48817433103E+02  0.38516391710E+01  0.80898006536E+02  0.94564604163E+02  0.00000000000E+00 0. -1.
          2    1    1    2  501    0 -0.10349862379E+03  0.11680487297E+03  0.60938824314E+02  0.16753770855E+03  0.00000000000E+00 0. -1.
<scales pt_clust_5="13000.00000" pt_clust_6="13000.00000" pt_clust_7="13000.00000" pt_clust_8="13000.00000" pt_clust_9="154.90061"></scales>
<clustering>
<clus scale="   81.621">  5  6 -1 -1</clus>
<clus scale="   89.424">  7  8 -1 -1</clus>
<clus scale="   95.965">  1  7  2 -1</clus>
<clus scale="  154.901">  2  9  1 -1</clus>
<clus scale="  154.901">  2  5  1 -1</clus>
</clustering>
</event>
<event>
 9    1  0.4731329E-005  0.9277430E+02  0.7546771E-02  0.1302407E+00
         21   -1    0    0  501  502  0.00000000000E+00  0.00000000000E+00  0.17834381222E+03  0.17834381222E+03  0.00000000000E+00 0.  1.
         -4   -1    0    0    0  501 -0.00000000000E+00 -0.00000000000E+00 -0.12829826070E+03  0.12829826070E+03  0.00000000000E+00 0.  1.
         23    2    1    2    0    0  0.16495915379E+02  0.21834696488E+02 -0.83296880217E+02  0.12576892477E+03  0.90169745421E+02 0.  0.
        -24    2    1    2    0    0  0.19349796056E+02 -0.83313128925E+01  0.78529211642E+02  0.11400203709E+03  0.79911213209E+02 0.  0.
         13    1    4    4    0    0 -0.22685520874E+02  0.19003474883E+02  0.15330818579E+02  0.33328650036E+02  0.00000000000E+00 0. -1.
        -14    1    4    4    0    0  0.42035316930E+02 -0.27334787775E+02  0.63198393063E+02  0.80673387049E+02  0.00000000000E+00 0.  1.
        -11    1    3    3    0    0  0.22135016099E+02 -0.32655024985E+02 -0.34910636815E+02  0.52678858732E+02  0.00000000000E+00 0. -1.
         11    1    3    3    0    0 -0.56391007201E+01  0.54489721472E+02 -0.48386243402E+02  0.73090066039E+02  0.00000000000E+00 0.  1.
         -3    1    1    2    0  502 -0.35845711435E+02 -0.13503383595E+02  0.54813220096E+02  0.66871111058E+02  0.00000000000E+00 0.  1.
<scales pt_clust_5="13000.00000" pt_clust_6="13000.00000" pt_clust_7="13000.00000" pt_clust_8="13000.00000" pt_clust_9="38.30478"></scales>
<clustering>
<clus scale="   38.305">  1  9  2 -1</clus>
<clus scale="   79.911">  5  6 -1 -1</clus>
<clus scale="   82.839">  1  5  2 -1</clus>
<clus scale="   90.170">  7  8 -1 -1</clus>
<clus scale="   38.305">  1  5  2 -1</clus>
</clustering>
</event>
<event>
 9    1  0.4731329E-005  0.2092245E+03  0.7546771E-02  0.1177757E+00
         21   -1    0    0  501  502  0.00000000000E+00  0.00000000000E+00  0.50067900481E+02  0.50067900481E+02  0.00000000000E+00 0. -1.
          1   -1    0    0  502    0 -0.00000000000E+00 -0.00000000000E+00 -0.12135321559E+04  0.12135321559E+04  0.00000000000E+00 0. -1.
        -24    2    1    2    0    0  0.30746567334E+02 -0.20137696336E+02 -0.19393292311E+03  0.21438291819E+03  0.83661094475E+02 0.  0.
         23    2    1    2    0    0 -0.19966538127E+03 -0.17320767670E+02 -0.44530516349E+03  0.49717567389E+03  0.93384627288E+02 0.  0.
         11    1    3    3    0    0  0.34160062300E+02 -0.24387739909E+02 -0.20106898601E+03  0.20540304002E+03  0.00000000000E+00 0. -1.
        -12    1    3    3    0    0 -0.34134949659E+01  0.42500435731E+01  0.71360628991E+01  0.89798781704E+01  0.00000000000E+00 0.  1.
        -13    1    4    4    0    0 -0.13256469450E+03 -0.26687826896E+02 -0.37890420618E+03  0.40231086960E+03  0.00000000000E+00 0.  1.
         13    1    4    4    0    0 -0.67100686770E+02  0.93670592262E+01 -0.66400957304E+02  0.94864804297E+02  0.00000000000E+00 0. -1.
          2    1    1    2  501    0  0.16891881393E+03  0.37458464005E+02 -0.52422616881E+03  0.55204146429E+03  0.00000000000E+00 0. -1.
<scales pt_clust_5="13000.00000" pt_clust_6="13000.00000" pt_clust_7="13000.00000" pt_clust_8="13000.00000" pt_clust_9="187.22781"></scales>
<clustering>
<clus scale="   83.661">  5  6 -1 -1</clus>
<clus scale="   91.379">  2  5  1 -1</clus>
<clus scale="   93.385">  7  8 -1 -1</clus>
<clus scale="  187.228">  1  9  2 -1</clus>
<clus scale="  187.228">  1  5  2 -1</clus>
</clustering>
</event>
<event>
 9    1  0.4731329E-005  0.2039263E+03  0.7546771E-02  0.1175692E+00
          1   -1    0    0  502    0 -0.00000000000E+00  0.00000000000E+00  0.11072298003E+04  0.11072298003E+04  0.00000000000E+00 0. -1.
         21   -1    0    0  501  502  0.00000000000E+00 -0.00000000000E+00 -0.58698576320E+02  0.58698576320E+02  0.00000000000E+00 0.  1.
        -24    2    1    2    0    0 -0.33777647702E+01 -0.67568797818E+02  0.34041192641E+03  0.35577108172E+03  0.78203780014E+02 0.  0.
         23    2    1    2    0    0 -0.32211385839E+02  0.21238718918E+03  0.33358613334E+03  0.40702698691E+03  0.90804009879E+02 0.  0.
         13    1    3    3    0    0  0.31471072863E+02 -0.34500858356E+02  0.23946260197E+03  0.24397351372E+03  0.00000000000E+00 0. -1.
        -14    1    3    3    0    0 -0.34848837633E+02 -0.33067939462E+02  0.10094932445E+03  0.11179756800E+03  0.00000000000E+00 0.  1.
        -13    1    4    4    0    0 -0.62483520523E+02  0.16763388984E+03  0.26453916084E+03  0.31935290663E+03  0.00000000000E+00 0.  1.
         13    1    4    4    0    0  0.30272134683E+02  0.44753299347E+02  0.69046972503E+02  0.87674080278E+02  0.00000000000E+00 0. -1.
          2    1    1    2  501    0  0.35589150609E+02 -0.14481839136E+03  0.37453316426E+03  0.40313030803E+03  0.00000000000E+00 0. -1.
<scales pt_clust_5="13000.00000" pt_clust_6="13000.00000" pt_clust_7="13000.00000" pt_clust_8="13000.00000" pt_clust_9="182.59408"></scales>
<clustering>
<clus scale="   78.204">  5  6 -1 -1</clus>
<clus scale="   90.804">  7  8 -1 -1</clus>
<clus scale="  103.406">  1  5  2 -1</clus>
<clus scale="  182.594">  2  9  1 -1</clus>
<clus scale="  182.594">  2  5  1 -1</clus>
</clustering>
</event>
<event>
 9    1  0.4731329E-005  0.1373692E+03  0.7546771E-02  0.1219685E+00
          1   -1    0    0  502    0 -0.00000000000E+00  0.00000000000E+00  0.38402666623E+03  0.38402666623E+03  0.00000000000E+00 0. -1.
         21   -1    0    0  501  502  0.00000000000E+00 -0.00000000000E+00 -0.67618817391E+02  0.67618817391E+02  0.00000000000E+00 0. -1.
         23    2    1    2    0    0  0.85916686443E+02  0.70261786940E+01  0.12629859834E+03  0.17840234231E+03  0.91896766017E+02 0.  0.
        -24    2    1    2    0    0 -0.11781287456E+03  0.26153187645E+02  0.16941301626E+03  0.22277957743E+03  0.79787890084E+02 0.  0.
         11    1    4    4    0    0 -0.60773174217E+02  0.50959698748E+02  0.71513490625E+02  0.10679161457E+03  0.00000000000E+00 0. -1.
        -12    1    4    4    0    0 -0.57039700348E+02 -0.24806511103E+02  0.97899525635E+02  0.11598796286E+03  0.00000000000E+00 0.  1.
        -11    1    3    3    0    0  0.50101385409E+02 -0.31171719261E+02  0.24430561178E+02  0.63864522397E+02  0.00000000000E+00 0. -1.
         11    1    3    3    0    0  0.35815301034E+02  0.38197897954E+02  0.10186803716E+03  0.11453781992E+03  0.00000000000E+00 0.  1.
          2    1    1    2  501    0  0.31896188121E+02 -0.33179366339E+02  0.20696234238E+02  0.50463563875E+02  0.00000000000E+00 0. -1.
<scales pt_clust_5="13000.00000" pt_clust_6="13000.00000" pt_clust_7="13000.00000" pt_clust_8="13000.00000" pt_clust_9="46.02431"></scales>
<clustering>
<clus scale="   46.024">  2  9  1 -1</clus>
<clus scale="   79.788">  5  6 -1 -1</clus>
<clus scale="   91.897">  7  8 -1 -1</clus>
<clus scale="  129.582">  2  5  1 -1</clus>
<clus scale="   46.024">  2  5  1 -1</clus>
</clustering>
</event>
<event>
 9    1  0.4731329E-005  0.1368601E+03  0.7546771E-02  0.1236590E+00
         21   -1    0    0  501  502  0.00000000000E+00  0.00000000000E+00  0.89245111554E+03  0.89245111554E+03  0.00000000000E+00 0.  1.
         -4   -1    0    0    0  501 -0.00000000000E+00 -0.00000000000E+00 -0.11862301706E+03  0.11862301706E+03  0.00000000000E+00 0.  1.
         23    2    1    2    0    0 -0.52398938710E+01 -0.18625410347E+02  0.93378582865E+02  0.13131174739E+03  0.90270996812E+02 0.  0.
        -24    2    1    2    0    0  0.99874552384E+02  0.67813964397E+02 -0.38744470030E+02  0.15270308817E+03  0.85108396744E+02 0.  0.
         11    1    4    4    0    0  0.48184787231E+02 -0.14569381647E+02 -0.10426566502E+02  0.51407722096E+02  0.00000000000E+00 0. -1.
        -12    1    4    4    0    0  0.51689765152E+02  0.82383346044E+02 -0.28317903527E+02  0.10129536607E+03  0.00000000000E+00 0.  1.
        -11    1    3    3    0    0  0.82139476702E+01  0.28646133310E+02  0.50436009284E+01  0.30224291559E+02  0.00000000000E+00 0.  1.
         11    1    3    3    0    0 -0.13453841541E+02 -0.47271543656E+02  0.88334981937E+02  0.10108745583E+03  0.00000000000E+00 0. -1.
         -3    1    1    2    0  502 -0.94634658513E+02 -0.49188554051E+02  0.71919398564E+03  0.72705929705E+03  0.00000000000E+00 0.  1.
<scales pt_clust_5="13000.00000" pt_clust_6="13000.00000" pt_clust_7="13000.00000" pt_clust_8="13000.00000" pt_clust_9="107.17863"></scales>
<clustering>
<clus scale="   85.108">  5  6 -1 -1</clus>
<clus scale="   90.271">  7  8 -1 -1</clus>
<clus scale="   92.321">  2  7  1 -1</clus>
<clus scale="  107.179">  1  9  2 -1</clus>
<clus scale="  107.179">  1  5  2 -1</clus>
</clustering>
</event>
<event>
 9    1  0.4731329E-005  0.1200554E+03  0.7546771E-02  0.1245496E+00
         -4   -1    0    0    0  501 -0.00000000000E+00  0.00000000000E+00  0.12911270752E+03  0.12911270752E+03  0.00000000000E+00 0.  1.
         21   -1    0    0  501  502  0.00000000000E+00 -0.00000000000E+00 -0.20047501826E+03  0.20047501826E+03  0.00000000000E+00 0. -1.
         23    2    1    2    0    0 -0.14573575308E+02 -0.65428233189E+02 -0.82331367872E+01  0.11129818756E+03  0.88466147298E+02 0.  0.
        -24    2    1    2    0    0  0.82177665205E+02  0.71607194638E+02 -0.17543423962E+02  0.13651819153E+03  0.80303710456E+02 0.  0.
         13    1    4    4    0    0  0.47001540138E+02  0.85250490845E+02 -0.16758359905E+02  0.98780734921E+02  0.00000000000E+00 0. -1.
        -14    1    4    4    0    0  0.35176125067E+02 -0.13643296207E+02 -0.78506405716E+00  0.37737456614E+02  0.00000000000E+00 0.  1.
        -13    1    3    3    0    0 -0.16637098463E+02 -0.38804456779E+02 -0.47664956573E+02  0.63675167815E+02  0.00000000000E+00 0.  1.
         13    1    3    3    0    0  0.20635231551E+01 -0.26623776410E+02  0.39431819786E+02  0.47623019747E+02  0.00000000000E+00 0. -1.
         -3    1    1    2    0  502 -0.67604089897E+02 -0.61789614489E+01 -0.45585749998E+02  0.81771346682E+02  0.00000000000E+00 0.  1.
<scales pt_clust_5="13000.00000" pt_clust_6="13000.00000" pt_clust_7="13000.00000" pt_clust_8="13000.00000" pt_clust_9="67.88588"></scales>
<clustering>
<clus scale="   67.886">  2  9  1 -1</clus>
<clus scale="   80.304">  5  6 -1 -1</clus>
<clus scale="   88.466">  7  8 -1 -1</clus>
<clus scale="  114.174">  2  5  1 -1</clus>
<clus scale="   67.886">  2  5  1 -1</clus>
</clustering>
</event>
<event>
 9    1  0.4731329E-005  0.1055372E+03  0.7546771E-02  0.1272797E+00
         21   -1    0    0  501  502  0.00000000000E+00  0.00000000000E+00  0.30637146527E+02  0.30637146527E+02  0.00000000000E+00 0.  1.
         -2   -1    0    0    0  501 -0.00000000000E+00 -0.00000000000E+00 -0.90564218059E+03  0.90564218059E+03  0.00000000000E+00 0.  1.
        -24    2    1    2    0    0 -0.59023959913E+02 -0.85999279609E+01 -0.68429647766E+03  0.69193878034E+03  0.83425534467E+02 0.  0.
         23    2    1    2    0    0  0.28639459183E+02 -0.40858750948E+01 -0.18803863255E+03  0.21130608027E+03  0.91950090963E+02 0.  0.
         13    1    3    3    0    0 -0.26958991792E+02 -0.26605216879E+02 -0.10761549904E+03  0.11408646036E+03  0.00000000000E+00 0. -1.
        -14    1    3    3    0    0 -0.32064968121E+02  0.18005288918E+02 -0.57668097862E+03  0.57785231999E+03  0.00000000000E+00 0.  1.
        -11    1    4    4    0    0  0.40271308931E+02 -0.36144790179E+02 -0.15353703467E+03  0.16279387333E+03  0.00000000000E+00 0. -1.
         11    1    4    4    0    0 -0.11631849749E+02  0.32058915085E+02 -0.34501597883E+02  0.48512206933E+02  0.00000000000E+00 0.  1.
         -1    1    1    2    0  502  0.30384500730E+02  0.12685803056E+02 -0.26699238474E+01  0.33034466503E+02  0.00000000000E+00 0.  1.
<scales pt_clust_5="13000.00000" pt_clust_6="13000.00000" pt_clust_7="13000.00000" pt_clust_8="13000.00000" pt_clust_9="32.92639"></scales>
<clustering>
<clus scale="   32.926">  1  9  2 -1</clus>
<clus scale="   83.426">  5  6 -1 -1</clus>
<clus scale="   91.950">  7  8 -1 -1</clus>
<clus scale="   98.199">  2  5  1 -1</clus>
<clus scale="   32.926">  1  5  2 -1</clus>
</clustering>
</event>
<event>
 9    1  0.4731329E-005  0.1643097E+03  0.7546771E-02  0.1200604E+00
         21   -1    0    0  501  502  0.00000000000E+00  0.00000000000E+00  0.10006369322E+03  0.10006369322E+03  0.00000000000E+00 0. -1.
          1   -1    0    0  502    0 -0.00000000000E+00 -0.00000000000E+00 -0.47934491885E+03  0.47934491885E+03  0.00000000000E+00 0. -1.
         23    2    1    2    0    0 -0.67987260947E+01  0.67753401193E+02 -0.94091055425E+02  0.14766006742E+03  0.91179069690E+02 0.  0.
        -24    2    1    2    0    0  0.84920120630E+02  0.75815825353E+02 -0.21067287738E+03  0.25211585825E+03  0.78866206033E+02 0.  0.
         11    1    4    4    0    0  0.62273134553E+02  0.82878473447E+02 -0.12089058608E+03  0.15925237345E+03  0.00000000000E+00 0. -1.
        -12    1    4    4    0    0  0.22646986076E+02 -0.70626480946E+01 -0.89782291306E+02  0.92863484797E+02  0.00000000000E+00 0.  1.
        -13    1    3    3    0    0  0.29089587445E+02  0.12565485245E+02 -0.71251464486E+02  0.77979912212E+02  0.00000000000E+00 0.  1.
         13    1    3    3    0    0 -0.35888313540E+02  0.55187915949E+02 -0.22839590939E+02  0.69680155208E+02  0.00000000000E+00 0. -1.
          2    1    1    2  501    0 -0.78121394535E+02 -0.14356922655E+03 -0.74517292824E+02  0.17963268640E+03  0.00000000000E+00 0. -1.
<scales pt_clust_5="13000.00000" pt_clust_6="13000.00000" pt_clust_7="13000.00000" pt_clust_8="13000.00000" pt_clust_9="144.14502"></scales>
<clustering>
<clus scale="   78.866">  5  6 -1 -1</clus>
<clus scale="   91.179">  7  8 -1 -1</clus>
<clus scale="  113.800">  2  7  1 -1</clus>
<clus scale="  144.145">  1  9  2 -1</clus>
<clus scale="  144.145">  1  5  2 -1</clus>
</clustering>
</event>
<event>
 9    1  0.4731329E-005  0.1462691E+03  0.7546771E-02  0.1208576E+00
          1   -1    0    0  502    0 -0.00000000000E+00  0.00000000000E+00  0.68853969887E+03  0.68853969887E+03  0.00000000000E+00 0. -1.
         21   -1    0    0  501  502  0.00000000000E+00 -0.00000000000E+00 -0.14281955828E+03  0.14281955828E+03  0.00000000000E+00 0. -1.
         23    2    1    2    0    0  0.31541388806E+02 -0.11136034716E+03  0.61165015834E+03  0.62932346689E+03  0.92391144918E+02 0.  0.
        -24    2    1    2    0    0 -0.47052077537E+02  0.87877474596E+02  0.60187280828E+01  0.12477875953E+03  0.74814204533E+02 0.  0.
         11    1    4    4    0    0 -0.30869526062E+02 -0.27688287255E+01  0.10131816197E+02  0.32607479990E+02  0.00000000000E+00 0. -1.
        -12    1    4    4    0    0 -0.16182551475E+02  0.90646303321E+02 -0.41130881138E+01  0.92171279539E+02  0.00000000000E+00 0.  1.
        -13    1    3    3    0    0 -0.23747318174E+02 -0.38148928085E+01  0.61405640843E+02  0.65948019340E+02  0.00000000000E+00 0.  1.
         13    1    3    3    0    0  0.55288706979E+02 -0.10754545435E+03  0.55024451750E+03  0.56337544755E+03  0.00000000000E+00 0. -1.
          2    1    1    2  501    0  0.15510688731E+02  0.23482872565E+02 -0.71948745840E+02  0.77257030727E+02  0.00000000000E+00 0. -1.
<scales pt_clust_5="13000.00000" pt_clust_6="13000.00000" pt_clust_7="13000.00000" pt_clust_8="13000.00000" pt_clust_9="28.14297"></scales>
<clustering>
<clus scale="   28.143">  2  9  1 -1</clus>
<clus scale="   74.814">  5  6 -1 -1</clus>
<clus scale="   92.391">  7  8 -1 -1</clus>
<clus scale="  135.852">  2  5  1 -1</clus>
<clus scale="   28.143">  2  5  1 -1</clus>
</clustering>
</event>
<event>
 9    1  0.4731329E-005  0.2350499E+03  0.7546771E-02  0.1123393E+00
         -4   -1    0    0    0  501 -0.00000000000E+00  0.00000000000E+00  0.16297538061E+04  0.16297538061E+04  0.00000000000E+00 0.  1.
         21   -1    0    0  501  502  0.00000000000E+00 -0.00000000000E+00 -0.78642125568E+02  0.78642125568E+02  0.00000000000E+00 0.  1.
        -24    2    1    2    0    0  0.16619326974E+03  0.15693756214E+03  0.11020143218E+04  0.11287398443E+04  0.85839788967E+02 0.  0.
         23    2    1    2    0    0 -0.19448251743E+03 -0.68392394830E+02  0.42927373810E+03  0.48461133940E+03  0.89840073426E+02 0.  0.
         11    1    3    3    0    0  0.24373852853E+02  0.72747924480E+02  0.27860973857E+03  0.28898050392E+03  0.00000000000E+00 0. -1.
        -12    1    3    3    0    0  0.14181941689E+03  0.84189637662E+02  0.82340458319E+03  0.83975934036E+03  0.00000000000E+00 0.  1.
        -11    1    4    4    0    0 -0.16308550535E+03 -0.20875061196E+02  0.35307850800E+03  0.38948309725E+03  0.00000000000E+00 0.  1.
         11    1    4    4    0    0 -0.31397012085E+02 -0.47517333634E+02  0.76195230100E+02  0.95128242144E+02  0.00000000000E+00 0. -1.
         -3    1    1    2    0  502  0.28289247689E+02 -0.88545167313E+02  0.19823620700E+02  0.95044748024E+02  0.00000000000E+00 0.  1.
<scales pt_clust_5="13000.00000" pt_clust_6="13000.00000" pt_clust_7="13000.00000" pt_clust_8="13000.00000" pt_clust_9="92.95444"></scales>
<clustering>
<clus scale="   85.840">  5  6 -1 -1</clus>
<clus scale="   89.840">  7  8 -1 -1</clus>
<clus scale="   92.954">  2  9  1 -1</clus>
<clus scale="  233.550">  1  5  2 -1</clus>
<clus scale="   92.954">  2  5  1 -1</clus>
</clustering>
</event>
<event>
 9    1  0.4731329E-005  0.1065746E+03  0.7546771E-02  0.1269949E+00
         -2   -1    0    0    0  501 -0.00000000000E+00  0.00000000000E+00  0.17197925575E+03  0.17197925575E+03  0.00000000000E+00 0.  1.
         21   -1    0    0  501  502  0.00000000000E+00 -0.00000000000E+00 -0.37076913109E+03  0.37076913109E+03  0.00000000000E+00 0. -1.
        -24    2    1    2    0    0  0.72949032313E+02  0.13243030091E+02  0.73634201704E+02  0.13497430480E+03  0.85434935093E+02 0.  0.
         23    2    1    2    0    0 -0.12686154845E+02  0.65051758528E+02  0.45859503675E+01  0.11367164477E+03  0.92236338128E+02 0.  0.
         11    1    3    3    0    0  0.66275863511E+02 -0.21557447244E+02  0.70925191054E+02  0.99436393447E+02  0.00000000000E+00 0. -1.
        -12    1    3    3    0    0  0.66731688015E+01  0.34800477335E+02  0.27090106502E+01  0.35537911353E+02  0.00000000000E+00 0.  1.
        -11    1    4    4    0    0  0.21735389597E+01 -0.22805650249E+02  0.86152875983E+01  0.24475398573E+02  0.00000000000E+00 0.  1.
         11    1    4    4    0    0 -0.14859693805E+02  0.87857408777E+02 -0.40293372308E+01  0.89196246196E+02  0.00000000000E+00 0. -1.
         -1    1    1    2    0  502 -0.60262877468E+02 -0.78294788619E+02 -0.27701002740E+03  0.29410243727E+03  0.00000000000E+00 0.  1.
<scales pt_clust_5="13000.00000" pt_clust_6="13000.00000" pt_clust_7="13000.00000" pt_clust_8="13000.00000" pt_clust_9="98.80126"></scales>
<clustering>
<clus scale="   85.435">  5  6 -1 -1</clus>
<clus scale="   92.236">  7  8 -1 -1</clus>
<clus scale="   98.801">  2  9  1 -1</clus>
<clus scale="  100.746">  1  5  2 -1</clus>
<clus scale="   98.801">  2  5  1 -1</clus>
</clustering>
</event>
<event>
 9    1  0.4731329E-005  0.2409578E+03  0.7546771E-02  0.1141294E+00
         21   -1    0    0  501  502  0.00000000000E+00  0.00000000000E+00  0.10103432514E+04  0.10103432514E+04  0.00000000000E+00 0. -1.
          1   -1    0    0  502    0 -0.00000000000E+00 -0.00000000000E+00 -0.78745073388E+03  0.78745073388E+03  0.00000000000E+00 0. -1.
        -24    2    1    2    0    0  0.42312841814E+02  0.10696475025E+03 -0.58673612244E+03  0.60319015540E+03  0.79669641778E+02 0.  0.
         23    2    1    2    0    0  0.10961337638E+03  0.66648563226E+02 -0.14404596685E+03  0.21342167857E+03  0.91337008127E+02 0.  0.
         11    1    3    3    0    0  0.23992481349E+02  0.11664074834E+03 -0.50844178080E+03  0.52220086920E+03  0.00000000000E+00 0. -1.
        -12    1    3    3    0    0  0.18320360465E+02 -0.96759980821E+01 -0.78294341641E+02  0.80989286202E+02  0.00000000000E+00 0.  1.
        -13    1    4    4    0    0  0.28496871423E+02 -0.21859686164E+02 -0.46357086706E+02  0.58642109852E+02  0.00000000000E+00 0.  1.
         13    1    4    4    0    0  0.81116504956E+02  0.88508249391E+02 -0.97688880147E+02  0.15477956871E+03  0.00000000000E+00 0. -1.
          2    1    1    2  501    0 -0.15192621819E+03 -0.17361331348E+03  0.95367460685E+03  0.98118215136E+03  0.00000000000E+00 0. -1.
<scales pt_clust_5="13000.00000" pt_clust_6="13000.00000" pt_clust_7="13000.00000" pt_clust_8="13000.00000" pt_clust_9="222.97584"></scales>
<clustering>
<clus scale="   79.670">  5  6 -1 -1</clus>
<clus scale="   91.337">  7  8 -1 -1</clus>
<clus scale="  139.925">  2  5  1 -1</clus>
<clus scale="  222.976">  1  9  2 -1</clus>
<clus scale="  222.976">  1  5  2 -1</clus>
</clustering>
</event>
<event>
 9    1  0.4731329E-005  0.1941887E+03  0.7546771E-02  0.1156078E+00
         -2   -1    0    0    0  501 -0.00000000000E+00  0.00000000000E+00  0.12427522696E+03  0.12427522696E+03  0.00000000000E+00 0.  1.
         21   -1    0    0  501  502  0.00000000000E+00 -0.00000000000E+00 -0.59191947041E+03  0.59191947041E+03  0.00000000000E+00 0.  1.
         23    2    1    2    0    0 -0.13526731626E+03 -0.85361813826E+00 -0.17214460580E+03  0.23659282593E+03  0.89690715592E+02 0.  0.
        -24    2    1    2    0    0  0.22559983888E+03 -0.62934868439E+02 -0.27141867837E+03  0.36642577740E+03  0.75786980433E+02 0.  0.
         13    1    4    4    0    0  0.10608375355E+03 -0.55861079403E+02 -0.93809356926E+02  0.15223146326E+03  0.00000000000E+00 0. -1.
        -14    1    4    4    0    0  0.11951608533E+03 -0.70737890362E+01 -0.17760932145E+03  0.21419431414E+03  0.00000000000E+00 0.  1.
        -11    1    3    3    0    0 -0.43818256784E+02 -0.39148384753E+02 -0.38736316817E+02  0.70378532927E+02  0.00000000000E+00 0.  1.
         11    1    3    3    0    0 -0.91449059480E+02  0.38294766615E+02 -0.13340828899E+03  0.16621429301E+03  0.00000000000E+00 0. -1.
         -1    1    1    2    0  502 -0.90332522614E+02  0.63788486577E+02 -0.24080959280E+02  0.11317609404E+03  0.00000000000E+00 0.  1.
<scales pt_clust_5="13000.00000" pt_clust_6="13000.00000" pt_clust_7="13000.00000" pt_clust_8="13000.00000" pt_clust_9="110.58457"></scales>
<clustering>
<clus scale="   75.787">  5  6 -1 -1</clus>
<clus scale="   89.691">  7  8 -1 -1</clus>
<clus scale="  110.585">  2  9  1 -1</clus>
<clus scale="  188.171">  2  5  1 -1</clus>
<clus scale="  110.585">  2  5  1 -1</clus>
</clustering>
</event>
<event>
 9    1  0.4731329E-005  0.9474567E+02  0.7546771E-02  0.1301195E+00
          1   -1    0    0  502    0 -0.00000000000E+00  0.00000000000E+00  0.24563186510E+03  0.24563186510E+03  0.00000000000E+00 0. -1.
         21   -1    0    0  501  502  0.00000000000E+00 -0.00000000000E+00 -0.61573790350E+02  0.61573790350E+02  0.00000000000E+00 0.  1.
        -24    2    1    2    0    0 -0.94730038987E+01  0.13505229592E+02  0.14654581566E+03  0.16708344755E+03  0.78543448669E+02 0.  0.
         23    2    1    2    0    0 -0.12183131205E+02 -0.79314351553E+01  0.56690042359E+02  0.11066303712E+03  0.93921299671E+02 0.  0.
         11    1    3    3    0    0 -0.27875909167E+02 -0.34403120797E+01  0.13772135809E+03  0.14055630379E+03  0.00000000000E+00 0. -1.
        -12    1    3    3    0    0  0.18402905269E+02  0.16945541672E+02  0.88244575651E+01  0.26527143763E+02  0.00000000000E+00 0.  1.
        -11    1    4    4    0    0 -0.35070457966E+02 -0.41334854691E+02  0.37044927181E+02  0.65656940716E+02  0.00000000000E+00 0. -1.
         11    1    4    4    0    0  0.22887326761E+02  0.33403419536E+02  0.19645115178E+02  0.45006096402E+02  0.00000000000E+00 0.  1.
          2    1    1    2  501    0  0.21656135104E+02 -0.55737944370E+01 -0.19177783269E+02  0.29459170782E+02  0.00000000000E+00 0. -1.
<scales pt_clust_5="13000.00000" pt_clust_6="13000.00000" pt_clust_7="13000.00000" pt_clust_8="13000.00000" pt_clust_9="22.36192"></scales>
<clustering>
<clus scale="   22.362">  2  9  1 -1</clus>
<clus scale="   78.543">  5  6 -1 -1</clus>
<clus scale="   79.527">  1  5  2 -1</clus>
<clus scale="   93.921">  7  8 -1 -1</clus>
<clus scale="   22.362">  2  5  1 -1</clus>
</clustering>
</event>
<event>
 9    1  0.4731329E-005  0.1112915E+03  0.7546771E-02  0.1262964E+00
         21   -1    0    0  501  502  0.00000000000E+00  0.00000000000E+00  0.78377724411E+02  0.78377724411E+02  0.00000000000E+00 0. -1.
          1   -1    0    0  502    0 -0.00000000000E+00 -0.00000000000E+00 -0.44993758966E+03  0.44993758966E+03  0.00000000000E+00 0. -1.
         23    2    1    2    0    0 -0.25574398608E+02 -0.60143062954E+02 -0.38641968528E+03  0.40285772196E+03  0.93289512157E+02 0.  0.
        -24    2    1    2    0    0  0.25757177304E+02  0.24059684547E+02  0.10311888914E+02  0.89088274243E+02  0.81167018865E+02 0.  0.
         11    1    4    4    0    0  0.28182107225E+02  0.26716252887E+02 -0.29716588034E+02  0.48898516750E+02  0.00000000000E+00 0. -1.
        -12    1    4    4    0    0 -0.24249299216E+01 -0.26565683401E+01  0.40028476948E+02  0.40189757492E+02  0.00000000000E+00 0.  1.
        -11    1    3    3    0    0  0.25094956466E+02 -0.44046947967E+02 -0.27208012021E+03  0.27676250157E+03  0.00000000000E+00 0.  1.
         11    1    3    3    0    0 -0.50669355074E+02 -0.16096114987E+02 -0.11433956508E+03  0.12609522038E+03  0.00000000000E+00 0. -1.
          2    1    1    2  501    0 -0.18277869537E+00  0.36083378407E+02  0.45479311181E+01  0.36369317876E+02  0.00000000000E+00 0. -1.
<scales pt_clust_5="13000.00000" pt_clust_6="13000.00000" pt_clust_7="13000.00000" pt_clust_8="13000.00000" pt_clust_9="36.08384"></scales>
<clustering>
<clus scale="   36.084">  1  9  2 -1</clus>
<clus scale="   81.167">  5  6 -1 -1</clus>
<clus scale="   93.290">  7  8 -1 -1</clus>
<clus scale="  101.346">  1  5  2 -1</clus>
<clus scale="   36.084">  1  5  2 -1</clus>
</clustering>
</event>
<event>
 9    1  0.4731329E-005  0.3696596E+03  0.7546771E-02  0.1054823E+00
         21   -1    0    0  501  502  0.00000000000E+00  0.00000000000E+00  0.44820503254E+03  0.44820503254E+03  0.00000000000E+00 0.  1.
          1   -1    0    0  502    0 -0.00000000000E+00 -0.00000000000E+00 -0.25586551754E+03  0.25586551754E+03  0.00000000000E+00 0. -1.
        -24    2    1    2    0    0 -0.32111634601E+02 -0.25786515499E+03  0.77006007336E+01  0.27206625022E+03  0.80219386813E+02 0.  0.
         23    2    1    2    0    0  0.15287991809E+02 -0.26080215371E+02  0.95573379867E+01  0.97995966648E+02  0.92725220100E+02 0.  0.
         11    1    3    3    0    0  0.12128204641E+02 -0.28100430448E+02  0.21925693390E+02  0.37649217387E+02  0.00000000000E+00 0. -1.
        -12    1    3    3    0    0 -0.44239839242E+02 -0.22976472454E+03 -0.14225092656E+02  0.23441703283E+03  0.00000000000E+00 0.  1.
        -11    1    4    4    0    0 -0.39243733235E+02 -0.12668747284E+02  0.65874613273E+01  0.41760775887E+02  0.00000000000E+00 0. -1.
         11    1    4    4    0    0  0.54531725044E+02 -0.13411468087E+02  0.29698766594E+01  0.56235190760E+02  0.00000000000E+00 0.  1.
          2    1    1    2  501    0  0.16823642793E+02  0.28394537036E+03  0.17508157627E+03  0.33400833321E+03  0.00000000000E+00 0. -1.
<scales pt_clust_5="13000.00000" pt_clust_6="13000.00000" pt_clust_7="13000.00000" pt_clust_8="13000.00000" pt_clust_9="284.44333"></scales>
<clustering>
<clus scale="   80.219">  5  6 -1 -1</clus>
<clus scale="   92.725">  7  8 -1 -1</clus>
<clus scale="   95.169">  5  7 -1 -1</clus>
<clus scale="  284.443">  1  9  2 -1</clus>
<clus scale="  284.443">  1  5  2 -1</clus>
</clustering>
</event>
<event>
 9    1  0.4731329E-005  0.1190925E+03  0.7546771E-02  0.1246847E+00
         21   -1    0    0  501  502  0.00000000000E+00  0.00000000000E+00  0.58895877027E+03  0.58895877027E+03  0.00000000000E+00 0. -1.
          3   -1    0    0  502    0 -0.00000000000E+00 -0.00000000000E+00 -0.49350937516E+02  0.49350937516E+02  0.00000000000E+00 0. -1.
        -24    2    1    2    0    0 -0.72956876832E+02  0.43805781532E+02  0.51357714639E+02  0.12824822296E+03  0.81045292688E+02 0.  0.
         23    2    1    2    0    0  0.64220998862E+02 -0.96811612644E+01  0.32263890503E+03  0.34074556953E+03  0.88281473355E+02 0.  0.
         11    1    3    3    0    0 -0.72552394721E+02  0.36736516460E+02  0.51334936075E+01  0.81484810720E+02  0.00000000000E+00 0. -1.
        -12    1    3    3    0    0 -0.40448211049E+00  0.70692650716E+01  0.46224221031E+02  0.46763412241E+02  0.00000000000E+00 0.  1.
        -13    1    4    4    0    0 -0.11018720371E+02 -0.29245741922E+02  0.77100209762E+02  0.83193557229E+02  0.00000000000E+00 0.  1.
         13    1    4    4    0    0  0.75239719232E+02  0.19564580658E+02  0.24553869526E+03  0.25755201230E+03  0.00000000000E+00 0. -1.
          4    1    1    2  501    0  0.87358779702E+01 -0.34124620267E+02  0.16561121309E+03  0.16931591530E+03  0.00000000000E+00 0. -1.
<scales pt_clust_5="13000.00000" pt_clust_6="13000.00000" pt_clust_7="13000.00000" pt_clust_8="13000.00000" pt_clust_9="35.22507"></scales>
<clustering>
<clus scale="   35.225">  1  9  2 -1</clus>
<clus scale="   81.045">  5  6 -1 -1</clus>
<clus scale="   88.281">  7  8 -1 -1</clus>
<clus scale="  113.832">  2  5  1 -1</clus>
<clus scale="   35.225">  1  5  2 -1</clus>
</clustering>
</event>
<event>
 9    1  0.4731329E-005  0.1632775E+03  0.7546771E-02  0.1186683E+00
         21   -1    0    0  501  502  0.00000000000E+00  0.00000000000E+00  0.40253540487E+03  0.40253540487E+03  0.00000000000E+00 0.  1.
         -4   -1    0    0    0  501 -0.00000000000E+00 -0.00000000000E+00 -0.10860653188E+03  0.10860653188E+03  0.00000000000E+00 0.  1.
        -24    2    1    2    0    0 -0.50685476617E+02  0.11675611841E+03  0.20039565216E+02  0.15207571102E+03  0.80773937520E+02 0.  0.
         23    2    1    2    0    0  0.62264770175E+02 -0.14946798369E+03  0.26401800150E+03  0.32298868622E+03  0.91643911698E+02 0.  0.
         13    1    3    3    0    0 -0.29772848839E+02  0.20051358752E+02 -0.24615931438E+02  0.43524976696E+02  0.00000000000E+00 0. -1.
        -14    1    3    3    0    0 -0.20912627778E+02  0.96704759662E+02  0.44655496654E+02  0.10855073433E+03  0.00000000000E+00 0.  1.
        -13    1    4    4    0    0  0.26543418674E+02 -0.14793774472E+03  0.21332816774E+03  0.26095792101E+03  0.00000000000E+00 0.  1.
         13    1    4    4    0    0  0.35721351502E+02 -0.15302389676E+01  0.50689833765E+02  0.62030765202E+02  0.00000000000E+00 0. -1.
         -3    1    1    2    0  502 -0.11579293558E+02  0.32711865277E+02  0.98713062748E+01  0.36077539506E+02  0.00000000000E+00 0.  1.
<scales pt_clust_5="13000.00000" pt_clust_6="13000.00000" pt_clust_7="13000.00000" pt_clust_8="13000.00000" pt_clust_9="34.70083"></scales>
<clustering>
<clus scale="   34.701">  1  9  2 -1</clus>
<clus scale="   80.774">  5  6 -1 -1</clus>
<clus scale="   91.644">  7  8 -1 -1</clus>
<clus scale="  157.434">  2  5  1 -1</clus>
<clus scale="   34.701">  1  5  2 -1</clus>
</clustering>
</event>
<event>
 9    1  0.4731329E-005  0.1002960E+03  0.7546771E-02  0.1286332E+00
         -2   -1    0    0    0  501 -0.00000000000E+00  0.00000000000E+00  0.13244454798E+03  0.13244454798E+03  0.00000000000E+00 0.  1.
         21   -1    0    0  501  502  0.00000000000E+00 -0.00000000000E+00 -0.13938700234E+03  0.13938700234E+03  0.00000000000E+00 0.  1.
        -24    2    1    2    0    0 -0.11695001814E+02  0.23033443952E+02 -0.37287860917E+01  0.83409586953E+02  0.79220847901E+02 0.  0.
         23    2    1    2    0    0  0.24330577873E+02 -0.62004168838E+02 -0.51645029565E+02  0.12498717845E+03  0.92293508582E+02 0.  0.
         13    1    3    3    0    0 -0.19247641314E+01 -0.27192922365E+02  0.12133794335E+02  0.29839381842E+02  0.00000000000E+00 0. -1.
        -14    1    3    3    0    0 -0.97702376827E+01  0.50226366318E+02 -0.15862580427E+02  0.53570205111E+02  0.00000000000E+00 0.  1.
        -13    1    4    4    0    0  0.12487723088E+02  0.23904211793E+02 -0.14802196624E+02  0.30764583440E+02  0.00000000000E+00 0. -1.
         13    1    4    4    0    0  0.11842854785E+02 -0.85908380631E+02 -0.36842832941E+02  0.94222595014E+02  0.00000000000E+00 0.  1.
         -1    1    1    2    0  502 -0.12635576059E+02  0.38970724886E+02  0.48431361295E+02  0.63434784916E+02  0.00000000000E+00 0.  1.
<scales pt_clust_5="13000.00000" pt_clust_6="13000.00000" pt_clust_7="13000.00000" pt_clust_8="13000.00000" pt_clust_9="40.96800"></scales>
<clustering>
<clus scale="   40.968">  2  9  1 -1</clus>
<clus scale="   79.221">  5  6 -1 -1</clus>
<clus scale="   88.415">  1  5  2 -1</clus>
<clus scale="   92.294">  7  8 -1 -1</clus>
<clus scale="   40.968">  2  5  1 -1</clus>
</clustering>
</event>
<event>
 9    1  0.4731329E-005  0.9604293E+02  0.7546771E-02  0.1295231E+00
          1   -1    0    0  502    0 -0.00000000000E+00  0.00000000000E+00  0.99366900141E+02  0.99366900141E+02  0.00000000000E+00 0. -1.
         21   -1    0    0  501  502  0.00000000000E+00 -0.00000000000E+00 -0.17868696036E+03  0.17868696036E+03  0.00000000000E+00 0.  1.
         23    2    1    2    0    0  0.25651170710E+02  0.19214990998E+02  0.39466794290E+02  0.10231988454E+03  0.88794889958E+02 0.  0.
        -24    2    1    2    0    0 -0.21684510274E+02 -0.50411856715E+02 -0.69797027577E+02  0.11751901252E+03  0.76990388765E+02 0.  0.
         11    1    4    4    0    0 -0.26313743963E+02 -0.79579542369E+01  0.81210975161E+01  0.28665212050E+02  0.00000000000E+00 0. -1.
        -12    1    4    4    0    0  0.46292336899E+01 -0.42453902478E+02 -0.77918125094E+02  0.88853800472E+02  0.00000000000E+00 0.  1.
        -11    1    3    3    0    0  0.44156924759E+02 -0.21830356299E+02  0.18049579223E+02  0.52461278773E+02  0.00000000000E+00 0.  1.
         11    1    3    3    0    0 -0.18505754050E+02  0.41045347297E+02  0.21417215067E+02  0.49858605766E+02  0.00000000000E+00 0. -1.
          2    1    1    2  501    0 -0.39666604361E+01  0.31196865717E+02 -0.48989826934E+02  0.58214963442E+02  0.00000000000E+00 0. -1.
<scales pt_clust_5="13000.00000" pt_clust_6="13000.00000" pt_clust_7="13000.00000" pt_clust_8="13000.00000" pt_clust_9="31.44803"></scales>
<clustering>
<clus scale="   31.448">  2  9  1 -1</clus>
<clus scale="   76.990">  5  6 -1 -1</clus>
<clus scale="   85.248">  2  5  1 -1</clus>
<clus scale="   88.795">  7  8 -1 -1</clus>
<clus scale="   31.448">  2  5  1 -1</clus>
</clustering>
</event>
<event>
 9    1  0.4731329E-005  0.2536125E+03  0.7546771E-02  0.1111688E+00
         -2   -1    0    0    0  501 -0.00000000000E+00  0.00000000000E+00  0.75255517168E+03  0.75255517168E+03  0.00000000000E+00 0.  1.
         21   -1    0    0  501  502  0.00000000000E+00 -0.00000000000E+00 -0.17715691006E+03  0.17715691006E+03  0.00000000000E+00 0.  1.
         23    2    1    2    0    0  0.21668198419E+03 -0.74265961350E+02  0.46907442763E+03  0.53027568421E+03  0.93246808607E+02 0.  0.
        -24    2    1    2    0    0 -0.24663159934E+03  0.10499937337E+03 -0.49518747846E+01  0.28017280115E+03  0.81365000102E+02 0.  0.
         11    1    4    4    0    0 -0.72943152853E+02 -0.59045660361E+01  0.84131874161E+01  0.73663757512E+02  0.00000000000E+00 0. -1.
        -12    1    4    4    0    0 -0.17368844648E+03  0.11090393940E+03 -0.13365062201E+02  0.20650904364E+03  0.00000000000E+00 0.  1.
        -13    1    3    3    0    0  0.47930990534E+02 -0.54760694792E+02  0.97074708876E+02  0.12132441078E+03  0.00000000000E+00 0.  1.
         13    1    3    3    0    0  0.16875099365E+03 -0.19505266558E+02  0.37199971876E+03  0.40895127343E+03  0.00000000000E+00 0. -1.
         -1    1    1    2    0  502  0.29949615148E+02 -0.30733412016E+02  0.11127570877E+03  0.11926359639E+03  0.00000000000E+00 0.  1.
<scales pt_clust_5="13000.00000" pt_clust_6="13000.00000" pt_clust_7="13000.00000" pt_clust_8="13000.00000" pt_clust_9="42.91298"></scales>
<clustering>
<clus scale="   42.913">  2  9  1 -1</clus>
<clus scale="   81.365">  5  6 -1 -1</clus>
<clus scale="   93.247">  7  8 -1 -1</clus>
<clus scale="  249.489">  2  5  1 -1</clus>
<clus scale="   42.913">  2  5  1 -1</clus>
</clustering>
</event>
<event>
 9    1  0.4731329E-005  0.1152633E+03  0.7546771E-02  0.1255536E+00
         21   -1    0    0  501  502  0.00000000000E+00  0.00000000000E+00  0.25526771427E+03  0.25526771427E+03  0.00000000000E+00 0. -1.
          1   -1    0    0  502    0 -0.00000000000E+00 -0.00000000000E+00 -0.37475976367E+03  0.37475976367E+03  0.00000000000E+00 0. -1.
         23    2    1    2    0    0  0.13714696176E+02  0.76940695079E+02 -0.31580494690E+03  0.33818126512E+03  0.92335476075E+02 0.  0.
        -24    2    1    2    0    0 -0.20130719966E+02 -0.30504793603E+02 -0.21589904676E+01  0.87913506724E+02  0.79927061159E+02 0.  0.
         13    1    4    4    0    0 -0.16829318905E+01  0.27156734605E+02  0.16034479638E+01  0.27256036754E+02  0.00000000000E+00 0. -1.
        -14    1    4    4    0    0 -0.18447788076E+02 -0.57661528208E+02 -0.37624384314E+01  0.60657469970E+02  0.00000000000E+00 0.  1.
        -11    1    3    3    0    0 -0.30952306684E+02  0.59977124497E+02 -0.23301865023E+03  0.24259635633E+03  0.00000000000E+00 0. -1.
         11    1    3    3    0    0  0.44667002859E+02  0.16963570582E+02 -0.82786296668E+02  0.95584908784E+02  0.00000000000E+00 0.  1.
          2    1    1    2  501    0  0.64160237904E+01 -0.46435901476E+02  0.19847188796E+03  0.20393270610E+03  0.00000000000E+00 0. -1.
<scales pt_clust_5="13000.00000" pt_clust_6="13000.00000" pt_clust_7="13000.00000" pt_clust_8="13000.00000" pt_clust_9="46.87706"></scales>
<clustering>
<clus scale="   46.877">  1  9  2 -1</clus>
<clus scale="   79.927">  5  6 -1 -1</clus>
<clus scale="   92.335">  7  8 -1 -1</clus>
<clus scale="  105.585">  1  5  2 -1</clus>
<clus scale="   46.877">  1  5  2 -1</clus>
</clustering>
</event>
<event>
 9    1  0.4731329E-005  0.3744179E+03  0.7546771E-02  0.1061910E+00
          1   -1    0    0  502    0 -0.00000000000E+00  0.00000000000E+00  0.20040705827E+04  0.20040705827E+04  0.00000000000E+00 0. -1.
         21   -1    0    0  501  502  0.00000000000E+00 -0.00000000000E+00 -0.25305109929E+03  0.25305109929E+03  0.00000000000E+00 0. -1.
         23    2    1    2    0    0  0.24102112307E+03 -0.13702683036E+03  0.26423820583E+03  0.39348393057E+03  0.90223279672E+02 0.  0.
        -24    2    1    2    0    0 -0.32868354276E+03 -0.22705354184E+03  0.14275866091E+04  0.14845029126E+04  0.78480500642E+02 0.  0.
         13    1    4    4    0    0 -0.18994341187E+03 -0.12898270480E+03  0.95787721153E+03  0.98500953813E+03  0.00000000000E+00 0. -1.
        -14    1    4    4    0    0 -0.13874013089E+03 -0.98070837034E+02  0.46970939755E+03  0.49949337447E+03  0.00000000000E+00 0.  1.
        -13    1    3    3    0    0  0.46033652353E+02  0.74104274083E+01  0.25813579828E+02  0.53294957424E+02  0.00000000000E+00 0.  1.
         13    1    3    3    0    0  0.19498747072E+03 -0.14443725777E+03  0.23842462600E+03  0.34018897315E+03  0.00000000000E+00 0. -1.
          2    1    1    2  501    0  0.87662419690E+02  0.36408037220E+03  0.59194668543E+02  0.37913483885E+03  0.00000000000E+00 0. -1.
<scales pt_clust_5="13000.00000" pt_clust_6="13000.00000" pt_clust_7="13000.00000" pt_clust_8="13000.00000" pt_clust_9="366.10049"></scales>
<clustering>
<clus scale="   78.481">  5  6 -1 -1</clus>
<clus scale="   90.223">  7  8 -1 -1</clus>
<clus scale="  291.561">  1  7  2 -1</clus>
<clus scale="  366.100">  2  9  1 -1</clus>
<clus scale="  366.100">  2  5  1 -1</clus>
</clustering>
</event>
<event>
 9    1  0.4731329E-005  0.1123849E+03  0.7546771E-02  0.1259076E+00
         -2   -1    0    0    0  501 -0.00000000000E+00  0.00000000000E+00  0.23913720117E+03  0.23913720117E+03  0.00000000000E+00 0.  1.
         21   -1    0    0  501  502  0.00000000000E+00 -0.00000000000E+00 -0.12298185305E+03  0.12298185305E+03  0.00000000000E+00 0.  1.
         23    2    1    2    0    0 -0.60561063368E+02 -0.87626052230E+01  0.16214771320E+03  0.19576650984E+03  0.91039660773E+02 0.  0.
        -24    2    1    2    0    0  0.80104429006E+02  0.25928155015E+02 -0.59382219920E+01  0.11859342360E+03  0.83307555907E+02 0.  0.
         13    1    4    4    0    0  0.86597930377E+02 -0.17544546650E+00 -0.19050205568E+02  0.88668724243E+02  0.00000000000E+00 0. -1.
        -14    1    4    4    0    0 -0.64935013713E+01  0.26103600481E+02  0.13111983576E+02  0.29924699354E+02  0.00000000000E+00 0.  1.
        -13    1    3    3    0    0 -0.55757491338E+02  0.34888689115E+02  0.98178430957E+02  0.11817412058E+03  0.00000000000E+00 0.  1.
         13    1    3    3    0    0 -0.48035720295E+01 -0.43651294338E+02  0.63969282242E+02  0.77592389267E+02  0.00000000000E+00 0. -1.
         -1    1    1    2    0  502 -0.19543365638E+02 -0.17165549792E+02 -0.40054143082E+02  0.47759120785E+02  0.00000000000E+00 0.  1.
<scales pt_clust_5="13000.00000" pt_clust_6="13000.00000" pt_clust_7="13000.00000" pt_clust_8="13000.00000" pt_clust_9="26.01152"></scales>
<clustering>
<clus scale="   26.012">  2  9  1 -1</clus>
<clus scale="   83.308">  5  6 -1 -1</clus>
<clus scale="   91.040">  7  8 -1 -1</clus>
<clus scale="  106.218">  2  5  1 -1</clus>
<clus scale="   26.012">  2  5  1 -1</clus>
</clustering>
</event>
<event>
 9    1  0.4731329E-005  0.1394086E+03  0.7546771E-02  0.1235514E+00
          1   -1    0    0  502    0 -0.00000000000E+00  0.00000000000E+00  0.94444516903E+02  0.94444516903E+02  0.00000000000E+00 0. -1.
         21   -1    0    0  501  502  0.00000000000E+00 -0.00000000000E+00 -0.65619944740E+03  0.65619944740E+03  0.00000000000E+00 0. -1.
        -24    2    1    2    0    0  0.19123505240E+02 -0.17911177767E+02 -0.44897230229E+03  0.45776557569E+03  0.85362025089E+02 0.  0.
         23    2    1    2    0    0  0.82146624647E+02 -0.50652913583E+02 -0.10699436878E+03  0.17044400709E+03  0.91047125212E+02 0.  0.
         13    1    3    3    0    0  0.43158022786E+02 -0.13764257405E+02 -0.12639433591E+03  0.13426689042E+03  0.00000000000E+00 0. -1.
        -14    1    3    3    0    0 -0.24034517546E+02 -0.41469203619E+01 -0.32257796638E+03  0.32349868528E+03  0.00000000000E+00 0.  1.
        -13    1    4    4    0    0  0.47983293251E+02  0.84729581294E+01 -0.86275134891E+02  0.99083734039E+02  0.00000000000E+00 0.  1.
         13    1    4    4    0    0  0.34163331396E+02 -0.59125871712E+02 -0.20719233886E+02  0.71360273056E+02  0.00000000000E+00 0. -1.
          2    1    1    2  501    0 -0.10127012989E+03  0.68564091350E+02 -0.57882594356E+01  0.12243438152E+03  0.00000000000E+00 0. -1.
<scales pt_clust_5="13000.00000" pt_clust_6="13000.00000" pt_clust_7="13000.00000" pt_clust_8="13000.00000" pt_clust_9="105.57078"></scales>
<clustering>
<clus scale="   85.362">  5  6 -1 -1</clus>
<clus scale="   89.293">  1  5  2 -1</clus>
<clus scale="   91.047">  7  8 -1 -1</clus>
<clus scale="  105.571">  2  9  1 -1</clus>
<clus scale="  105.571">  2  5  1 -1</clus>
</clustering>
</event>
<event>
 9    1  0.4731329E-005  0.1173833E+03  0.7546771E-02  0.1251884E+00
         -4   -1    0    0    0  501 -0.00000000000E+00  0.00000000000E+00  0.50304143893E+02  0.50304143893E+02  0.00000000000E+00 0.  1.
         21   -1    0    0  501  502  0.00000000000E+00 -0.00000000000E+00 -0.53556200050E+03  0.53556200050E+03  0.00000000000E+00 0.  1.
        -24    2    1    2    0    0  0.73339151615E+02 -0.83343201163E+01 -0.51758289879E+02  0.11965998239E+03  0.78686077319E+02 0.  0.
         23    2    1    2    0    0 -0.61985033832E+02  0.54705637539E+02 -0.29993150272E+03  0.32436243534E+03  0.91745473663E+02 0.  0.
         11    1    3    3    0    0  0.21809535686E+02  0.31289823731E+02 -0.36711959712E+02  0.52938425570E+02  0.00000000000E+00 0. -1.
        -12    1    3    3    0    0  0.51529615929E+02 -0.39624143847E+02 -0.15046330167E+02  0.66721556823E+02  0.00000000000E+00 0.  1.
        -13    1    4    4    0    0 -0.72874750597E+02  0.71874270559E+02 -0.26280105151E+03  0.28203019824E+03  0.00000000000E+00 0.  1.
         13    1    4    4    0    0  0.10889716765E+02 -0.17168633020E+02 -0.37130451211E+02  0.42332237103E+02  0.00000000000E+00 0. -1.
         -3    1    1    2    0  502 -0.11354117783E+02 -0.46371317423E+02 -0.13356806400E+03  0.14184372666E+03  0.00000000000E+00 0.  1.
<scales pt_clust_5="13000.00000" pt_clust_6="13000.00000" pt_clust_7="13000.00000" pt_clust_8="13000.00000" pt_clust_9="47.74113"></scales>
<clustering>
<clus scale="   47.741">  2  9  1 -1</clus>
<clus scale="   78.686">  5  6 -1 -1</clus>
<clus scale="   91.745">  7  8 -1 -1</clus>
<clus scale="  107.485">  1  5  2 -1</clus>
<clus scale="   47.741">  2  5  1 -1</clus>
</clustering>
</event>
<event>
 9    1  0.4731329E-005  0.1039680E+03  0.7546771E-02  0.1278179E+00
         21   -1    0    0  501  502  0.00000000000E+00  0.00000000000E+00  0.54263070281E+03  0.54263070281E+03  0.00000000000E+00 0.  1.
          1   -1    0    0  502    0 -0.00000000000E+00 -0.00000000000E+00 -0.40272396416E+02  0.40272396416E+02  0.00000000000E+00 0. -1.
         23    2    1    2    0    0  0.41379983690E+02  0.62770872221E+01  0.52925269602E+02  0.11478416989E+03  0.92858045541E+02 0.  0.
        -24    2    1    2    0    0 -0.65104863693E+02 -0.15542244015E+02  0.33372349021E+03  0.34963934361E+03  0.79975609151E+02 0.  0.
         13    1    4    4    0    0 -0.44289496913E+02  0.29841888715E+02  0.14878551176E+03  0.15807981012E+03  0.00000000000E+00 0. -1.
        -14    1    4    4    0    0 -0.20815366780E+02 -0.45384132730E+02  0.18493797845E+03  0.19155953349E+03  0.00000000000E+00 0.  1.
        -11    1    3    3    0    0 -0.23956765107E+02  0.22087631158E+02  0.28409903339E+02  0.43230922408E+02  0.00000000000E+00 0.  1.
         11    1    3    3    0    0  0.65336748797E+02 -0.15810543936E+02  0.24515366263E+02  0.71553247486E+02  0.00000000000E+00 0. -1.
          2    1    1    2  501    0  0.23724880003E+02  0.92651567927E+01  0.11570954658E+03  0.11847958572E+03  0.00000000000E+00 0. -1.
<scales pt_clust_5="13000.00000" pt_clust_6="13000.00000" pt_clust_7="13000.00000" pt_clust_8="13000.00000" pt_clust_9="25.46985"></scales>
<clustering>
<clus scale="   25.470">  1  9  2 -1</clus>
<clus scale="   79.976">  5  6 -1 -1</clus>
<clus scale="   92.644">  1  5  2 -1</clus>
<clus scale="   92.858">  7  8 -1 -1</clus>
<clus scale="   25.470">  1  5  2 -1</clus>
</clustering>
</event>
<event>
 9    1  0.4731329E-005  0.1485889E+03  0.7546771E-02  0.1204204E+00
         -4   -1    0    0    0  501 -0.00000000000E+00  0.00000000000E+00  0.25814531419E+03  0.25814531419E+03  0.00000000000E+00 0.  1.
         21   -1    0    0  501  502  0.00000000000E+00 -0.00000000000E+00 -0.23817185640E+03  0.23817185640E+03  0.00000000000E+00 0.  1.
        -24    2    1    2    0    0 -0.98353432969E+02 -0.55946594056E+02  0.16389289192E+03  0.21502034852E+03  0.81052150445E+02 0.  0.
         23    2    1    2    0    0  0.12439183737E+03  0.46978884970E+02 -0.30144956962E+02  0.16423679489E+03  0.91567797446E+02 0.  0.
         11    1    3    3    0    0 -0.40442126149E+02  0.18014179619E+02  0.41027577634E+02  0.60360072575E+02  0.00000000000E+00 0. -1.
        -12    1    3    3    0    0 -0.57911306819E+02 -0.73960773675E+02  0.12286531428E+03  0.15466027594E+03  0.00000000000E+00 0.  1.
        -11    1    4    4    0    0  0.33867125172E+02  0.53268503081E+02 -0.37116042767E+02  0.73226472116E+02  0.00000000000E+00 0. -1.
         11    1    4    4    0    0  0.90524712199E+02 -0.62896181111E+01  0.69710858048E+01  0.91010322777E+02  0.00000000000E+00 0.  1.
         -3    1    1    2    0  502 -0.26038404402E+02  0.89677090854E+01 -0.11377447717E+03  0.11706002718E+03  0.00000000000E+00 0.  1.
<scales pt_clust_5="13000.00000" pt_clust_6="13000.00000" pt_clust_7="13000.00000" pt_clust_8="13000.00000" pt_clust_9="27.53940"></scales>
<clustering>
<clus scale="   27.539">  2  9  1 -1</clus>
<clus scale="   81.052">  5  6 -1 -1</clus>
<clus scale="   91.568">  7  8 -1 -1</clus>
<clus scale="  142.350">  1  5  2 -1</clus>
<clus scale="   27.539">  2  5  1 -1</clus>
</clustering>
</event>
<event>
 9    1  0.4731329E-005  0.9598489E+02  0.7546771E-02  0.1296982E+00
         21   -1    0    0  501  502  0.00000000000E+00  0.00000000000E+00  0.32452184039E+02  0.32452184039E+02  0.00000000000E+00 0.  1.
          1   -1    0    0  502    0 -0.00000000000E+00 -0.00000000000E+00 -0.41456461259E+03  0.41456461259E+03  0.00000000000E+00 0. -1.
         23    2    1    2    0    0  0.20929066703E+02  0.40015569295E+02 -0.19406725934E+03  0.22019642891E+03  0.93728835130E+02 0.  0.
        -24    2    1    2    0    0 -0.22173276082E+01  0.24215757564E+01 -0.12700380920E+03  0.15015819914E+03  0.80042092972E+02 0.  0.
         13    1    4    4    0    0 -0.28590747466E+02 -0.20299693646E+02 -0.10039497674E+03  0.10634218240E+03  0.00000000000E+00 0. -1.
        -14    1    4    4    0    0  0.26373419858E+02  0.22721269403E+02 -0.26608832459E+02  0.43816016742E+02  0.00000000000E+00 0.  1.
        -13    1    3    3    0    0  0.83716961282E+01 -0.25412264262E+02 -0.10850833437E+03  0.11175834241E+03  0.00000000000E+00 0. -1.
         13    1    3    3    0    0  0.12557370575E+02  0.65427833557E+02 -0.85558924970E+02  0.10843808649E+03  0.00000000000E+00 0.  1.
          2    1    1    2  501    0 -0.18711739095E+02 -0.42437145051E+02 -0.61041360015E+02  0.76662168588E+02  0.00000000000E+00 0. -1.
<scales pt_clust_5="13000.00000" pt_clust_6="13000.00000" pt_clust_7="13000.00000" pt_clust_8="13000.00000" pt_clust_9="46.37931"></scales>
<clustering>
<clus scale="   46.379">  1  9  2 -1</clus>
<clus scale="   80.042">  5  6 -1 -1</clus>
<clus scale="   82.672">  1  5  2 -1</clus>
<clus scale="   93.729">  7  8 -1 -1</clus>
<clus scale="   46.379">  1  5  2 -1</clus>
</clustering>
</event>
<event>
 9    1  0.4731329E-005  0.9735028E+02  0.7546771E-02  0.1290725E+00
          1   -1    0    0  502    0 -0.00000000000E+00  0.00000000000E+00  0.52272594965E+03  0.52272594965E+03  0.00000000000E+00 0. -1.
         21   -1    0    0  501  502  0.00000000000E+00 -0.00000000000E+00 -0.73806149676E+02  0.73806149676E+02  0.00000000000E+00 0. -1.
         23    2    1    2    0    0  0.40466303814E+02  0.46752875990E+01  0.15776884539E+03  0.18620633322E+03  0.90124413441E+02 0.  0.
        -24    2    1    2    0    0 -0.14929779581E+02  0.70186893764E+02 -0.37041512416E+00  0.10826423385E+03  0.81067309995E+02 0.  0.
         13    1    4    4    0    0 -0.19416574501E+02  0.34057981208E+02  0.38541723484E+02  0.54976484959E+02  0.00000000000E+00 0. -1.
        -14    1    4    4    0    0  0.44867949200E+01  0.36128912556E+02 -0.38912138608E+02  0.53287748894E+02  0.00000000000E+00 0.  1.
        -13    1    3    3    0    0 -0.35897829607E+01 -0.28896383791E+02  0.10761257155E+03  0.11148252372E+03  0.00000000000E+00 0.  1.
         13    1    3    3    0    0  0.44056086775E+02  0.33571671390E+02  0.50156273833E+02  0.74723809503E+02  0.00000000000E+00 0. -1.
          2    1    1    2  501    0 -0.25536524233E+02 -0.74862181363E+02  0.29152136971E+03  0.30206153225E+03  0.00000000000E+00 0. -1.
<scales pt_clust_5="13000.00000" pt_clust_6="13000.00000" pt_clust_7="13000.00000" pt_clust_8="13000.00000" pt_clust_9="79.09783"></scales>
<clustering>
<clus scale="   79.098">  2  9  1 -1</clus>
<clus scale="   81.067">  5  6 -1 -1</clus>
<clus scale="   89.031">  2  5  1 -1</clus>
<clus scale="   90.124">  7  8 -1 -1</clus>
<clus scale="   79.098">  2  5  1 -1</clus>
</clustering>
</event>
<event>
 9    1  0.1984089E-004  0.1306584E+03  0.7546771E-02  0.1226822E+00
          1   -1    0    0  502    0 -0.00000000000E+00  0.00000000000E+00  0.70533384858E+03  0.70533384858E+03  0.00000000000E+00 0. -1.
         21   -1    0    0  501  502  0.00000000000E+00 -0.00000000000E+00 -0.32754411131E+03  0.32754411131E+03  0.00000000000E+00 0. -1.
        -24    2    1    2    0    0  0.73973306920E+02 -0.56372735035E+02  0.58555926021E+03  0.60001792415E+03  0.92151650501E+02 0.  0.
         23    2    1    2    0    0 -0.70533414311E+02  0.32666842597E+02 -0.30769280799E+03  0.33010564366E+03  0.90844849885E+02 0.  0.
         13    1    3    3    0    0  0.33502637486E+02 -0.76733193704E+02  0.32884143893E+03  0.33933331946E+03  0.00000000000E+00 0. -1.
        -14    1    3    3    0    0  0.40470669434E+02  0.20360458670E+02  0.25671782128E+03  0.26068460470E+03  0.00000000000E+00 0.  1.
        -11    1    4    4    0    0  0.79707391808E+01 -0.20462500431E+02 -0.90534052035E+02  0.93159332247E+02  0.00000000000E+00 0.  1.
         11    1    4    4    0    0 -0.78504153492E+02  0.53129343027E+02 -0.21715875596E+03  0.23694631142E+03  0.00000000000E+00 0. -1.
          2    1    1    2  501    0 -0.34398926097E+01  0.23705892438E+02  0.99923285046E+02  0.10275439208E+03  0.00000000000E+00 0. -1.
<scales pt_clust_5="13000.00000" pt_clust_6="13000.00000" pt_clust_7="13000.00000" pt_clust_8="13000.00000" pt_clust_9="23.95418"></scales>
<clustering>
<clus scale="   23.954">  2  9  1 -1</clus>
<clus scale="   90.845">  7  8 -1 -1</clus>
<clus scale="   92.152">  5  6 -1 -1</clus>
<clus scale="  129.740">  2  7  1 -1</clus>
<clus scale="   23.954">  2  5  1 -1</clus>
</clustering>
</event>
<event>
 9    1  0.4731329E-005  0.1125726E+03  0.7546771E-02  0.1257696E+00
         21   -1    0    0  501  502  0.00000000000E+00  0.00000000000E+00  0.59740507841E+03  0.59740507841E+03  0.00000000000E+00 0.  1.
          1   -1    0    0  502    0 -0.00000000000E+00 -0.00000000000E+00 -0.48596798594E+02  0.48596798594E+02  0.00000000000E+00 0. -1.
         23    2    1    2    0    0 -0.41021771858E+01  0.88143489345E+02  0.95835816111E+02  0.15544047706E+03  0.84800564189E+02 0.  0.
        -24    2    1    2    0    0 -0.25932000337E+02 -0.29595564691E+02  0.38831589696E+03  0.39830966325E+03  0.79454300784E+02 0.  0.
         11    1    4    4    0    0 -0.25456364240E+02 -0.33524494285E+02  0.83895932703E+02  0.93863974567E+02  0.00000000000E+00 0. -1.
        -12    1    4    4    0    0 -0.47563609661E+00  0.39289295946E+01  0.30441996426E+03  0.30444568868E+03  0.00000000000E+00 0.  1.
        -11    1    3    3    0    0 -0.28579367035E+02  0.17707674465E+01  0.41772358838E+02  0.50644306692E+02  0.00000000000E+00 0.  1.
         11    1    3    3    0    0  0.24477189849E+02  0.86372721899E+02  0.54063457274E+02  0.10479617037E+03  0.00000000000E+00 0. -1.
          2    1    1    2  501    0  0.30034177522E+02 -0.58547924655E+02  0.64656566746E+02  0.92251736700E+02  0.00000000000E+00 0. -1.
<scales pt_clust_5="13000.00000" pt_clust_6="13000.00000" pt_clust_7="13000.00000" pt_clust_8="13000.00000" pt_clust_9="65.80209"></scales>
<clustering>
<clus scale="   65.802">  1  9  2 -1</clus>
<clus scale="   79.454">  5  6 -1 -1</clus>
<clus scale="   84.801">  7  8 -1 -1</clus>
<clus scale="  108.602">  1  5  2 -1</clus>
<clus scale="   65.802">  1  5  2 -1</clus>
</clustering>
</event>
<event>
 9    1  0.4731329E-005  0.3808801E+03  0.7546771E-02  0.1098842E+00
          1   -1    0    0  502    0 -0.00000000000E+00  0.00000000000E+00  0.38673342417E+03  0.38673342417E+03  0.00000000000E+00 0. -1.
         21   -1    0    0  501  502  0.00000000000E+00 -0.00000000000E+00 -0.49138193034E+03  0.49138193034E+03  0.00000000000E+00 0. -1.
         23    2    1    2    0    0  0.25429573754E+02 -0.33232416741E+02 -0.14783587407E+02  0.10352179227E+03  0.93526201000E+02 0.  0.
        -24    2    1    2    0    0  0.19898593363E+03  0.32423664473E+03  0.24295117511E+02  0.38978413598E+03  0.81342586352E+02 0.  0.
         13    1    4    4    0    0  0.20406757890E+03  0.32253758912E+03  0.28836213597E+02  0.38276050001E+03  0.00000000000E+00 0. -1.
        -14    1    4    4    0    0 -0.50816452677E+01  0.16990556180E+01 -0.45410960851E+01  0.70236359725E+01  0.00000000000E+00 0.  1.
        -11    1    3    3    0    0 -0.28755576227E+02 -0.33249383999E+02 -0.21476434979E+02  0.48924860346E+02  0.00000000000E+00 0. -1.
         11    1    3    3    0    0  0.54185149981E+02  0.16967258368E-01  0.66928475719E+01  0.54596931919E+02  0.00000000000E+00 0.  1.
          2    1    1    2  501    0 -0.22441550738E+03 -0.29100422799E+03 -0.11416003628E+03  0.38480942627E+03  0.00000000000E+00 0. -1.
<scales pt_clust_5="13000.00000" pt_clust_6="13000.00000" pt_clust_7="13000.00000" pt_clust_8="13000.00000" pt_clust_9="372.09274"></scales>
<clustering>
<clus scale="   81.343">  5  6 -1 -1</clus>
<clus scale="   93.526">  7  8 -1 -1</clus>
<clus scale="  102.461">  1  7  2 -1</clus>
<clus scale="  372.093">  2  9  1 -1</clus>
<clus scale="  372.093">  2  5  1 -1</clus>
</clustering>
</event>
<event>
 9    1  0.4731329E-005  0.9868673E+02  0.7546771E-02  0.1286127E+00
         -2   -1    0    0    0  501 -0.00000000000E+00  0.00000000000E+00  0.20306246900E+03  0.20306246900E+03  0.00000000000E+00 0.  1.
         21   -1    0    0  501  502  0.00000000000E+00 -0.00000000000E+00 -0.25070215619E+03  0.25070215619E+03  0.00000000000E+00 0. -1.
         23    2    1    2    0    0 -0.15874478512E+02  0.34439961714E+02  0.15544290506E+03  0.18316027944E+03  0.89146403182E+02 0.  0.
        -24    2    1    2    0    0  0.16139190942E+02 -0.75690110272E+02 -0.74958397402E+02  0.13600325314E+03  0.82997935201E+02 0.  0.
         11    1    4    4    0    0  0.47037127302E+02 -0.58102131724E+02 -0.65050392266E+02  0.99095421639E+02  0.00000000000E+00 0. -1.
        -12    1    4    4    0    0 -0.30897936360E+02 -0.17587978548E+02 -0.99080051359E+01  0.36907831506E+02  0.00000000000E+00 0.  1.
        -13    1    3    3    0    0  0.19085001757E+02  0.39333814702E+02  0.30450402604E+02  0.53278638213E+02  0.00000000000E+00 0.  1.
         13    1    3    3    0    0 -0.34959480270E+02 -0.48938529881E+01  0.12499250245E+03  0.12988164122E+03  0.00000000000E+00 0. -1.
         -1    1    1    2    0  502 -0.26471242975E+00  0.41250148558E+02 -0.12812419484E+03  0.13460109262E+03  0.00000000000E+00 0.  1.
<scales pt_clust_5="13000.00000" pt_clust_6="13000.00000" pt_clust_7="13000.00000" pt_clust_8="13000.00000" pt_clust_9="41.25100"></scales>
<clustering>
<clus scale="   41.251">  2  9  1 -1</clus>
<clus scale="   82.998">  5  6 -1 -1</clus>
<clus scale="   89.146">  7  8 -1 -1</clus>
<clus scale="   93.170">  2  5  1 -1</clus>
<clus scale="   41.251">  2  5  1 -1</clus>
</clustering>
</event>
<event>
 9    1  0.4731329E-005  0.9255036E+02  0.7546771E-02  0.1304031E+00
         21   -1    0    0  501  502  0.00000000000E+00  0.00000000000E+00  0.45868865532E+02  0.45868865532E+02  0.00000000000E+00 0. -1.
          1   -1    0    0  502    0 -0.00000000000E+00 -0.00000000000E+00 -0.38286287185E+03  0.38286287185E+03  0.00000000000E+00 0. -1.
         23    2    1    2    0    0  0.30894020149E+01 -0.39283886712E+01 -0.22392346392E+03  0.24226552387E+03  0.92335744553E+02 0.  0.
        -24    2    1    2    0    0  0.10264449986E+02 -0.18556086810E+02 -0.13058565212E+03  0.15499152417E+03  0.80746967334E+02 0.  0.
         11    1    4    4    0    0  0.40593817325E+02 -0.21544111966E+02 -0.45744404187E+02  0.64842557629E+02  0.00000000000E+00 0. -1.
        -12    1    4    4    0    0 -0.30329367339E+02  0.29880251553E+01 -0.84841247932E+02  0.90148966540E+02  0.00000000000E+00 0.  1.
        -11    1    3    3    0    0  0.32171070380E+02  0.20862154048E+02 -0.18003029335E+03  0.18406823128E+03  0.00000000000E+00 0.  1.
         11    1    3    3    0    0 -0.29081668366E+02 -0.24790542719E+02 -0.43893170565E+02  0.58197292596E+02  0.00000000000E+00 0. -1.
          2    1    1    2  501    0 -0.13353852001E+02  0.22484475482E+02  0.17515109715E+02  0.31474689343E+02  0.00000000000E+00 0. -1.
<scales pt_clust_5="13000.00000" pt_clust_6="13000.00000" pt_clust_7="13000.00000" pt_clust_8="13000.00000" pt_clust_9="26.15104"></scales>
<clustering>
<clus scale="   26.151">  1  9  2 -1</clus>
<clus scale="   80.747">  5  6 -1 -1</clus>
<clus scale="   80.992">  1  5  2 -1</clus>
<clus scale="   92.336">  7  8 -1 -1</clus>
<clus scale="   26.151">  1  5  2 -1</clus>
</clustering>
</event>
<event>
 9    1  0.4731329E-005  0.3950246E+03  0.7546771E-02  0.1045999E+00
          1   -1    0    0  502    0 -0.00000000000E+00  0.00000000000E+00  0.12847781510E+04  0.12847781510E+04  0.00000000000E+00 0. -1.
         21   -1    0    0  501  502  0.00000000000E+00 -0.00000000000E+00 -0.31857501769E+03  0.31857501769E+03  0.00000000000E+00 0. -1.
         23    2    1    2    0    0  0.38064246508E+03 -0.13319063736E+03  0.10865731621E+04  0.11636073751E+04  0.10350098798E+03 0.  0.
        -24    2    1    2    0    0 -0.24198465155E+03  0.10635901857E+03 -0.11260100940E+03  0.29830222651E+03  0.80227293412E+02 0.  0.
         11    1    4    4    0    0 -0.39416790343E+02  0.52150565330E+02 -0.38688497723E+02  0.75961600044E+02  0.00000000000E+00 0. -1.
        -12    1    4    4    0    0 -0.20256786121E+03  0.54208453240E+02 -0.73912511680E+02  0.22234062647E+03  0.00000000000E+00 0.  1.
        -11    1    3    3    0    0  0.20184938687E+03 -0.41240089851E+02  0.67171147355E+03  0.70259534847E+03  0.00000000000E+00 0. -1.
         11    1    3    3    0    0  0.17879307821E+03 -0.91950547510E+02  0.41486168859E+03  0.46101202659E+03  0.00000000000E+00 0.  1.
          2    1    1    2  501    0 -0.13865781353E+03  0.26831618791E+02 -0.77690194154E+01  0.14144356713E+03  0.00000000000E+00 0. -1.
<scales pt_clust_5="13000.00000" pt_clust_6="13000.00000" pt_clust_7="13000.00000" pt_clust_8="13000.00000" pt_clust_9="141.23004"></scales>
<clustering>
<clus scale="   80.227">  5  6 -1 -1</clus>
<clus scale="  103.501">  7  8 -1 -1</clus>
<clus scale="  141.230">  2  9  1 -1</clus>
<clus scale="  389.575">  2  5  1 -1</clus>
<clus scale="  141.230">  2  5  1 -1</clus>
</clustering>
</event>
<event>
 9    1  0.4731329E-005  0.1587655E+03  0.7546771E-02  0.1192065E+00
          1   -1    0    0  502    0 -0.00000000000E+00  0.00000000000E+00  0.34886225597E+03  0.34886225597E+03  0.00000000000E+00 0. -1.
         21   -1    0    0  501  502  0.00000000000E+00 -0.00000000000E+00 -0.17399793186E+03  0.17399793186E+03  0.00000000000E+00 0.  1.
        -24    2    1    2    0    0  0.51338249959E+01 -0.14648175743E+03  0.45457737680E+02  0.17267996861E+03  0.79175149033E+02 0.  0.
         23    2    1    2    0    0  0.29574726143E+02  0.10125842358E+03 -0.60311178628E+02  0.15208260736E+03  0.91453531493E+02 0.  0.
         13    1    3    3    0    0 -0.42286437728E+01 -0.15187971886E+03  0.51337038231E+02  0.16037712406E+03  0.00000000000E+00 0. -1.
        -14    1    3    3    0    0  0.93624687687E+01  0.53979614242E+01 -0.58793005512E+01  0.12302844547E+02  0.00000000000E+00 0.  1.
        -13    1    4    4    0    0  0.50479376124E+02  0.10240296017E+03 -0.63909860773E+02  0.13083961162E+03  0.00000000000E+00 0.  1.
         13    1    4    4    0    0 -0.20904649981E+02 -0.11445365904E+01  0.35986821446E+01  0.21242995741E+02  0.00000000000E+00 0. -1.
          2    1    1    2  501    0 -0.34708551138E+02  0.45223333851E+02  0.18971776506E+03  0.19809761186E+03  0.00000000000E+00 0. -1.
<scales pt_clust_5="13000.00000" pt_clust_6="13000.00000" pt_clust_7="13000.00000" pt_clust_8="13000.00000" pt_clust_9="57.00734"></scales>
<clustering>
<clus scale="   57.007">  2  9  1 -1</clus>
<clus scale="   79.175">  5  6 -1 -1</clus>
<clus scale="   91.454">  7  8 -1 -1</clus>
<clus scale="  152.024">  1  5  2 -1</clus>
<clus scale="   57.007">  2  5  1 -1</clus>
</clustering>
</event>
<event>
 9    1  0.4731329E-005  0.1061498E+03  0.7546771E-02  0.1271950E+00
          1   -1    0    0  502    0 -0.00000000000E+00  0.00000000000E+00  0.10875732175E+03  0.10875732175E+03  0.00000000000E+00 0. -1.
         21   -1    0    0  501  502  0.00000000000E+00 -0.00000000000E+00 -0.64100726299E+03  0.64100726299E+03  0.00000000000E+00 0. -1.
         23    2    1    2    0    0 -0.22295536093E+02 -0.47535879299E+02  0.73152440400E+02  0.12891495184E+03  0.92255268262E+02 0.  0.
        -24    2    1    2    0    0  0.50689497165E+02  0.33539986245E+02 -0.39837531404E+03  0.41141632904E+03  0.82862230021E+02 0.  0.
         11    1    4    4    0    0  0.67724759154E+02  0.73879810102E+01 -0.31751745828E+03  0.32474383994E+03  0.00000000000E+00 0. -1.
        -12    1    4    4    0    0 -0.17035261989E+02  0.26152005235E+02 -0.80857855767E+02  0.86672489107E+02  0.00000000000E+00 0.  1.
        -13    1    3    3    0    0  0.28983659953E+02 -0.25132491209E+02  0.20290309452E+01  0.38416293746E+02  0.00000000000E+00 0.  1.
         13    1    3    3    0    0 -0.51279196046E+02 -0.22403388091E+02  0.71123409455E+02  0.90498658098E+02  0.00000000000E+00 0. -1.
          2    1    1    2  501    0 -0.28393961072E+02  0.13995893054E+02 -0.20702706759E+03  0.20943330386E+03  0.00000000000E+00 0. -1.
<scales pt_clust_5="13000.00000" pt_clust_6="13000.00000" pt_clust_7="13000.00000" pt_clust_8="13000.00000" pt_clust_9="31.65600"></scales>
<clustering>
<clus scale="   31.656">  2  9  1 -1</clus>
<clus scale="   82.862">  5  6 -1 -1</clus>
<clus scale="   92.255">  7  8 -1 -1</clus>
<clus scale="   98.096">  2  5  1 -1</clus>
<clus scale="   31.656">  2  5  1 -1</clus>
</clustering>
</event>
<event>
 9    1  0.4731329E-005  0.1940549E+03  0.7546771E-02  0.1155947E+00
         21   -1    0    0  501  502  0.00000000000E+00  0.00000000000E+00  0.39178557492E+03  0.39178557492E+03  0.00000000000E+00 0.  1.
         -2   -1    0    0    0  501 -0.00000000000E+00 -0.00000000000E+00 -0.50701454016E+03  0.50701454016E+03  0.00000000000E+00 0.  1.
         23    2    1    2    0    0 -0.17319450167E+03  0.15472039060E+01 -0.45436630644E+03  0.49419523560E+03  0.88212591016E+02 0.  0.
        -24    2    1    2    0    0  0.16678039008E+03  0.25882168652E+02  0.32216310085E+03  0.37171664234E+03  0.76802431408E+02 0.  0.
         13    1    4    4    0    0  0.28134275810E+02 -0.11271651112E+02  0.12006954049E+03  0.12383570627E+03  0.00000000000E+00 0. -1.
        -14    1    4    4    0    0  0.13864611427E+03  0.37153819764E+02  0.20209356036E+03  0.24788093607E+03  0.00000000000E+00 0.  1.
        -13    1    3    3    0    0 -0.40356838641E+02 -0.35618750823E+02 -0.93840906133E+02  0.10818264879E+03  0.00000000000E+00 0. -1.
         13    1    3    3    0    0 -0.13283766303E+03  0.37165954729E+02 -0.36052540031E+03  0.38601258681E+03  0.00000000000E+00 0.  1.
         -1    1    1    2    0  502  0.64141115926E+01 -0.27429372558E+02  0.16974240356E+02  0.32888237138E+02  0.00000000000E+00 0.  1.
<scales pt_clust_5="13000.00000" pt_clust_6="13000.00000" pt_clust_7="13000.00000" pt_clust_8="13000.00000" pt_clust_9="28.16933"></scales>
<clustering>
<clus scale="   28.169">  1  9  2 -1</clus>
<clus scale="   76.802">  5  6 -1 -1</clus>
<clus scale="   88.213">  7  8 -1 -1</clus>
<clus scale="  189.141">  1  5  2 -1</clus>
<clus scale="   28.169">  1  5  2 -1</clus>
</clustering>
</event>
<event>
 9    1  0.4731329E-005  0.1410993E+03  0.7546771E-02  0.1215016E+00
          1   -1    0    0  502    0 -0.00000000000E+00  0.00000000000E+00  0.49818660628E+03  0.49818660628E+03  0.00000000000E+00 0. -1.
         21   -1    0    0  501  502  0.00000000000E+00 -0.00000000000E+00 -0.17050608310E+03  0.17050608310E+03  0.00000000000E+00 0. -1.
        -24    2    1    2    0    0  0.91824493505E+02  0.49021823160E+02  0.43008796624E+03  0.45008347024E+03  0.82247156345E+02 0.  0.
         23    2    1    2    0    0 -0.72173119581E+02 -0.66753852160E+02 -0.29039279382E+02  0.14061249619E+03  0.96247381110E+02 0.  0.
         11    1    3    3    0    0  0.26047471794E+02  0.59805714882E+02  0.23705407528E+03  0.24586546916E+03  0.00000000000E+00 0. -1.
        -12    1    3    3    0    0  0.65777021711E+02 -0.10783891722E+02  0.19303389096E+03  0.20421800108E+03  0.00000000000E+00 0.  1.
        -11    1    4    4    0    0 -0.20300048919E+02 -0.79524458548E+02 -0.55722131625E+01  0.82263485539E+02  0.00000000000E+00 0. -1.
         11    1    4    4    0    0 -0.51873070661E+02  0.12770606388E+02 -0.23467066220E+02  0.58349010654E+02  0.00000000000E+00 0.  1.
          2    1    1    2  501    0 -0.19651373925E+02  0.17732029000E+02 -0.73368163677E+02  0.77996722949E+02  0.00000000000E+00 0. -1.
<scales pt_clust_5="13000.00000" pt_clust_6="13000.00000" pt_clust_7="13000.00000" pt_clust_8="13000.00000" pt_clust_9="26.46888"></scales>
<clustering>
<clus scale="   26.469">  2  9  1 -1</clus>
<clus scale="   82.247">  5  6 -1 -1</clus>
<clus scale="   96.247">  7  8 -1 -1</clus>
<clus scale="  131.947">  1  5  2 -1</clus>
<clus scale="   26.469">  2  5  1 -1</clus>
</clustering>
</event>
<event>
 9    1  0.4731329E-005  0.2532834E+03  0.7546771E-02  0.1111640E+00
         21   -1    0    0  501  502  0.00000000000E+00  0.00000000000E+00  0.68500894839E+03  0.68500894839E+03  0.00000000000E+00 0. -1.
          1   -1    0    0  502    0 -0.00000000000E+00 -0.00000000000E+00 -0.57526753244E+03  0.57526753244E+03  0.00000000000E+00 0. -1.
         23    2    1    2    0    0 -0.21548844916E+03 -0.63377230429E+02 -0.41738629513E+03  0.48284457313E+03  0.92063116295E+02 0.  0.
        -24    2    1    2    0    0  0.35441982980E+03  0.52597589227E+00  0.19814650600E+03  0.41482903676E+03  0.84896404485E+02 0.  0.
         11    1    4    4    0    0  0.30368758817E+03  0.23294060738E+02  0.18905491165E+03  0.35848364550E+03  0.00000000000E+00 0. -1.
        -12    1    4    4    0    0  0.50732241629E+02 -0.22768084845E+02  0.90915943520E+01  0.56345391259E+02  0.00000000000E+00 0.  1.
        -13    1    3    3    0    0 -0.68258079501E+02 -0.36650119810E+02 -0.23204888512E+03  0.24464071980E+03  0.00000000000E+00 0.  1.
         13    1    3    3    0    0 -0.14723036966E+03 -0.26727110619E+02 -0.18533741000E+03  0.23820385333E+03  0.00000000000E+00 0. -1.
          2    1    1    2  501    0 -0.13893138064E+03  0.62851254537E+02  0.32898120508E+03  0.36260287095E+03  0.00000000000E+00 0. -1.
<scales pt_clust_5="13000.00000" pt_clust_6="13000.00000" pt_clust_7="13000.00000" pt_clust_8="13000.00000" pt_clust_9="152.48675"></scales>
<clustering>
<clus scale="   84.896">  5  6 -1 -1</clus>
<clus scale="   92.063">  7  8 -1 -1</clus>
<clus scale="  152.487">  1  9  2 -1</clus>
<clus scale="  250.767">  1  5  2 -1</clus>
<clus scale="  152.487">  1  5  2 -1</clus>
</clustering>
</event>
<event>
 9    1  0.4731329E-005  0.1825878E+03  0.7546771E-02  0.1171153E+00
         21   -1    0    0  501  502  0.00000000000E+00  0.00000000000E+00  0.21153841445E+03  0.21153841445E+03  0.00000000000E+00 0. -1.
          3   -1    0    0  502    0 -0.00000000000E+00 -0.00000000000E+00 -0.25617110706E+03  0.25617110706E+03  0.00000000000E+00 0. -1.
         23    2    1    2    0    0  0.17805159061E+02 -0.11293403079E+03 -0.65718199449E+02  0.17778424560E+03  0.11923605682E+03 0.  0.
        -24    2    1    2    0    0 -0.50307746766E+02  0.16152668555E+03 -0.54013356239E+02  0.19475435840E+03  0.79937963041E+02 0.  0.
         11    1    4    4    0    0 -0.67233487306E+02  0.13328867104E+03 -0.26012566940E+02  0.15153502988E+03  0.00000000000E+00 0. -1.
        -12    1    4    4    0    0  0.16925740540E+02  0.28238014510E+02 -0.28000789299E+02  0.43219328520E+02  0.00000000000E+00 0.  1.
        -13    1    3    3    0    0 -0.54949170078E+01  0.21376038051E+02 -0.29308375801E+02  0.36689371864E+02  0.00000000000E+00 0.  1.
         13    1    3    3    0    0  0.23300076068E+02 -0.13431006884E+03 -0.36409823648E+02  0.14109487374E+03  0.00000000000E+00 0. -1.
          4    1    1    2  501    0  0.32502587706E+02 -0.48592654758E+02  0.75098863081E+02  0.95170917512E+02  0.00000000000E+00 0. -1.
<scales pt_clust_5="13000.00000" pt_clust_6="13000.00000" pt_clust_7="13000.00000" pt_clust_8="13000.00000" pt_clust_9="58.46079"></scales>
<clustering>
<clus scale="   58.461">  1  9  2 -1</clus>
<clus scale="   79.938">  5  6 -1 -1</clus>
<clus scale="  119.236">  7  8 -1 -1</clus>
<clus scale="  159.722">  1  5  2 -1</clus>
<clus scale="   58.461">  1  5  2 -1</clus>
</clustering>
</event>
<event>
 9    1  0.2102354E-004  0.9536725E+02  0.7546771E-02  0.1305380E+00
         -4   -1    0    0    0  501 -0.00000000000E+00  0.00000000000E+00  0.29660151154E+03  0.29660151154E+03  0.00000000000E+00 0.  1.
         21   -1    0    0  501  502  0.00000000000E+00 -0.00000000000E+00 -0.19660387313E+03  0.19660387313E+03  0.00000000000E+00 0.  1.
        -24    2    1    2    0    0 -0.13964035886E+02  0.30911254116E+02  0.22630214994E+03  0.23790828933E+03  0.65093710399E+02 0.  0.
         23    2    1    2    0    0 -0.10693303496E+02 -0.21210314543E+02  0.29132270062E+02  0.97618036224E+02  0.90090885524E+02 0.  0.
         11    1    3    3    0    0  0.18032637620E+02 -0.91823950801E+01  0.42323185684E+02  0.46912092741E+02  0.00000000000E+00 0. -1.
        -12    1    3    3    0    0 -0.31996673505E+02  0.40093649196E+02  0.18397896426E+03  0.19099619659E+03  0.00000000000E+00 0.  1.
        -13    1    4    4    0    0 -0.17820097135E+02  0.21801723033E+02  0.43408799908E+02  0.51741616698E+02  0.00000000000E+00 0.  1.
         13    1    4    4    0    0  0.71267936385E+01 -0.43012037576E+02 -0.14276529846E+02  0.45876419525E+02  0.00000000000E+00 0. -1.
         -3    1    1    2    0  502  0.24657339382E+02 -0.97009395734E+01 -0.15543678159E+03  0.15767905912E+03  0.00000000000E+00 0.  1.
<scales pt_clust_5="13000.00000" pt_clust_6="13000.00000" pt_clust_7="13000.00000" pt_clust_8="13000.00000" pt_clust_9="26.49703"></scales>
<clustering>
<clus scale="   26.497">  2  9  1 -1</clus>
<clus scale="   65.094">  5  6 -1 -1</clus>
<clus scale="   72.220">  1  5  2 -1</clus>
<clus scale="   90.091">  7  8 -1 -1</clus>
<clus scale="   26.497">  2  5  1 -1</clus>
</clustering>
</event>
<event>
 9    1  0.4731329E-005  0.9917349E+02  0.7546771E-02  0.1290714E+00
         -2   -1    0    0    0  501 -0.00000000000E+00  0.00000000000E+00  0.34019576471E+03  0.34019576471E+03  0.00000000000E+00 0.  1.
         21   -1    0    0  501  502  0.00000000000E+00 -0.00000000000E+00 -0.37155853842E+02  0.37155853842E+02  0.00000000000E+00 0.  1.
         23    2    1    2    0    0 -0.97161414906E+01 -0.18699609651E+02  0.16918249154E+03  0.19541427256E+03  0.95498396156E+02 0.  0.
        -24    2    1    2    0    0 -0.11286220618E+02  0.39171892906E+02  0.78001846168E+02  0.11884963999E+03  0.79869474463E+02 0.  0.
         11    1    4    4    0    0  0.19399664751E+02 -0.16898630409E+02  0.21111131743E+02  0.33280483554E+02  0.00000000000E+00 0. -1.
        -12    1    4    4    0    0 -0.30685885369E+02  0.56070523315E+02  0.56890714425E+02  0.85569156438E+02  0.00000000000E+00 0.  1.
        -11    1    3    3    0    0  0.42756080514E+02 -0.23580569383E+01  0.72299139996E+02  0.84028617135E+02  0.00000000000E+00 0. -1.
         11    1    3    3    0    0 -0.52472222005E+02 -0.16341552713E+02  0.96883351546E+02  0.11138565542E+03  0.00000000000E+00 0.  1.
         -1    1    1    2    0  502  0.21002362109E+02 -0.20472283255E+02  0.55855573162E+02  0.63087706006E+02  0.00000000000E+00 0.  1.
<scales pt_clust_5="13000.00000" pt_clust_6="13000.00000" pt_clust_7="13000.00000" pt_clust_8="13000.00000" pt_clust_9="29.32941"></scales>
<clustering>
<clus scale="   29.329">  2  9  1 -1</clus>
<clus scale="   79.869">  5  6 -1 -1</clus>
<clus scale="   84.229">  2  5  1 -1</clus>
<clus scale="   95.498">  7  8 -1 -1</clus>
<clus scale="   29.329">  2  5  1 -1</clus>
</clustering>
</event>
<event>
 9    1  0.4731329E-005  0.1026655E+03  0.7546771E-02  0.1281149E+00
         21   -1    0    0  501  502  0.00000000000E+00  0.00000000000E+00  0.66122838507E+02  0.66122838507E+02  0.00000000000E+00 0. -1.
          1   -1    0    0  502    0 -0.00000000000E+00 -0.00000000000E+00 -0.26116552340E+03  0.26116552340E+03  0.00000000000E+00 0. -1.
        -24    2    1    2    0    0  0.40420124712E+02  0.57031044349E+01 -0.44918080697E+02  0.10122296732E+03  0.81007056843E+02 0.  0.
         23    2    1    2    0    0 -0.28746275534E+02 -0.41207848552E+02 -0.47197974627E+02  0.11656308098E+03  0.93993977998E+02 0.  0.
         11    1    3    3    0    0  0.28722475509E+02 -0.91822926155E+01 -0.66196860170E+02  0.72741455810E+02  0.00000000000E+00 0. -1.
        -12    1    3    3    0    0  0.11697649203E+02  0.14885397050E+02  0.21278779473E+02  0.28481511513E+02  0.00000000000E+00 0.  1.
        -11    1    4    4    0    0  0.29436320032E+02 -0.32469192839E+02 -0.48957578861E+01  0.44098910031E+02  0.00000000000E+00 0.  1.
         11    1    4    4    0    0 -0.58182595566E+02 -0.87386557129E+01 -0.42302216741E+02  0.72464170951E+02  0.00000000000E+00 0. -1.
          2    1    1    2  501    0 -0.11673849177E+02  0.35504744117E+02 -0.10292662957E+03  0.10950231360E+03  0.00000000000E+00 0. -1.
<scales pt_clust_5="13000.00000" pt_clust_6="13000.00000" pt_clust_7="13000.00000" pt_clust_8="13000.00000" pt_clust_9="37.37468"></scales>
<clustering>
<clus scale="   37.375">  1  9  2 -1</clus>
<clus scale="   81.007">  5  6 -1 -1</clus>
<clus scale="   90.926">  2  5  1 -1</clus>
<clus scale="   93.994">  7  8 -1 -1</clus>
<clus scale="   37.375">  1  5  2 -1</clus>
</clustering>
</event>
<event>
 9    1  0.4731329E-005  0.1054306E+03  0.7546771E-02  0.1273670E+00
         21   -1    0    0  501  502  0.00000000000E+00  0.00000000000E+00  0.26562395564E+03  0.26562395564E+03  0.00000000000E+00 0.  1.
          1   -1    0    0  502    0 -0.00000000000E+00 -0.00000000000E+00 -0.10175088003E+03  0.10175088003E+03  0.00000000000E+00 0. -1.
         23    2    1    2    0    0  0.49599604974E+02  0.10941812311E+02 -0.44444312874E+02  0.11457081774E+03  0.92581484437E+02 0.  0.
        -24    2    1    2    0    0 -0.52089734509E+02  0.14025042531E+02  0.95954661268E+02  0.13767397383E+03  0.82684846207E+02 0.  0.
         11    1    4    4    0    0  0.22765327746E+02  0.28931388840E+01  0.24988084821E+02  0.33926903528E+02  0.00000000000E+00 0. -1.
        -12    1    4    4    0    0 -0.74855062254E+02  0.11131903647E+02  0.70966576446E+02  0.10374707030E+03  0.00000000000E+00 0.  1.
        -11    1    3    3    0    0 -0.12843729820E+02  0.25855299637E+02 -0.41175677065E+02  0.50288112877E+02  0.00000000000E+00 0.  1.
         11    1    3    3    0    0  0.62443334794E+02 -0.14913487326E+02 -0.32686358091E+01  0.64282704863E+02  0.00000000000E+00 0. -1.
          2    1    1    2  501    0  0.24901295350E+01 -0.24966854842E+02  0.11236272722E+03  0.11513004410E+03  0.00000000000E+00 0. -1.
<scales pt_clust_5="13000.00000" pt_clust_6="13000.00000" pt_clust_7="13000.00000" pt_clust_8="13000.00000" pt_clust_9="25.09073"></scales>
<clustering>
<clus scale="   25.091">  1  9  2 -1</clus>
<clus scale="   82.685">  5  6 -1 -1</clus>
<clus scale="   92.581">  7  8 -1 -1</clus>
<clus scale="   96.856">  1  5  2 -1</clus>
<clus scale="   25.091">  1  5  2 -1</clus>
</clustering>
</event>
<event>
 9    1  0.4731329E-005  0.1045068E+03  0.7546771E-02  0.1280281E+00
         21   -1    0    0  501  502  0.00000000000E+00  0.00000000000E+00  0.32056408435E+02  0.32056408435E+02  0.00000000000E+00 0.  1.
          1   -1    0    0  502    0 -0.00000000000E+00 -0.00000000000E+00 -0.44505619554E+03  0.44505619554E+03  0.00000000000E+00 0. -1.
        -24    2    1    2    0    0 -0.22750160521E+02 -0.33854108401E+02 -0.16222600119E+03  0.18498546502E+03  0.78985291975E+02 0.  0.
         23    2    1    2    0    0  0.46249058283E+02 -0.51675954161E+00 -0.17094838406E+03  0.20209575809E+03  0.97365820446E+02 0.  0.
         11    1    3    3    0    0  0.23272376166E+02 -0.35465940165E+02 -0.86837765485E+02  0.96644885630E+02  0.00000000000E+00 0. -1.
        -12    1    3    3    0    0 -0.46022536686E+02  0.16118317636E+01 -0.75388235701E+02  0.88340579389E+02  0.00000000000E+00 0.  1.
        -13    1    4    4    0    0  0.52064672107E+02  0.22911195796E+02 -0.41490953724E+02  0.70407046631E+02  0.00000000000E+00 0.  1.
         13    1    4    4    0    0 -0.58156138236E+01 -0.23427955338E+02 -0.12945743034E+03  0.13168871146E+03  0.00000000000E+00 0. -1.
          2    1    1    2  501    0 -0.23498897763E+02  0.34370867943E+02 -0.79825401855E+02  0.90031380865E+02  0.00000000000E+00 0. -1.
<scales pt_clust_5="13000.00000" pt_clust_6="13000.00000" pt_clust_7="13000.00000" pt_clust_8="13000.00000" pt_clust_9="41.63600"></scales>
<clustering>
<clus scale="   41.636">  1  9  2 -1</clus>
<clus scale="   78.985">  5  6 -1 -1</clus>
<clus scale="   87.637">  2  5  1 -1</clus>
<clus scale="   97.366">  7  8 -1 -1</clus>
<clus scale="   41.636">  1  5  2 -1</clus>
</clustering>
</event>
<event>
 9    1  0.4731329E-005  0.1389670E+03  0.7546771E-02  0.1216216E+00
          1   -1    0    0  502    0 -0.00000000000E+00  0.00000000000E+00  0.30902991501E+03  0.30902991501E+03  0.00000000000E+00 0. -1.
         21   -1    0    0  501  502  0.00000000000E+00 -0.00000000000E+00 -0.13890503718E+03  0.13890503718E+03  0.00000000000E+00 0.  1.
        -24    2    1    2    0    0 -0.78662034907E+02  0.74032182441E+02  0.17110249105E+03  0.21774346946E+03  0.80421864423E+02 0.  0.
         23    2    1    2    0    0  0.30431723900E+02 -0.11704902016E+03  0.38924848449E+02  0.15423874958E+03  0.87452187541E+02 0.  0.
         11    1    3    3    0    0 -0.83520214008E+01  0.21407581433E+02  0.10589474293E+03  0.10835929764E+03  0.00000000000E+00 0. -1.
        -12    1    3    3    0    0 -0.70310013506E+02  0.52624601008E+02  0.65207748113E+02  0.10938417182E+03  0.00000000000E+00 0.  1.
        -13    1    4    4    0    0  0.57879174061E+02 -0.55905130327E+02  0.94528868475E+01  0.81023079778E+02  0.00000000000E+00 0. -1.
         13    1    4    4    0    0 -0.27447450161E+02 -0.61143889829E+02  0.29471961601E+02  0.73215669801E+02  0.00000000000E+00 0.  1.
          2    1    1    2  501    0  0.48230311007E+02  0.43016837715E+02 -0.39902461664E+02  0.75952733155E+02  0.00000000000E+00 0. -1.
<scales pt_clust_5="13000.00000" pt_clust_6="13000.00000" pt_clust_7="13000.00000" pt_clust_8="13000.00000" pt_clust_9="64.62671"></scales>
<clustering>
<clus scale="   64.627">  2  9  1 -1</clus>
<clus scale="   80.422">  5  6 -1 -1</clus>
<clus scale="   87.452">  7  8 -1 -1</clus>
<clus scale="  134.654">  1  5  2 -1</clus>
<clus scale="   64.627">  2  5  1 -1</clus>
</clustering>
</event>
<event>
 9    1  0.4731329E-005  0.9194185E+02  0.7546771E-02  0.1302970E+00
         21   -1    0    0  501  502  0.00000000000E+00  0.00000000000E+00  0.22089201596E+02  0.22089201596E+02  0.00000000000E+00 0. -1.
         -2   -1    0    0    0  501 -0.00000000000E+00 -0.00000000000E+00 -0.77509735039E+03  0.77509735039E+03  0.00000000000E+00 0.  1.
        -24    2    1    2    0    0  0.12800085191E+02 -0.10380194128E+02 -0.46640648130E+03  0.47367873640E+03  0.81024372281E+02 0.  0.
         23    2    1    2    0    0 -0.55199288127E+02 -0.48279639738E+01 -0.19342111275E+03  0.22001097378E+03  0.89010286370E+02 0.  0.
         11    1    3    3    0    0  0.37450628269E+02 -0.14947938457E+02 -0.12478134728E+03  0.13113494976E+03  0.00000000000E+00 0. -1.
        -12    1    3    3    0    0 -0.24650543077E+02  0.45677443287E+01 -0.34162513403E+03  0.34254378663E+03  0.00000000000E+00 0.  1.
        -11    1    4    4    0    0 -0.60636117066E+02 -0.30702559491E+02 -0.87254799248E+02  0.11060192514E+03  0.00000000000E+00 0. -1.
         11    1    4    4    0    0  0.54368289393E+01  0.25874595518E+02 -0.10616631350E+03  0.10940904864E+03  0.00000000000E+00 0.  1.
         -1    1    1    2    0  502  0.42399202935E+02  0.15208158102E+02 -0.93180554742E+02  0.10349684181E+03  0.00000000000E+00 0.  1.
<scales pt_clust_5="13000.00000" pt_clust_6="13000.00000" pt_clust_7="13000.00000" pt_clust_8="13000.00000" pt_clust_9="45.04421"></scales>
<clustering>
<clus scale="   45.044">  1  9  2 -1</clus>
<clus scale="   81.024">  5  6 -1 -1</clus>
<clus scale="   84.234">  2  5  1 -1</clus>
<clus scale="   89.010">  7  8 -1 -1</clus>
<clus scale="   45.044">  1  5  2 -1</clus>
</clustering>
</event>
<event>
 9    1  0.4731329E-005  0.1228491E+03  0.7546771E-02  0.1241967E+00
          1   -1    0    0  502    0 -0.00000000000E+00  0.00000000000E+00  0.17289602521E+03  0.17289602521E+03  0.00000000000E+00 0. -1.
         21   -1    0    0  501  502  0.00000000000E+00 -0.00000000000E+00 -0.21989674241E+03  0.21989674241E+03  0.00000000000E+00 0.  1.
         23    2    1    2    0    0  0.50216398823E+02 -0.71214728377E+02  0.10480410136E+03  0.16481862211E+03  0.92671755580E+02 0.  0.
        -24    2    1    2    0    0 -0.61490025258E+02  0.13926807172E+02 -0.12982205666E+03  0.16558630703E+03  0.81179304722E+02 0.  0.
         13    1    4    4    0    0 -0.28314569312E+02 -0.89241074759E+01 -0.31168446246E-01  0.29687632123E+02  0.00000000000E+00 0. -1.
        -14    1    4    4    0    0 -0.33175455945E+02  0.22850914648E+02 -0.12979088821E+03  0.13589867490E+03  0.00000000000E+00 0.  1.
        -13    1    3    3    0    0  0.26891834636E+02 -0.13616081918E+02  0.97732848456E+02  0.10227550109E+03  0.00000000000E+00 0. -1.
         13    1    3    3    0    0  0.23324564187E+02 -0.57598646458E+02  0.70712529081E+01  0.62543121013E+02  0.00000000000E+00 0.  1.
          2    1    1    2  501    0  0.11273626434E+02  0.57287921205E+02 -0.21982761906E+02  0.62387838478E+02  0.00000000000E+00 0. -1.
<scales pt_clust_5="13000.00000" pt_clust_6="13000.00000" pt_clust_7="13000.00000" pt_clust_8="13000.00000" pt_clust_9="58.38665"></scales>
<clustering>
<clus scale="   58.387">  2  9  1 -1</clus>
<clus scale="   81.179">  5  6 -1 -1</clus>
<clus scale="   92.672">  7  8 -1 -1</clus>
<clus scale="  114.429">  2  5  1 -1</clus>
<clus scale="   58.387">  2  5  1 -1</clus>
</clustering>
</event>
<event>
 9    1  0.4731329E-005  0.1020044E+03  0.7546771E-02  0.1280546E+00
         21   -1    0    0  501  502  0.00000000000E+00  0.00000000000E+00  0.18827862048E+03  0.18827862048E+03  0.00000000000E+00 0. -1.
          1   -1    0    0  502    0 -0.00000000000E+00 -0.00000000000E+00 -0.42846817219E+03  0.42846817219E+03  0.00000000000E+00 0. -1.
         23    2    1    2    0    0  0.18813699908E+02  0.26797557449E+02 -0.23908126886E+03  0.25722572662E+03  0.89068271153E+02 0.  0.
        -24    2    1    2    0    0 -0.47712289567E+01 -0.10593547041E+03 -0.14391581073E+03  0.19564919452E+03  0.79509485101E+02 0.  0.
         13    1    4    4    0    0 -0.19055841650E+02 -0.99472268525E+02 -0.77837294023E+02  0.12773606244E+03  0.00000000000E+00 0. -1.
        -14    1    4    4    0    0  0.14284612693E+02 -0.64632018821E+01 -0.66078516711E+02  0.67913132082E+02  0.00000000000E+00 0.  1.
        -13    1    3    3    0    0  0.34628826141E+02  0.42721150017E+02 -0.22283292259E+03  0.22951854751E+03  0.00000000000E+00 0. -1.
         13    1    3    3    0    0 -0.15815126232E+02 -0.15923592568E+02 -0.16248346268E+02  0.27707179114E+02  0.00000000000E+00 0.  1.
          2    1    1    2  501    0 -0.14042470952E+02  0.79137912958E+02  0.14280752789E+03  0.16387187153E+03  0.00000000000E+00 0. -1.
<scales pt_clust_5="13000.00000" pt_clust_6="13000.00000" pt_clust_7="13000.00000" pt_clust_8="13000.00000" pt_clust_9="80.37413"></scales>
<clustering>
<clus scale="   79.509">  5  6 -1 -1</clus>
<clus scale="   80.374">  1  9  2 -1</clus>
<clus scale="   89.068">  7  8 -1 -1</clus>
<clus scale="   93.774">  1  5  2 -1</clus>
<clus scale="   80.374">  1  5  2 -1</clus>
</clustering>
</event>
<event>
 9    1  0.4731329E-005  0.1890963E+03  0.7546771E-02  0.1179111E+00
         21   -1    0    0  501  502  0.00000000000E+00  0.00000000000E+00  0.53202118635E+03  0.53202118635E+03  0.00000000000E+00 0.  1.
         -4   -1    0    0    0  501 -0.00000000000E+00 -0.00000000000E+00 -0.14487800056E+03  0.14487800056E+03  0.00000000000E+00 0.  1.
         23    2    1    2    0    0 -0.75267830520E+01 -0.76567698610E+02  0.16189000909E+03  0.20154798690E+03  0.92162633684E+02 0.  0.
        -24    2    1    2    0    0 -0.14907895710E+03  0.10518645826E+03  0.24497310749E+03  0.31493528146E+03  0.76705160628E+02 0.  0.
         13    1    4    4    0    0 -0.23846570803E+02  0.51507744729E+02  0.42594890044E+02  0.70965000979E+02  0.00000000000E+00 0. -1.
        -14    1    4    4    0    0 -0.12523238630E+03  0.53678713535E+02  0.20237821744E+03  0.24397028048E+03  0.00000000000E+00 0.  1.
        -13    1    3    3    0    0 -0.19971298293E+02 -0.90371056905E+01  0.11807474399E+03  0.12009232782E+03  0.00000000000E+00 0.  1.
         13    1    3    3    0    0  0.12444515241E+02 -0.67530592920E+02  0.43815265101E+02  0.81455659076E+02  0.00000000000E+00 0. -1.
         -3    1    1    2    0  502  0.15660574015E+03 -0.28618759654E+02 -0.19719930793E+02  0.16041591855E+03  0.00000000000E+00 0.  1.
<scales pt_clust_5="13000.00000" pt_clust_6="13000.00000" pt_clust_7="13000.00000" pt_clust_8="13000.00000" pt_clust_9="172.84031"></scales>
<clustering>
<clus scale="   76.705">  5  6 -1 -1</clus>
<clus scale="   92.163">  7  8 -1 -1</clus>
<clus scale="  120.055">  2  7  1 -1</clus>
<clus scale="  172.840">  1  9  2 -1</clus>
<clus scale="  172.840">  1  5  2 -1</clus>
</clustering>
</event>
<event>
 9    1  0.4731329E-005  0.1124777E+03  0.7546771E-02  0.1260018E+00
         21   -1    0    0  501  502  0.00000000000E+00  0.00000000000E+00  0.18894282841E+03  0.18894282841E+03  0.00000000000E+00 0. -1.
         -4   -1    0    0    0  501 -0.00000000000E+00 -0.00000000000E+00 -0.19914644397E+03  0.19914644397E+03  0.00000000000E+00 0.  1.
         23    2    1    2    0    0 -0.38250996582E+02 -0.54657872271E+02 -0.15863578403E+03  0.19460670817E+03  0.90861637393E+02 0.  0.
        -24    2    1    2    0    0  0.19615630626E+02  0.62812639396E+02  0.12158979069E+03  0.15980333714E+03  0.80142552540E+02 0.  0.
         13    1    4    4    0    0  0.39544809185E+02  0.68147434068E+02  0.11228648655E+03  0.13717186215E+03  0.00000000000E+00 0. -1.
        -14    1    4    4    0    0 -0.19929178559E+02 -0.53347946724E+01  0.93033041375E+01  0.22631474988E+02  0.00000000000E+00 0.  1.
        -13    1    3    3    0    0 -0.31057569045E+02  0.17516148860E+02 -0.28596306905E+02  0.45707076416E+02  0.00000000000E+00 0.  1.
         13    1    3    3    0    0 -0.71934275369E+01 -0.72174021131E+02 -0.13003947713E+03  0.14889963176E+03  0.00000000000E+00 0. -1.
         -3    1    1    2    0  502  0.18635365956E+02 -0.81547671248E+01  0.26842377786E+02  0.33679227075E+02  0.00000000000E+00 0.  1.
<scales pt_clust_5="13000.00000" pt_clust_6="13000.00000" pt_clust_7="13000.00000" pt_clust_8="13000.00000" pt_clust_9="20.34151"></scales>
<clustering>
<clus scale="   20.342">  1  9  2 -1</clus>
<clus scale="   80.143">  5  6 -1 -1</clus>
<clus scale="   90.862">  7  8 -1 -1</clus>
<clus scale="  104.011">  1  5  2 -1</clus>
<clus scale="   20.342">  1  5  2 -1</clus>
</clustering>
</event>
<event>
 9    1  0.4731329E-005  0.1865581E+03  0.7546771E-02  0.1195123E+00
         21   -1    0    0  501  502  0.00000000000E+00  0.00000000000E+00  0.58532911467E+02  0.58532911467E+02  0.00000000000E+00 0.  1.
         -4   -1    0    0    0  501 -0.00000000000E+00 -0.00000000000E+00 -0.89290259562E+03  0.89290259562E+03  0.00000000000E+00 0.  1.
        -24    2    1    2    0    0 -0.13246513300E+02 -0.30355436451E+02 -0.25502885101E+03  0.26965895285E+03  0.81112966710E+02 0.  0.
         23    2    1    2    0    0  0.16076453445E+03  0.71211980650E+02 -0.39036126236E+03  0.43858094996E+03  0.95157515662E+02 0.  0.
         13    1    3    3    0    0 -0.10257451441E+02  0.25740816089E+02 -0.51041810461E+02  0.58078148542E+02  0.00000000000E+00 0. -1.
        -14    1    3    3    0    0 -0.29890618591E+01 -0.56096252540E+02 -0.20398704055E+03  0.21158080430E+03  0.00000000000E+00 0.  1.
        -13    1    4    4    0    0  0.14290932448E+03  0.55128487586E+02 -0.38443990971E+03  0.41383120876E+03  0.00000000000E+00 0. -1.
         13    1    4    4    0    0  0.17855209967E+02  0.16083493063E+02 -0.59213526554E+01  0.24749741197E+02  0.00000000000E+00 0.  1.
         -3    1    1    2    0  502 -0.14751802115E+03 -0.40856544198E+02 -0.18897957078E+03  0.24319560428E+03  0.00000000000E+00 0.  1.
<scales pt_clust_5="13000.00000" pt_clust_6="13000.00000" pt_clust_7="13000.00000" pt_clust_8="13000.00000" pt_clust_9="160.46489"></scales>
<clustering>
<clus scale="   81.113">  5  6 -1 -1</clus>
<clus scale="   87.614">  2  5  1 -1</clus>
<clus scale="   95.158">  7  8 -1 -1</clus>
<clus scale="  160.465">  1  9  2 -1</clus>
<clus scale="  160.465">  1  5  2 -1</clus>
</clustering>
</event>
<event>
 9    1  0.4731329E-005  0.1073641E+03  0.7546771E-02  0.1273146E+00
          1   -1    0    0  502    0 -0.00000000000E+00  0.00000000000E+00  0.48853143777E+03  0.48853143777E+03  0.00000000000E+00 0. -1.
         21   -1    0    0  501  502  0.00000000000E+00 -0.00000000000E+00 -0.86834349688E+02  0.86834349688E+02  0.00000000000E+00 0. -1.
         23    2    1    2    0    0 -0.32327944210E+02 -0.27631769174E+02  0.36941801211E+03  0.38441281811E+03  0.97441964299E+02 0.  0.
        -24    2    1    2    0    0 -0.81303039903E+00  0.77148512004E+02  0.58101400373E+02  0.12601434867E+03  0.80940035962E+02 0.  0.
         13    1    4    4    0    0 -0.65374335814E+01  0.80320503271E+02  0.14445453463E+02  0.81870583296E+02  0.00000000000E+00 0. -1.
        -14    1    4    4    0    0  0.57244031824E+01 -0.31719912666E+01  0.43655946910E+02  0.44143765370E+02  0.00000000000E+00 0.  1.
        -11    1    3    3    0    0  0.12976611038E+02 -0.47136634614E+02  0.11041398880E+03  0.12075389716E+03  0.00000000000E+00 0.  1.
         11    1    3    3    0    0 -0.45304555248E+02  0.19504865440E+02  0.25900402331E+03  0.26365892094E+03  0.00000000000E+00 0. -1.
          2    1    1    2  501    0  0.33140974609E+02 -0.49516742830E+02 -0.25822324406E+02  0.64938620683E+02  0.00000000000E+00 0. -1.
<scales pt_clust_5="13000.00000" pt_clust_6="13000.00000" pt_clust_7="13000.00000" pt_clust_8="13000.00000" pt_clust_9="59.58382"></scales>
<clustering>
<clus scale="   59.584">  2  9  1 -1</clus>
<clus scale="   80.940">  5  6 -1 -1</clus>
<clus scale="   92.647">  2  5  1 -1</clus>
<clus scale="   97.442">  7  8 -1 -1</clus>
<clus scale="   59.584">  2  5  1 -1</clus>
</clustering>
</event>
<event>
 9    1  0.4731329E-005  0.9543041E+02  0.7546771E-02  0.1297878E+00
          1   -1    0    0  502    0 -0.00000000000E+00  0.00000000000E+00  0.13944547558E+03  0.13944547558E+03  0.00000000000E+00 0. -1.
         21   -1    0    0  501  502  0.00000000000E+00 -0.00000000000E+00 -0.23498710514E+03  0.23498710514E+03  0.00000000000E+00 0.  1.
         23    2    1    2    0    0 -0.11812315882E+02  0.13010667623E+02  0.82256486247E+02  0.12514414339E+03  0.92661312400E+02 0.  0.
        -24    2    1    2    0    0  0.25697967118E+02 -0.64509296288E+02 -0.16252488654E+03  0.19380698460E+03  0.79529703339E+02 0.  0.
         11    1    4    4    0    0  0.36834576566E+02 -0.48189788552E+01 -0.29011618388E+02  0.47134728062E+02  0.00000000000E+00 0. -1.
        -12    1    4    4    0    0 -0.11136609448E+02 -0.59690317432E+02 -0.13351326815E+03  0.14667225654E+03  0.00000000000E+00 0.  1.
        -13    1    3    3    0    0 -0.33244549334E+02  0.13620481824E+02 -0.41055304482E+01  0.36160378396E+02  0.00000000000E+00 0. -1.
         13    1    3    3    0    0  0.21432233452E+02 -0.60981420055E+00  0.86362016696E+02  0.88983764990E+02  0.00000000000E+00 0.  1.
          2    1    1    2  501    0 -0.13885651237E+02  0.51498628664E+02 -0.15273229271E+02  0.55481452729E+02  0.00000000000E+00 0. -1.
<scales pt_clust_5="13000.00000" pt_clust_6="13000.00000" pt_clust_7="13000.00000" pt_clust_8="13000.00000" pt_clust_9="53.33779"></scales>
<clustering>
<clus scale="   53.338">  2  9  1 -1</clus>
<clus scale="   79.530">  5  6 -1 -1</clus>
<clus scale="   82.739">  2  5  1 -1</clus>
<clus scale="   92.661">  7  8 -1 -1</clus>
<clus scale="   53.338">  2  5  1 -1</clus>
</clustering>
</event>
<event>
 9    1  0.4731329E-005  0.2480927E+03  0.7546771E-02  0.1147868E+00
         21   -1    0    0  501  502  0.00000000000E+00  0.00000000000E+00  0.27257786468E+03  0.27257786468E+03  0.00000000000E+00 0. -1.
          1   -1    0    0  502    0 -0.00000000000E+00 -0.00000000000E+00 -0.43821071929E+03  0.43821071929E+03  0.00000000000E+00 0. -1.
        -24    2    1    2    0    0  0.36616009817E+02  0.63776744703E+02  0.10641426560E+03  0.15271864381E+03  0.81183636918E+02 0.  0.
         23    2    1    2    0    0  0.16038653496E+03 -0.17870438423E+03 -0.16969459918E+03  0.30808113334E+03  0.91970811625E+02 0.  0.
         13    1    3    3    0    0  0.58111551503E+02  0.30144023412E+02  0.44876884873E+02  0.79369700525E+02  0.00000000000E+00 0. -1.
        -14    1    3    3    0    0 -0.21495541687E+02  0.33632721291E+02  0.61537380724E+02  0.73348943280E+02  0.00000000000E+00 0.  1.
        -11    1    4    4    0    0  0.10169663286E+03 -0.63625135507E+02 -0.11998286303E+03  0.16966511257E+03  0.00000000000E+00 0.  1.
         11    1    4    4    0    0  0.58689902099E+02 -0.11507924872E+03 -0.49711736155E+02  0.13841602077E+03  0.00000000000E+00 0. -1.
          2    1    1    2  501    0 -0.19700254477E+03  0.11492763953E+03 -0.10235252103E+03  0.24998880682E+03  0.00000000000E+00 0. -1.
<scales pt_clust_5="13000.00000" pt_clust_6="13000.00000" pt_clust_7="13000.00000" pt_clust_8="13000.00000" pt_clust_9="230.41567"></scales>
<clustering>
<clus scale="   81.184">  5  6 -1 -1</clus>
<clus scale="   91.971">  7  8 -1 -1</clus>
<clus scale="  109.540">  2  5  1 -1</clus>
<clus scale="  230.416">  1  9  2 -1</clus>
<clus scale="  230.416">  1  5  2 -1</clus>
</clustering>
</event>
<event>
 9    1  0.4731329E-005  0.9111658E+02  0.7546771E-02  0.1304831E+00
         21   -1    0    0  501  502  0.00000000000E+00  0.00000000000E+00  0.35272372857E+02  0.35272372857E+02  0.00000000000E+00 0.  1.
          1   -1    0    0  502    0 -0.00000000000E+00 -0.00000000000E+00 -0.54426121118E+03  0.54426121118E+03  0.00000000000E+00 0. -1.
         23    2    1    2    0    0  0.14911544538E+02  0.29023515867E+01 -0.24010536256E+03  0.25686367333E+03  0.89986575334E+02 0.  0.
        -24    2    1    2    0    0  0.59514906264E+02 -0.12550121341E+02 -0.17097224874E+03  0.19930466270E+03  0.82409399464E+02 0.  0.
         11    1    4    4    0    0  0.22675736919E+02 -0.30960551483E+02 -0.14640321028E+03  0.15134941286E+03  0.00000000000E+00 0. -1.
        -12    1    4    4    0    0  0.36839169345E+02  0.18410430142E+02 -0.24569038462E+02  0.47955249838E+02  0.00000000000E+00 0.  1.
        -11    1    3    3    0    0 -0.38269373220E+01 -0.38147163802E+02 -0.60089129651E+02  0.71278012441E+02  0.00000000000E+00 0.  1.
         11    1    3    3    0    0  0.18738481860E+02  0.41049515389E+02 -0.18001623291E+03  0.18558566088E+03  0.00000000000E+00 0. -1.
          2    1    1    2  501    0 -0.74426450803E+02  0.96477697542E+01 -0.97911227029E+02  0.12336524802E+03  0.00000000000E+00 0. -1.
<scales pt_clust_5="13000.00000" pt_clust_6="13000.00000" pt_clust_7="13000.00000" pt_clust_8="13000.00000" pt_clust_9="75.04916"></scales>
<clustering>
<clus scale="   75.049">  1  9  2 -1</clus>
<clus scale="   82.409">  5  6 -1 -1</clus>
<clus scale="   83.642">  1  5  2 -1</clus>
<clus scale="   89.987">  7  8 -1 -1</clus>
<clus scale="   75.049">  1  5  2 -1</clus>
</clustering>
</event>
<event>
 9    1  0.4731329E-005  0.1942682E+03  0.7546771E-02  0.1155622E+00
          1   -1    0    0  502    0 -0.00000000000E+00  0.00000000000E+00  0.16347291141E+03  0.16347291141E+03  0.00000000000E+00 0. -1.
         21   -1    0    0  501  502  0.00000000000E+00 -0.00000000000E+00 -0.73020859528E+03  0.73020859528E+03  0.00000000000E+00 0.  1.
        -24    2    1    2    0    0 -0.18341908369E+02 -0.17630313037E+03  0.72238581211E+02  0.20848122807E+03  0.82624393871E+02 0.  0.
         23    2    1    2    0    0  0.72894606129E+02  0.12364966780E+03 -0.41219944840E+03  0.44608691338E+03  0.92099321809E+02 0.  0.
         13    1    3    3    0    0 -0.34880614078E+02 -0.39004622313E+02  0.41573931511E+02  0.66831202155E+02  0.00000000000E+00 0. -1.
        -14    1    3    3    0    0  0.16538705709E+02 -0.13729850806E+03  0.30664649700E+02  0.14165002592E+03  0.00000000000E+00 0.  1.
        -13    1    4    4    0    0  0.76892742087E+02  0.95565480454E+02 -0.39334277018E+03  0.41202401592E+03  0.00000000000E+00 0.  1.
         13    1    4    4    0    0 -0.39981359582E+01  0.28084187349E+02 -0.18856678225E+02  0.34062897467E+02  0.00000000000E+00 0. -1.
          2    1    1    2  501    0 -0.54552697761E+02  0.52653462568E+02 -0.22677481668E+03  0.23911336523E+03  0.00000000000E+00 0. -1.
<scales pt_clust_5="13000.00000" pt_clust_6="13000.00000" pt_clust_7="13000.00000" pt_clust_8="13000.00000" pt_clust_9="75.81810"></scales>
<clustering>
<clus scale="   75.818">  2  9  1 -1</clus>
<clus scale="   82.624">  5  6 -1 -1</clus>
<clus scale="   92.099">  7  8 -1 -1</clus>
<clus scale="  189.960">  1  5  2 -1</clus>
<clus scale="   75.818">  2  5  1 -1</clus>
</clustering>
</event>
<event>
 9    1  0.4731329E-005  0.8947508E+02  0.7546771E-02  0.1318962E+00
          3   -1    0    0  502    0 -0.00000000000E+00  0.00000000000E+00  0.14968095397E+03  0.14968095397E+03  0.00000000000E+00 0. -1.
         21   -1    0    0  501  502  0.00000000000E+00 -0.00000000000E+00 -0.18852616390E+03  0.18852616390E+03  0.00000000000E+00 0. -1.
         23    2    1    2    0    0  0.55618562033E+01 -0.80904030256E+00  0.78824480899E+02  0.11839491472E+03  0.88161603050E+02 0.  0.
        -24    2    1    2    0    0 -0.10857784246E+02  0.30472547823E+02  0.21702884823E+02  0.77219477620E+02  0.66673569461E+02 0.  0.
         11    1    4    4    0    0 -0.20699640305E+02  0.27263520571E+02  0.42151270093E+02  0.54300131060E+02  0.00000000000E+00 0. -1.
        -12    1    4    4    0    0  0.98418560589E+01  0.32090272520E+01 -0.20448385270E+02  0.22919346560E+02  0.00000000000E+00 0.  1.
        -13    1    3    3    0    0  0.45729319514E+02  0.80259300922E+01  0.33897791646E+02  0.57486054792E+02  0.00000000000E+00 0.  1.
         13    1    3    3    0    0 -0.40167463311E+02 -0.88349703948E+01  0.44926689253E+02  0.60908859930E+02  0.00000000000E+00 0. -1.
          4    1    1    2  501    0  0.52959280426E+01 -0.29663507520E+02 -0.13937257565E+03  0.14259272553E+03  0.00000000000E+00 0. -1.
<scales pt_clust_5="13000.00000" pt_clust_6="13000.00000" pt_clust_7="13000.00000" pt_clust_8="13000.00000" pt_clust_9="30.13255"></scales>
<clustering>
<clus scale="   30.133">  2  9  1 -1</clus>
<clus scale="   66.674">  5  6 -1 -1</clus>
<clus scale="   68.401">  2  5  1 -1</clus>
<clus scale="   88.162">  7  8 -1 -1</clus>
<clus scale="   30.133">  2  5  1 -1</clus>
</clustering>
</event>
<event>
 9    1  0.4731329E-005  0.1725867E+03  0.7546771E-02  0.1200476E+00
          1   -1    0    0  502    0 -0.00000000000E+00  0.00000000000E+00  0.87670962851E+03  0.87670962851E+03  0.00000000000E+00 0. -1.
         21   -1    0    0  501  502  0.00000000000E+00 -0.00000000000E+00 -0.75633913175E+02  0.75633913175E+02  0.00000000000E+00 0.  1.
        -24    2    1    2    0    0  0.57514501505E+02  0.20696526445E+01  0.94012669804E+01  0.98920216494E+02  0.79903842617E+02 0.  0.
         23    2    1    2    0    0  0.94492818527E+02 -0.65784585248E+02  0.41757106812E+03  0.44462122504E+03  0.10032912050E+03 0.  0.
         13    1    3    3    0    0  0.25708557434E+02  0.14177914028E+02  0.42363009955E+02  0.51541903186E+02  0.00000000000E+00 0. -1.
        -14    1    3    3    0    0  0.31805944071E+02 -0.12108261384E+02 -0.32961742975E+02  0.47378313308E+02  0.00000000000E+00 0.  1.
        -11    1    4    4    0    0  0.15644110432E+02 -0.56544294842E+02  0.89014132972E+02  0.10660915223E+03  0.00000000000E+00 0.  1.
         11    1    4    4    0    0  0.78848708095E+02 -0.92402904056E+01  0.32855693515E+03  0.33801207281E+03  0.00000000000E+00 0. -1.
          2    1    1    2  501    0 -0.15200732003E+03  0.63714932603E+02  0.37410338023E+03  0.40880210014E+03  0.00000000000E+00 0. -1.
<scales pt_clust_5="13000.00000" pt_clust_6="13000.00000" pt_clust_7="13000.00000" pt_clust_8="13000.00000" pt_clust_9="140.42877"></scales>
<clustering>
<clus scale="   79.904">  5  6 -1 -1</clus>
<clus scale="   98.473">  1  5  2 -1</clus>
<clus scale="  100.329">  7  8 -1 -1</clus>
<clus scale="  140.429">  2  9  1 -1</clus>
<clus scale="  140.429">  2  5  1 -1</clus>
</clustering>
</event>
<event>
 9    1  0.4731329E-005  0.9417541E+02  0.7546771E-02  0.1297864E+00
          1   -1    0    0  502    0 -0.00000000000E+00  0.00000000000E+00  0.83957656446E+03  0.83957656446E+03  0.00000000000E+00 0. -1.
         21   -1    0    0  501  502  0.00000000000E+00 -0.00000000000E+00 -0.14045650985E+02  0.14045650985E+02  0.00000000000E+00 0. -1.
         23    2    1    2    0    0 -0.24711617002E+01 -0.16458048865E+02  0.43390829457E+03  0.44347835915E+03  0.90109227713E+02 0.  0.
        -24    2    1    2    0    0  0.18942190260E+02  0.37183416863E+02  0.33976034236E+03  0.35191558663E+03  0.81646045903E+02 0.  0.
         11    1    4    4    0    0  0.34350863474E+02  0.54532339786E+02  0.28905918108E+03  0.29615699903E+03  0.00000000000E+00 0. -1.
        -12    1    4    4    0    0 -0.15408673214E+02 -0.17348922923E+02  0.50701161280E+02  0.55758587607E+02  0.00000000000E+00 0.  1.
        -13    1    3    3    0    0 -0.79565185248E+01 -0.53371216397E+02  0.23706590738E+03  0.24312967192E+03  0.00000000000E+00 0.  1.
         13    1    3    3    0    0  0.54853568246E+01  0.36913167532E+02  0.19684238720E+03  0.20034868723E+03  0.00000000000E+00 0. -1.
          2    1    1    2  501    0 -0.16471028560E+02 -0.20725367998E+02  0.51862276539E+02  0.58228269666E+02  0.00000000000E+00 0. -1.
<scales pt_clust_5="13000.00000" pt_clust_6="13000.00000" pt_clust_7="13000.00000" pt_clust_8="13000.00000" pt_clust_9="26.47330"></scales>
<clustering>
<clus scale="   26.473">  2  9  1 -1</clus>
<clus scale="   81.646">  5  6 -1 -1</clus>
<clus scale="   86.113">  2  5  1 -1</clus>
<clus scale="   90.109">  7  8 -1 -1</clus>
<clus scale="   26.473">  2  5  1 -1</clus>
</clustering>
</event>
<event>
 9    1  0.4731329E-005  0.1435900E+03  0.7546771E-02  0.1228919E+00
          1   -1    0    0  502    0 -0.00000000000E+00  0.00000000000E+00  0.75842540898E+03  0.75842540898E+03  0.00000000000E+00 0. -1.
         21   -1    0    0  501  502  0.00000000000E+00 -0.00000000000E+00 -0.87423282779E+02  0.87423282779E+02  0.00000000000E+00 0. -1.
        -24    2    1    2    0    0  0.44595142614E+02  0.31943090775E+02  0.10924124079E+03  0.14385101253E+03  0.75831242406E+02 0.  0.
         23    2    1    2    0    0  0.20587639587E+02  0.63974527366E+02  0.57443217755E+03  0.58533771948E+03  0.90173877484E+02 0.  0.
         11    1    3    3    0    0  0.38402968747E+02  0.52605958747E+02  0.10214384025E+03  0.12114263909E+03  0.00000000000E+00 0. -1.
        -12    1    3    3    0    0  0.61921738672E+01 -0.20662867972E+02  0.70974005350E+01  0.22708373442E+02  0.00000000000E+00 0.  1.
        -11    1    4    4    0    0  0.30797004837E+02 -0.12984050343E+02  0.13327203833E+03  0.13739897114E+03  0.00000000000E+00 0.  1.
         11    1    4    4    0    0 -0.10209365250E+02  0.76958577709E+02  0.44116013923E+03  0.44793874834E+03  0.00000000000E+00 0. -1.
          2    1    1    2  501    0 -0.65182782201E+02 -0.95917618141E+02 -0.12671292134E+02  0.11665995975E+03  0.00000000000E+00 0. -1.
<scales pt_clust_5="13000.00000" pt_clust_6="13000.00000" pt_clust_7="13000.00000" pt_clust_8="13000.00000" pt_clust_9="111.74413"></scales>
<clustering>
<clus scale="   75.831">  5  6 -1 -1</clus>
<clus scale="   90.174">  7  8 -1 -1</clus>
<clus scale="   93.592">  1  5  2 -1</clus>
<clus scale="  111.744">  2  9  1 -1</clus>
<clus scale="  111.744">  2  5  1 -1</clus>
</clustering>
</event>
<event>
 9    1  0.4731329E-005  0.1118523E+03  0.7546771E-02  0.1260366E+00
          1   -1    0    0  502    0 -0.00000000000E+00  0.00000000000E+00  0.37411589484E+03  0.37411589484E+03  0.00000000000E+00 0. -1.
         21   -1    0    0  501  502  0.00000000000E+00 -0.00000000000E+00 -0.25775190610E+03  0.25775190610E+03  0.00000000000E+00 0.  1.
        -24    2    1    2    0    0 -0.58285747117E+02  0.39751691608E+02  0.21780198030E+03  0.24180715746E+03  0.77817565315E+02 0.  0.
         23    2    1    2    0    0  0.38758944850E+02 -0.68116867340E+02 -0.22943293139E+03  0.25751410894E+03  0.86786421025E+02 0.  0.
         11    1    3    3    0    0 -0.45870749021E+02  0.34345097182E+02  0.22065011159E+03  0.22796969769E+03  0.00000000000E+00 0. -1.
        -12    1    3    3    0    0 -0.12414998095E+02  0.54065944264E+01 -0.28481312951E+01  0.13837459770E+02  0.00000000000E+00 0.  1.
        -11    1    4    4    0    0  0.38212278782E+02  0.81959839095E+01 -0.98413733221E+02  0.10588963730E+03  0.00000000000E+00 0. -1.
         11    1    4    4    0    0  0.54666606711E+00 -0.76312851249E+02 -0.13101919817E+03  0.15162447163E+03  0.00000000000E+00 0.  1.
          2    1    1    2  501    0  0.19526802267E+02  0.28365175731E+02  0.12799493982E+03  0.13254653455E+03  0.00000000000E+00 0. -1.
<scales pt_clust_5="13000.00000" pt_clust_6="13000.00000" pt_clust_7="13000.00000" pt_clust_8="13000.00000" pt_clust_9="34.43661"></scales>
<clustering>
<clus scale="   34.437">  2  9  1 -1</clus>
<clus scale="   77.818">  5  6 -1 -1</clus>
<clus scale="   86.786">  7  8 -1 -1</clus>
<clus scale="  105.046">  1  5  2 -1</clus>
<clus scale="   34.437">  2  5  1 -1</clus>
</clustering>
</event>
<event>
 9    1  0.4731329E-005  0.9175439E+02  0.7546771E-02  0.1302822E+00
         21   -1    0    0  501  502  0.00000000000E+00  0.00000000000E+00  0.81282473619E+02  0.81282473619E+02  0.00000000000E+00 0. -1.
          3   -1    0    0  502    0 -0.00000000000E+00 -0.00000000000E+00 -0.33444608676E+03  0.33444608676E+03  0.00000000000E+00 0. -1.
        -24    2    1    2    0    0  0.13957383275E+02 -0.21814862034E+02 -0.23532194489E+03  0.25081687418E+03  0.82837128601E+02 0.  0.
         23    2    1    2    0    0 -0.20319434823E+02 -0.32505210255E+02 -0.40539774635E+02  0.10569724550E+03  0.89771745301E+02 0.  0.
         11    1    3    3    0    0 -0.25830971389E+02 -0.34286984897E+02 -0.14712425444E+03  0.15325920090E+03  0.00000000000E+00 0. -1.
        -12    1    3    3    0    0  0.39788354664E+02  0.12472122863E+02 -0.88197690446E+02  0.97557673279E+02  0.00000000000E+00 0.  1.
        -11    1    4    4    0    0 -0.20116474697E+02  0.29374217043E+02 -0.17463972320E+02  0.39654854814E+02  0.00000000000E+00 0.  1.
         11    1    4    4    0    0 -0.20296012538E+00 -0.61879427298E+02 -0.23075802315E+02  0.66042390690E+02  0.00000000000E+00 0. -1.
          4    1    1    2  501    0  0.63620515474E+01  0.54320072289E+02  0.22698106382E+02  0.59214440694E+02  0.00000000000E+00 0. -1.
<scales pt_clust_5="13000.00000" pt_clust_6="13000.00000" pt_clust_7="13000.00000" pt_clust_8="13000.00000" pt_clust_9="54.69137"></scales>
<clustering>
<clus scale="   54.691">  1  9  2 -1</clus>
<clus scale="   82.837">  5  6 -1 -1</clus>
<clus scale="   84.982">  2  5  1 -1</clus>
<clus scale="   89.772">  7  8 -1 -1</clus>
<clus scale="   54.691">  1  5  2 -1</clus>
</clustering>
</event>
<event>
 9    1  0.4731329E-005  0.2421470E+03  0.7546771E-02  0.1118467E+00
          1   -1    0    0  502    0 -0.00000000000E+00  0.00000000000E+00  0.13837933745E+04  0.13837933745E+04  0.00000000000E+00 0. -1.
         21   -1    0    0  501  502  0.00000000000E+00 -0.00000000000E+00 -0.13321942553E+03  0.13321942553E+03  0.00000000000E+00 0. -1.
         23    2    1    2    0    0  0.86043798098E+01  0.21745249180E+03  0.15657587936E+03  0.28042702705E+03  0.82241655855E+02 0.  0.
        -24    2    1    2    0    0 -0.12305731839E+03 -0.22023591350E+03  0.19137578474E+03  0.32673182221E+03  0.80511064168E+02 0.  0.
         13    1    4    4    0    0 -0.76182344065E+02 -0.86006747221E+02  0.12512984628E+03  0.16987756928E+03  0.00000000000E+00 0. -1.
        -14    1    4    4    0    0 -0.46874974328E+02 -0.13422916628E+03  0.66245938452E+02  0.15685425292E+03  0.00000000000E+00 0.  1.
        -11    1    3    3    0    0  0.27603175137E+02  0.20231960035E+03  0.15448453203E+03  0.25604809431E+03  0.00000000000E+00 0. -1.
         11    1    3    3    0    0 -0.18998795327E+02  0.15132891451E+02  0.20913473259E+01  0.24378932733E+02  0.00000000000E+00 0.  1.
          2    1    1    2  501    0  0.11445293858E+03  0.27834216989E+01  0.90262228484E+03  0.90985395074E+03  0.00000000000E+00 0. -1.
<scales pt_clust_5="13000.00000" pt_clust_6="13000.00000" pt_clust_7="13000.00000" pt_clust_8="13000.00000" pt_clust_9="114.48684"></scales>
<clustering>
<clus scale="   80.511">  5  6 -1 -1</clus>
<clus scale="   82.242">  7  8 -1 -1</clus>
<clus scale="  114.487">  2  9  1 -1</clus>
<clus scale="  241.565">  2  5  1 -1</clus>
<clus scale="  114.487">  2  5  1 -1</clus>
</clustering>
</event>
<event>
 9    1  0.4731329E-005  0.1376087E+03  0.7546771E-02  0.1220651E+00
         21   -1    0    0  501  502  0.00000000000E+00  0.00000000000E+00  0.40556469442E+03  0.40556469442E+03  0.00000000000E+00 0.  1.
         -2   -1    0    0    0  501 -0.00000000000E+00 -0.00000000000E+00 -0.67795751431E+02  0.67795751431E+02  0.00000000000E+00 0.  1.
        -24    2    1    2    0    0 -0.97685150339E+02 -0.62023302479E+02  0.97475604209E+02  0.16910829326E+03  0.75543648226E+02 0.  0.
         23    2    1    2    0    0  0.44630105901E+02  0.77284868284E+02  0.14484479688E+03  0.19398802750E+03  0.93201622359E+02 0.  0.
         13    1    3    3    0    0 -0.32250339776E+02  0.69825187187E+00 -0.46151719273E+01  0.32586374196E+02  0.00000000000E+00 0. -1.
        -14    1    3    3    0    0 -0.65434810563E+02 -0.62721554350E+02  0.10209077614E+03  0.13652191907E+03  0.00000000000E+00 0.  1.
        -13    1    4    4    0    0  0.34037134426E+02 -0.91136447890E+01  0.73239773980E+02  0.81275147086E+02  0.00000000000E+00 0. -1.
         13    1    4    4    0    0  0.10592971475E+02  0.86398513073E+02  0.71605022903E+02  0.11271288041E+03  0.00000000000E+00 0.  1.
         -1    1    1    2    0  502  0.53055044438E+02 -0.15261565806E+02  0.95448541896E+02  0.11026412509E+03  0.00000000000E+00 0.  1.
<scales pt_clust_5="13000.00000" pt_clust_6="13000.00000" pt_clust_7="13000.00000" pt_clust_8="13000.00000" pt_clust_9="55.20646"></scales>
<clustering>
<clus scale="   55.206">  1  9  2 -1</clus>
<clus scale="   75.544">  5  6 -1 -1</clus>
<clus scale="   93.202">  7  8 -1 -1</clus>
<clus scale="  126.319">  2  5  1 -1</clus>
<clus scale="   55.206">  1  5  2 -1</clus>
</clustering>
</event>
<event>
 9    1  0.4731329E-005  0.2668286E+03  0.7546771E-02  0.1129926E+00
         21   -1    0    0  501  502  0.00000000000E+00  0.00000000000E+00  0.60566521093E+03  0.60566521093E+03  0.00000000000E+00 0. -1.
          1   -1    0    0  502    0 -0.00000000000E+00 -0.00000000000E+00 -0.46726577591E+03  0.46726577591E+03  0.00000000000E+00 0. -1.
         23    2    1    2    0    0  0.92954189607E+02 -0.37887326131E+02 -0.17686084065E+03  0.22301227139E+03  0.91535705530E+02 0.  0.
        -24    2    1    2    0    0  0.14483870212E+03  0.15037197368E+03 -0.18160474319E+03  0.28771492477E+03  0.78801110946E+02 0.  0.
         11    1    4    4    0    0  0.12111322708E+03  0.77286702076E+02 -0.13874895198E+03  0.19973212002E+03  0.00000000000E+00 0. -1.
        -12    1    4    4    0    0  0.23725475034E+02  0.73085271605E+02 -0.42855791208E+02  0.87982804748E+02  0.00000000000E+00 0.  1.
        -13    1    3    3    0    0  0.22100793624E+02 -0.49471474405E+02 -0.11917471201E+03  0.13091403226E+03  0.00000000000E+00 0. -1.
         13    1    3    3    0    0  0.70853395984E+02  0.11584148275E+02 -0.57686128640E+02  0.92098239132E+02  0.00000000000E+00 0.  1.
          2    1    1    2  501    0 -0.23779289172E+03 -0.11248464755E+03  0.49686501887E+03  0.56220379069E+03  0.00000000000E+00 0. -1.
<scales pt_clust_5="13000.00000" pt_clust_6="13000.00000" pt_clust_7="13000.00000" pt_clust_8="13000.00000" pt_clust_9="254.92722"></scales>
<clustering>
<clus scale="   78.801">  5  6 -1 -1</clus>
<clus scale="   91.536">  7  8 -1 -1</clus>
<clus scale="  135.848">  2  7  1 -1</clus>
<clus scale="  254.927">  1  9  2 -1</clus>
<clus scale="  254.927">  1  5  2 -1</clus>
</clustering>
</event>
<event>
 9    1  0.4731329E-005  0.1097868E+03  0.7546771E-02  0.1263150E+00
          3   -1    0    0  502    0 -0.00000000000E+00  0.00000000000E+00  0.49234773434E+03  0.49234773434E+03  0.00000000000E+00 0. -1.
         21   -1    0    0  501  502  0.00000000000E+00 -0.00000000000E+00 -0.10569554384E+03  0.10569554384E+03  0.00000000000E+00 0. -1.
         23    2    1    2    0    0 -0.35047350944E+02  0.59532751282E+02  0.36036347692E+03  0.37715971521E+03  0.87264826778E+02 0.  0.
        -24    2    1    2    0    0  0.12200015579E+02 -0.61679031654E+02  0.10013719213E+03  0.14355177754E+03  0.81403392207E+02 0.  0.
         11    1    4    4    0    0 -0.17915419708E+02 -0.38393010391E+02  0.96401696474E+02  0.10530086701E+03  0.00000000000E+00 0. -1.
        -12    1    4    4    0    0  0.30115435287E+02 -0.23286021263E+02  0.37354956525E+01  0.38250910532E+02  0.00000000000E+00 0.  1.
        -13    1    3    3    0    0  0.21008209984E+02 -0.49336150184E+01  0.38326500865E+02  0.43984157516E+02  0.00000000000E+00 0.  1.
         13    1    3    3    0    0 -0.56055560927E+02  0.64466366300E+02  0.32203697606E+03  0.33317555769E+03  0.00000000000E+00 0. -1.
          4    1    1    2  501    0  0.22847335365E+02  0.21462803720E+01 -0.73848478552E+02  0.77331785426E+02  0.00000000000E+00 0. -1.
<scales pt_clust_5="13000.00000" pt_clust_6="13000.00000" pt_clust_7="13000.00000" pt_clust_8="13000.00000" pt_clust_9="22.94792"></scales>
<clustering>
<clus scale="   22.948">  2  9  1 -1</clus>
<clus scale="   81.403">  5  6 -1 -1</clus>
<clus scale="   87.265">  7  8 -1 -1</clus>
<clus scale="  105.188">  2  5  1 -1</clus>
<clus scale="   22.948">  2  5  1 -1</clus>
</clustering>
</event>
<event>
 9    1  0.4731329E-005  0.1563508E+03  0.7546771E-02  0.1200943E+00
          1   -1    0    0  502    0 -0.00000000000E+00  0.00000000000E+00  0.38933449860E+03  0.38933449860E+03  0.00000000000E+00 0. -1.
         21   -1    0    0  501  502  0.00000000000E+00 -0.00000000000E+00 -0.26266077920E+03  0.26266077920E+03  0.00000000000E+00 0. -1.
         23    2    1    2    0    0  0.35753838427E+02  0.87289770011E+02  0.27076685939E+03  0.30083985155E+03  0.91060876500E+02 0.  0.
        -24    2    1    2    0    0 -0.88319669064E+02  0.54334811248E+02  0.12011842850E+02  0.13392408819E+03  0.83897207170E+02 0.  0.
         11    1    4    4    0    0 -0.80171082199E+02  0.71104846949E+02  0.26410350190E+02  0.11036669913E+03  0.00000000000E+00 0. -1.
        -12    1    4    4    0    0 -0.81485868652E+01 -0.16770035701E+02 -0.14398507341E+02  0.23557389052E+02  0.00000000000E+00 0.  1.
        -11    1    3    3    0    0  0.53912335297E+02  0.45356649263E+02  0.89508812516E+02  0.11391046066E+03  0.00000000000E+00 0.  1.
         11    1    3    3    0    0 -0.18158496870E+02  0.41933120747E+02  0.18125804687E+03  0.18692939089E+03  0.00000000000E+00 0. -1.
          2    1    1    2  501    0  0.52565830637E+02 -0.14162458126E+03 -0.15610498284E+03  0.21723133806E+03  0.00000000000E+00 0. -1.
<scales pt_clust_5="13000.00000" pt_clust_6="13000.00000" pt_clust_7="13000.00000" pt_clust_8="13000.00000" pt_clust_9="131.93492"></scales>
<clustering>
<clus scale="   83.897">  5  6 -1 -1</clus>
<clus scale="   91.061">  7  8 -1 -1</clus>
<clus scale="  131.110">  1  7  2 -1</clus>
<clus scale="  131.935">  2  9  1 -1</clus>
<clus scale="  131.935">  2  5  1 -1</clus>
</clustering>
</event>
<event>
 9    1  0.4731329E-005  0.1405288E+03  0.7546771E-02  0.1214807E+00
         21   -1    0    0  501  502  0.00000000000E+00  0.00000000000E+00  0.11008555872E+03  0.11008555872E+03  0.00000000000E+00 0. -1.
         -2   -1    0    0    0  501 -0.00000000000E+00 -0.00000000000E+00 -0.46621292736E+03  0.46621292736E+03  0.00000000000E+00 0.  1.
         23    2    1    2    0    0 -0.95529183755E+02  0.27217934721E+02 -0.18245115492E+03  0.22683729583E+03  0.91104851268E+02 0.  0.
        -24    2    1    2    0    0  0.13745459929E+03 -0.13373594892E+02  0.10167929696E+02  0.16038957609E+03  0.80924714508E+02 0.  0.
         11    1    4    4    0    0  0.87981607259E+02 -0.43134934315E+02  0.24290512143E+02  0.10095253714E+03  0.00000000000E+00 0. -1.
        -12    1    4    4    0    0  0.49472992033E+02  0.29761339422E+02 -0.14122582448E+02  0.59437038956E+02  0.00000000000E+00 0.  1.
        -11    1    3    3    0    0 -0.11197376443E+03  0.13501384742E+02 -0.14503910194E+03  0.18373010750E+03  0.00000000000E+00 0. -1.
         11    1    3    3    0    0  0.16444580673E+02  0.13716549979E+02 -0.37412052985E+02  0.43107188326E+02  0.00000000000E+00 0.  1.
         -1    1    1    2    0  502 -0.41925415537E+02 -0.13844339829E+02 -0.18384414341E+03  0.18907161416E+03  0.00000000000E+00 0.  1.
<scales pt_clust_5="13000.00000" pt_clust_6="13000.00000" pt_clust_7="13000.00000" pt_clust_8="13000.00000" pt_clust_9="44.15210"></scales>
<clustering>
<clus scale="   44.152">  1  9  2 -1</clus>
<clus scale="   80.925">  5  6 -1 -1</clus>
<clus scale="   91.105">  7  8 -1 -1</clus>
<clus scale="  134.153">  1  5  2 -1</clus>
<clus scale="   44.152">  1  5  2 -1</clus>
</clustering>
</event>
<event>
 9    1  0.4731329E-005  0.1565618E+03  0.7546771E-02  0.1200079E+00
          1   -1    0    0  502    0 -0.00000000000E+00  0.00000000000E+00  0.10280573116E+04  0.10280573116E+04  0.00000000000E+00 0. -1.
         21   -1    0    0  501  502  0.00000000000E+00 -0.00000000000E+00 -0.10264091204E+03  0.10264091204E+03  0.00000000000E+00 0. -1.
        -24    2    1    2    0    0 -0.84420015613E+02  0.64533244057E+02  0.55175861260E+03  0.56757403187E+03  0.80071445963E+02 0.  0.
         23    2    1    2    0    0 -0.23762175792E+02  0.10575793858E+03  0.87372050981E+01  0.14614756833E+03  0.97639082357E+02 0.  0.
         11    1    3    3    0    0  0.14420191458E+02  0.19139798908E+02  0.85267126581E+02  0.88570631133E+02  0.00000000000E+00 0. -1.
        -12    1    3    3    0    0 -0.98840207071E+02  0.45393445150E+02  0.46649148601E+03  0.47900340074E+03  0.00000000000E+00 0.  1.
        -13    1    4    4    0    0 -0.35895077424E+02  0.14743998322E+01  0.19035246895E+02  0.40656746826E+02  0.00000000000E+00 0.  1.
         13    1    4    4    0    0  0.12132901632E+02  0.10428353875E+03 -0.10298041797E+02  0.10549082150E+03  0.00000000000E+00 0. -1.
          2    1    1    2  501    0  0.10818219141E+03 -0.17029118264E+03  0.36492058183E+03  0.41697662341E+03  0.00000000000E+00 0. -1.
<scales pt_clust_5="13000.00000" pt_clust_6="13000.00000" pt_clust_7="13000.00000" pt_clust_8="13000.00000" pt_clust_9="122.38550"></scales>
<clustering>
<clus scale="   80.071">  5  6 -1 -1</clus>
<clus scale="   97.639">  7  8 -1 -1</clus>
<clus scale="  133.052">  1  5  2 -1</clus>
<clus scale="  122.386">  2  9  1 -1</clus>
<clus scale="  122.386">  2  5  1 -1</clus>
</clustering>
</event>
<event>
 9    1  0.4731329E-005  0.9419535E+02  0.7546771E-02  0.1297903E+00
         21   -1    0    0  501  502  0.00000000000E+00  0.00000000000E+00  0.76438289531E+02  0.76438289531E+02  0.00000000000E+00 0. -1.
          1   -1    0    0  502    0 -0.00000000000E+00 -0.00000000000E+00 -0.39735979596E+03  0.39735979596E+03  0.00000000000E+00 0. -1.
         23    2    1    2    0    0  0.53135518577E+00  0.20320718211E+02 -0.29497872445E+03  0.30956117409E+03  0.91664926236E+02 0.  0.
        -24    2    1    2    0    0  0.54919949843E+02 -0.17038172310E+02 -0.36800341225E+02  0.10763736256E+03  0.83216804176E+02 0.  0.
         11    1    4    4    0    0  0.76899216954E+02 -0.84693829867E+01 -0.31001830411E+02  0.83344666927E+02  0.00000000000E+00 0. -1.
        -12    1    4    4    0    0 -0.21979267112E+02 -0.85687893232E+01 -0.57985108136E+01  0.24292695628E+02  0.00000000000E+00 0.  1.
        -13    1    3    3    0    0  0.41584913923E+02  0.28428689402E+02 -0.18960270099E+03  0.19618022242E+03  0.00000000000E+00 0.  1.
         13    1    3    3    0    0 -0.41053558737E+02 -0.81079711918E+01 -0.10537602346E+03  0.11338095167E+03  0.00000000000E+00 0. -1.
          2    1    1    2  501    0 -0.55451305028E+02 -0.32825459007E+01  0.10857559240E+02  0.56599548846E+02  0.00000000000E+00 0. -1.
<scales pt_clust_5="13000.00000" pt_clust_6="13000.00000" pt_clust_7="13000.00000" pt_clust_8="13000.00000" pt_clust_9="55.54838"></scales>
<clustering>
<clus scale="   55.548">  1  9  2 -1</clus>
<clus scale="   83.217">  5  6 -1 -1</clus>
<clus scale="   85.996">  1  5  2 -1</clus>
<clus scale="   91.665">  7  8 -1 -1</clus>
<clus scale="   55.548">  1  5  2 -1</clus>
</clustering>
</event>
<event>
 9    1  0.4731329E-005  0.9362865E+02  0.7546771E-02  0.1300010E+00
         21   -1    0    0  501  502  0.00000000000E+00  0.00000000000E+00  0.10999381624E+03  0.10999381624E+03  0.00000000000E+00 0.  1.
         -2   -1    0    0    0  501 -0.00000000000E+00 -0.00000000000E+00 -0.10678006545E+03  0.10678006545E+03  0.00000000000E+00 0.  1.
         23    2    1    2    0    0 -0.30425589174E+02 -0.22629675216E+02  0.80607590591E+01  0.98527279838E+02  0.90580518649E+02 0.  0.
        -24    2    1    2    0    0  0.51271457336E+01  0.10160947122E+02  0.16000120265E+02  0.83174060051E+02  0.80823189414E+02 0.  0.
         13    1    4    4    0    0  0.28317117002E+02 -0.12947681198E+02 -0.18007608418E+02  0.35969091240E+02  0.00000000000E+00 0. -1.
        -14    1    4    4    0    0 -0.23189971268E+02  0.23108628320E+02  0.34007728683E+02  0.47204968811E+02  0.00000000000E+00 0.  1.
        -11    1    3    3    0    0 -0.95187688975E+01 -0.47771175206E+02 -0.22604151727E+02  0.53699532746E+02  0.00000000000E+00 0.  1.
         11    1    3    3    0    0 -0.20906820277E+02  0.25141499990E+02  0.30664910786E+02  0.44827747092E+02  0.00000000000E+00 0. -1.
         -1    1    1    2    0  502  0.25298443441E+02  0.12468728094E+02 -0.20847128535E+02  0.35072541809E+02  0.00000000000E+00 0.  1.
<scales pt_clust_5="13000.00000" pt_clust_6="13000.00000" pt_clust_7="13000.00000" pt_clust_8="13000.00000" pt_clust_9="28.20428"></scales>
<clustering>
<clus scale="   28.204">  1  9  2 -1</clus>
<clus scale="   80.823">  5  6 -1 -1</clus>
<clus scale="   84.225">  1  5  2 -1</clus>
<clus scale="   90.581">  7  8 -1 -1</clus>
<clus scale="   28.204">  1  5  2 -1</clus>
</clustering>
</event>
<event>
 9    1  0.4731329E-005  0.9339294E+02  0.7546771E-02  0.1300172E+00
         21   -1    0    0  501  502  0.00000000000E+00  0.00000000000E+00  0.13650278856E+03  0.13650278856E+03  0.00000000000E+00 0. -1.
          1   -1    0    0  502    0 -0.00000000000E+00 -0.00000000000E+00 -0.13439570559E+03  0.13439570559E+03  0.00000000000E+00 0. -1.
        -24    2    1    2    0    0 -0.70927680889E+01 -0.40395095665E+02 -0.47856073066E+02  0.10226701971E+03  0.80537373172E+02 0.  0.
         23    2    1    2    0    0 -0.29996565295E+02 -0.18316422440E+01  0.18313391320E+01  0.94635610743E+02  0.89718427175E+02 0.  0.
         13    1    3    3    0    0 -0.38105218758E+02 -0.11787977956E+02 -0.44772444524E+02  0.59962787706E+02  0.00000000000E+00 0. -1.
        -14    1    3    3    0    0  0.31012450669E+02 -0.28607117709E+02 -0.30836285427E+01  0.42304232000E+02  0.00000000000E+00 0.  1.
        -13    1    4    4    0    0 -0.53858594173E+02  0.16303982751E+02  0.19842859712E+02  0.59668309021E+02  0.00000000000E+00 0.  1.
         13    1    4    4    0    0  0.23862028878E+02 -0.18135624995E+02 -0.18011520580E+02  0.34967301722E+02  0.00000000000E+00 0. -1.
          2    1    1    2  501    0  0.37089333384E+02  0.42226737909E+02  0.48131816905E+02  0.73995863694E+02  0.00000000000E+00 0. -1.
<scales pt_clust_5="13000.00000" pt_clust_6="13000.00000" pt_clust_7="13000.00000" pt_clust_8="13000.00000" pt_clust_9="56.20246"></scales>
<clustering>
<clus scale="   56.202">  1  9  2 -1</clus>
<clus scale="   80.537">  5  6 -1 -1</clus>
<clus scale="   84.612">  2  5  1 -1</clus>
<clus scale="   89.718">  7  8 -1 -1</clus>
<clus scale="   56.202">  1  5  2 -1</clus>
</clustering>
</event>
<event>
 9    1  0.4731329E-005  0.1226177E+03  0.7546771E-02  0.1246659E+00
         -2   -1    0    0    0  501 -0.00000000000E+00  0.00000000000E+00  0.10881563237E+04  0.10881563237E+04  0.00000000000E+00 0.  1.
         21   -1    0    0  501  502  0.00000000000E+00 -0.00000000000E+00 -0.35700647011E+02  0.35700647011E+02  0.00000000000E+00 0. -1.
        -24    2    1    2    0    0  0.20400267119E+02  0.53975136323E+02  0.78044291302E+03  0.78698341424E+03  0.83200165654E+02 0.  0.
         23    2    1    2    0    0 -0.20350086914E+02 -0.96611335444E+02  0.25088364465E+03  0.28928902468E+03  0.10486973097E+03 0.  0.
         13    1    3    3    0    0 -0.47102983189E+01  0.42807910919E+02  0.15318285766E+03  0.15912162652E+03  0.00000000000E+00 0. -1.
        -14    1    3    3    0    0  0.25110565438E+02  0.11167225404E+02  0.62726005536E+03  0.62786178772E+03  0.00000000000E+00 0.  1.
        -11    1    4    4    0    0 -0.53722123390E+02 -0.28472884428E+02  0.15838312097E+03  0.16965254108E+03  0.00000000000E+00 0. -1.
         11    1    4    4    0    0  0.33372036476E+02 -0.68138451016E+02  0.92500523682E+02  0.11963648359E+03  0.00000000000E+00 0.  1.
         -1    1    1    2    0  502 -0.50180204452E-01  0.42636199121E+02  0.21129118986E+02  0.47584531758E+02  0.00000000000E+00 0.  1.
<scales pt_clust_5="13000.00000" pt_clust_6="13000.00000" pt_clust_7="13000.00000" pt_clust_8="13000.00000" pt_clust_9="42.63623"></scales>
<clustering>
<clus scale="   42.636">  2  9  1 -1</clus>
<clus scale="   83.200">  5  6 -1 -1</clus>
<clus scale="  104.689">  1  5  2 -1</clus>
<clus scale="  104.870">  7  8 -1 -1</clus>
<clus scale="   42.636">  2  5  1 -1</clus>
</clustering>
</event>
<event>
 9    1  0.4731329E-005  0.9662385E+02  0.7546771E-02  0.1292708E+00
         21   -1    0    0  501  502  0.00000000000E+00  0.00000000000E+00  0.16119132077E+03  0.16119132077E+03  0.00000000000E+00 0. -1.
          1   -1    0    0  502    0 -0.00000000000E+00 -0.00000000000E+00 -0.13678431386E+03  0.13678431386E+03  0.00000000000E+00 0. -1.
        -24    2    1    2    0    0  0.75633851356E+00 -0.38057985140E+02 -0.81749198481E+02  0.12120395152E+03  0.80984468456E+02 0.  0.
         23    2    1    2    0    0 -0.69583973721E+00  0.58916736878E+01  0.11194124588E+03  0.14408924217E+03  0.90529946254E+02 0.  0.
         11    1    3    3    0    0  0.32311289046E+02 -0.63238974616E+01 -0.66008662464E+02  0.73764182360E+02  0.00000000000E+00 0. -1.
        -12    1    3    3    0    0 -0.31554950533E+02 -0.31734087679E+02 -0.15740536017E+02  0.47439769161E+02  0.00000000000E+00 0.  1.
        -11    1    4    4    0    0  0.25085592942E+02 -0.40846952038E+01 -0.32539750439E+01  0.25623427986E+02  0.00000000000E+00 0.  1.
         11    1    4    4    0    0 -0.25781432679E+02  0.99763688916E+01  0.11519522092E+03  0.11846581418E+03  0.00000000000E+00 0. -1.
          2    1    1    2  501    0 -0.60498776343E-01  0.32166311452E+02 -0.57850404775E+01  0.32682440941E+02  0.00000000000E+00 0. -1.
<scales pt_clust_5="13000.00000" pt_clust_6="13000.00000" pt_clust_7="13000.00000" pt_clust_8="13000.00000" pt_clust_9="32.16638"></scales>
<clustering>
<clus scale="   32.166">  1  9  2 -1</clus>
<clus scale="   80.984">  5  6 -1 -1</clus>
<clus scale="   87.744">  2  5  1 -1</clus>
<clus scale="   90.530">  7  8 -1 -1</clus>
<clus scale="   32.166">  1  5  2 -1</clus>
</clustering>
</event>
<event>
 9    1  0.4731329E-005  0.1190531E+03  0.7546771E-02  0.1248589E+00
         21   -1    0    0  501  502  0.00000000000E+00  0.00000000000E+00  0.64331981503E+03  0.64331981503E+03  0.00000000000E+00 0.  1.
          1   -1    0    0  502    0 -0.00000000000E+00 -0.00000000000E+00 -0.57451841626E+02  0.57451841626E+02  0.00000000000E+00 0. -1.
         23    2    1    2    0    0  0.71466409615E+02 -0.14023737619E+02  0.24379370597E+02  0.11985476278E+03  0.92014659324E+02 0.  0.
        -24    2    1    2    0    0 -0.88651405710E+02  0.32488224715E+02  0.46729147400E+03  0.48340094416E+03  0.80003716516E+02 0.  0.
         11    1    4    4    0    0 -0.31174669991E+02  0.29938246775E+01  0.37847201709E+02  0.49124675189E+02  0.00000000000E+00 0. -1.
        -12    1    4    4    0    0 -0.57476735719E+02  0.29494400038E+02  0.42944427229E+03  0.43427626897E+03  0.00000000000E+00 0.  1.
        -11    1    3    3    0    0 -0.11498578216E+02 -0.30588965617E+02  0.86250766615E+01  0.33797841143E+02  0.00000000000E+00 0.  1.
         11    1    3    3    0    0  0.82964987831E+02  0.16565227998E+02  0.15754293936E+02  0.86056921638E+02  0.00000000000E+00 0. -1.
          2    1    1    2  501    0  0.17184996095E+02 -0.18464487096E+02  0.94197128808E+02  0.97515949722E+02  0.00000000000E+00 0. -1.
<scales pt_clust_5="13000.00000" pt_clust_6="13000.00000" pt_clust_7="13000.00000" pt_clust_8="13000.00000" pt_clust_9="25.22422"></scales>
<clustering>
<clus scale="   25.224">  1  9  2 -1</clus>
<clus scale="   80.004">  5  6 -1 -1</clus>
<clus scale="   92.015">  7  8 -1 -1</clus>
<clus scale="  110.034">  1  5  2 -1</clus>
<clus scale="   25.224">  1  5  2 -1</clus>
</clustering>
</event>
<event>
 9    1  0.4731329E-005  0.1088014E+03  0.7546771E-02  0.1267000E+00
         21   -1    0    0  501  502  0.00000000000E+00  0.00000000000E+00  0.57158653177E+02  0.57158653177E+02  0.00000000000E+00 0.  1.
         -2   -1    0    0    0  501 -0.00000000000E+00 -0.00000000000E+00 -0.83912666568E+03  0.83912666568E+03  0.00000000000E+00 0.  1.
        -24    2    1    2    0    0 -0.23723063279E+02 -0.68438927486E+02 -0.56060297749E+03  0.57094963686E+03  0.80381085707E+02 0.  0.
         23    2    1    2    0    0  0.69337727622E+02 -0.10325553940E+02 -0.20196024331E+03  0.23227072039E+03  0.90815252785E+02 0.  0.
         13    1    3    3    0    0  0.24195728574E+02 -0.48606311754E+02 -0.23124826392E+03  0.23753687375E+03  0.00000000000E+00 0. -1.
        -14    1    3    3    0    0 -0.47918791853E+02 -0.19832615732E+02 -0.32935471356E+03  0.33341276311E+03  0.00000000000E+00 0.  1.
        -13    1    4    4    0    0  0.36396637208E+02  0.39034376782E+02 -0.74190971630E+02  0.91393096251E+02  0.00000000000E+00 0.  1.
         13    1    4    4    0    0  0.32941090413E+02 -0.49359930722E+02 -0.12776927168E+03  0.14087762414E+03  0.00000000000E+00 0. -1.
         -1    1    1    2    0  502 -0.45614664343E+02  0.78764481426E+02 -0.19404791711E+02  0.93064961606E+02  0.00000000000E+00 0.  1.
<scales pt_clust_5="13000.00000" pt_clust_6="13000.00000" pt_clust_7="13000.00000" pt_clust_8="13000.00000" pt_clust_9="91.01945"></scales>
<clustering>
<clus scale="   80.381">  5  6 -1 -1</clus>
<clus scale="   90.815">  7  8 -1 -1</clus>
<clus scale="   91.019">  1  9  2 -1</clus>
<clus scale="  100.257">  2  5  1 -1</clus>
<clus scale="   91.019">  1  5  2 -1</clus>
</clustering>
</event>
<event>
 9    1  0.4731329E-005  0.9412573E+02  0.7546771E-02  0.1300099E+00
         21   -1    0    0  501  502  0.00000000000E+00  0.00000000000E+00  0.73367902677E+02  0.73367902677E+02  0.00000000000E+00 0.  1.
          1   -1    0    0  502    0 -0.00000000000E+00 -0.00000000000E+00 -0.20898113181E+03  0.20898113181E+03  0.00000000000E+00 0. -1.
        -24    2    1    2    0    0 -0.95862732551E+01 -0.15404939816E+02 -0.13471751377E+03  0.15824012010E+03  0.81005668239E+02 0.  0.
         23    2    1    2    0    0  0.26121952676E+02 -0.64765734218E+01 -0.40455819663E+01  0.96501832411E+02  0.92584742320E+02 0.  0.
         11    1    3    3    0    0 -0.31827811813E+02  0.22553984584E+02 -0.62158326829E+02  0.73384940006E+02  0.00000000000E+00 0. -1.
        -12    1    3    3    0    0  0.22241538558E+02 -0.37958924401E+02 -0.72559186938E+02  0.84855180091E+02  0.00000000000E+00 0.  1.
        -11    1    4    4    0    0 -0.24428464120E+02  0.24563208696E+02 -0.11976774430E+02  0.36654388639E+02  0.00000000000E+00 0. -1.
         11    1    4    4    0    0  0.50550416796E+02 -0.31039782118E+02  0.79311924639E+01  0.59847443773E+02  0.00000000000E+00 0.  1.
          2    1    1    2  501    0 -0.16535679421E+02  0.21881513238E+02  0.31498666047E+01  0.27607081974E+02  0.00000000000E+00 0. -1.
<scales pt_clust_5="13000.00000" pt_clust_6="13000.00000" pt_clust_7="13000.00000" pt_clust_8="13000.00000" pt_clust_9="27.42680"></scales>
<clustering>
<clus scale="   27.427">  1  9  2 -1</clus>
<clus scale="   81.006">  5  6 -1 -1</clus>
<clus scale="   82.763">  2  5  1 -1</clus>
<clus scale="   92.585">  7  8 -1 -1</clus>
<clus scale="   27.427">  1  5  2 -1</clus>
</clustering>
</event>
<event>
 9    1  0.4731329E-005  0.1261249E+03  0.7546771E-02  0.1239252E+00
         21   -1    0    0  501  502  0.00000000000E+00  0.00000000000E+00  0.63928571828E+02  0.63928571828E+02  0.00000000000E+00 0.  1.
          1   -1    0    0  502    0 -0.00000000000E+00 -0.00000000000E+00 -0.45164161257E+03  0.45164161257E+03  0.00000000000E+00 0. -1.
         23    2    1    2    0    0  0.96348341523E+02  0.62475506679E+02 -0.27669198635E+03  0.31550772871E+03  0.98997372280E+02 0.  0.
        -24    2    1    2    0    0 -0.32635922915E+02 -0.20421596106E+02 -0.72676456879E+02  0.11463346858E+03  0.79854991589E+02 0.  0.
         11    1    4    4    0    0 -0.57667615081E+02 -0.11760668278E+02 -0.63551939992E+02  0.86618221087E+02  0.00000000000E+00 0. -1.
        -12    1    4    4    0    0  0.25031692167E+02 -0.86609278278E+01 -0.91245168869E+01  0.28015247491E+02  0.00000000000E+00 0.  1.
        -11    1    3    3    0    0  0.10222493685E+03  0.18120408158E+02 -0.16216090617E+03  0.19254725757E+03  0.00000000000E+00 0.  1.
         11    1    3    3    0    0 -0.58765953300E+01  0.44355098521E+02 -0.11453108018E+03  0.12296047114E+03  0.00000000000E+00 0. -1.
          2    1    1    2  501    0 -0.63712418609E+02 -0.42053910574E+02 -0.38344597512E+02  0.85428987106E+02  0.00000000000E+00 0. -1.
<scales pt_clust_5="13000.00000" pt_clust_6="13000.00000" pt_clust_7="13000.00000" pt_clust_8="13000.00000" pt_clust_9="76.34005"></scales>
<clustering>
<clus scale="   76.340">  1  9  2 -1</clus>
<clus scale="   79.855">  5  6 -1 -1</clus>
<clus scale="   98.997">  7  8 -1 -1</clus>
<clus scale="  111.731">  1  5  2 -1</clus>
<clus scale="   76.340">  1  5  2 -1</clus>
</clustering>
</event>
<event>
 9    1  0.4731329E-005  0.9105953E+02  0.7546771E-02  0.1304029E+00
         21   -1    0    0  501  502  0.00000000000E+00  0.00000000000E+00  0.24370169630E+02  0.24370169630E+02  0.00000000000E+00 0. -1.
          1   -1    0    0  502    0 -0.00000000000E+00 -0.00000000000E+00 -0.46565302151E+03  0.46565302151E+03  0.00000000000E+00 0. -1.
        -24    2    1    2    0    0 -0.34647588161E+02  0.21350752064E+02 -0.22538154436E+03  0.24286571377E+03  0.80812155068E+02 0.  0.
         23    2    1    2    0    0  0.77361442916E+01 -0.59051489409E+01 -0.17586846011E+03  0.19650748884E+03  0.87124963097E+02 0.  0.
         13    1    3    3    0    0  0.13620274841E+02  0.35163121243E+02 -0.69121539514E+02  0.78738454437E+02  0.00000000000E+00 0. -1.
        -14    1    3    3    0    0 -0.48267863002E+02 -0.13812369179E+02 -0.15626000485E+03  0.16412725933E+03  0.00000000000E+00 0.  1.
        -13    1    4    4    0    0  0.28901315051E+01  0.29232425319E+02 -0.17450903426E+02  0.34167551573E+02  0.00000000000E+00 0.  1.
         13    1    4    4    0    0  0.48460127865E+01 -0.35137574260E+02 -0.15841755669E+03  0.16233993726E+03  0.00000000000E+00 0. -1.
          2    1    1    2  501    0  0.26911443869E+02 -0.15445603123E+02 -0.40032847407E+02  0.50649988534E+02  0.00000000000E+00 0. -1.
<scales pt_clust_5="13000.00000" pt_clust_6="13000.00000" pt_clust_7="13000.00000" pt_clust_8="13000.00000" pt_clust_9="31.02890"></scales>
<clustering>
<clus scale="   31.029">  1  9  2 -1</clus>
<clus scale="   80.812">  5  6 -1 -1</clus>
<clus scale="   85.039">  2  5  1 -1</clus>
<clus scale="   87.125">  7  8 -1 -1</clus>
<clus scale="   31.029">  1  5  2 -1</clus>
</clustering>
</event>
<event>
 9    1  0.4731329E-005  0.1209287E+03  0.7546771E-02  0.1248344E+00
         21   -1    0    0  501  502  0.00000000000E+00  0.00000000000E+00  0.63868176856E+02  0.63868176856E+02  0.00000000000E+00 0. -1.
          1   -1    0    0  502    0 -0.00000000000E+00 -0.00000000000E+00 -0.45885372599E+03  0.45885372599E+03  0.00000000000E+00 0. -1.
         23    2    1    2    0    0  0.46871939697E+02 -0.34789992287E+02 -0.26884194079E+03  0.29354809008E+03  0.10240688340E+03 0.  0.
        -24    2    1    2    0    0 -0.24505866715E+02  0.81586042143E+02 -0.13080945565E+03  0.17709808296E+03  0.83640884296E+02 0.  0.
         11    1    4    4    0    0  0.15644480057E+02  0.41902664068E+02 -0.10673347833E+03  0.11572648102E+03  0.00000000000E+00 0. -1.
        -12    1    4    4    0    0 -0.40150346772E+02  0.39683378076E+02 -0.24075977319E+02  0.61371601945E+02  0.00000000000E+00 0.  1.
        -13    1    3    3    0    0  0.27174366705E+02  0.10627592726E+02 -0.11298299942E+02  0.31289671052E+02  0.00000000000E+00 0.  1.
         13    1    3    3    0    0  0.19697572992E+02 -0.45417585014E+02 -0.25754364085E+03  0.26225841903E+03  0.00000000000E+00 0. -1.
          2    1    1    2  501    0 -0.22366072982E+02 -0.46796049856E+02  0.46658473122E+01  0.52075729797E+02  0.00000000000E+00 0. -1.
<scales pt_clust_5="13000.00000" pt_clust_6="13000.00000" pt_clust_7="13000.00000" pt_clust_8="13000.00000" pt_clust_9="51.86628"></scales>
<clustering>
<clus scale="   51.866">  1  9  2 -1</clus>
<clus scale="   83.641">  5  6 -1 -1</clus>
<clus scale="  102.407">  7  8 -1 -1</clus>
<clus scale="  105.510">  1  5  2 -1</clus>
<clus scale="   51.866">  1  5  2 -1</clus>
</clustering>
</event>
<event>
 9    1  0.4731329E-005  0.1929229E+03  0.7546771E-02  0.1164084E+00
          1   -1    0    0  502    0 -0.00000000000E+00  0.00000000000E+00  0.48522461273E+02  0.48522461273E+02  0.00000000000E+00 0. -1.
         21   -1    0    0  501  502  0.00000000000E+00 -0.00000000000E+00 -0.16289634071E+04  0.16289634071E+04  0.00000000000E+00 0.  1.
         23    2    1    2    0    0  0.71294321889E+02  0.11155734411E+03 -0.38969525989E+03  0.42098745220E+03  0.88544440654E+02 0.  0.
        -24    2    1    2    0    0 -0.21471578598E+03 -0.24067589895E+02 -0.61284640612E+03  0.65467472849E+03  0.79600031336E+02 0.  0.
         13    1    4    4    0    0 -0.43389701988E+02 -0.25544457936E+02 -0.76122871880E+02  0.91268160895E+02  0.00000000000E+00 0. -1.
        -14    1    4    4    0    0 -0.17132608399E+03  0.14768680408E+01 -0.53672353424E+03  0.56340656759E+03  0.00000000000E+00 0.  1.
        -13    1    3    3    0    0  0.17060585303E+02  0.78256826119E+02 -0.12281795118E+03  0.14662688545E+03  0.00000000000E+00 0. -1.
         13    1    3    3    0    0  0.54233736586E+02  0.33300517993E+02 -0.26687730871E+03  0.27436056675E+03  0.00000000000E+00 0.  1.
          2    1    1    2  501    0  0.14342146409E+03 -0.87489754217E+02 -0.57789927985E+03  0.60182368773E+03  0.00000000000E+00 0. -1.
<scales pt_clust_5="13000.00000" pt_clust_6="13000.00000" pt_clust_7="13000.00000" pt_clust_8="13000.00000" pt_clust_9="175.73584"></scales>
<clustering>
<clus scale="   79.600">  5  6 -1 -1</clus>
<clus scale="   88.544">  7  8 -1 -1</clus>
<clus scale="  159.273">  1  7  2 -1</clus>
<clus scale="  175.736">  2  9  1 -1</clus>
<clus scale="  175.736">  2  5  1 -1</clus>
</clustering>
</event>
<event>
 9    1  0.4731329E-005  0.1069101E+03  0.7546771E-02  0.1271884E+00
         21   -1    0    0  501  502  0.00000000000E+00  0.00000000000E+00  0.60105530603E+02  0.60105530603E+02  0.00000000000E+00 0.  1.
          1   -1    0    0  502    0 -0.00000000000E+00 -0.00000000000E+00 -0.35242559038E+03  0.35242559038E+03  0.00000000000E+00 0. -1.
         23    2    1    2    0    0 -0.21745726451E+02 -0.53333696835E+02 -0.22524759213E+03  0.25019524803E+03  0.92432810943E+02 0.  0.
        -24    2    1    2    0    0  0.55715262330E+02  0.19359119231E+02 -0.52012091312E+02  0.11198692831E+03  0.79729847081E+02 0.  0.
         11    1    4    4    0    0 -0.97130072638E+01  0.31099249578E+02 -0.19735667963E+02  0.38092025732E+02  0.00000000000E+00 0. -1.
        -12    1    4    4    0    0  0.65428269594E+02 -0.11740130348E+02 -0.32276423349E+02  0.73894902577E+02  0.00000000000E+00 0.  1.
        -11    1    3    3    0    0  0.32192679985E+02 -0.51199034344E+01 -0.10416024525E+03  0.10914182859E+03  0.00000000000E+00 0.  1.
         11    1    3    3    0    0 -0.53938406436E+02 -0.48213793400E+02 -0.12108734688E+03  0.14105341945E+03  0.00000000000E+00 0. -1.
          2    1    1    2  501    0 -0.33969535880E+02  0.33974577604E+02 -0.15060376329E+02  0.50348944640E+02  0.00000000000E+00 0. -1.
<scales pt_clust_5="13000.00000" pt_clust_6="13000.00000" pt_clust_7="13000.00000" pt_clust_8="13000.00000" pt_clust_9="48.04374"></scales>
<clustering>
<clus scale="   48.044">  1  9  2 -1</clus>
<clus scale="   79.730">  5  6 -1 -1</clus>
<clus scale="   92.433">  7  8 -1 -1</clus>
<clus scale="   96.139">  1  5  2 -1</clus>
<clus scale="   48.044">  1  5  2 -1</clus>
</clustering>
</event>
<event>
 9    1  0.4731329E-005  0.1037313E+03  0.7546771E-02  0.1277999E+00
         21   -1    0    0  501  502  0.00000000000E+00  0.00000000000E+00  0.24535199823E+03  0.24535199823E+03  0.00000000000E+00 0.  1.
          1   -1    0    0  502    0 -0.00000000000E+00 -0.00000000000E+00 -0.22834533655E+03  0.22834533655E+03  0.00000000000E+00 0. -1.
         23    2    1    2    0    0  0.50687632731E+02 -0.10802188491E+02 -0.18980142268E+03  0.21731293539E+03  0.92273552282E+02 0.  0.
        -24    2    1    2    0    0 -0.23928593713E+02 -0.18262242078E+02  0.61619845638E+02  0.10591708747E+03  0.80717637225E+02 0.  0.
         11    1    4    4    0    0  0.23746020860E+02  0.65086182597E+01  0.61829757520E+00  0.24629614496E+02  0.00000000000E+00 0. -1.
        -12    1    4    4    0    0 -0.47674614573E+02 -0.24770860338E+02  0.61001548063E+02  0.81287472975E+02  0.00000000000E+00 0.  1.
        -13    1    3    3    0    0  0.69418076165E+02  0.16413228176E+02 -0.11198902304E+03  0.13277727456E+03  0.00000000000E+00 0. -1.
         13    1    3    3    0    0 -0.18730443434E+02 -0.27215416667E+02 -0.77812399631E+02  0.84535660829E+02  0.00000000000E+00 0.  1.
          2    1    1    2  501    0 -0.26759039018E+02  0.29064430569E+02  0.14518823872E+03  0.15046731192E+03  0.00000000000E+00 0. -1.
<scales pt_clust_5="13000.00000" pt_clust_6="13000.00000" pt_clust_7="13000.00000" pt_clust_8="13000.00000" pt_clust_9="39.50680"></scales>
<clustering>
<clus scale="   39.507">  1  9  2 -1</clus>
<clus scale="   80.718">  5  6 -1 -1</clus>
<clus scale="   92.274">  7  8 -1 -1</clus>
<clus scale="   93.601">  1  5  2 -1</clus>
<clus scale="   39.507">  1  5  2 -1</clus>
</clustering>
</event>
<event>
 9    1  0.4731329E-005  0.1033087E+03  0.7546771E-02  0.1279499E+00
         21   -1    0    0  501  502  0.00000000000E+00  0.00000000000E+00  0.68709655259E+02  0.68709655259E+02  0.00000000000E+00 0. -1.
          1   -1    0    0  502    0 -0.00000000000E+00 -0.00000000000E+00 -0.73196208101E+03  0.73196208101E+03  0.00000000000E+00 0. -1.
         23    2    1    2    0    0  0.75908758707E+01 -0.41773280924E+02 -0.28264590786E+03  0.30032118109E+03  0.92203439107E+02 0.  0.
        -24    2    1    2    0    0  0.55781803021E+02  0.77256820832E+02 -0.11968059919E+02  0.12462526893E+03  0.79422901511E+02 0.  0.
         13    1    4    4    0    0  0.58089503361E+02  0.55553083022E+02  0.22822760295E+02  0.83554855164E+02  0.00000000000E+00 0. -1.
        -14    1    4    4    0    0 -0.23077003403E+01  0.21703737810E+02 -0.34790820214E+02  0.41070413766E+02  0.00000000000E+00 0.  1.
        -11    1    3    3    0    0  0.17378330170E+02 -0.61013220640E+02 -0.26485919172E+03  0.27235089663E+03  0.00000000000E+00 0.  1.
         11    1    3    3    0    0 -0.97874542995E+01  0.19239939716E+02 -0.17786716140E+02  0.27970284464E+02  0.00000000000E+00 0. -1.
          2    1    1    2  501    0 -0.63372678892E+02 -0.35483539908E+02 -0.36863845797E+03  0.37572528625E+03  0.00000000000E+00 0. -1.
<scales pt_clust_5="13000.00000" pt_clust_6="13000.00000" pt_clust_7="13000.00000" pt_clust_8="13000.00000" pt_clust_9="72.63046"></scales>
<clustering>
<clus scale="   72.630">  1  9  2 -1</clus>
<clus scale="   79.423">  5  6 -1 -1</clus>
<clus scale="   92.083">  1  5  2 -1</clus>
<clus scale="   92.203">  7  8 -1 -1</clus>
<clus scale="   72.630">  1  5  2 -1</clus>
</clustering>
</event>
<event>
 9    1  0.4731329E-005  0.9473471E+02  0.7546771E-02  0.1298940E+00
         21   -1    0    0  501  502  0.00000000000E+00  0.00000000000E+00  0.14030136687E+03  0.14030136687E+03  0.00000000000E+00 0.  1.
          1   -1    0    0  502    0 -0.00000000000E+00 -0.00000000000E+00 -0.26138113329E+03  0.26138113329E+03  0.00000000000E+00 0. -1.
         23    2    1    2    0    0 -0.19004144317E+02  0.12059136248E+02 -0.22696100219E+03  0.24616615723E+03  0.92627750590E+02 0.  0.
        -24    2    1    2    0    0 -0.11912147937E+02 -0.44203282898E+01  0.82766479022E+02  0.11616586018E+03  0.80515703134E+02 0.  0.
         11    1    4    4    0    0 -0.22803107686E+02 -0.14403199930E+02 -0.47715995127E+01  0.27389816543E+02  0.00000000000E+00 0. -1.
        -12    1    4    4    0    0  0.10890959748E+02  0.99828716399E+01  0.87538078535E+02  0.88776043638E+02  0.00000000000E+00 0.  1.
        -11    1    3    3    0    0  0.14156180559E+02  0.35668209863E+02 -0.42475742493E+02  0.57243404364E+02  0.00000000000E+00 0. -1.
         11    1    3    3    0    0 -0.33160324876E+02 -0.23609073615E+02 -0.18448525970E+03  0.18892275286E+03  0.00000000000E+00 0.  1.
          2    1    1    2  501    0  0.30916292255E+02 -0.76388079581E+01  0.23114756745E+02  0.39350482757E+02  0.00000000000E+00 0. -1.
<scales pt_clust_5="13000.00000" pt_clust_6="13000.00000" pt_clust_7="13000.00000" pt_clust_8="13000.00000" pt_clust_9="31.84601"></scales>
<clustering>
<clus scale="   31.846">  1  9  2 -1</clus>
<clus scale="   80.516">  5  6 -1 -1</clus>
<clus scale="   82.931">  1  5  2 -1</clus>
<clus scale="   92.628">  7  8 -1 -1</clus>
<clus scale="   31.846">  1  5  2 -1</clus>
</clustering>
</event>
<event>
 9    1  0.4731329E-005  0.1018815E+03  0.7546771E-02  0.1282748E+00
         21   -1    0    0  501  502  0.00000000000E+00  0.00000000000E+00  0.90069607406E+02  0.90069607406E+02  0.00000000000E+00 0. -1.
          1   -1    0    0  502    0 -0.00000000000E+00 -0.00000000000E+00 -0.20978135429E+03  0.20978135429E+03  0.00000000000E+00 0. -1.
         23    2    1    2    0    0 -0.44252351066E+02 -0.11590787507E+02 -0.14089309477E+03  0.17463755480E+03  0.92492131901E+02 0.  0.
        -24    2    1    2    0    0  0.23042489665E+02  0.30055292263E+02  0.33876890370E+02  0.94359347914E+02  0.79509533482E+02 0.  0.
         13    1    4    4    0    0 -0.18392309737E+02  0.28807230744E+02  0.39826172594E+02  0.52481021561E+02  0.00000000000E+00 0. -1.
        -14    1    4    4    0    0  0.41434799402E+02  0.12480615191E+01 -0.59492822246E+01  0.41878326352E+02  0.00000000000E+00 0.  1.
        -11    1    3    3    0    0 -0.64986315869E+02 -0.28475238226E+02 -0.73617228447E+02  0.10224263674E+03  0.00000000000E+00 0. -1.
         11    1    3    3    0    0  0.20733964803E+02  0.16884450720E+02 -0.67275866318E+02  0.72394918063E+02  0.00000000000E+00 0.  1.
          2    1    1    2  501    0  0.21209861401E+02 -0.18464504757E+02 -0.12695542484E+02  0.30854058979E+02  0.00000000000E+00 0. -1.
<scales pt_clust_5="13000.00000" pt_clust_6="13000.00000" pt_clust_7="13000.00000" pt_clust_8="13000.00000" pt_clust_9="28.12111"></scales>
<clustering>
<clus scale="   28.121">  1  9  2 -1</clus>
<clus scale="   79.510">  5  6 -1 -1</clus>
<clus scale="   90.260">  1  5  2 -1</clus>
<clus scale="   92.492">  7  8 -1 -1</clus>
<clus scale="   28.121">  1  5  2 -1</clus>
</clustering>
</event>
<event>
 9    1  0.4731329E-005  0.9097695E+02  0.7546771E-02  0.1304544E+00
         21   -1    0    0  501  502  0.00000000000E+00  0.00000000000E+00  0.26330388338E+03  0.26330388338E+03  0.00000000000E+00 0. -1.
          1   -1    0    0  502    0 -0.00000000000E+00 -0.00000000000E+00 -0.71115880793E+02  0.71115880793E+02  0.00000000000E+00 0. -1.
        -24    2    1    2    0    0  0.95604398013E+00  0.29526458707E+02  0.48268184224E+01  0.84011414438E+02  0.78497731152E+02 0.  0.
         23    2    1    2    0    0 -0.41024259836E+02 -0.32496701531E+02  0.18470958509E+03  0.21014279073E+03  0.85459558656E+02 0.  0.
         11    1    3    3    0    0 -0.27982603382E+02  0.68135985203E+01 -0.23829029992E+02  0.37380126901E+02  0.00000000000E+00 0. -1.
        -12    1    3    3    0    0  0.28938647362E+02  0.22712860187E+02  0.28655848414E+02  0.46631287537E+02  0.00000000000E+00 0.  1.
        -13    1    4    4    0    0 -0.37165420244E+02 -0.46679412078E+01  0.18873367717E+02  0.41943559053E+02  0.00000000000E+00 0.  1.
         13    1    4    4    0    0 -0.38588395923E+01 -0.27828760323E+02  0.16583621737E+03  0.16819923167E+03  0.00000000000E+00 0. -1.
          2    1    1    2  501    0  0.40068215856E+02  0.29702428233E+01  0.26515990737E+01  0.40265559005E+02  0.00000000000E+00 0. -1.
<scales pt_clust_5="13000.00000" pt_clust_6="13000.00000" pt_clust_7="13000.00000" pt_clust_8="13000.00000" pt_clust_9="40.17818"></scales>
<clustering>
<clus scale="   40.178">  1  9  2 -1</clus>
<clus scale="   78.498">  5  6 -1 -1</clus>
<clus scale="   84.471">  2  5  1 -1</clus>
<clus scale="   85.460">  7  8 -1 -1</clus>
<clus scale="   40.178">  1  5  2 -1</clus>
</clustering>
</event>
<event>
 9    1  0.4731329E-005  0.1005436E+03  0.7546771E-02  0.1284669E+00
          1   -1    0    0  502    0 -0.00000000000E+00  0.00000000000E+00  0.39230048707E+03  0.39230048707E+03  0.00000000000E+00 0. -1.
         21   -1    0    0  501  502  0.00000000000E+00 -0.00000000000E+00 -0.31806857621E+02  0.31806857621E+02  0.00000000000E+00 0. -1.
        -24    2    1    2    0    0  0.19079774691E+02 -0.44864090418E+02  0.22023130002E+03  0.23950233749E+03  0.80515338541E+02 0.  0.
         23    2    1    2    0    0 -0.20661842885E+02  0.21642999332E+02  0.11855152107E+03  0.15277607052E+03  0.91600946521E+02 0.  0.
         13    1    3    3    0    0  0.19306050177E+02 -0.64888764699E+02  0.19951892801E+03  0.21069190300E+03  0.00000000000E+00 0. -1.
        -14    1    3    3    0    0 -0.22627548592E+00  0.20024674281E+02  0.20712372017E+02  0.28810434485E+02  0.00000000000E+00 0.  1.
        -13    1    4    4    0    0 -0.56500119520E+02  0.85164664825E+01  0.59743417332E+02  0.82668431833E+02  0.00000000000E+00 0. -1.
         13    1    4    4    0    0  0.35838276636E+02  0.13126532849E+02  0.58808103740E+02  0.70107638687E+02  0.00000000000E+00 0.  1.
          2    1    1    2  501    0  0.15820681939E+01  0.23221091086E+02  0.21710808348E+02  0.31828936680E+02  0.00000000000E+00 0. -1.
<scales pt_clust_5="13000.00000" pt_clust_6="13000.00000" pt_clust_7="13000.00000" pt_clust_8="13000.00000" pt_clust_9="23.27492"></scales>
<clustering>
<clus scale="   23.275">  2  9  1 -1</clus>
<clus scale="   80.515">  5  6 -1 -1</clus>
<clus scale="   90.559">  1  5  2 -1</clus>
<clus scale="   91.601">  7  8 -1 -1</clus>
<clus scale="   23.275">  2  5  1 -1</clus>
</clustering>
</event>
<event>
 9    1  0.4731329E-005  0.2456496E+03  0.7546771E-02  0.1141894E+00
         -2   -1    0    0    0  501 -0.00000000000E+00  0.00000000000E+00  0.16885606406E+03  0.16885606406E+03  0.00000000000E+00 0.  1.
         21   -1    0    0  501  502  0.00000000000E+00 -0.00000000000E+00 -0.57395304171E+03  0.57395304171E+03  0.00000000000E+00 0.  1.
         23    2    1    2    0    0  0.53973821114E+02  0.72644482121E+02 -0.47232183765E+02  0.13847153349E+03  0.93557962006E+02 0.  0.
        -24    2    1    2    0    0  0.20492440033E+03 -0.16442491081E+02 -0.13659943824E+03  0.25916325333E+03  0.79005189595E+02 0.  0.
         13    1    4    4    0    0  0.42896820233E+02  0.13474428605E+02 -0.66111040010E+02  0.79952279664E+02  0.00000000000E+00 0. -1.
        -14    1    4    4    0    0  0.16202758010E+03 -0.29916919686E+02 -0.70488398235E+02  0.17921097366E+03  0.00000000000E+00 0.  1.
        -11    1    3    3    0    0  0.39493757150E+02  0.95337652448E+02 -0.39059769709E+02  0.11033897968E+03  0.00000000000E+00 0.  1.
         11    1    3    3    0    0  0.14480063964E+02 -0.22693170327E+02 -0.81724140556E+01  0.28132553802E+02  0.00000000000E+00 0. -1.
         -1    1    1    2    0  502 -0.25889822144E+03 -0.56201991040E+02 -0.22126535564E+03  0.34517431896E+03  0.00000000000E+00 0.  1.
<scales pt_clust_5="13000.00000" pt_clust_6="13000.00000" pt_clust_7="13000.00000" pt_clust_8="13000.00000" pt_clust_9="232.59832"></scales>
<clustering>
<clus scale="   79.005">  5  6 -1 -1</clus>
<clus scale="   93.558">  7  8 -1 -1</clus>
<clus scale="  130.167">  1  7  2 -1</clus>
<clus scale="  232.598">  2  9  1 -1</clus>
<clus scale="  232.598">  2  5  1 -1</clus>
</clustering>
</event>
<event>
 9    1  0.4731329E-005  0.2173002E+03  0.7546771E-02  0.1136980E+00
          1   -1    0    0  502    0 -0.00000000000E+00  0.00000000000E+00  0.11517633401E+04  0.11517633401E+04  0.00000000000E+00 0. -1.
         21   -1    0    0  501  502  0.00000000000E+00 -0.00000000000E+00 -0.10491656192E+03  0.10491656192E+03  0.00000000000E+00 0. -1.
         23    2    1    2    0    0  0.18840022460E+03 -0.53154746107E+02  0.72330981531E+03  0.75541489082E+03  0.95679134070E+02 0.  0.
        -24    2    1    2    0    0 -0.17122335617E+03  0.95557305456E+02  0.42904876795E+02  0.21692825736E+03  0.82270310958E+02 0.  0.
         11    1    4    4    0    0 -0.13515601687E+03  0.10932129424E+03  0.38751911757E+02  0.17810110874E+03  0.00000000000E+00 0. -1.
        -12    1    4    4    0    0 -0.36067339301E+02 -0.13763988782E+02  0.41529650387E+01  0.38827148621E+02  0.00000000000E+00 0.  1.
        -11    1    3    3    0    0  0.52584324879E+02 -0.30090521328E+02  0.98841681351E+02  0.11593200019E+03  0.00000000000E+00 0. -1.
         11    1    3    3    0    0  0.13581589972E+03 -0.23064224780E+02  0.62446813396E+03  0.63948289063E+03  0.00000000000E+00 0.  1.
          2    1    1    2  501    0 -0.17176868431E+02 -0.42402559348E+02  0.28063208603E+03  0.28433675379E+03  0.00000000000E+00 0. -1.
<scales pt_clust_5="13000.00000" pt_clust_6="13000.00000" pt_clust_7="13000.00000" pt_clust_8="13000.00000" pt_clust_9="45.74958"></scales>
<clustering>
<clus scale="   45.750">  2  9  1 -1</clus>
<clus scale="   82.270">  5  6 -1 -1</clus>
<clus scale="   95.679">  7  8 -1 -1</clus>
<clus scale="  211.739">  2  5  1 -1</clus>
<clus scale="   45.750">  2  5  1 -1</clus>
</clustering>
</event>
<event>
 9    1  0.4731329E-005  0.1964177E+03  0.7546771E-02  0.1173106E+00
         21   -1    0    0  501  502  0.00000000000E+00  0.00000000000E+00  0.30994042624E+03  0.30994042624E+03  0.00000000000E+00 0. -1.
          3   -1    0    0  502    0 -0.00000000000E+00 -0.00000000000E+00 -0.40401030845E+03  0.40401030845E+03  0.00000000000E+00 0. -1.
        -24    2    1    2    0    0 -0.29582996080E+02  0.88258440566E+02 -0.93894508551E+02  0.15451939451E+03  0.79970985716E+02 0.  0.
         23    2    1    2    0    0  0.17677025620E+02  0.95695655982E+02 -0.22933919611E+03  0.26532775420E+03  0.91280964423E+02 0.  0.
         11    1    3    3    0    0  0.52554770810E+01  0.78700356623E+02 -0.36995541518E+02  0.87120814185E+02  0.00000000000E+00 0. -1.
        -12    1    3    3    0    0 -0.34838473161E+02  0.95580839431E+01 -0.56898967033E+02  0.67398580329E+02  0.00000000000E+00 0.  1.
        -13    1    4    4    0    0 -0.20757371770E+02  0.83765078841E+02 -0.11273363927E+03  0.14197299159E+03  0.00000000000E+00 0.  1.
         13    1    4    4    0    0  0.38434397389E+02  0.11930577141E+02 -0.11660555683E+03  0.12335476261E+03  0.00000000000E+00 0. -1.
          4    1    1    2  501    0  0.11905970461E+02 -0.18395409655E+03  0.22916382245E+03  0.29410358598E+03  0.00000000000E+00 0. -1.
<scales pt_clust_5="13000.00000" pt_clust_6="13000.00000" pt_clust_7="13000.00000" pt_clust_8="13000.00000" pt_clust_9="173.91863"></scales>
<clustering>
<clus scale="   79.971">  5  6 -1 -1</clus>
<clus scale="   91.281">  7  8 -1 -1</clus>
<clus scale="  122.719">  2  5  1 -1</clus>
<clus scale="  173.919">  1  9  2 -1</clus>
<clus scale="  173.919">  1  5  2 -1</clus>
</clustering>
</event>
<event>
 9    1  0.4731329E-005  0.1162838E+03  0.7546771E-02  0.1261926E+00
         21   -1    0    0  501  502  0.00000000000E+00  0.00000000000E+00  0.10227861019E+03  0.10227861019E+03  0.00000000000E+00 0.  1.
          1   -1    0    0  502    0 -0.00000000000E+00 -0.00000000000E+00 -0.53993483396E+03  0.53993483396E+03  0.00000000000E+00 0. -1.
        -24    2    1    2    0    0 -0.12019805855E+02  0.26376314669E+02 -0.26792402976E+02  0.89972636767E+02  0.80852067391E+02 0.  0.
         23    2    1    2    0    0  0.68782158481E+02 -0.31897476538E+02  0.47827693522E+01  0.13269994429E+03  0.10880241724E+03 0.  0.
         11    1    3    3    0    0  0.18104105102E+02 -0.22153857958E+02 -0.11556018100E+02  0.30856013973E+02  0.00000000000E+00 0. -1.
        -12    1    3    3    0    0 -0.30123910957E+02  0.48530172627E+02 -0.15236384876E+02  0.59116622795E+02  0.00000000000E+00 0.  1.
        -11    1    4    4    0    0  0.79288007700E+02  0.44458724410E+01  0.32495834685E+02  0.85804039641E+02  0.00000000000E+00 0.  1.
         11    1    4    4    0    0 -0.10505849219E+02 -0.36343348979E+02 -0.27713065333E+02  0.46895904650E+02  0.00000000000E+00 0. -1.
          2    1    1    2  501    0 -0.56762352626E+02  0.55211618691E+01 -0.41564659015E+03  0.41954086309E+03  0.00000000000E+00 0. -1.
<scales pt_clust_5="13000.00000" pt_clust_6="13000.00000" pt_clust_7="13000.00000" pt_clust_8="13000.00000" pt_clust_9="57.03027"></scales>
<clustering>
<clus scale="   57.030">  1  9  2 -1</clus>
<clus scale="   80.852">  5  6 -1 -1</clus>
<clus scale="   90.670">  2  5  1 -1</clus>
<clus scale="  108.802">  7  8 -1 -1</clus>
<clus scale="   57.030">  1  5  2 -1</clus>
</clustering>
</event>
<event>
 9    1  0.4731329E-005  0.1519987E+03  0.7546771E-02  0.1221129E+00
         21   -1    0    0  501  502  0.00000000000E+00  0.00000000000E+00  0.77994786801E+02  0.77994786801E+02  0.00000000000E+00 0.  1.
          1   -1    0    0  502    0 -0.00000000000E+00 -0.00000000000E+00 -0.62729431343E+03  0.62729431343E+03  0.00000000000E+00 0. -1.
         23    2    1    2    0    0  0.19974484020E+02  0.31190531235E+01 -0.28890777736E+03  0.30344516247E+03  0.90567954064E+02 0.  0.
        -24    2    1    2    0    0  0.10907174746E+03 -0.56553846314E+02 -0.63452755758E+02  0.16040414372E+03  0.81291164852E+02 0.  0.
         13    1    4    4    0    0  0.16357223263E+02 -0.26391342385E+02 -0.54206446203E+02  0.62469196535E+02  0.00000000000E+00 0. -1.
        -14    1    4    4    0    0  0.92714524193E+02 -0.30162503928E+02 -0.92463095548E+01  0.97934947184E+02  0.00000000000E+00 0.  1.
        -13    1    3    3    0    0 -0.23216740934E+01 -0.40898152762E+02 -0.96987400476E+02  0.10528345037E+03  0.00000000000E+00 0.  1.
         13    1    3    3    0    0  0.22296158113E+02  0.44017205886E+02 -0.19192037688E+03  0.19816171210E+03  0.00000000000E+00 0. -1.
          2    1    1    2  501    0 -0.12904623148E+03  0.53434793190E+02 -0.19693899351E+03  0.24143979404E+03  0.00000000000E+00 0. -1.
<scales pt_clust_5="13000.00000" pt_clust_6="13000.00000" pt_clust_7="13000.00000" pt_clust_8="13000.00000" pt_clust_9="128.43425"></scales>
<clustering>
<clus scale="   81.291">  5  6 -1 -1</clus>
<clus scale="   90.568">  7  8 -1 -1</clus>
<clus scale="   92.797">  2  7  1 -1</clus>
<clus scale="  128.434">  1  9  2 -1</clus>
<clus scale="  128.434">  1  5  2 -1</clus>
</clustering>
</event>
<event>
 9    1  0.4731329E-005  0.1140447E+03  0.7546771E-02  0.1262589E+00
          1   -1    0    0  502    0 -0.00000000000E+00  0.00000000000E+00  0.70194386452E+03  0.70194386452E+03  0.00000000000E+00 0. -1.
         21   -1    0    0  501  502  0.00000000000E+00 -0.00000000000E+00 -0.34814087921E+02  0.34814087921E+02  0.00000000000E+00 0.  1.
         23    2    1    2    0    0  0.36835973536E+01 -0.22136967875E+02  0.20858309037E+03  0.22750865795E+03  0.88032207831E+02 0.  0.
        -24    2    1    2    0    0  0.78695657362E+02  0.11370275413E+02  0.32826681519E+03  0.35473357338E+03  0.10841824790E+03 0.  0.
         13    1    4    4    0    0 -0.75749195614E+01  0.39374266011E+02  0.14207139901E+03  0.14762111857E+03  0.00000000000E+00 0. -1.
        -14    1    4    4    0    0  0.86270576924E+02 -0.28003990598E+02  0.18619541618E+03  0.20711245481E+03  0.00000000000E+00 0.  1.
        -13    1    3    3    0    0  0.16976857037E+02  0.27337930840E+02  0.40137590771E+02  0.51445139035E+02  0.00000000000E+00 0. -1.
         13    1    3    3    0    0 -0.13293259683E+02 -0.49474898714E+02  0.16844549960E+03  0.17606351891E+03  0.00000000000E+00 0.  1.
          2    1    1    2  501    0 -0.82379254716E+02  0.10766692462E+02  0.13027987104E+03  0.15451572112E+03  0.00000000000E+00 0. -1.
<scales pt_clust_5="13000.00000" pt_clust_6="13000.00000" pt_clust_7="13000.00000" pt_clust_8="13000.00000" pt_clust_9="83.07986"></scales>
<clustering>
<clus scale="   83.080">  2  9  1 -1</clus>
<clus scale="   88.032">  7  8 -1 -1</clus>
<clus scale="   94.875">  1  7  2 -1</clus>
<clus scale="  108.418">  5  6 -1 -1</clus>
<clus scale="   83.080">  2  5  1 -1</clus>
</clustering>
</event>
<event>
 9    1  0.4731329E-005  0.1017413E+03  0.7546771E-02  0.1281936E+00
          3   -1    0    0  502    0 -0.00000000000E+00  0.00000000000E+00  0.25461302950E+03  0.25461302950E+03  0.00000000000E+00 0. -1.
         21   -1    0    0  501  502  0.00000000000E+00 -0.00000000000E+00 -0.13091495320E+03  0.13091495320E+03  0.00000000000E+00 0. -1.
         23    2    1    2    0    0  0.45489329737E+01  0.50558915181E+02  0.14593081951E+03  0.17945929769E+03  0.91284931670E+02 0.  0.
        -24    2    1    2    0    0  0.47974117459E+02 -0.28437721439E+02  0.53357109880E+02  0.11140166895E+03  0.80331380688E+02 0.  0.
         11    1    4    4    0    0  0.26254561998E+02 -0.43240067310E+02  0.65241461996E+02  0.82555761822E+02  0.00000000000E+00 0. -1.
        -12    1    4    4    0    0  0.21719555461E+02  0.14802345871E+02 -0.11884352116E+02  0.28845907126E+02  0.00000000000E+00 0.  1.
        -13    1    3    3    0    0 -0.24794570130E+02 -0.14330973873E+02  0.20493322643E+02  0.35215391422E+02  0.00000000000E+00 0.  1.
         13    1    3    3    0    0  0.29343503103E+02  0.64889889054E+02  0.12543749686E+03  0.14424390627E+03  0.00000000000E+00 0. -1.
          4    1    1    2  501    0 -0.52523050433E+02 -0.22121193742E+02 -0.75589853091E+02  0.94667016060E+02  0.00000000000E+00 0. -1.
<scales pt_clust_5="13000.00000" pt_clust_6="13000.00000" pt_clust_7="13000.00000" pt_clust_8="13000.00000" pt_clust_9="56.99139"></scales>
<clustering>
<clus scale="   56.991">  2  9  1 -1</clus>
<clus scale="   80.331">  5  6 -1 -1</clus>
<clus scale="   91.285">  7  8 -1 -1</clus>
<clus scale="   92.041">  2  5  1 -1</clus>
<clus scale="   56.991">  2  5  1 -1</clus>
</clustering>
</event>
<event>
 9    1  0.4731329E-005  0.1369275E+03  0.7546771E-02  0.1222106E+00
         21   -1    0    0  501  502  0.00000000000E+00  0.00000000000E+00  0.21632392310E+03  0.21632392310E+03  0.00000000000E+00 0. -1.
          3   -1    0    0  502    0 -0.00000000000E+00 -0.00000000000E+00 -0.30044969590E+03  0.30044969590E+03  0.00000000000E+00 0. -1.
         23    2    1    2    0    0  0.15839308616E+02  0.84980122041E+02 -0.19345262446E+03  0.22997972969E+03  0.89410588418E+02 0.  0.
        -24    2    1    2    0    0  0.10291422888E+03 -0.45408403548E+02  0.72362884346E+02  0.15627699978E+03  0.80826060230E+02 0.  0.
         13    1    4    4    0    0  0.36978719464E+02 -0.57470781742E+02  0.19961682193E+02  0.71195401560E+02  0.00000000000E+00 0. -1.
        -14    1    4    4    0    0  0.65935509412E+02  0.12062378194E+02  0.52401202153E+02  0.85081598223E+02  0.00000000000E+00 0.  1.
        -13    1    3    3    0    0  0.20996467355E+02  0.51705937062E+02 -0.18769993635E+03  0.19582038115E+03  0.00000000000E+00 0.  1.
         13    1    3    3    0    0 -0.51571587390E+01  0.33274184978E+02 -0.57526881054E+01  0.34159348540E+02  0.00000000000E+00 0. -1.
          4    1    1    2  501    0 -0.11875353749E+03 -0.39571718492E+02  0.36963967312E+02  0.13051688952E+03  0.00000000000E+00 0. -1.
<scales pt_clust_5="13000.00000" pt_clust_6="13000.00000" pt_clust_7="13000.00000" pt_clust_8="13000.00000" pt_clust_9="110.52742"></scales>
<clustering>
<clus scale="   80.826">  5  6 -1 -1</clus>
<clus scale="   89.411">  7  8 -1 -1</clus>
<clus scale="  124.365">  2  7  1 -1</clus>
<clus scale="  110.527">  1  9  2 -1</clus>
<clus scale="  110.527">  1  5  2 -1</clus>
</clustering>
</event>
<event>
 9    1  0.4731329E-005  0.1104104E+03  0.7546771E-02  0.1273067E+00
         21   -1    0    0  501  502  0.00000000000E+00  0.00000000000E+00  0.25444716136E+03  0.25444716136E+03  0.00000000000E+00 0.  1.
          1   -1    0    0  502    0 -0.00000000000E+00 -0.00000000000E+00 -0.26073106068E+03  0.26073106068E+03  0.00000000000E+00 0. -1.
         23    2    1    2    0    0  0.33680818003E+02  0.70721450313E+01 -0.23568336709E+03  0.26037818479E+03  0.10519380616E+03 0.  0.
        -24    2    1    2    0    0 -0.25431339026E+02  0.14636265505E+02  0.14696082409E+03  0.16915286004E+03  0.78448919502E+02 0.  0.
         13    1    4    4    0    0  0.20840325053E+01 -0.30645591442E+02  0.56888513583E+02  0.64651360728E+02  0.00000000000E+00 0. -1.
        -14    1    4    4    0    0 -0.27515371532E+02  0.45281856947E+02  0.90072310502E+02  0.10450149931E+03  0.00000000000E+00 0.  1.
        -13    1    3    3    0    0 -0.20160886835E+02 -0.27113139588E+02 -0.30521414246E+02  0.45531751821E+02  0.00000000000E+00 0.  1.
         13    1    3    3    0    0  0.53841704838E+02  0.34185284620E+02 -0.20516195284E+03  0.21484643297E+03  0.00000000000E+00 0. -1.
          2    1    1    2  501    0 -0.82494789769E+01 -0.21708410536E+02  0.82438643683E+02  0.85647177208E+02  0.00000000000E+00 0. -1.
<scales pt_clust_5="13000.00000" pt_clust_6="13000.00000" pt_clust_7="13000.00000" pt_clust_8="13000.00000" pt_clust_9="23.22303"></scales>
<clustering>
<clus scale="   23.223">  1  9  2 -1</clus>
<clus scale="   78.449">  5  6 -1 -1</clus>
<clus scale="   85.317">  1  5  2 -1</clus>
<clus scale="  105.194">  7  8 -1 -1</clus>
<clus scale="   23.223">  1  5  2 -1</clus>
</clustering>
</event>
<event>
 9    1  0.4731329E-005  0.1059935E+03  0.7546771E-02  0.1273882E+00
         21   -1    0    0  501  502  0.00000000000E+00  0.00000000000E+00  0.17127537787E+03  0.17127537787E+03  0.00000000000E+00 0.  1.
         -4   -1    0    0    0  501 -0.00000000000E+00 -0.00000000000E+00 -0.13101965492E+03  0.13101965492E+03  0.00000000000E+00 0.  1.
        -24    2    1    2    0    0 -0.30102938263E+01  0.49882671906E+02 -0.43936724414E+02  0.10076566724E+03  0.75669948566E+02 0.  0.
         23    2    1    2    0    0  0.43367613642E+02 -0.69278164928E+02  0.18985115362E+02  0.12242883104E+03  0.89152509869E+02 0.  0.
         13    1    3    3    0    0 -0.18632233391E+02  0.49742950869E+02  0.10656946592E+01  0.53128683283E+02  0.00000000000E+00 0. -1.
        -14    1    3    3    0    0  0.15621939564E+02  0.13972103718E+00 -0.45002419074E+02  0.47636983954E+02  0.00000000000E+00 0.  1.
        -11    1    4    4    0    0  0.55149730471E+02 -0.13680169595E+02 -0.11444846729E+02  0.57962266414E+02  0.00000000000E+00 0. -1.
         11    1    4    4    0    0 -0.11782116829E+02 -0.55597995334E+02  0.30429962091E+02  0.64466564628E+02  0.00000000000E+00 0.  1.
         -3    1    1    2    0  502 -0.40357319815E+02  0.19395493022E+02  0.65207332011E+02  0.79100534513E+02  0.00000000000E+00 0.  1.
<scales pt_clust_5="13000.00000" pt_clust_6="13000.00000" pt_clust_7="13000.00000" pt_clust_8="13000.00000" pt_clust_9="44.77609"></scales>
<clustering>
<clus scale="   44.776">  1  9  2 -1</clus>
<clus scale="   75.670">  5  6 -1 -1</clus>
<clus scale="   89.153">  7  8 -1 -1</clus>
<clus scale="   94.934">  2  5  1 -1</clus>
<clus scale="   44.776">  1  5  2 -1</clus>
</clustering>
</event>
<event>
 9    1  0.4731329E-005  0.1379814E+03  0.7546771E-02  0.1236587E+00
         21   -1    0    0  501  502  0.00000000000E+00  0.00000000000E+00  0.22299493411E+02  0.22299493411E+02  0.00000000000E+00 0.  1.
          1   -1    0    0  502    0 -0.00000000000E+00 -0.00000000000E+00 -0.16280475502E+04  0.16280475502E+04  0.00000000000E+00 0. -1.
        -24    2    1    2    0    0  0.37226987148E+02  0.22631385818E+02 -0.47948739281E+03  0.48787825616E+03  0.78860666856E+02 0.  0.
         23    2    1    2    0    0  0.89545988186E+02  0.19841652722E+02 -0.31831888256E+03  0.34353944468E+03  0.90995955271E+02 0.  0.
         11    1    3    3    0    0  0.27910119822E+02 -0.27410455422E+02 -0.21819311946E+03  0.22167215711E+03  0.00000000000E+00 0. -1.
        -12    1    3    3    0    0  0.93168673265E+01  0.50041841240E+02 -0.26129427334E+03  0.26620609906E+03  0.00000000000E+00 0.  1.
        -13    1    4    4    0    0  0.65421795208E+02  0.53224894849E+02 -0.17247038901E+03  0.19198681154E+03  0.00000000000E+00 0.  1.
         13    1    4    4    0    0  0.24124192978E+02 -0.33383242127E+02 -0.14584849355E+03  0.15155263315E+03  0.00000000000E+00 0. -1.
          2    1    1    2  501    0 -0.12677297533E+03 -0.42473038539E+02 -0.80794178141E+03  0.81892934276E+03  0.00000000000E+00 0. -1.
<scales pt_clust_5="13000.00000" pt_clust_6="13000.00000" pt_clust_7="13000.00000" pt_clust_8="13000.00000" pt_clust_9="103.72372"></scales>
<clustering>
<clus scale="   78.861">  5  6 -1 -1</clus>
<clus scale="   90.095">  2  5  1 -1</clus>
<clus scale="   90.996">  7  8 -1 -1</clus>
<clus scale="  103.724">  1  9  2 -1</clus>
<clus scale="  103.724">  1  5  2 -1</clus>
</clustering>
</event>
<event>
 9    1  0.4731329E-005  0.1660234E+03  0.7546771E-02  0.1183705E+00
         21   -1    0    0  501  502  0.00000000000E+00  0.00000000000E+00  0.17728879659E+03  0.17728879659E+03  0.00000000000E+00 0.  1.
         -2   -1    0    0    0  501 -0.00000000000E+00 -0.00000000000E+00 -0.25837932615E+03  0.25837932615E+03  0.00000000000E+00 0.  1.
         23    2    1    2    0    0  0.10277473648E+03  0.10583249829E+03 -0.16273161770E+03  0.23728436867E+03  0.89772646509E+02 0.  0.
        -24    2    1    2    0    0 -0.72840480396E+02 -0.95008932987E+02  0.45045005508E+02  0.14988135704E+03  0.78121288617E+02 0.  0.
         11    1    4    4    0    0 -0.56279931474E+02 -0.42666201596E+02  0.60339450938E+02  0.92890714201E+02  0.00000000000E+00 0. -1.
        -12    1    4    4    0    0 -0.16560548922E+02 -0.52342731392E+02 -0.15294445430E+02  0.56990642839E+02  0.00000000000E+00 0.  1.
        -11    1    3    3    0    0  0.24402002925E+02  0.11219964039E+02  0.69997240519E+01  0.27755026150E+02  0.00000000000E+00 0. -1.
         11    1    3    3    0    0  0.78372733554E+02  0.94612534256E+02 -0.16973134175E+03  0.20952934252E+03  0.00000000000E+00 0.  1.
         -1    1    1    2    0  502 -0.29934256083E+02 -0.10823565307E+02  0.36596082631E+02  0.48502397025E+02  0.00000000000E+00 0.  1.
<scales pt_clust_5="13000.00000" pt_clust_6="13000.00000" pt_clust_7="13000.00000" pt_clust_8="13000.00000" pt_clust_9="31.83095"></scales>
<clustering>
<clus scale="   31.831">  1  9  2 -1</clus>
<clus scale="   78.121">  5  6 -1 -1</clus>
<clus scale="   89.773">  7  8 -1 -1</clus>
<clus scale="  160.024">  1  5  2 -1</clus>
<clus scale="   31.831">  1  5  2 -1</clus>
</clustering>
</event>
<event>
 9    1  0.4731329E-005  0.1102739E+03  0.7546771E-02  0.1276256E+00
          3   -1    0    0  502    0 -0.00000000000E+00  0.00000000000E+00  0.26838987318E+03  0.26838987318E+03  0.00000000000E+00 0. -1.
         21   -1    0    0  501  502  0.00000000000E+00 -0.00000000000E+00 -0.87515775567E+02  0.87515775567E+02  0.00000000000E+00 0. -1.
        -24    2    1    2    0    0 -0.17170928221E+02  0.64797366971E+00  0.17130163916E+03  0.18979973413E+03  0.79902608533E+02 0.  0.
         23    2    1    2    0    0 -0.32296936892E+02  0.10533401353E+02  0.30963474263E+01  0.11497830133E+03  0.10980153794E+03 0.  0.
         11    1    3    3    0    0 -0.48666078590E+02  0.81673485062E+01  0.10272372160E+03  0.11396164164E+03  0.00000000000E+00 0. -1.
        -12    1    3    3    0    0  0.31495150369E+02 -0.75193748365E+01  0.68577917563E+02  0.75838092486E+02  0.00000000000E+00 0.  1.
        -11    1    4    4    0    0 -0.10990494942E+02  0.58819192204E+02 -0.98337081960E+01  0.60639839771E+02  0.00000000000E+00 0.  1.
         11    1    4    4    0    0 -0.21306441950E+02 -0.48285790851E+02  0.12930055622E+02  0.54338461564E+02  0.00000000000E+00 0. -1.
          4    1    1    2  501    0  0.49467865113E+02 -0.11181375023E+02  0.64761110293E+01  0.51127613286E+02  0.00000000000E+00 0. -1.
<scales pt_clust_5="13000.00000" pt_clust_6="13000.00000" pt_clust_7="13000.00000" pt_clust_8="13000.00000" pt_clust_9="50.71580"></scales>
<clustering>
<clus scale="   50.716">  2  9  1 -1</clus>
<clus scale="   79.903">  5  6 -1 -1</clus>
<clus scale="   80.550">  1  5  2 -1</clus>
<clus scale="  109.802">  7  8 -1 -1</clus>
<clus scale="   50.716">  2  5  1 -1</clus>
</clustering>
</event>
<event>
 9    1  0.4731329E-005  0.1372957E+03  0.7546771E-02  0.1220546E+00
         21   -1    0    0  501  502  0.00000000000E+00  0.00000000000E+00  0.19464626309E+03  0.19464626309E+03  0.00000000000E+00 0. -1.
          1   -1    0    0  502    0 -0.00000000000E+00 -0.00000000000E+00 -0.30445093189E+03  0.30445093189E+03  0.00000000000E+00 0. -1.
        -24    2    1    2    0    0 -0.37979349594E+02 -0.88763281994E+02 -0.11171688523E+03  0.16587126494E+03  0.75572897679E+02 0.  0.
         23    2    1    2    0    0  0.14310666349E+03  0.40196753254E+02 -0.79519968025E+02  0.19165735829E+03  0.91180159941E+02 0.  0.
         13    1    3    3    0    0 -0.15403662918E+02 -0.84768555420E+02 -0.49046509567E+02  0.99138997978E+02  0.00000000000E+00 0. -1.
        -14    1    3    3    0    0 -0.22575686676E+02 -0.39947265739E+01 -0.62670375658E+02  0.66732266966E+02  0.00000000000E+00 0.  1.
        -13    1    4    4    0    0  0.85658476466E+02  0.14563073278E+02  0.41382142829E+01  0.86986105277E+02  0.00000000000E+00 0.  1.
         13    1    4    4    0    0  0.57448187020E+02  0.25633679976E+02 -0.83658182307E+02  0.10467125302E+03  0.00000000000E+00 0. -1.
          2    1    1    2  501    0 -0.10512731389E+03  0.48566528740E+02  0.81432184454E+02  0.14156857174E+03  0.00000000000E+00 0. -1.
<scales pt_clust_5="13000.00000" pt_clust_6="13000.00000" pt_clust_7="13000.00000" pt_clust_8="13000.00000" pt_clust_9="115.80354"></scales>
<clustering>
<clus scale="   75.573">  5  6 -1 -1</clus>
<clus scale="   91.180">  7  8 -1 -1</clus>
<clus scale="  115.804">  1  9  2 -1</clus>
<clus scale="  127.466">  2  5  1 -1</clus>
<clus scale="  115.804">  1  5  2 -1</clus>
</clustering>
</event>
<event>
 9    1  0.4731329E-005  0.9128510E+02  0.7546771E-02  0.1303477E+00
          1   -1    0    0  502    0 -0.00000000000E+00  0.00000000000E+00  0.13053405949E+03  0.13053405949E+03  0.00000000000E+00 0. -1.
         21   -1    0    0  501  502  0.00000000000E+00 -0.00000000000E+00 -0.27107809739E+03  0.27107809739E+03  0.00000000000E+00 0. -1.
         23    2    1    2    0    0 -0.42714831047E+02 -0.10503484742E+02  0.69062907194E+02  0.11984644883E+03  0.87513462754E+02 0.  0.
        -24    2    1    2    0    0 -0.10215124655E+02 -0.12058389457E+02 -0.22116957036E+02  0.85645556099E+02  0.81217288572E+02 0.  0.
         11    1    4    4    0    0 -0.29575444616E+02  0.22122768849E+02  0.58899764988E+01  0.37400743962E+02  0.00000000000E+00 0. -1.
        -12    1    4    4    0    0  0.19360319960E+02 -0.34181158306E+02 -0.28006933535E+02  0.48244812137E+02  0.00000000000E+00 0.  1.
        -13    1    3    3    0    0 -0.35023908420E+02  0.14369065733E+02  0.82337189840E+02  0.90623159522E+02  0.00000000000E+00 0. -1.
         13    1    3    3    0    0 -0.76909226267E+01 -0.24872550476E+02 -0.13274282646E+02  0.29223289305E+02  0.00000000000E+00 0.  1.
          2    1    1    2  501    0  0.52929955702E+02  0.22561874199E+02 -0.18748998806E+03  0.19612015195E+03  0.00000000000E+00 0. -1.
<scales pt_clust_5="13000.00000" pt_clust_6="13000.00000" pt_clust_7="13000.00000" pt_clust_8="13000.00000" pt_clust_9="57.53797"></scales>
<clustering>
<clus scale="   57.538">  2  9  1 -1</clus>
<clus scale="   81.217">  5  6 -1 -1</clus>
<clus scale="   85.268">  2  5  1 -1</clus>
<clus scale="   87.513">  7  8 -1 -1</clus>
<clus scale="   57.538">  2  5  1 -1</clus>
</clustering>
</event>
<event>
 9    1  0.4731329E-005  0.1426549E+03  0.7546771E-02  0.1211442E+00
         21   -1    0    0  501  502  0.00000000000E+00  0.00000000000E+00  0.83545395109E+03  0.83545395109E+03  0.00000000000E+00 0. -1.
         -2   -1    0    0    0  501 -0.00000000000E+00 -0.00000000000E+00 -0.13007384036E+03  0.13007384036E+03  0.00000000000E+00 0.  1.
        -24    2    1    2    0    0 -0.90647015394E+02  0.65098273784E+02 -0.64486771767E+02  0.15328605194E+03  0.82966278305E+02 0.  0.
         23    2    1    2    0    0  0.25076919195E+02 -0.10804953280E+03  0.67058710072E+03  0.68574777430E+03  0.90881224058E+02 0.  0.
         11    1    3    3    0    0 -0.42681113427E+02 -0.12149421182E+01  0.86045745895E+01  0.43556770215E+02  0.00000000000E+00 0. -1.
        -12    1    3    3    0    0 -0.47965901967E+02  0.66313215903E+02 -0.73091346357E+02  0.10972928172E+03  0.00000000000E+00 0.  1.
        -13    1    4    4    0    0 -0.29328699231E+02 -0.97447636090E+01  0.15735858393E+03  0.16036476219E+03  0.00000000000E+00 0.  1.
         13    1    4    4    0    0  0.54405618426E+02 -0.98304769192E+02  0.51322851679E+03  0.52538301210E+03  0.00000000000E+00 0. -1.
         -1    1    1    2    0  502  0.65570096199E+02  0.42951259016E+02  0.99279781776E+02  0.12649396522E+03  0.00000000000E+00 0.  1.
<scales pt_clust_5="13000.00000" pt_clust_6="13000.00000" pt_clust_7="13000.00000" pt_clust_8="13000.00000" pt_clust_9="78.38525"></scales>
<clustering>
<clus scale="   78.385">  1  9  2 -1</clus>
<clus scale="   82.966">  5  6 -1 -1</clus>
<clus scale="   90.881">  7  8 -1 -1</clus>
<clus scale="  137.748">  2  5  1 -1</clus>
<clus scale="   78.385">  1  5  2 -1</clus>
</clustering>
</event>
<event>
 9    1  0.4731329E-005  0.1471183E+03  0.7546771E-02  0.1206276E+00
          3   -1    0    0  502    0 -0.00000000000E+00  0.00000000000E+00  0.31865286349E+03  0.31865286349E+03  0.00000000000E+00 0. -1.
         21   -1    0    0  501  502  0.00000000000E+00 -0.00000000000E+00 -0.12395578047E+03  0.12395578047E+03  0.00000000000E+00 0.  1.
        -24    2    1    2    0    0  0.79109963241E+02  0.17756146494E+02  0.64437326406E+02  0.13161442158E+03  0.81218962758E+02 0.  0.
         23    2    1    2    0    0 -0.16013086038E+03 -0.23871996336E+02  0.13402535760E+03  0.22965561442E+03  0.92558846694E+02 0.  0.
         11    1    3    3    0    0  0.85270447873E+01 -0.24485390580E+02  0.36440326853E+02  0.44722950102E+02  0.00000000000E+00 0. -1.
        -12    1    3    3    0    0  0.70582918454E+02  0.42241537075E+02  0.27996999553E+02  0.86891471480E+02  0.00000000000E+00 0.  1.
        -11    1    4    4    0    0 -0.16605403784E+02  0.17622067168E+02 -0.59413432063E+01  0.24931430870E+02  0.00000000000E+00 0. -1.
         11    1    4    4    0    0 -0.14352545660E+03 -0.41494063505E+02  0.13996670080E+03  0.20472418355E+03  0.00000000000E+00 0.  1.
          4    1    1    2  501    0  0.81020897140E+02  0.61158498420E+01 -0.37656009795E+01  0.81338607951E+02  0.00000000000E+00 0. -1.
<scales pt_clust_5="13000.00000" pt_clust_6="13000.00000" pt_clust_7="13000.00000" pt_clust_8="13000.00000" pt_clust_9="81.25140"></scales>
<clustering>
<clus scale="   81.219">  5  6 -1 -1</clus>
<clus scale="   81.251">  2  9  1 -1</clus>
<clus scale="   92.559">  7  8 -1 -1</clus>
<clus scale="  140.261">  1  5  2 -1</clus>
<clus scale="   81.251">  2  5  1 -1</clus>
</clustering>
</event>
<event>
 9    1  0.4731329E-005  0.9866974E+02  0.7546771E-02  0.1288455E+00
         21   -1    0    0  501  502  0.00000000000E+00  0.00000000000E+00  0.70245564858E+02  0.70245564858E+02  0.00000000000E+00 0.  1.
          1   -1    0    0  502    0 -0.00000000000E+00 -0.00000000000E+00 -0.55797170534E+03  0.55797170534E+03  0.00000000000E+00 0. -1.
        -24    2    1    2    0    0  0.11402522092E+02  0.38529731680E+02 -0.50381120237E+03  0.51174180090E+03  0.80245781320E+02 0.  0.
         23    2    1    2    0    0  0.48834535758E+01 -0.25055611904E+02  0.14640456749E+02  0.95288874694E+02  0.90631092126E+02 0.  0.
         13    1    3    3    0    0  0.23468725794E+02  0.60037329914E+02 -0.33590962519E+03  0.34203879659E+03  0.00000000000E+00 0. -1.
        -14    1    3    3    0    0 -0.12066203702E+02 -0.21507598234E+02 -0.16790157718E+03  0.16970300431E+03  0.00000000000E+00 0.  1.
        -13    1    4    4    0    0  0.26961569923E+02  0.55170721664E+01  0.40927746780E+02  0.49319821518E+02  0.00000000000E+00 0.  1.
         13    1    4    4    0    0 -0.22078116347E+02 -0.30572684071E+02 -0.26287290032E+02  0.45969053177E+02  0.00000000000E+00 0. -1.
          2    1    1    2  501    0 -0.16285975667E+02 -0.13474119776E+02  0.14446051346E+01  0.21186594610E+02  0.00000000000E+00 0. -1.
<scales pt_clust_5="13000.00000" pt_clust_6="13000.00000" pt_clust_7="13000.00000" pt_clust_8="13000.00000" pt_clust_9="21.13729"></scales>
<clustering>
<clus scale="   21.137">  1  9  2 -1</clus>
<clus scale="   80.246">  5  6 -1 -1</clus>
<clus scale="   89.225">  2  5  1 -1</clus>
<clus scale="   90.631">  7  8 -1 -1</clus>
<clus scale="   21.137">  1  5  2 -1</clus>
</clustering>
</event>
<event>
 9    1  0.4731329E-005  0.1095904E+03  0.7546771E-02  0.1268061E+00
         -2   -1    0    0    0  501 -0.00000000000E+00  0.00000000000E+00  0.75611330055E+03  0.75611330055E+03  0.00000000000E+00 0.  1.
         21   -1    0    0  501  502  0.00000000000E+00 -0.00000000000E+00 -0.41684552337E+02  0.41684552337E+02  0.00000000000E+00 0. -1.
         23    2    1    2    0    0 -0.27874305555E+02 -0.26843411500E+02  0.27206114208E+03  0.29046442877E+03  0.94099807123E+02 0.  0.
        -24    2    1    2    0    0  0.22857089523E+02  0.11337217726E+03  0.16151489731E+03  0.21341057061E+03  0.77982770374E+02 0.  0.
         11    1    4    4    0    0 -0.15771920910E+01  0.11489854898E+03  0.13610538786E+03  0.17812591248E+03  0.00000000000E+00 0. -1.
        -12    1    4    4    0    0  0.24434281614E+02 -0.15263717177E+01  0.25409509447E+02  0.35284658124E+02  0.00000000000E+00 0.  1.
        -13    1    3    3    0    0  0.31984287734E+02 -0.50087624700E+01  0.51031764681E+02  0.60434455154E+02  0.00000000000E+00 0. -1.
         13    1    3    3    0    0 -0.59858593290E+02 -0.21834649030E+02  0.22102937740E+03  0.23002997362E+03  0.00000000000E+00 0.  1.
         -1    1    1    2    0  502  0.50172160323E+01 -0.86528765762E+02  0.28085270882E+03  0.29392285351E+03  0.00000000000E+00 0.  1.
<scales pt_clust_5="13000.00000" pt_clust_6="13000.00000" pt_clust_7="13000.00000" pt_clust_8="13000.00000" pt_clust_9="86.67414"></scales>
<clustering>
<clus scale="   77.983">  5  6 -1 -1</clus>
<clus scale="   86.674">  2  9  1 -1</clus>
<clus scale="   94.100">  7  8 -1 -1</clus>
<clus scale="   96.107">  2  5  1 -1</clus>
<clus scale="   86.674">  2  5  1 -1</clus>
</clustering>
</event>
<event>
 9    1  0.4731329E-005  0.1034411E+03  0.7546771E-02  0.1277369E+00
          1   -1    0    0  502    0 -0.00000000000E+00  0.00000000000E+00  0.49658562639E+03  0.49658562639E+03  0.00000000000E+00 0. -1.
         21   -1    0    0  501  502  0.00000000000E+00 -0.00000000000E+00 -0.42150229591E+02  0.42150229591E+02  0.00000000000E+00 0.  1.
        -24    2    1    2    0    0 -0.46763803049E+02 -0.23099536988E+01  0.24459204091E+03  0.26183172861E+03  0.80860364007E+02 0.  0.
         23    2    1    2    0    0  0.65850533632E+02 -0.20340956891E+02  0.68502252651E+02  0.13249265103E+03  0.90064957957E+02 0.  0.
         13    1    3    3    0    0  0.42882991872E+01 -0.32459813544E+02  0.66381349359E+02  0.74016974728E+02  0.00000000000E+00 0. -1.
        -14    1    3    3    0    0 -0.51052102237E+02  0.30149859846E+02  0.17821069155E+03  0.18781475388E+03  0.00000000000E+00 0.  1.
        -11    1    4    4    0    0  0.35745858539E+02  0.17035930509E+02 -0.96719188436E+01  0.40761935002E+02  0.00000000000E+00 0.  1.
         11    1    4    4    0    0  0.30104675094E+02 -0.37376887400E+02  0.78174171494E+02  0.91730716028E+02  0.00000000000E+00 0. -1.
          2    1    1    2  501    0 -0.19086730583E+02  0.22650910590E+02  0.14134110324E+03  0.14441147634E+03  0.00000000000E+00 0. -1.
<scales pt_clust_5="13000.00000" pt_clust_6="13000.00000" pt_clust_7="13000.00000" pt_clust_8="13000.00000" pt_clust_9="29.62040"></scales>
<clustering>
<clus scale="   29.620">  2  9  1 -1</clus>
<clus scale="   80.860">  5  6 -1 -1</clus>
<clus scale="   90.065">  7  8 -1 -1</clus>
<clus scale="   95.534">  1  5  2 -1</clus>
<clus scale="   29.620">  2  5  1 -1</clus>
</clustering>
</event>
<event>
 9    1  0.4731329E-005  0.2116608E+03  0.7546771E-02  0.1174154E+00
         21   -1    0    0  501  502  0.00000000000E+00  0.00000000000E+00  0.53573392669E+03  0.53573392669E+03  0.00000000000E+00 0. -1.
          1   -1    0    0  502    0 -0.00000000000E+00 -0.00000000000E+00 -0.15425417857E+03  0.15425417857E+03  0.00000000000E+00 0. -1.
         23    2    1    2    0    0 -0.45101919831E+01  0.27420829038E+02 -0.18730727813E+02  0.97575567964E+02  0.91640098223E+02 0.  0.
        -24    2    1    2    0    0  0.19609258070E+03 -0.47287300302E+02  0.10990705510E+03  0.24402401210E+03  0.82339351116E+02 0.  0.
         13    1    4    4    0    0  0.16652007420E+03 -0.67374975534E+02  0.77023532786E+02  0.19545062559E+03  0.00000000000E+00 0. -1.
        -14    1    4    4    0    0  0.29572506501E+02  0.20087675232E+02  0.32883522315E+02  0.48573386507E+02  0.00000000000E+00 0.  1.
        -11    1    3    3    0    0 -0.14384411157E+01 -0.30544462343E+02 -0.24583045061E+02  0.39234670856E+02  0.00000000000E+00 0.  1.
         11    1    3    3    0    0 -0.30717508673E+01  0.57965291381E+02  0.58523172483E+01  0.58340897109E+02  0.00000000000E+00 0. -1.
          2    1    1    2  501    0 -0.19158238872E+03  0.19866471265E+02  0.29030342083E+03  0.34838852520E+03  0.00000000000E+00 0. -1.
<scales pt_clust_5="13000.00000" pt_clust_6="13000.00000" pt_clust_7="13000.00000" pt_clust_8="13000.00000" pt_clust_9="194.98856"></scales>
<clustering>
<clus scale="   82.339">  5  6 -1 -1</clus>
<clus scale="   91.640">  7  8 -1 -1</clus>
<clus scale="   95.761">  2  7  1 -1</clus>
<clus scale="  194.989">  1  9  2 -1</clus>
<clus scale="  194.989">  1  5  2 -1</clus>
</clustering>
</event>
<event>
 9    1  0.4731329E-005  0.8938241E+02  0.7546771E-02  0.1320714E+00
         21   -1    0    0  501  502  0.00000000000E+00  0.00000000000E+00  0.17625129732E+03  0.17625129732E+03  0.00000000000E+00 0.  1.
          1   -1    0    0  502    0 -0.00000000000E+00 -0.00000000000E+00 -0.76555551519E+02  0.76555551519E+02  0.00000000000E+00 0. -1.
         23    2    1    2    0    0 -0.93307603747E+01 -0.30186414523E+02  0.22585030745E+02  0.95306977916E+02  0.87034784510E+02 0.  0.
        -24    2    1    2    0    0  0.23375903239E+02 -0.12694148513E+02  0.87468932021E+02  0.11120406784E+03  0.63308422629E+02 0.  0.
         11    1    4    4    0    0  0.27852136123E+02 -0.35428589426E+02  0.51682140940E+02  0.68570913130E+02  0.00000000000E+00 0. -1.
        -12    1    4    4    0    0 -0.44762328833E+01  0.22734440912E+02  0.35786791080E+02  0.42633154707E+02  0.00000000000E+00 0.  1.
        -13    1    3    3    0    0 -0.13300533776E+02  0.16950221866E+02  0.39562629667E+02  0.45049038682E+02  0.00000000000E+00 0. -1.
         13    1    3    3    0    0  0.39697734015E+01 -0.47136636389E+02 -0.16977598921E+02  0.50257939234E+02  0.00000000000E+00 0.  1.
          2    1    1    2  501    0 -0.14045142865E+02  0.42880563037E+02 -0.10358216967E+02  0.46295803084E+02  0.00000000000E+00 0. -1.
<scales pt_clust_5="13000.00000" pt_clust_6="13000.00000" pt_clust_7="13000.00000" pt_clust_8="13000.00000" pt_clust_9="45.12218"></scales>
<clustering>
<clus scale="   45.122">  1  9  2 -1</clus>
<clus scale="   63.308">  5  6 -1 -1</clus>
<clus scale="   66.499">  1  5  2 -1</clus>
<clus scale="   87.035">  7  8 -1 -1</clus>
<clus scale="   45.122">  1  5  2 -1</clus>
</clustering>
</event>
<event>
 9    1  0.4731329E-005  0.1435244E+03  0.7546771E-02  0.1210981E+00
         21   -1    0    0  501  502  0.00000000000E+00  0.00000000000E+00  0.45084597753E+02  0.45084597753E+02  0.00000000000E+00 0. -1.
         -4   -1    0    0    0  501 -0.00000000000E+00 -0.00000000000E+00 -0.64437231242E+03  0.64437231242E+03  0.00000000000E+00 0.  1.
        -24    2    1    2    0    0  0.72140244725E+02  0.72490776645E+02 -0.34822881275E+03  0.37202183728E+03  0.81717891414E+02 0.  0.
         23    2    1    2    0    0 -0.84301787458E+02 -0.88752097267E+02 -0.25406894043E+03  0.29690718938E+03  0.92839250715E+02 0.  0.
         11    1    3    3    0    0  0.68658303790E+02  0.78972844383E+02 -0.22039775141E+03  0.24397918283E+03  0.00000000000E+00 0. -1.
        -12    1    3    3    0    0  0.34819409347E+01 -0.64820677385E+01 -0.12783106134E+03  0.12804265444E+03  0.00000000000E+00 0.  1.
        -11    1    4    4    0    0 -0.28569683878E+02 -0.42565530513E+02 -0.20025276424E+03  0.20671047581E+03  0.00000000000E+00 0.  1.
         11    1    4    4    0    0 -0.55732103580E+02 -0.46186566754E+02 -0.53816176193E+02  0.90196713565E+02  0.00000000000E+00 0. -1.
         -3    1    1    2    0  502  0.12161542733E+02  0.16261320622E+02  0.30100385094E+01  0.20527883521E+02  0.00000000000E+00 0.  1.
<scales pt_clust_5="13000.00000" pt_clust_6="13000.00000" pt_clust_7="13000.00000" pt_clust_8="13000.00000" pt_clust_9="20.30600"></scales>
<clustering>
<clus scale="   20.306">  1  9  2 -1</clus>
<clus scale="   81.718">  5  6 -1 -1</clus>
<clus scale="   92.839">  7  8 -1 -1</clus>
<clus scale="  136.594">  2  5  1 -1</clus>
<clus scale="   20.306">  1  5  2 -1</clus>
</clustering>
</event>
<event>
 9    1  0.4731329E-005  0.1247227E+03  0.7546771E-02  0.1239058E+00
         -2   -1    0    0    0  501 -0.00000000000E+00  0.00000000000E+00  0.64851884018E+02  0.64851884018E+02  0.00000000000E+00 0.  1.
         21   -1    0    0  501  502  0.00000000000E+00 -0.00000000000E+00 -0.53090961509E+03  0.53090961509E+03  0.00000000000E+00 0.  1.
         23    2    1    2    0    0  0.55340601477E+02  0.55103231014E+02 -0.59314711859E+02  0.13461553451E+03  0.92217996330E+02 0.  0.
        -24    2    1    2    0    0 -0.29992383488E+02 -0.96125565162E+02 -0.14014288236E+03  0.19021978088E+03  0.80024185210E+02 0.  0.
         13    1    4    4    0    0  0.13960771964E+02 -0.78422647199E+02 -0.10183072694E+03  0.12928461508E+03  0.00000000000E+00 0. -1.
        -14    1    4    4    0    0 -0.43953155452E+02 -0.17702917963E+02 -0.38312155423E+02  0.60935165805E+02  0.00000000000E+00 0.  1.
        -13    1    3    3    0    0  0.20260359756E+02  0.15507474348E+01 -0.67114148468E+02  0.70122720424E+02  0.00000000000E+00 0.  1.
         13    1    3    3    0    0  0.35080241721E+02  0.53552483580E+02  0.77994366087E+01  0.64492814082E+02  0.00000000000E+00 0. -1.
         -1    1    1    2    0  502 -0.25348217989E+02  0.41022334148E+02 -0.26660013685E+03  0.27092618372E+03  0.00000000000E+00 0.  1.
<scales pt_clust_5="13000.00000" pt_clust_6="13000.00000" pt_clust_7="13000.00000" pt_clust_8="13000.00000" pt_clust_9="48.22203"></scales>
<clustering>
<clus scale="   48.222">  2  9  1 -1</clus>
<clus scale="   80.024">  5  6 -1 -1</clus>
<clus scale="   92.218">  7  8 -1 -1</clus>
<clus scale="  115.998">  2  5  1 -1</clus>
<clus scale="   48.222">  2  5  1 -1</clus>
</clustering>
</event>
<event>
 9    1  0.4731329E-005  0.9123656E+02  0.7546771E-02  0.1305078E+00
          1   -1    0    0  502    0 -0.00000000000E+00  0.00000000000E+00  0.74790945062E+02  0.74790945062E+02  0.00000000000E+00 0. -1.
         21   -1    0    0  501  502  0.00000000000E+00 -0.00000000000E+00 -0.20652779961E+03  0.20652779961E+03  0.00000000000E+00 0.  1.
         23    2    1    2    0    0  0.55218246345E+01  0.10815941671E+02  0.12687627587E+02  0.91224185760E+02  0.89517601801E+02 0.  0.
        -24    2    1    2    0    0 -0.37809693853E+02 -0.10880257805E+02 -0.93842775076E+02  0.13008606181E+03  0.81042976775E+02 0.  0.
         11    1    4    4    0    0  0.21525029562E+02  0.12991436632E+02 -0.35604774386E+02  0.43586744344E+02  0.00000000000E+00 0. -1.
        -12    1    4    4    0    0 -0.59334723415E+02 -0.23871694437E+02 -0.58238000691E+02  0.86499317468E+02  0.00000000000E+00 0.  1.
        -11    1    3    3    0    0 -0.28887463705E+02 -0.25673430899E+02 -0.27571396863E+01  0.38745482739E+02  0.00000000000E+00 0.  1.
         11    1    3    3    0    0  0.34409288340E+02  0.36489372570E+02  0.15444767274E+02  0.52478703021E+02  0.00000000000E+00 0. -1.
          2    1    1    2  501    0  0.32287869219E+02  0.64316133377E-01 -0.50581707059E+02  0.60008497100E+02  0.00000000000E+00 0. -1.
<scales pt_clust_5="13000.00000" pt_clust_6="13000.00000" pt_clust_7="13000.00000" pt_clust_8="13000.00000" pt_clust_9="32.28793"></scales>
<clustering>
<clus scale="   32.288">  2  9  1 -1</clus>
<clus scale="   81.043">  5  6 -1 -1</clus>
<clus scale="   82.938">  2  5  1 -1</clus>
<clus scale="   89.518">  7  8 -1 -1</clus>
<clus scale="   32.288">  2  5  1 -1</clus>
</clustering>
</event>
<event>
 9    1  0.4731329E-005  0.9770687E+02  0.7546771E-02  0.1291929E+00
         21   -1    0    0  501  502  0.00000000000E+00  0.00000000000E+00  0.36041985091E+03  0.36041985091E+03  0.00000000000E+00 0.  1.
         -4   -1    0    0    0  501 -0.00000000000E+00 -0.00000000000E+00 -0.46399481208E+02  0.46399481208E+02  0.00000000000E+00 0.  1.
        -24    2    1    2    0    0  0.23319912153E+02 -0.65651793637E+01  0.61268809060E+02  0.10450435837E+03  0.81119504873E+02 0.  0.
         23    2    1    2    0    0 -0.34976068906E+02 -0.47582537242E+02  0.16620067336E+03  0.19955847862E+03  0.93346126406E+02 0.  0.
         13    1    3    3    0    0  0.45374749255E+02  0.77436833392E+01  0.63151705137E+02  0.78147107198E+02  0.00000000000E+00 0. -1.
        -14    1    3    3    0    0 -0.22054837103E+02 -0.14308862703E+02 -0.18828960773E+01  0.26357251168E+02  0.00000000000E+00 0.  1.
        -13    1    4    4    0    0  0.25470379256E+02 -0.37336632731E+02  0.45243873504E+02  0.63951328780E+02  0.00000000000E+00 0. -1.
         13    1    4    4    0    0 -0.60446448162E+02 -0.10245904511E+02  0.12095679986E+03  0.13560714984E+03  0.00000000000E+00 0.  1.
         -3    1    1    2    0  502  0.11656156753E+02  0.54147716605E+02  0.86550887282E+02  0.10275649514E+03  0.00000000000E+00 0.  1.
<scales pt_clust_5="13000.00000" pt_clust_6="13000.00000" pt_clust_7="13000.00000" pt_clust_8="13000.00000" pt_clust_9="55.38810"></scales>
<clustering>
<clus scale="   55.388">  1  9  2 -1</clus>
<clus scale="   81.120">  5  6 -1 -1</clus>
<clus scale="   86.102">  2  5  1 -1</clus>
<clus scale="   93.346">  7  8 -1 -1</clus>
<clus scale="   55.388">  1  5  2 -1</clus>
</clustering>
</event>
<event>
 9    1  0.4731329E-005  0.1004518E+03  0.7546771E-02  0.1287148E+00
         21   -1    0    0  501  502  0.00000000000E+00  0.00000000000E+00  0.26270233431E+03  0.26270233431E+03  0.00000000000E+00 0. -1.
          3   -1    0    0  502    0 -0.00000000000E+00 -0.00000000000E+00 -0.12336950043E+03  0.12336950043E+03  0.00000000000E+00 0. -1.
         23    2    1    2    0    0 -0.36924648061E+02  0.73386453840E+01 -0.80433480072E+02  0.12963638513E+03  0.94439198870E+02 0.  0.
        -24    2    1    2    0    0  0.15404195040E+02  0.31739877041E+02  0.15508150163E+03  0.17785818980E+03  0.79615039488E+02 0.  0.
         13    1    4    4    0    0 -0.31568069247E+02  0.17014766764E+02  0.47214399247E+02  0.59289499748E+02  0.00000000000E+00 0. -1.
        -14    1    4    4    0    0  0.46972264287E+02  0.14725110278E+02  0.10786710238E+03  0.11856869006E+03  0.00000000000E+00 0.  1.
        -11    1    3    3    0    0 -0.15129030187E+02 -0.42122461292E+02 -0.21444449415E+02  0.49629161895E+02  0.00000000000E+00 0.  1.
         11    1    3    3    0    0 -0.21795617874E+02  0.49461106676E+02 -0.58989030657E+02  0.80007223237E+02  0.00000000000E+00 0. -1.
          4    1    1    2  501    0  0.21520453021E+02 -0.39078522425E+02  0.64684812327E+02  0.78577259808E+02  0.00000000000E+00 0. -1.
<scales pt_clust_5="13000.00000" pt_clust_6="13000.00000" pt_clust_7="13000.00000" pt_clust_8="13000.00000" pt_clust_9="44.61234"></scales>
<clustering>
<clus scale="   44.612">  1  9  2 -1</clus>
<clus scale="   79.615">  5  6 -1 -1</clus>
<clus scale="   86.662">  1  5  2 -1</clus>
<clus scale="   94.439">  7  8 -1 -1</clus>
<clus scale="   44.612">  1  5  2 -1</clus>
</clustering>
</event>
<event>
 9    1  0.4731329E-005  0.2742135E+03  0.7546771E-02  0.1098892E+00
         21   -1    0    0  501  502  0.00000000000E+00  0.00000000000E+00  0.14600005249E+03  0.14600005249E+03  0.00000000000E+00 0.  1.
          1   -1    0    0  502    0 -0.00000000000E+00 -0.00000000000E+00 -0.40915371867E+03  0.40915371867E+03  0.00000000000E+00 0. -1.
        -24    2    1    2    0    0  0.10760622692E+03 -0.55842234769E+02 -0.15638089646E+02  0.14609559573E+03  0.80011986519E+02 0.  0.
         23    2    1    2    0    0  0.18304790382E+02 -0.81890996145E+02 -0.47078335392E+02  0.13519851281E+03  0.94979300909E+02 0.  0.
         11    1    3    3    0    0  0.27493581283E+02  0.17279044936E+02 -0.18916617148E+02  0.37580590868E+02  0.00000000000E+00 0. -1.
        -12    1    3    3    0    0  0.80112645638E+02 -0.73121279705E+02  0.32785275022E+01  0.10851500486E+03  0.00000000000E+00 0.  1.
        -13    1    4    4    0    0  0.20339198554E+02 -0.53186190779E+01  0.23154695381E+02  0.31274760190E+02  0.00000000000E+00 0.  1.
         13    1    4    4    0    0 -0.20344081720E+01 -0.76572377067E+02 -0.70233030774E+02  0.10392375262E+03  0.00000000000E+00 0. -1.
          2    1    1    2  501    0 -0.12591101730E+03  0.13773323091E+03 -0.20043724115E+03  0.27385966263E+03  0.00000000000E+00 0. -1.
<scales pt_clust_5="13000.00000" pt_clust_6="13000.00000" pt_clust_7="13000.00000" pt_clust_8="13000.00000" pt_clust_9="186.61206"></scales>
<clustering>
<clus scale="   80.012">  5  6 -1 -1</clus>
<clus scale="   94.979">  7  8 -1 -1</clus>
<clus scale="  120.444">  5  7 -1 -1</clus>
<clus scale="  186.612">  1  9  2 -1</clus>
<clus scale="  186.612">  1  5  2 -1</clus>
</clustering>
</event>
<event>
 9    1  0.4731329E-005  0.1313210E+03  0.7546771E-02  0.1227562E+00
         21   -1    0    0  501  502  0.00000000000E+00  0.00000000000E+00  0.59654752270E+02  0.59654752270E+02  0.00000000000E+00 0. -1.
          1   -1    0    0  502    0 -0.00000000000E+00 -0.00000000000E+00 -0.44370330581E+03  0.44370330581E+03  0.00000000000E+00 0. -1.
         23    2    1    2    0    0 -0.30451562841E+02  0.81790081954E+02 -0.20660598276E+03  0.24128453838E+03  0.88967865913E+02 0.  0.
        -24    2    1    2    0    0  0.71116417186E+02 -0.87680656292E+02 -0.17143579388E+03  0.22054749637E+03  0.80656831385E+02 0.  0.
         13    1    4    4    0    0  0.74023561969E+02 -0.87212468907E+02 -0.10888880637E+03  0.15793123381E+03  0.00000000000E+00 0. -1.
        -14    1    4    4    0    0 -0.29071447830E+01 -0.46818738541E+00 -0.62546987512E+02  0.62616262560E+02  0.00000000000E+00 0.  1.
        -11    1    3    3    0    0 -0.37414044918E+02  0.24090750360E+02 -0.25955840299E+02  0.51515829176E+02  0.00000000000E+00 0.  1.
         11    1    3    3    0    0  0.69624820775E+01  0.57699331594E+02 -0.18065014246E+03  0.18976870921E+03  0.00000000000E+00 0. -1.
          2    1    1    2  501    0 -0.40664854345E+02  0.58905743387E+01 -0.60067769002E+01  0.41526023331E+02  0.00000000000E+00 0. -1.
<scales pt_clust_5="13000.00000" pt_clust_6="13000.00000" pt_clust_7="13000.00000" pt_clust_8="13000.00000" pt_clust_9="41.08928"></scales>
<clustering>
<clus scale="   41.089">  1  9  2 -1</clus>
<clus scale="   80.657">  5  6 -1 -1</clus>
<clus scale="   88.968">  7  8 -1 -1</clus>
<clus scale="  125.839">  1  5  2 -1</clus>
<clus scale="   41.089">  1  5  2 -1</clus>
</clustering>
</event>
<event>
 9    1  0.4731329E-005  0.4508741E+03  0.7546771E-02  0.1027641E+00
         21   -1    0    0  501  502  0.00000000000E+00  0.00000000000E+00  0.11006893784E+03  0.11006893784E+03  0.00000000000E+00 0.  1.
          1   -1    0    0  502    0 -0.00000000000E+00 -0.00000000000E+00 -0.21976862648E+04  0.21976862648E+04  0.00000000000E+00 0. -1.
         23    2    1    2    0    0 -0.89918819195E+02  0.41731992722E+03 -0.11219540681E+04  0.12038577329E+04  0.90836085171E+02 0.  0.
        -24    2    1    2    0    0  0.50064618909E+02 -0.46111207670E+03 -0.89992200090E+03  0.10154213564E+04  0.78039156794E+02 0.  0.
         11    1    4    4    0    0  0.59618201132E+02 -0.31727017004E+03 -0.67569583112E+03  0.74885215290E+03  0.00000000000E+00 0. -1.
        -12    1    4    4    0    0 -0.95535822230E+01 -0.14384190666E+03 -0.22422616978E+03  0.26656920351E+03  0.00000000000E+00 0.  1.
        -13    1    3    3    0    0 -0.74396033481E+02  0.14793618050E+03 -0.38709544008E+03  0.42102584604E+03  0.00000000000E+00 0.  1.
         13    1    3    3    0    0 -0.15522785714E+02  0.26938374672E+03 -0.73485862805E+03  0.78283188686E+03  0.00000000000E+00 0. -1.
          2    1    1    2  501    0  0.39854200287E+02  0.43792149484E+02 -0.65741257889E+02  0.88476113306E+02  0.00000000000E+00 0. -1.
<scales pt_clust_5="13000.00000" pt_clust_6="13000.00000" pt_clust_7="13000.00000" pt_clust_8="13000.00000" pt_clust_9="59.21241"></scales>
<clustering>
<clus scale="   59.212">  1  9  2 -1</clus>
<clus scale="   78.039">  5  6 -1 -1</clus>
<clus scale="   90.836">  7  8 -1 -1</clus>
<clus scale="  448.471">  1  5  2 -1</clus>
<clus scale="   59.212">  1  5  2 -1</clus>
</clustering>
</event>
<event>
 9    1  0.4731329E-005  0.9495275E+02  0.7546771E-02  0.1296078E+00
         21   -1    0    0  501  502  0.00000000000E+00  0.00000000000E+00  0.77190164645E+02  0.77190164645E+02  0.00000000000E+00 0. -1.
          1   -1    0    0  502    0 -0.00000000000E+00 -0.00000000000E+00 -0.33948226439E+03  0.33948226439E+03  0.00000000000E+00 0. -1.
         23    2    1    2    0    0 -0.10612442208E+02  0.12249815845E+02 -0.14164657095E+03  0.16957627113E+03  0.91813281989E+02 0.  0.
        -24    2    1    2    0    0 -0.62035110560E+02 -0.59829135498E+02 -0.29773728225E+02  0.12140151713E+03  0.80149691652E+02 0.  0.
         13    1    4    4    0    0 -0.74977517845E+02 -0.61009083945E+02 -0.92439696390E+01  0.97104003423E+02  0.00000000000E+00 0. -1.
        -14    1    4    4    0    0  0.12942407285E+02  0.11799484468E+01 -0.20529758586E+02  0.24297513705E+02  0.00000000000E+00 0.  1.
        -11    1    3    3    0    0 -0.47828991525E+02 -0.94659147875E+01 -0.89610322658E+02  0.10201581201E+03  0.00000000000E+00 0.  1.
         11    1    3    3    0    0  0.37216549317E+02  0.21715730632E+02 -0.52036248297E+02  0.67560459122E+02  0.00000000000E+00 0. -1.
          2    1    1    2  501    0  0.72647552768E+02  0.47579319653E+02 -0.90871800565E+02  0.12569464078E+03  0.00000000000E+00 0. -1.
<scales pt_clust_5="13000.00000" pt_clust_6="13000.00000" pt_clust_7="13000.00000" pt_clust_8="13000.00000" pt_clust_9="86.84162"></scales>
<clustering>
<clus scale="   80.150">  5  6 -1 -1</clus>
<clus scale="   86.842">  1  9  2 -1</clus>
<clus scale="   86.842">  1  5  2 -1</clus>
<clus scale="   91.813">  7  8 -1 -1</clus>
<clus scale="   86.842">  1  5  2 -1</clus>
</clustering>
</event>
<event>
 9    1  0.4731329E-005  0.1357631E+03  0.7546771E-02  0.1221784E+00
         21   -1    0    0  501  502  0.00000000000E+00  0.00000000000E+00  0.60302927374E+02  0.60302927374E+02  0.00000000000E+00 0. -1.
          1   -1    0    0  502    0 -0.00000000000E+00 -0.00000000000E+00 -0.43368264971E+03  0.43368264971E+03  0.00000000000E+00 0. -1.
         23    2    1    2    0    0 -0.54110821481E+01  0.10353614217E+03 -0.22885719139E+03  0.26718609522E+03  0.90905351236E+02 0.  0.
        -24    2    1    2    0    0 -0.15095101256E+02 -0.95212166607E+02 -0.58573103399E+02  0.13804647503E+03  0.79578904700E+02 0.  0.
         13    1    4    4    0    0 -0.36284049243E+02 -0.97165632683E+02 -0.49107764350E+02  0.11475741773E+03  0.00000000000E+00 0. -1.
        -14    1    4    4    0    0  0.21188947987E+02  0.19534660762E+01 -0.94653390487E+01  0.23289057298E+02  0.00000000000E+00 0.  1.
        -11    1    3    3    0    0  0.19096090608E+02  0.72534127792E+02 -0.66994502556E+02  0.10056899991E+03  0.00000000000E+00 0. -1.
         11    1    3    3    0    0 -0.24507172756E+02  0.31002014375E+02 -0.16186268883E+03  0.16661709530E+03  0.00000000000E+00 0.  1.
          2    1    1    2  501    0  0.20506183404E+02 -0.83239755598E+01 -0.85949427550E+02  0.88753006839E+02  0.00000000000E+00 0. -1.
<scales pt_clust_5="13000.00000" pt_clust_6="13000.00000" pt_clust_7="13000.00000" pt_clust_8="13000.00000" pt_clust_9="22.13126"></scales>
<clustering>
<clus scale="   22.131">  1  9  2 -1</clus>
<clus scale="   79.579">  5  6 -1 -1</clus>
<clus scale="   90.905">  7  8 -1 -1</clus>
<clus scale="  128.455">  1  5  2 -1</clus>
<clus scale="   22.131">  1  5  2 -1</clus>
</clustering>
</event>
<event>
 9    1  0.4731329E-005  0.9956906E+02  0.7546771E-02  0.1285552E+00
          1   -1    0    0  502    0 -0.00000000000E+00  0.00000000000E+00  0.81875542267E+03  0.81875542267E+03  0.00000000000E+00 0. -1.
         21   -1    0    0  501  502  0.00000000000E+00 -0.00000000000E+00 -0.62504725100E+02  0.62504725100E+02  0.00000000000E+00 0. -1.
        -24    2    1    2    0    0 -0.52456548303E+02 -0.10249570644E+02  0.65739492728E+03  0.66428423002E+03  0.79048748700E+02 0.  0.
         23    2    1    2    0    0  0.19585318461E+02 -0.24139752357E+02  0.13004024568E+03  0.16009345303E+03  0.88051893009E+02 0.  0.
         11    1    3    3    0    0 -0.52946561956E+02  0.49580197845E+01  0.20992958962E+03  0.21656027563E+03  0.00000000000E+00 0. -1.
        -12    1    3    3    0    0  0.49001365301E+00 -0.15207590429E+02  0.44746533766E+03  0.44772395438E+03  0.00000000000E+00 0.  1.
        -11    1    4    4    0    0  0.66259925646E+01  0.18936912997E+02  0.10827995446E+03  0.11012292672E+03  0.00000000000E+00 0.  1.
         11    1    4    4    0    0  0.12959325896E+02 -0.43076665354E+02  0.21760291224E+02  0.49970526312E+02  0.00000000000E+00 0. -1.
          2    1    1    2  501    0  0.32871229842E+02  0.34389323001E+02 -0.31184475394E+02  0.56882464727E+02  0.00000000000E+00 0. -1.
<scales pt_clust_5="13000.00000" pt_clust_6="13000.00000" pt_clust_7="13000.00000" pt_clust_8="13000.00000" pt_clust_9="47.57251"></scales>
<clustering>
<clus scale="   47.573">  2  9  1 -1</clus>
<clus scale="   79.049">  5  6 -1 -1</clus>
<clus scale="   88.052">  7  8 -1 -1</clus>
<clus scale="   91.704">  1  5  2 -1</clus>
<clus scale="   47.573">  2  5  1 -1</clus>
</clustering>
</event>
<event>
 9    1  0.4731329E-005  0.1754424E+03  0.7546771E-02  0.1190808E+00
          1   -1    0    0  502    0 -0.00000000000E+00  0.00000000000E+00  0.13138035753E+03  0.13138035753E+03  0.00000000000E+00 0. -1.
         21   -1    0    0  501  502  0.00000000000E+00 -0.00000000000E+00 -0.38345335831E+03  0.38345335831E+03  0.00000000000E+00 0.  1.
         23    2    1    2    0    0 -0.16296351299E+02 -0.72430650239E+02 -0.63404338266E+02  0.13204519966E+03  0.88904749491E+02 0.  0.
        -24    2    1    2    0    0 -0.91387096292E+02  0.14139167764E+03 -0.15970371884E+03  0.25167667024E+03  0.97430286122E+02 0.  0.
         13    1    4    4    0    0  0.17714064859E+02  0.11790391028E+02 -0.41413245332E+01  0.21678375938E+02  0.00000000000E+00 0. -1.
        -14    1    4    4    0    0 -0.10910116115E+03  0.12960128661E+03 -0.15556239431E+03  0.22999829430E+03  0.00000000000E+00 0.  1.
        -11    1    3    3    0    0 -0.11896946565E+02  0.17228287315E+02  0.19213541110E+01  0.21024814458E+02  0.00000000000E+00 0.  1.
         11    1    3    3    0    0 -0.43994047336E+01 -0.89658937554E+02 -0.65325692377E+02  0.11102038520E+03  0.00000000000E+00 0. -1.
          2    1    1    2  501    0  0.10768344759E+03 -0.68961027401E+02 -0.28964943677E+02  0.13111184595E+03  0.00000000000E+00 0. -1.
<scales pt_clust_5="13000.00000" pt_clust_6="13000.00000" pt_clust_7="13000.00000" pt_clust_8="13000.00000" pt_clust_9="145.90200"></scales>
<clustering>
<clus scale="   88.905">  7  8 -1 -1</clus>
<clus scale="   97.430">  5  6 -1 -1</clus>
<clus scale="  115.827">  1  7  2 -1</clus>
<clus scale="  145.902">  2  9  1 -1</clus>
<clus scale="  145.902">  2  5  1 -1</clus>
</clustering>
</event>
<event>
 9    1  0.4731329E-005  0.1303273E+03  0.7546771E-02  0.1228739E+00
         21   -1    0    0  501  502  0.00000000000E+00  0.00000000000E+00  0.11357973685E+03  0.11357973685E+03  0.00000000000E+00 0. -1.
          1   -1    0    0  502    0 -0.00000000000E+00 -0.00000000000E+00 -0.33609007583E+03  0.33609007583E+03  0.00000000000E+00 0. -1.
        -24    2    1    2    0    0 -0.26701092615E+02  0.91613085970E+02 -0.23097552110E+03  0.26434728418E+03  0.86161995317E+02 0.  0.
         23    2    1    2    0    0  0.49479723244E+02 -0.57984723398E+02  0.47307377760E+02  0.12912244892E+03  0.92866289175E+02 0.  0.
         11    1    3    3    0    0 -0.37940332952E+02  0.93316233448E+02 -0.23200794489E+03  0.25293294523E+03  0.00000000000E+00 0. -1.
        -12    1    3    3    0    0  0.11239240337E+02 -0.17031474772E+01  0.10324237955E+01  0.11414338946E+02  0.00000000000E+00 0.  1.
        -11    1    4    4    0    0 -0.26608499800E+02 -0.79317649939E+01  0.19384725130E+02  0.33862851710E+02  0.00000000000E+00 0.  1.
         11    1    4    4    0    0  0.76088223045E+02 -0.50052958404E+02  0.27922652630E+02  0.95259597212E+02  0.00000000000E+00 0. -1.
          2    1    1    2  501    0 -0.22778630629E+02 -0.33628362573E+02 -0.38842195638E+02  0.56200079579E+02  0.00000000000E+00 0. -1.
<scales pt_clust_5="13000.00000" pt_clust_6="13000.00000" pt_clust_7="13000.00000" pt_clust_8="13000.00000" pt_clust_9="40.61692"></scales>
<clustering>
<clus scale="   40.617">  1  9  2 -1</clus>
<clus scale="   86.162">  5  6 -1 -1</clus>
<clus scale="   92.866">  7  8 -1 -1</clus>
<clus scale="  125.638">  2  5  1 -1</clus>
<clus scale="   40.617">  1  5  2 -1</clus>
</clustering>
</event>
<event>
 9    1  0.4731329E-005  0.9683134E+02  0.7546771E-02  0.1302031E+00
         21   -1    0    0  501  502  0.00000000000E+00  0.00000000000E+00  0.21389306166E+03  0.21389306166E+03  0.00000000000E+00 0.  1.
         -2   -1    0    0    0  501 -0.00000000000E+00 -0.00000000000E+00 -0.70105509157E+02  0.70105509157E+02  0.00000000000E+00 0.  1.
         23    2    1    2    0    0 -0.36287864291E+02  0.20502301426E+02 -0.74615927384E+01  0.98441786788E+02  0.88870448189E+02 0.  0.
        -24    2    1    2    0    0  0.34175598720E+02  0.66692573036E+01  0.13759220585E+03  0.15507289872E+03  0.62478302366E+02 0.  0.
         13    1    4    4    0    0  0.18444795447E+02  0.29031372822E+02  0.35688387134E+02  0.49565028632E+02  0.00000000000E+00 0. -1.
        -14    1    4    4    0    0  0.15730803273E+02 -0.22362115519E+02  0.10190381872E+03  0.10550787009E+03  0.00000000000E+00 0.  1.
        -11    1    3    3    0    0 -0.22676084744E+02 -0.14712798367E+02 -0.40218218962E+02  0.48457985839E+02  0.00000000000E+00 0.  1.
         11    1    3    3    0    0 -0.13611779547E+02  0.35215099793E+02  0.32756626223E+02  0.49983800950E+02  0.00000000000E+00 0. -1.
         -1    1    1    2    0  502  0.21122655707E+01 -0.27171558730E+02  0.13656939386E+02  0.30483885301E+02  0.00000000000E+00 0.  1.
<scales pt_clust_5="13000.00000" pt_clust_6="13000.00000" pt_clust_7="13000.00000" pt_clust_8="13000.00000" pt_clust_9="27.25355"></scales>
<clustering>
<clus scale="   27.254">  1  9  2 -1</clus>
<clus scale="   62.478">  5  6 -1 -1</clus>
<clus scale="   73.361">  1  5  2 -1</clus>
<clus scale="   88.870">  7  8 -1 -1</clus>
<clus scale="   27.254">  1  5  2 -1</clus>
</clustering>
</event>
<event>
 9    1  0.4731329E-005  0.1216252E+03  0.7546771E-02  0.1242133E+00
         -2   -1    0    0    0  501 -0.00000000000E+00  0.00000000000E+00  0.90195787582E+02  0.90195787582E+02  0.00000000000E+00 0.  1.
         21   -1    0    0  501  502  0.00000000000E+00 -0.00000000000E+00 -0.33598921242E+03  0.33598921242E+03  0.00000000000E+00 0. -1.
         23    2    1    2    0    0 -0.88080676690E+02 -0.98043782366E+01  0.12971054218E+02  0.12432417819E+03  0.86220192511E+02 0.  0.
        -24    2    1    2    0    0  0.78926966497E+02 -0.11169889268E+02 -0.13574279542E+03  0.17672871181E+03  0.80328691041E+02 0.  0.
         13    1    4    4    0    0  0.85498075411E+02  0.14093970057E+02 -0.11041137941E+03  0.14035395824E+03  0.00000000000E+00 0. -1.
        -14    1    4    4    0    0 -0.65711089142E+01 -0.25263859325E+02 -0.25331416012E+02  0.36374753574E+02  0.00000000000E+00 0.  1.
        -13    1    3    3    0    0  0.29933909277E+01 -0.22550795088E+02 -0.16108388643E+02  0.27874341840E+02  0.00000000000E+00 0. -1.
         13    1    3    3    0    0 -0.91074067618E+02  0.12746416851E+02  0.29079442861E+02  0.96449836351E+02  0.00000000000E+00 0.  1.
         -1    1    1    2    0  502  0.91537101932E+01  0.20974267505E+02 -0.12302168363E+03  0.12513211000E+03  0.00000000000E+00 0.  1.
<scales pt_clust_5="13000.00000" pt_clust_6="13000.00000" pt_clust_7="13000.00000" pt_clust_8="13000.00000" pt_clust_9="22.88472"></scales>
<clustering>
<clus scale="   22.885">  2  9  1 -1</clus>
<clus scale="   80.329">  5  6 -1 -1</clus>
<clus scale="   86.220">  7  8 -1 -1</clus>
<clus scale="  117.522">  2  5  1 -1</clus>
<clus scale="   22.885">  2  5  1 -1</clus>
</clustering>
</event>
<event>
 9    1  0.4731329E-005  0.9840048E+02  0.7546771E-02  0.1294640E+00
         -4   -1    0    0    0  501 -0.00000000000E+00  0.00000000000E+00  0.33462046071E+03  0.33462046071E+03  0.00000000000E+00 0.  1.
         21   -1    0    0  501  502  0.00000000000E+00 -0.00000000000E+00 -0.44962484412E+02  0.44962484412E+02  0.00000000000E+00 0.  1.
         23    2    1    2    0    0 -0.78416675279E+01 -0.51927082773E-01  0.18859048362E+03  0.21264163682E+03  0.97921400883E+02 0.  0.
        -24    2    1    2    0    0 -0.32278989565E+02  0.13112684641E+02  0.85767907909E+02  0.12206004486E+03  0.79552780338E+02 0.  0.
         11    1    4    4    0    0 -0.33636254108E+02  0.39432184813E+02  0.79611194040E+02  0.94995984157E+02  0.00000000000E+00 0. -1.
        -12    1    4    4    0    0  0.13572645426E+01 -0.26319500172E+02  0.61567138695E+01  0.27064060708E+02  0.00000000000E+00 0.  1.
        -11    1    3    3    0    0 -0.21610962929E+00 -0.48829124579E+02  0.90913867718E+02  0.10319719693E+03  0.00000000000E+00 0. -1.
         11    1    3    3    0    0 -0.76255578986E+01  0.48777197496E+02  0.97676615903E+02  0.10944443989E+03  0.00000000000E+00 0.  1.
         -3    1    1    2    0  502  0.40120657093E+02 -0.13060757558E+02  0.15299584766E+02  0.44881263436E+02  0.00000000000E+00 0.  1.
<scales pt_clust_5="13000.00000" pt_clust_6="13000.00000" pt_clust_7="13000.00000" pt_clust_8="13000.00000" pt_clust_9="42.19301"></scales>
<clustering>
<clus scale="   42.193">  2  9  1 -1</clus>
<clus scale="   79.553">  5  6 -1 -1</clus>
<clus scale="   80.142">  2  5  1 -1</clus>
<clus scale="   97.921">  7  8 -1 -1</clus>
<clus scale="   42.193">  2  5  1 -1</clus>
</clustering>
</event>
<event>
 9    1  0.4731329E-005  0.3300149E+03  0.7546771E-02  0.1071130E+00
          1   -1    0    0  502    0 -0.00000000000E+00  0.00000000000E+00  0.58024257958E+03  0.58024257958E+03  0.00000000000E+00 0. -1.
         21   -1    0    0  501  502  0.00000000000E+00 -0.00000000000E+00 -0.15199040991E+03  0.15199040991E+03  0.00000000000E+00 0. -1.
        -24    2    1    2    0    0 -0.11690279135E+03  0.18330935999E+03  0.83200112934E+02  0.24624699528E+03  0.80291592385E+02 0.  0.
         23    2    1    2    0    0 -0.30388098848E+02  0.61110501926E+01  0.60299177958E+02  0.11361668814E+03  0.91170057995E+02 0.  0.
         11    1    3    3    0    0 -0.11098517133E+03  0.12011114473E+03  0.36814023437E+02  0.16762955486E+03  0.00000000000E+00 0. -1.
        -12    1    3    3    0    0 -0.59176200249E+01  0.63198215263E+02  0.46386089497E+02  0.78617440419E+02  0.00000000000E+00 0.  1.
        -13    1    4    4    0    0  0.11681298384E+02  0.37090120603E+02  0.80152243360E+01  0.39703571620E+02  0.00000000000E+00 0. -1.
         13    1    4    4    0    0 -0.42069397232E+02 -0.30979070410E+02  0.52283953622E+02  0.73913116517E+02  0.00000000000E+00 0.  1.
          2    1    1    2  501    0  0.14729089020E+03 -0.18942041018E+03  0.28475287877E+03  0.37236930607E+03  0.00000000000E+00 0. -1.
<scales pt_clust_5="13000.00000" pt_clust_6="13000.00000" pt_clust_7="13000.00000" pt_clust_8="13000.00000" pt_clust_9="239.94740"></scales>
<clustering>
<clus scale="   80.292">  5  6 -1 -1</clus>
<clus scale="   91.170">  7  8 -1 -1</clus>
<clus scale="   94.393">  5  7 -1 -1</clus>
<clus scale="  239.947">  2  9  1 -1</clus>
<clus scale="  239.947">  2  5  1 -1</clus>
</clustering>
</event>
<event>
 9    1  0.4731329E-005  0.9698137E+02  0.7546771E-02  0.1292487E+00
         21   -1    0    0  501  502  0.00000000000E+00  0.00000000000E+00  0.44275586075E+02  0.44275586075E+02  0.00000000000E+00 0. -1.
          1   -1    0    0  502    0 -0.00000000000E+00 -0.00000000000E+00 -0.36279578568E+03  0.36279578568E+03  0.00000000000E+00 0. -1.
        -24    2    1    2    0    0 -0.33311011251E+02 -0.32622686250E+02 -0.16930341278E+03  0.19313870639E+03  0.80405542084E+02 0.  0.
         23    2    1    2    0    0  0.22428219191E+02 -0.19194550157E+02 -0.69501334207E+02  0.11823514953E+03  0.90981642957E+02 0.  0.
         11    1    3    3    0    0 -0.32341713963E+02 -0.13761200361E+02 -0.17062372568E+03  0.17420623657E+03  0.00000000000E+00 0. -1.
        -12    1    3    3    0    0 -0.96929728835E+00 -0.18861485890E+02  0.13203128954E+01  0.18932469816E+02  0.00000000000E+00 0.  1.
        -13    1    4    4    0    0 -0.26752848016E+02 -0.23457234428E+02 -0.34109458558E+01  0.35743408841E+02  0.00000000000E+00 0.  1.
         13    1    4    4    0    0  0.49181067207E+02  0.42626842705E+01 -0.66090388351E+02  0.82491740685E+02  0.00000000000E+00 0. -1.
          2    1    1    2  501    0  0.10882792060E+02  0.51817236408E+02 -0.79715452617E+02  0.95697515840E+02  0.00000000000E+00 0. -1.
<scales pt_clust_5="13000.00000" pt_clust_6="13000.00000" pt_clust_7="13000.00000" pt_clust_8="13000.00000" pt_clust_9="52.94775"></scales>
<clustering>
<clus scale="   52.948">  1  9  2 -1</clus>
<clus scale="   80.406">  5  6 -1 -1</clus>
<clus scale="   87.137">  2  5  1 -1</clus>
<clus scale="   90.982">  7  8 -1 -1</clus>
<clus scale="   52.948">  1  5  2 -1</clus>
</clustering>
</event>
<event>
 9    1  0.4731329E-005  0.1005738E+03  0.7546771E-02  0.1285335E+00
          1   -1    0    0  502    0 -0.00000000000E+00  0.00000000000E+00  0.36128008786E+03  0.36128008786E+03  0.00000000000E+00 0. -1.
         21   -1    0    0  501  502  0.00000000000E+00 -0.00000000000E+00 -0.44430861774E+02  0.44430861774E+02  0.00000000000E+00 0. -1.
         23    2    1    2    0    0 -0.32930121782E+02 -0.90948150325E+01  0.16920691389E+03  0.19592205966E+03  0.92668037489E+02 0.  0.
        -24    2    1    2    0    0  0.38906781976E+02  0.36647101554E+02  0.51059263500E+02  0.10917510237E+03  0.80345546568E+02 0.  0.
         11    1    4    4    0    0  0.19979036846E+02  0.52787870572E+02  0.60341281285E+02  0.82624399665E+02  0.00000000000E+00 0. -1.
        -12    1    4    4    0    0  0.18927745129E+02 -0.16140769018E+02 -0.92820177858E+01  0.26550702709E+02  0.00000000000E+00 0.  1.
        -11    1    3    3    0    0 -0.68059546046E+01  0.27984070000E+02  0.13773855095E+03  0.14071722570E+03  0.00000000000E+00 0.  1.
         11    1    3    3    0    0 -0.26124167177E+02 -0.37078885032E+02  0.31468362938E+02  0.55204833954E+02  0.00000000000E+00 0. -1.
          2    1    1    2  501    0 -0.59766601935E+01 -0.27552286521E+02  0.96583048703E+02  0.10061378761E+03  0.00000000000E+00 0. -1.
<scales pt_clust_5="13000.00000" pt_clust_6="13000.00000" pt_clust_7="13000.00000" pt_clust_8="13000.00000" pt_clust_9="28.19308"></scales>
<clustering>
<clus scale="   28.193">  2  9  1 -1</clus>
<clus scale="   80.346">  5  6 -1 -1</clus>
<clus scale="   89.348">  2  5  1 -1</clus>
<clus scale="   92.668">  7  8 -1 -1</clus>
<clus scale="   28.193">  2  5  1 -1</clus>
</clustering>
</event>
<event>
 9    1  0.4731329E-005  0.1211341E+03  0.7546771E-02  0.1258545E+00
         -2   -1    0    0    0  501 -0.00000000000E+00  0.00000000000E+00  0.62422507918E+03  0.62422507918E+03  0.00000000000E+00 0.  1.
         21   -1    0    0  501  502  0.00000000000E+00 -0.00000000000E+00 -0.43491198327E+02  0.43491198327E+02  0.00000000000E+00 0.  1.
        -24    2    1    2    0    0 -0.28243111606E+02  0.89229382907E+01  0.12298017022E+03  0.14990484681E+03  0.80436612621E+02 0.  0.
         23    2    1    2    0    0 -0.71804064692E+02  0.10085039570E+01  0.12520046609E+03  0.17039276181E+03  0.90563214289E+02 0.  0.
         13    1    3    3    0    0 -0.41102626695E+02  0.36387468260E+02  0.86723000162E+02  0.10263699394E+03  0.00000000000E+00 0. -1.
        -14    1    3    3    0    0  0.12859515089E+02 -0.27464529970E+02  0.36257170054E+02  0.47267852872E+02  0.00000000000E+00 0.  1.
        -13    1    4    4    0    0 -0.21854701364E+02  0.42200163709E+02  0.33516591012E+02  0.58153621227E+02  0.00000000000E+00 0.  1.
         13    1    4    4    0    0 -0.49949363328E+02 -0.41191659752E+02  0.91683875077E+02  0.11223914058E+03  0.00000000000E+00 0. -1.
         -1    1    1    2    0  502  0.10004717630E+03 -0.99314422477E+01  0.33255324455E+03  0.34741866888E+03  0.00000000000E+00 0.  1.
<scales pt_clust_5="13000.00000" pt_clust_6="13000.00000" pt_clust_7="13000.00000" pt_clust_8="13000.00000" pt_clust_9="80.44737"></scales>
<clustering>
<clus scale="   80.437">  5  6 -1 -1</clus>
<clus scale="   85.717">  1  5  2 -1</clus>
<clus scale="   80.447">  2  9  1 -1</clus>
<clus scale="   90.563">  7  8 -1 -1</clus>
<clus scale="   80.447">  2  5  1 -1</clus>
</clustering>
</event>
<event>
 9    1  0.4731329E-005  0.1324115E+03  0.7546771E-02  0.1241781E+00
          1   -1    0    0  502    0 -0.00000000000E+00  0.00000000000E+00  0.10032805416E+04  0.10032805416E+04  0.00000000000E+00 0. -1.
         21   -1    0    0  501  502  0.00000000000E+00 -0.00000000000E+00 -0.36764895186E+02  0.36764895186E+02  0.00000000000E+00 0. -1.
         23    2    1    2    0    0 -0.13277392857E+02 -0.21330987475E+02  0.27875163748E+03  0.29345633445E+03  0.88220432129E+02 0.  0.
        -24    2    1    2    0    0 -0.97159188666E+02 -0.19602306737E+02  0.15826740216E+03  0.20415161313E+03  0.82493346299E+02 0.  0.
         13    1    4    4    0    0 -0.99816290550E+02  0.83875645083E+01  0.13174312025E+03  0.16549892093E+03  0.00000000000E+00 0. -1.
        -14    1    4    4    0    0  0.26571018841E+01 -0.27989871245E+02  0.26524281915E+02  0.38652692194E+02  0.00000000000E+00 0.  1.
        -13    1    3    3    0    0 -0.35152283813E+02  0.18632279417E+02  0.18489358787E+03  0.18912557661E+03  0.00000000000E+00 0. -1.
         13    1    3    3    0    0  0.21874890955E+02 -0.39963266892E+02  0.93858049609E+02  0.10433075784E+03  0.00000000000E+00 0.  1.
          2    1    1    2  501    0  0.11043658152E+03  0.40933294212E+02  0.52949660682E+03  0.54243748926E+03  0.00000000000E+00 0. -1.
<scales pt_clust_5="13000.00000" pt_clust_6="13000.00000" pt_clust_7="13000.00000" pt_clust_8="13000.00000" pt_clust_9="103.57449"></scales>
<clustering>
<clus scale="   82.493">  5  6 -1 -1</clus>
<clus scale="   88.220">  7  8 -1 -1</clus>
<clus scale="   91.729">  1  7  2 -1</clus>
<clus scale="  103.574">  2  9  1 -1</clus>
<clus scale="  103.574">  2  5  1 -1</clus>
</clustering>
</event>
<event>
 9    1  0.4731329E-005  0.1184414E+03  0.7546771E-02  0.1247751E+00
          1   -1    0    0  502    0 -0.00000000000E+00  0.00000000000E+00  0.12547482919E+03  0.12547482919E+03  0.00000000000E+00 0. -1.
         21   -1    0    0  501  502  0.00000000000E+00 -0.00000000000E+00 -0.20827986832E+03  0.20827986832E+03  0.00000000000E+00 0.  1.
        -24    2    1    2    0    0  0.17687573289E+02 -0.93628438590E+02 -0.45045337880E+02  0.13518779321E+03  0.84661220199E+02 0.  0.
         23    2    1    2    0    0 -0.41254995095E+02  0.43305095523E+02 -0.74504818807E+02  0.13194809395E+03  0.91005634725E+02 0.  0.
         11    1    3    3    0    0  0.36230038452E+02 -0.26208756591E+02  0.10447575315E+02  0.45920218185E+02  0.00000000000E+00 0. -1.
        -12    1    3    3    0    0 -0.18542465162E+02 -0.67419681999E+02 -0.55492913195E+02  0.89267575021E+02  0.00000000000E+00 0.  1.
        -13    1    4    4    0    0  0.15833427359E+02 -0.18585177076E+02 -0.12860619100E+02  0.27595321207E+02  0.00000000000E+00 0. -1.
         13    1    4    4    0    0 -0.57088422454E+02  0.61890272598E+02 -0.61644199707E+02  0.10435277274E+03  0.00000000000E+00 0.  1.
          2    1    1    2  501    0  0.23567421806E+02  0.50323343067E+02  0.36745117559E+02  0.66618810351E+02  0.00000000000E+00 0. -1.
<scales pt_clust_5="13000.00000" pt_clust_6="13000.00000" pt_clust_7="13000.00000" pt_clust_8="13000.00000" pt_clust_9="55.56856"></scales>
<clustering>
<clus scale="   55.569">  2  9  1 -1</clus>
<clus scale="   84.661">  5  6 -1 -1</clus>
<clus scale="   91.006">  7  8 -1 -1</clus>
<clus scale="  113.639">  1  5  2 -1</clus>
<clus scale="   55.569">  2  5  1 -1</clus>
</clustering>
</event>
<event>
 9    1  0.4731329E-005  0.1971885E+03  0.7546771E-02  0.1182685E+00
          1   -1    0    0  502    0 -0.00000000000E+00  0.00000000000E+00  0.53314357340E+03  0.53314357340E+03  0.00000000000E+00 0. -1.
         21   -1    0    0  501  502  0.00000000000E+00 -0.00000000000E+00 -0.23220126991E+03  0.23220126991E+03  0.00000000000E+00 0. -1.
         23    2    1    2    0    0  0.12730966757E+02  0.32216413606E+02  0.36625257602E+03  0.37906285764E+03  0.91365889575E+02 0.  0.
        -24    2    1    2    0    0 -0.18756259035E+03 -0.10103963090E+02 -0.51170940933E+02  0.20949121165E+03  0.77371100505E+02 0.  0.
         13    1    4    4    0    0 -0.10706304593E+03  0.14812327962E+02  0.50332946924E+01  0.10819997652E+03  0.00000000000E+00 0. -1.
        -14    1    4    4    0    0 -0.80499544418E+02 -0.24916291052E+02 -0.56204235625E+02  0.10129123513E+03  0.00000000000E+00 0.  1.
        -13    1    3    3    0    0  0.39803625389E+02 -0.11982018080E+02  0.10935748933E+03  0.11699127243E+03  0.00000000000E+00 0.  1.
         13    1    3    3    0    0 -0.27072658632E+02  0.44198431686E+02  0.25689508669E+03  0.26207158521E+03  0.00000000000E+00 0. -1.
          2    1    1    2  501    0  0.17483162359E+03 -0.22112450516E+02 -0.14139331602E+02  0.17679077401E+03  0.00000000000E+00 0. -1.
<scales pt_clust_5="13000.00000" pt_clust_6="13000.00000" pt_clust_7="13000.00000" pt_clust_8="13000.00000" pt_clust_9="181.37543"></scales>
<clustering>
<clus scale="   77.371">  5  6 -1 -1</clus>
<clus scale="   91.366">  7  8 -1 -1</clus>
<clus scale="   97.712">  1  7  2 -1</clus>
<clus scale="  181.375">  2  9  1 -1</clus>
<clus scale="  181.375">  2  5  1 -1</clus>
</clustering>
</event>
<event>
 9    1  0.4731329E-005  0.1363475E+03  0.7546771E-02  0.1233649E+00
         21   -1    0    0  501  502  0.00000000000E+00  0.00000000000E+00  0.54912571696E+02  0.54912571696E+02  0.00000000000E+00 0. -1.
          1   -1    0    0  502    0 -0.00000000000E+00 -0.00000000000E+00 -0.70578659154E+03  0.70578659154E+03  0.00000000000E+00 0. -1.
         23    2    1    2    0    0  0.82432928683E+01  0.38351515628E+02 -0.74435903388E+02  0.12399016051E+03  0.91071760511E+02 0.  0.
        -24    2    1    2    0    0 -0.10785844506E+03  0.13404488437E+02 -0.43831920820E+03  0.45872390414E+03  0.80565299394E+02 0.  0.
         11    1    4    4    0    0 -0.11632653319E+03  0.26823812251E+02 -0.39058877052E+03  0.40842498318E+03  0.00000000000E+00 0. -1.
        -12    1    4    4    0    0  0.84680881323E+01 -0.13419323814E+02 -0.47730437683E+02  0.50298920959E+02  0.00000000000E+00 0.  1.
        -13    1    3    3    0    0 -0.18305527547E+02 -0.20959945088E+02 -0.39272854531E+01  0.28104006972E+02  0.00000000000E+00 0.  1.
         13    1    3    3    0    0  0.26548820415E+02  0.59311460716E+02 -0.70508617935E+02  0.95886153541E+02  0.00000000000E+00 0. -1.
          2    1    1    2  501    0  0.99615152187E+02 -0.51756004065E+02 -0.13811890825E+03  0.17798509858E+03  0.00000000000E+00 0. -1.
<scales pt_clust_5="13000.00000" pt_clust_6="13000.00000" pt_clust_7="13000.00000" pt_clust_8="13000.00000" pt_clust_9="109.99938"></scales>
<clustering>
<clus scale="   80.565">  5  6 -1 -1</clus>
<clus scale="   91.072">  7  8 -1 -1</clus>
<clus scale="   99.161">  2  7  1 -1</clus>
<clus scale="  109.999">  1  9  2 -1</clus>
<clus scale="  109.999">  1  5  2 -1</clus>
</clustering>
</event>
<event>
 9    1  0.4731329E-005  0.2202066E+03  0.7546771E-02  0.1153597E+00
          1   -1    0    0  502    0 -0.00000000000E+00  0.00000000000E+00  0.21980158955E+03  0.21980158955E+03  0.00000000000E+00 0. -1.
         21   -1    0    0  501  502  0.00000000000E+00 -0.00000000000E+00 -0.37073148640E+03  0.37073148640E+03  0.00000000000E+00 0.  1.
        -24    2    1    2    0    0  0.10559291892E+03  0.31727052259E+02 -0.26665026953E+02  0.13936373427E+03  0.80961450056E+02 0.  0.
         23    2    1    2    0    0 -0.25141560670E+02  0.17884232914E+03 -0.26867893527E+02  0.20561271596E+03  0.94541147103E+02 0.  0.
         13    1    3    3    0    0  0.97149801590E+02  0.27946078997E+01  0.27782276819E+01  0.97229688529E+02  0.00000000000E+00 0. -1.
        -14    1    3    3    0    0  0.84431173323E+01  0.28932444359E+02 -0.29443254635E+02  0.42134045739E+02  0.00000000000E+00 0.  1.
        -13    1    4    4    0    0  0.34455889553E+02  0.48858998929E+02 -0.17575850353E+02  0.62316294954E+02  0.00000000000E+00 0.  1.
         13    1    4    4    0    0 -0.59597450223E+02  0.12998333022E+03 -0.92920431741E+01  0.14329642101E+03  0.00000000000E+00 0. -1.
          2    1    1    2  501    0 -0.80451358253E+02 -0.21056938140E+03 -0.97396976374E+02  0.24555662572E+03  0.00000000000E+00 0. -1.
<scales pt_clust_5="13000.00000" pt_clust_6="13000.00000" pt_clust_7="13000.00000" pt_clust_8="13000.00000" pt_clust_9="198.87920"></scales>
<clustering>
<clus scale="   80.961">  5  6 -1 -1</clus>
<clus scale="   94.541">  7  8 -1 -1</clus>
<clus scale="  136.789">  1  5  2 -1</clus>
<clus scale="  198.879">  2  9  1 -1</clus>
<clus scale="  198.879">  2  5  1 -1</clus>
</clustering>
</event>
<event>
 9    1  0.4731329E-005  0.1066122E+03  0.7546771E-02  0.1268948E+00
         21   -1    0    0  501  502  0.00000000000E+00  0.00000000000E+00  0.11287125304E+03  0.11287125304E+03  0.00000000000E+00 0. -1.
          1   -1    0    0  502    0 -0.00000000000E+00 -0.00000000000E+00 -0.21101527761E+03  0.21101527761E+03  0.00000000000E+00 0. -1.
        -24    2    1    2    0    0  0.37596981103E+02 -0.72644946341E+02 -0.11522554794E+03  0.16270451432E+03  0.80653647552E+02 0.  0.
         23    2    1    2    0    0 -0.31814671164E+02  0.21393271742E+02 -0.22064565430E+02  0.96431838528E+02  0.85687858283E+02 0.  0.
         11    1    3    3    0    0  0.37150590428E+02 -0.85735476660E+02 -0.11672878989E+03  0.14952039565E+03  0.00000000000E+00 0. -1.
        -12    1    3    3    0    0  0.44639067594E+00  0.13090530319E+02  0.15032419428E+01  0.13184118667E+02  0.00000000000E+00 0.  1.
        -13    1    4    4    0    0  0.26844656372E+02  0.21862523751E+02 -0.13448812332E+02  0.37141298761E+02  0.00000000000E+00 0. -1.
         13    1    4    4    0    0 -0.58659327536E+02 -0.46925200914E+00 -0.86157530980E+01  0.59290539767E+02  0.00000000000E+00 0.  1.
          2    1    1    2  501    0 -0.57823099399E+01  0.51251674599E+02  0.39146088800E+02  0.64750177805E+02  0.00000000000E+00 0. -1.
<scales pt_clust_5="13000.00000" pt_clust_6="13000.00000" pt_clust_7="13000.00000" pt_clust_8="13000.00000" pt_clust_9="51.57683"></scales>
<clustering>
<clus scale="   51.577">  1  9  2 -1</clus>
<clus scale="   80.654">  5  6 -1 -1</clus>
<clus scale="   85.688">  7  8 -1 -1</clus>
<clus scale="  102.610">  2  5  1 -1</clus>
<clus scale="   51.577">  1  5  2 -1</clus>
</clustering>
</event>
<event>
 9    1  0.4731329E-005  0.8826748E+02  0.7546771E-02  0.1316134E+00
          1   -1    0    0  502    0 -0.00000000000E+00  0.00000000000E+00  0.92999677986E+02  0.92999677986E+02  0.00000000000E+00 0. -1.
         21   -1    0    0  501  502  0.00000000000E+00 -0.00000000000E+00 -0.27737222252E+03  0.27737222252E+03  0.00000000000E+00 0.  1.
         23    2    1    2    0    0 -0.26320384172E+02 -0.14076577819E+02  0.18335207221E+02  0.92259067811E+02  0.85350120699E+02 0.  0.
        -24    2    1    2    0    0 -0.22104649374E+02 -0.36249052510E+01 -0.21277478231E+03  0.22558025727E+03  0.71495377614E+02 0.  0.
         13    1    4    4    0    0 -0.39310956702E+02  0.12015994100E+02 -0.72084870153E+02  0.82981708443E+02  0.00000000000E+00 0. -1.
        -14    1    4    4    0    0  0.17206307328E+02 -0.15640899351E+02 -0.14068991216E+03  0.14259854883E+03  0.00000000000E+00 0.  1.
        -11    1    3    3    0    0  0.18518962739E+02 -0.33720825428E+02 -0.35525214629E+01  0.38635041830E+02  0.00000000000E+00 0.  1.
         11    1    3    3    0    0 -0.44839346911E+02  0.19644247608E+02  0.21887728684E+02  0.53624025981E+02  0.00000000000E+00 0. -1.
          2    1    1    2  501    0  0.48425033546E+02  0.17701483070E+02  0.10067030555E+02  0.52532575427E+02  0.00000000000E+00 0. -1.
<scales pt_clust_5="13000.00000" pt_clust_6="13000.00000" pt_clust_7="13000.00000" pt_clust_8="13000.00000" pt_clust_9="51.55899"></scales>
<clustering>
<clus scale="   51.559">  2  9  1 -1</clus>
<clus scale="   71.495">  5  6 -1 -1</clus>
<clus scale="   74.954">  2  5  1 -1</clus>
<clus scale="   85.350">  7  8 -1 -1</clus>
<clus scale="   51.559">  2  5  1 -1</clus>
</clustering>
</event>
<event>
 9    1  0.4731329E-005  0.9618693E+02  0.7546771E-02  0.1294142E+00
         -2   -1    0    0    0  501 -0.00000000000E+00  0.00000000000E+00  0.24534767081E+03  0.24534767081E+03  0.00000000000E+00 0.  1.
         21   -1    0    0  501  502  0.00000000000E+00 -0.00000000000E+00 -0.62535875446E+02  0.62535875446E+02  0.00000000000E+00 0. -1.
         23    2    1    2    0    0  0.10616776071E+02  0.20499338672E+02  0.14232779610E+03  0.17072862130E+03  0.91422763950E+02 0.  0.
        -24    2    1    2    0    0 -0.32011838873E+02 -0.39508430437E+02  0.11732707654E+02  0.96587314090E+02  0.81275943000E+02 0.  0.
         11    1    4    4    0    0 -0.59125573746E+02 -0.33247394289E+02  0.53882268459E+01  0.68045982147E+02  0.00000000000E+00 0. -1.
        -12    1    4    4    0    0  0.27113734872E+02 -0.62610361480E+01  0.63444808082E+01  0.28541331943E+02  0.00000000000E+00 0.  1.
        -11    1    3    3    0    0 -0.34675116398E+02  0.24611314088E+02  0.99728479133E+02  0.10841517435E+03  0.00000000000E+00 0.  1.
         11    1    3    3    0    0  0.45291892469E+02 -0.41119754159E+01  0.42599316968E+02  0.62313446955E+02  0.00000000000E+00 0. -1.
         -1    1    1    2    0  502  0.21395062802E+02  0.19009091765E+02  0.28751291604E+02  0.40567610861E+02  0.00000000000E+00 0.  1.
<scales pt_clust_5="13000.00000" pt_clust_6="13000.00000" pt_clust_7="13000.00000" pt_clust_8="13000.00000" pt_clust_9="28.61984"></scales>
<clustering>
<clus scale="   28.620">  2  9  1 -1</clus>
<clus scale="   81.276">  5  6 -1 -1</clus>
<clus scale="   86.600">  2  5  1 -1</clus>
<clus scale="   91.423">  7  8 -1 -1</clus>
<clus scale="   28.620">  2  5  1 -1</clus>
</clustering>
</event>
<event>
 9    1  0.4731329E-005  0.1378360E+03  0.7546771E-02  0.1217429E+00
         21   -1    0    0  501  502  0.00000000000E+00  0.00000000000E+00  0.44902874730E+03  0.44902874730E+03  0.00000000000E+00 0.  1.
          1   -1    0    0  502    0 -0.00000000000E+00 -0.00000000000E+00 -0.55886168823E+02  0.55886168823E+02  0.00000000000E+00 0. -1.
         23    2    1    2    0    0 -0.12368639263E+03  0.16351445820E+02  0.12795628284E+03  0.19416667549E+03  0.75909117044E+02 0.  0.
        -24    2    1    2    0    0  0.88341402350E+02 -0.17034502943E+02  0.23374144501E+03  0.26343530863E+03  0.81662237636E+02 0.  0.
         11    1    4    4    0    0  0.12248787266E+02 -0.39939316272E+02  0.72463005318E+02  0.83642506619E+02  0.00000000000E+00 0. -1.
        -12    1    4    4    0    0  0.76092615084E+02  0.22904813329E+02  0.16127843969E+03  0.17979280201E+03  0.00000000000E+00 0.  1.
        -11    1    3    3    0    0 -0.18859276159E+02  0.27591709994E+02  0.78084639751E+01  0.34321230562E+02  0.00000000000E+00 0.  1.
         11    1    3    3    0    0 -0.10482711647E+03 -0.11240264174E+02  0.12014781886E+03  0.15984544492E+03  0.00000000000E+00 0. -1.
          2    1    1    2  501    0  0.35344990275E+02  0.68305712308E+00  0.31444850634E+02  0.47312932016E+02  0.00000000000E+00 0. -1.
<scales pt_clust_5="13000.00000" pt_clust_6="13000.00000" pt_clust_7="13000.00000" pt_clust_8="13000.00000" pt_clust_9="35.35161"></scales>
<clustering>
<clus scale="   35.352">  1  9  2 -1</clus>
<clus scale="   75.909">  7  8 -1 -1</clus>
<clus scale="   81.662">  5  6 -1 -1</clus>
<clus scale="  134.507">  2  7  1 -1</clus>
<clus scale="   35.352">  1  5  2 -1</clus>
</clustering>
</event>
<event>
 9    1  0.4731329E-005  0.9730289E+02  0.7546771E-02  0.1292984E+00
          1   -1    0    0  502    0 -0.00000000000E+00  0.00000000000E+00  0.55885474187E+03  0.55885474187E+03  0.00000000000E+00 0. -1.
         21   -1    0    0  501  502  0.00000000000E+00 -0.00000000000E+00 -0.24718079400E+02  0.24718079400E+02  0.00000000000E+00 0. -1.
         23    2    1    2    0    0 -0.17587591122E+02 -0.31522412438E+02  0.34692192159E+03  0.36094036740E+03  0.92844726778E+02 0.  0.
        -24    2    1    2    0    0  0.28807355007E+02 -0.15861268941E+01  0.13752023712E+03  0.16187389741E+03  0.80367677250E+02 0.  0.
         13    1    4    4    0    0 -0.24307225173E+02 -0.66709495679E+01  0.17966945810E+02  0.30954061211E+02  0.00000000000E+00 0. -1.
        -14    1    4    4    0    0  0.53114580180E+02  0.50848226738E+01  0.11955329131E+03  0.13091983620E+03  0.00000000000E+00 0.  1.
        -13    1    3    3    0    0  0.26847302638E+02 -0.45386236211E+02  0.16942984041E+03  0.17744621416E+03  0.00000000000E+00 0. -1.
         13    1    3    3    0    0 -0.44434893761E+02  0.13863823773E+02  0.17749208118E+03  0.18349415325E+03  0.00000000000E+00 0.  1.
          2    1    1    2  501    0 -0.11219763885E+02  0.33108539332E+02  0.49694503757E+02  0.60758556451E+02  0.00000000000E+00 0. -1.
<scales pt_clust_5="13000.00000" pt_clust_6="13000.00000" pt_clust_7="13000.00000" pt_clust_8="13000.00000" pt_clust_9="34.95795"></scales>
<clustering>
<clus scale="   34.958">  2  9  1 -1</clus>
<clus scale="   80.368">  5  6 -1 -1</clus>
<clus scale="   85.479">  2  5  1 -1</clus>
<clus scale="   92.845">  7  8 -1 -1</clus>
<clus scale="   34.958">  2  5  1 -1</clus>
</clustering>
</event>
<event>
 9    1  0.4731329E-005  0.9775116E+02  0.7546771E-02  0.1289586E+00
         21   -1    0    0  501  502  0.00000000000E+00  0.00000000000E+00  0.76726444848E+03  0.76726444848E+03  0.00000000000E+00 0.  1.
         -2   -1    0    0    0  501 -0.00000000000E+00 -0.00000000000E+00 -0.20083977897E+02  0.20083977897E+02  0.00000000000E+00 0.  1.
        -24    2    1    2    0    0  0.28420052057E+02 -0.12751964366E+02  0.22698037959E+03  0.24332495012E+03  0.81955028387E+02 0.  0.
         23    2    1    2    0    0 -0.16329191991E+02  0.55650071033E+02  0.43222999044E+03  0.44540717413E+03  0.90560550012E+02 0.  0.
         11    1    3    3    0    0  0.42683840875E+02 -0.31143551213E+02  0.20356280213E+03  0.21030845315E+03  0.00000000000E+00 0. -1.
        -12    1    3    3    0    0 -0.14263788818E+02  0.18391586847E+02  0.23417577455E+02  0.33016496969E+02  0.00000000000E+00 0.  1.
        -13    1    4    4    0    0 -0.46230350928E+01  0.76920592607E+02  0.38100586008E+03  0.38872048497E+03  0.00000000000E+00 0.  1.
         13    1    4    4    0    0 -0.11706156899E+02 -0.21270521574E+02  0.51224130360E+02  0.56686689165E+02  0.00000000000E+00 0. -1.
         -1    1    1    2    0  502 -0.12090860066E+02 -0.42898106667E+02  0.87970100554E+02  0.98616302122E+02  0.00000000000E+00 0.  1.
<scales pt_clust_5="13000.00000" pt_clust_6="13000.00000" pt_clust_7="13000.00000" pt_clust_8="13000.00000" pt_clust_9="44.56948"></scales>
<clustering>
<clus scale="   44.569">  1  9  2 -1</clus>
<clus scale="   81.955">  5  6 -1 -1</clus>
<clus scale="   89.837">  2  5  1 -1</clus>
<clus scale="   90.561">  7  8 -1 -1</clus>
<clus scale="   44.569">  1  5  2 -1</clus>
</clustering>
</event>
<event>
 9    1  0.4731329E-005  0.1252808E+03  0.7546771E-02  0.1238341E+00
          1   -1    0    0  502    0 -0.00000000000E+00  0.00000000000E+00  0.74206124675E+03  0.74206124675E+03  0.00000000000E+00 0. -1.
         21   -1    0    0  501  502  0.00000000000E+00 -0.00000000000E+00 -0.28455877382E+02  0.28455877382E+02  0.00000000000E+00 0.  1.
        -24    2    1    2    0    0  0.26308222947E+02  0.69945226399E+02  0.36339785975E+03  0.37959635004E+03  0.80317664308E+02 0.  0.
         23    2    1    2    0    0 -0.51164859853E+02 -0.90916927880E+02  0.26295464926E+03  0.29780403928E+03  0.93050349741E+02 0.  0.
         11    1    3    3    0    0  0.21483441567E+02 -0.13986703966E+02  0.84644781490E+02  0.88441535394E+02  0.00000000000E+00 0. -1.
        -12    1    3    3    0    0  0.48247813797E+01  0.83931930365E+02  0.27875307826E+03  0.29115481464E+03  0.00000000000E+00 0.  1.
        -13    1    4    4    0    0 -0.69325482107E+02 -0.30453714378E+02  0.16042193629E+03  0.17739404959E+03  0.00000000000E+00 0. -1.
         13    1    4    4    0    0  0.18160622254E+02 -0.60463213502E+02  0.10253271297E+03  0.12040998969E+03  0.00000000000E+00 0.  1.
          2    1    1    2  501    0  0.24856636906E+02  0.20971701481E+02  0.87252860354E+02  0.93116734807E+02  0.00000000000E+00 0. -1.
<scales pt_clust_5="13000.00000" pt_clust_6="13000.00000" pt_clust_7="13000.00000" pt_clust_8="13000.00000" pt_clust_9="32.52177"></scales>
<clustering>
<clus scale="   32.522">  2  9  1 -1</clus>
<clus scale="   80.318">  5  6 -1 -1</clus>
<clus scale="   93.050">  7  8 -1 -1</clus>
<clus scale="  116.137">  1  5  2 -1</clus>
<clus scale="   32.522">  2  5  1 -1</clus>
</clustering>
</event>
<event>
 9    1  0.4731329E-005  0.9429876E+02  0.7546771E-02  0.1299688E+00
         21   -1    0    0  501  502  0.00000000000E+00  0.00000000000E+00  0.16627147520E+03  0.16627147520E+03  0.00000000000E+00 0. -1.
          1   -1    0    0  502    0 -0.00000000000E+00 -0.00000000000E+00 -0.15025993064E+03  0.15025993064E+03  0.00000000000E+00 0. -1.
         23    2    1    2    0    0 -0.10072711033E+02 -0.17418648046E+02 -0.11253149023E+03  0.14726843505E+03  0.92842807263E+02 0.  0.
        -24    2    1    2    0    0 -0.33872732491E+01 -0.98178408466E+00  0.73307011501E+02  0.10950708949E+03  0.81273902290E+02 0.  0.
         13    1    4    4    0    0 -0.41441260884E+02  0.16812048906E+01  0.49337178662E+02  0.64454338503E+02  0.00000000000E+00 0. -1.
        -14    1    4    4    0    0  0.38053987635E+02 -0.26629889753E+01  0.23969832839E+02  0.45052750988E+02  0.00000000000E+00 0.  1.
        -13    1    3    3    0    0  0.41172722538E+02 -0.10074480125E+01 -0.48117955693E+02  0.63336764148E+02  0.00000000000E+00 0.  1.
         13    1    3    3    0    0 -0.51245433571E+02 -0.16411200033E+02 -0.64413534542E+02  0.83931670903E+02  0.00000000000E+00 0. -1.
          2    1    1    2  501    0  0.13459984282E+02  0.18400432131E+02  0.55236023297E+02  0.59755881293E+02  0.00000000000E+00 0. -1.
<scales pt_clust_5="13000.00000" pt_clust_6="13000.00000" pt_clust_7="13000.00000" pt_clust_8="13000.00000" pt_clust_9="22.79796"></scales>
<clustering>
<clus scale="   22.798">  1  9  2 -1</clus>
<clus scale="   81.274">  5  6 -1 -1</clus>
<clus scale="   82.933">  1  5  2 -1</clus>
<clus scale="   92.843">  7  8 -1 -1</clus>
<clus scale="   22.798">  1  5  2 -1</clus>
</clustering>
</event>
<event>
 9    1  0.4731329E-005  0.1643157E+03  0.7546771E-02  0.1202227E+00
          1   -1    0    0  502    0 -0.00000000000E+00  0.00000000000E+00  0.72828259184E+03  0.72828259184E+03  0.00000000000E+00 0. -1.
         21   -1    0    0  501  502  0.00000000000E+00 -0.00000000000E+00 -0.26459153937E+03  0.26459153937E+03  0.00000000000E+00 0. -1.
         23    2    1    2    0    0 -0.14102375877E+02 -0.60274212496E+02  0.65370007377E+02  0.12783426352E+03  0.90755183694E+02 0.  0.
        -24    2    1    2    0    0  0.61779594126E+01 -0.13974904020E+03 -0.18648533634E+03  0.24692126923E+03  0.81396382659E+02 0.  0.
         13    1    4    4    0    0 -0.16510011548E+02 -0.10659700083E+03 -0.83600499195E+02  0.13647177192E+03  0.00000000000E+00 0. -1.
        -14    1    4    4    0    0  0.22687970961E+02 -0.33152039371E+02 -0.10288483715E+03  0.11044949731E+03  0.00000000000E+00 0.  1.
        -11    1    3    3    0    0 -0.49978929805E+02 -0.36340677643E+02  0.56655763283E+02  0.83835635557E+02  0.00000000000E+00 0. -1.
         11    1    3    3    0    0  0.35876553928E+02 -0.23933534852E+02  0.87142440940E+01  0.43998627961E+02  0.00000000000E+00 0.  1.
          2    1    1    2  501    0  0.79244164643E+01  0.20002325269E+03  0.58480638143E+03  0.61811859846E+03  0.00000000000E+00 0. -1.
<scales pt_clust_5="13000.00000" pt_clust_6="13000.00000" pt_clust_7="13000.00000" pt_clust_8="13000.00000" pt_clust_9="142.73861"></scales>
<clustering>
<clus scale="   81.396">  5  6 -1 -1</clus>
<clus scale="   90.755">  7  8 -1 -1</clus>
<clus scale="  109.856">  1  7  2 -1</clus>
<clus scale="  142.739">  2  9  1 -1</clus>
<clus scale="  142.739">  2  5  1 -1</clus>
</clustering>
</event>
<event>
 9    1  0.4731329E-005  0.9514118E+02  0.7546771E-02  0.1318637E+00
         21   -1    0    0  501  502  0.00000000000E+00  0.00000000000E+00  0.78947522614E+02  0.78947522614E+02  0.00000000000E+00 0. -1.
          3   -1    0    0  502    0 -0.00000000000E+00 -0.00000000000E+00 -0.19544946855E+03  0.19544946855E+03  0.00000000000E+00 0. -1.
        -24    2    1    2    0    0 -0.26119753543E+02  0.23258910122E+02 -0.11363255640E+03  0.12908118949E+03  0.50263079693E+02 0.  0.
         23    2    1    2    0    0 -0.97543671373E+00  0.66011156621E+01 -0.30627651061E+02  0.96363870570E+02  0.91123083447E+02 0.  0.
         13    1    3    3    0    0 -0.30242075919E+02  0.11763239202E+02 -0.11218446867E+03  0.11678318357E+03  0.00000000000E+00 0. -1.
        -14    1    3    3    0    0  0.41223223760E+01  0.11495670920E+02 -0.14480877321E+01  0.12298005926E+02  0.00000000000E+00 0.  1.
        -11    1    4    4    0    0  0.20365223989E+02 -0.31056100281E+02 -0.37222200011E+02  0.52580565673E+02  0.00000000000E+00 0.  1.
         11    1    4    4    0    0 -0.21340660703E+02  0.37657215943E+02  0.65945489498E+01  0.43783304897E+02  0.00000000000E+00 0. -1.
          4    1    1    2  501    0  0.27095190257E+02 -0.29860025784E+02  0.27758261534E+02  0.48951931099E+02  0.00000000000E+00 0. -1.
<scales pt_clust_5="13000.00000" pt_clust_6="13000.00000" pt_clust_7="13000.00000" pt_clust_8="13000.00000" pt_clust_9="40.32084"></scales>
<clustering>
<clus scale="   40.321">  1  9  2 -1</clus>
<clus scale="   50.263">  5  6 -1 -1</clus>
<clus scale="   57.226">  2  5  1 -1</clus>
<clus scale="   91.123">  7  8 -1 -1</clus>
<clus scale="   40.321">  1  5  2 -1</clus>
</clustering>
</event>
<event>
 9    1  0.4731329E-005  0.1280346E+03  0.7546771E-02  0.1233500E+00
         21   -1    0    0  501  502  0.00000000000E+00  0.00000000000E+00  0.96400013398E+02  0.96400013398E+02  0.00000000000E+00 0.  1.
          1   -1    0    0  502    0 -0.00000000000E+00 -0.00000000000E+00 -0.36879249557E+03  0.36879249557E+03  0.00000000000E+00 0. -1.
         23    2    1    2    0    0  0.76483237430E+01 -0.76524239910E+02 -0.10998746323E+03  0.16334608097E+03  0.93114144745E+02 0.  0.
        -24    2    1    2    0    0 -0.62379874929E+02  0.10371944061E+03 -0.20792190641E+02  0.14760857669E+03  0.81896309821E+02 0.  0.
         11    1    4    4    0    0  0.14189251884E+02  0.43598513935E+02 -0.20580657294E+02  0.50256628827E+02  0.00000000000E+00 0. -1.
        -12    1    4    4    0    0 -0.76569126813E+02  0.60120926678E+02 -0.21153334681E+00  0.97351947859E+02  0.00000000000E+00 0.  1.
        -11    1    3    3    0    0  0.39014115953E+02 -0.12170648544E+01 -0.39528359161E+02  0.55552440706E+02  0.00000000000E+00 0.  1.
         11    1    3    3    0    0 -0.31365792210E+02 -0.75307175056E+02 -0.70459104068E+02  0.10779364027E+03  0.00000000000E+00 0. -1.
          2    1    1    2  501    0  0.54731551186E+02 -0.27195200703E+02 -0.14161282830E+03  0.15423785131E+03  0.00000000000E+00 0. -1.
<scales pt_clust_5="13000.00000" pt_clust_6="13000.00000" pt_clust_7="13000.00000" pt_clust_8="13000.00000" pt_clust_9="61.11567"></scales>
<clustering>
<clus scale="   61.116">  1  9  2 -1</clus>
<clus scale="   81.896">  5  6 -1 -1</clus>
<clus scale="   93.114">  7  8 -1 -1</clus>
<clus scale="  120.123">  1  5  2 -1</clus>
<clus scale="   61.116">  1  5  2 -1</clus>
</clustering>
</event>
<event>
 9    1  0.4731329E-005  0.1202406E+03  0.7546771E-02  0.1245614E+00
         21   -1    0    0  501  502  0.00000000000E+00  0.00000000000E+00  0.17438166947E+02  0.17438166947E+02  0.00000000000E+00 0.  1.
          1   -1    0    0  502    0 -0.00000000000E+00 -0.00000000000E+00 -0.10799797833E+04  0.10799797833E+04  0.00000000000E+00 0. -1.
         23    2    1    2    0    0 -0.47098278052E+02 -0.57121114512E+02 -0.54101557471E+03  0.55343868189E+03  0.90085809175E+02 0.  0.
        -24    2    1    2    0    0  0.39743136271E+02  0.81187348663E+02 -0.34484736091E+03  0.36551740139E+03  0.80699231267E+02 0.  0.
         13    1    4    4    0    0  0.45231162425E+02  0.46957846176E+02 -0.30839964038E+03  0.31521617274E+03  0.00000000000E+00 0. -1.
        -14    1    4    4    0    0 -0.54880261541E+01  0.34229502487E+02 -0.36447720537E+02  0.50301228652E+02  0.00000000000E+00 0.  1.
        -11    1    3    3    0    0 -0.62960291823E+02 -0.61953826345E+01 -0.29245286549E+03  0.29921741200E+03  0.00000000000E+00 0.  1.
         11    1    3    3    0    0  0.15862013771E+02 -0.50925731877E+02 -0.24856270922E+03  0.25422126989E+03  0.00000000000E+00 0. -1.
          2    1    1    2  501    0  0.73551417818E+01 -0.24066234151E+02 -0.17667868078E+03  0.17846186702E+03  0.00000000000E+00 0. -1.
<scales pt_clust_5="13000.00000" pt_clust_6="13000.00000" pt_clust_7="13000.00000" pt_clust_8="13000.00000" pt_clust_9="25.16510"></scales>
<clustering>
<clus scale="   25.165">  1  9  2 -1</clus>
<clus scale="   80.699">  5  6 -1 -1</clus>
<clus scale="   90.086">  7  8 -1 -1</clus>
<clus scale="  113.379">  1  5  2 -1</clus>
<clus scale="   25.165">  1  5  2 -1</clus>
</clustering>
</event>
<event>
 9    1  0.4731329E-005  0.1337687E+03  0.7546771E-02  0.1224298E+00
         21   -1    0    0  501  502  0.00000000000E+00  0.00000000000E+00  0.74317628723E+02  0.74317628723E+02  0.00000000000E+00 0.  1.
          1   -1    0    0  502    0 -0.00000000000E+00 -0.00000000000E+00 -0.57984631724E+03  0.57984631724E+03  0.00000000000E+00 0. -1.
         23    2    1    2    0    0  0.60167975141E+02  0.84398357156E+02 -0.47552709001E+03  0.49481754053E+03  0.89303511460E+02 0.  0.
        -24    2    1    2    0    0 -0.65859000258E+02 -0.54161954907E+02 -0.45215082406E+02  0.12502326629E+03  0.79470045700E+02 0.  0.
         13    1    4    4    0    0 -0.19051170027E+02 -0.42930553370E+02 -0.58562792688E+02  0.75070501393E+02  0.00000000000E+00 0. -1.
        -14    1    4    4    0    0 -0.46807830231E+02 -0.11231401536E+02  0.13347710282E+02  0.49952764901E+02  0.00000000000E+00 0.  1.
        -11    1    3    3    0    0  0.77079745666E+02  0.38507103165E+02 -0.26379435855E+03  0.27750954540E+03  0.00000000000E+00 0. -1.
         11    1    3    3    0    0 -0.16911770524E+02  0.45891253991E+02 -0.21173273146E+03  0.21730799513E+03  0.00000000000E+00 0.  1.
          2    1    1    2  501    0  0.56910251166E+01 -0.30236402250E+02  0.15213483900E+02  0.34323139138E+02  0.00000000000E+00 0. -1.
<scales pt_clust_5="13000.00000" pt_clust_6="13000.00000" pt_clust_7="13000.00000" pt_clust_8="13000.00000" pt_clust_9="30.76732"></scales>
<clustering>
<clus scale="   30.767">  1  9  2 -1</clus>
<clus scale="   79.470">  5  6 -1 -1</clus>
<clus scale="   89.304">  7  8 -1 -1</clus>
<clus scale="  127.414">  1  5  2 -1</clus>
<clus scale="   30.767">  1  5  2 -1</clus>
</clustering>
</event>
<event>
 9    1  0.4731329E-005  0.1542916E+03  0.7546771E-02  0.1197151E+00
          1   -1    0    0  502    0 -0.00000000000E+00  0.00000000000E+00  0.40394345495E+03  0.40394345495E+03  0.00000000000E+00 0. -1.
         21   -1    0    0  501  502  0.00000000000E+00 -0.00000000000E+00 -0.19050417963E+03  0.19050417963E+03  0.00000000000E+00 0.  1.
        -24    2    1    2    0    0  0.24759856262E+02  0.12658116944E+03  0.91935612877E+02  0.17749955823E+03  0.80113003420E+02 0.  0.
         23    2    1    2    0    0  0.25486107173E+02 -0.11491686776E+03 -0.10665032941E+03  0.18303579200E+03  0.90952626316E+02 0.  0.
         11    1    3    3    0    0 -0.17121087852E+02  0.78970094711E+02  0.23389390176E+02  0.84121763419E+02  0.00000000000E+00 0. -1.
        -12    1    3    3    0    0  0.41880944113E+02  0.47611074726E+02  0.68546222700E+02  0.93377794806E+02  0.00000000000E+00 0.  1.
        -11    1    4    4    0    0 -0.21948927753E+02 -0.93569961346E+02 -0.77083654173E+02  0.12320301472E+03  0.00000000000E+00 0.  1.
         11    1    4    4    0    0  0.47435034927E+02 -0.21346906418E+02 -0.29566675232E+02  0.59832777275E+02  0.00000000000E+00 0. -1.
          2    1    1    2  501    0 -0.50245963435E+02 -0.11664301673E+02  0.22815399185E+03  0.23391228436E+03  0.00000000000E+00 0. -1.
<scales pt_clust_5="13000.00000" pt_clust_6="13000.00000" pt_clust_7="13000.00000" pt_clust_8="13000.00000" pt_clust_9="51.58212"></scales>
<clustering>
<clus scale="   51.582">  2  9  1 -1</clus>
<clus scale="   80.113">  5  6 -1 -1</clus>
<clus scale="   90.953">  7  8 -1 -1</clus>
<clus scale="  148.161">  1  5  2 -1</clus>
<clus scale="   51.582">  2  5  1 -1</clus>
</clustering>
</event>
<event>
 9    1  0.4731329E-005  0.1072901E+03  0.7546771E-02  0.1270571E+00
          1   -1    0    0  502    0 -0.00000000000E+00  0.00000000000E+00  0.35610604802E+03  0.35610604802E+03  0.00000000000E+00 0. -1.
         21   -1    0    0  501  502  0.00000000000E+00 -0.00000000000E+00 -0.20959695334E+03  0.20959695334E+03  0.00000000000E+00 0.  1.
         23    2    1    2    0    0  0.48792383175E+02 -0.25636399363E+02  0.32044622900E+03  0.33784525375E+03  0.91737168969E+02 0.  0.
        -24    2    1    2    0    0 -0.64319465913E+02  0.98413256287E+01 -0.77974723585E+02  0.12937242421E+03  0.80145625221E+02 0.  0.
         11    1    4    4    0    0 -0.38568373347E+02  0.44978105398E+02 -0.50655356327E+02  0.77952001337E+02  0.00000000000E+00 0. -1.
        -12    1    4    4    0    0 -0.25751092565E+02 -0.35136779770E+02 -0.27319367258E+02  0.51420422871E+02  0.00000000000E+00 0.  1.
        -11    1    3    3    0    0 -0.19129310322E+02  0.15975372913E+02  0.11099975602E+03  0.11376330204E+03  0.00000000000E+00 0.  1.
         11    1    3    3    0    0  0.67921693497E+02 -0.41611772276E+02  0.20944647298E+03  0.22408195171E+03  0.00000000000E+00 0. -1.
          2    1    1    2  501    0  0.15527082738E+02  0.15795073734E+02 -0.95962410736E+02  0.98485323409E+02  0.00000000000E+00 0. -1.
<scales pt_clust_5="13000.00000" pt_clust_6="13000.00000" pt_clust_7="13000.00000" pt_clust_8="13000.00000" pt_clust_9="22.14892"></scales>
<clustering>
<clus scale="   22.149">  2  9  1 -1</clus>
<clus scale="   80.146">  5  6 -1 -1</clus>
<clus scale="   91.737">  7  8 -1 -1</clus>
<clus scale="   97.564">  2  5  1 -1</clus>
<clus scale="   22.149">  2  5  1 -1</clus>
</clustering>
</event>
<event>
 9    1  0.4731329E-005  0.1974035E+03  0.7546771E-02  0.1152901E+00
          1   -1    0    0  502    0 -0.00000000000E+00  0.00000000000E+00  0.11763814400E+04  0.11763814400E+04  0.00000000000E+00 0. -1.
         21   -1    0    0  501  502  0.00000000000E+00 -0.00000000000E+00 -0.96776854883E+02  0.96776854883E+02  0.00000000000E+00 0.  1.
        -24    2    1    2    0    0  0.15848422659E+02  0.17578912568E+03  0.10203237115E+04  0.10385391867E+04  0.79687997406E+02 0.  0.
         23    2    1    2    0    0  0.15678374693E+02 -0.17195806122E+03  0.56900033521E+02  0.20277127612E+03  0.89795269099E+02 0.  0.
         11    1    3    3    0    0 -0.18246068283E+02  0.13762702594E+03  0.64722814340E+03  0.66195044142E+03  0.00000000000E+00 0. -1.
        -12    1    3    3    0    0  0.34094490942E+02  0.38162099738E+02  0.37309556808E+03  0.37658874530E+03  0.00000000000E+00 0.  1.
        -13    1    4    4    0    0  0.34457352171E+02 -0.15097237053E+03  0.72047683295E+02  0.17079471435E+03  0.00000000000E+00 0.  1.
         13    1    4    4    0    0 -0.18778977478E+02 -0.20985690692E+02 -0.15147649774E+02  0.31976561770E+02  0.00000000000E+00 0. -1.
          2    1    1    2  501    0 -0.31526797352E+02 -0.38310644601E+01  0.23808401137E+01  0.31847832043E+02  0.00000000000E+00 0. -1.
<scales pt_clust_5="13000.00000" pt_clust_6="13000.00000" pt_clust_7="13000.00000" pt_clust_8="13000.00000" pt_clust_9="31.75872"></scales>
<clustering>
<clus scale="   31.759">  2  9  1 -1</clus>
<clus scale="   79.688">  5  6 -1 -1</clus>
<clus scale="   89.795">  7  8 -1 -1</clus>
<clus scale="  193.016">  1  5  2 -1</clus>
<clus scale="   31.759">  2  5  1 -1</clus>
</clustering>
</event>
<event>
 9    1  0.4731329E-005  0.1171762E+03  0.7546771E-02  0.1248340E+00
         21   -1    0    0  501  502  0.00000000000E+00  0.00000000000E+00  0.29074910055E+02  0.29074910055E+02  0.00000000000E+00 0.  1.
          1   -1    0    0  502    0 -0.00000000000E+00 -0.00000000000E+00 -0.72803197661E+03  0.72803197661E+03  0.00000000000E+00 0. -1.
        -24    2    1    2    0    0  0.27674203619E+02 -0.67608836946E+02 -0.43810056441E+03  0.45309954819E+03  0.89611827689E+02 0.  0.
         23    2    1    2    0    0  0.62408862350E+00  0.85428692621E+02 -0.20449474645E+03  0.23847117970E+03  0.88045165769E+02 0.  0.
         13    1    3    3    0    0 -0.28910852873E+02 -0.37357254935E+02 -0.12819339794E+03  0.13661972473E+03  0.00000000000E+00 0. -1.
        -14    1    3    3    0    0  0.56585056493E+02 -0.30251582010E+02 -0.30990716646E+03  0.31647982346E+03  0.00000000000E+00 0.  1.
        -11    1    4    4    0    0  0.12558315480E+02 -0.16087660433E+02 -0.31419158391E+02  0.37465819354E+02  0.00000000000E+00 0.  1.
         11    1    4    4    0    0 -0.11934226856E+02  0.10151635305E+03 -0.17307558806E+03  0.20100536035E+03  0.00000000000E+00 0. -1.
          2    1    1    2  501    0 -0.28298292243E+02 -0.17819855675E+02 -0.56361755699E+02  0.65536158764E+02  0.00000000000E+00 0. -1.
<scales pt_clust_5="13000.00000" pt_clust_6="13000.00000" pt_clust_7="13000.00000" pt_clust_8="13000.00000" pt_clust_9="33.44160"></scales>
<clustering>
<clus scale="   33.442">  1  9  2 -1</clus>
<clus scale="   88.045">  7  8 -1 -1</clus>
<clus scale="   89.612">  5  6 -1 -1</clus>
<clus scale="  115.982">  1  7  2 -1</clus>
<clus scale="   33.442">  1  5  2 -1</clus>
</clustering>
</event>
<event>
 9    1  0.4731329E-005  0.1676374E+03  0.7546771E-02  0.1181879E+00
         21   -1    0    0  501  502  0.00000000000E+00  0.00000000000E+00  0.83914522999E+02  0.83914522999E+02  0.00000000000E+00 0.  1.
          1   -1    0    0  502    0 -0.00000000000E+00 -0.00000000000E+00 -0.92351938173E+03  0.92351938173E+03  0.00000000000E+00 0. -1.
        -24    2    1    2    0    0 -0.10287477641E+03 -0.13872183238E+03 -0.33605861178E+03  0.38641933598E+03  0.80978677846E+02 0.  0.
         23    2    1    2    0    0  0.26424209871E+02  0.68768467148E+02 -0.11663112041E+02  0.11833457030E+03  0.91867847500E+02 0.  0.
         11    1    3    3    0    0 -0.18493877349E+02 -0.88333016986E+02 -0.13168347916E+03  0.15964111022E+03  0.00000000000E+00 0. -1.
        -12    1    3    3    0    0 -0.84380899065E+02 -0.50388815395E+02 -0.20437513262E+03  0.22677822576E+03  0.00000000000E+00 0.  1.
        -13    1    4    4    0    0  0.47384454615E+02  0.79613636990E+02 -0.15541895903E+01  0.92660850629E+02  0.00000000000E+00 0.  1.
         13    1    4    4    0    0 -0.20960244745E+02 -0.10845169841E+02 -0.10108922450E+02  0.25673719671E+02  0.00000000000E+00 0. -1.
          2    1    1    2  501    0  0.76450566543E+02  0.69953365232E+02 -0.49188313491E+03  0.50267999845E+03  0.00000000000E+00 0. -1.
<scales pt_clust_5="13000.00000" pt_clust_6="13000.00000" pt_clust_7="13000.00000" pt_clust_8="13000.00000" pt_clust_9="103.62516"></scales>
<clustering>
<clus scale="   80.979">  5  6 -1 -1</clus>
<clus scale="   91.868">  7  8 -1 -1</clus>
<clus scale="  103.625">  1  9  2 -1</clus>
<clus scale="  161.926">  2  5  1 -1</clus>
<clus scale="  103.625">  1  5  2 -1</clus>
</clustering>
</event>
<event>
 9    1  0.4731329E-005  0.1182448E+03  0.7546771E-02  0.1250433E+00
          1   -1    0    0  502    0 -0.00000000000E+00  0.00000000000E+00  0.82296185261E+03  0.82296185261E+03  0.00000000000E+00 0. -1.
         21   -1    0    0  501  502  0.00000000000E+00 -0.00000000000E+00 -0.25498691981E+02  0.25498691981E+02  0.00000000000E+00 0. -1.
         23    2    1    2    0    0  0.66913303212E+02  0.41037326640E+02  0.57921061185E+03  0.59188402549E+03  0.93168205011E+02 0.  0.
        -24    2    1    2    0    0 -0.58982085233E+02 -0.22559228989E+02  0.21242516177E+03  0.23564083782E+03  0.80089636670E+02 0.  0.
         11    1    4    4    0    0 -0.66656326965E+01  0.27106227749E+02  0.81648609905E+02  0.86288317526E+02  0.00000000000E+00 0. -1.
        -12    1    4    4    0    0 -0.52316452537E+02 -0.49665456737E+02  0.13077655187E+03  0.14935252029E+03  0.00000000000E+00 0.  1.
        -13    1    3    3    0    0  0.88101938712E+01 -0.28320266706E+02  0.10448083987E+03  0.10860894494E+03  0.00000000000E+00 0.  1.
         13    1    3    3    0    0  0.58103109341E+02  0.69357593346E+02  0.47472977198E+03  0.48327508055E+03  0.00000000000E+00 0. -1.
          2    1    1    2  501    0 -0.79312179787E+01 -0.18478097651E+02  0.58273870022E+01  0.20935681281E+02  0.00000000000E+00 0. -1.
<scales pt_clust_5="13000.00000" pt_clust_6="13000.00000" pt_clust_7="13000.00000" pt_clust_8="13000.00000" pt_clust_9="20.10831"></scales>
<clustering>
<clus scale="   20.108">  2  9  1 -1</clus>
<clus scale="   80.090">  5  6 -1 -1</clus>
<clus scale="   93.168">  7  8 -1 -1</clus>
<clus scale="  108.240">  2  5  1 -1</clus>
<clus scale="   20.108">  2  5  1 -1</clus>
</clustering>
</event>
<event>
 9    1  0.4731329E-005  0.9246109E+02  0.7546771E-02  0.1303113E+00
         21   -1    0    0  501  502  0.00000000000E+00  0.00000000000E+00  0.34382066064E+02  0.34382066064E+02  0.00000000000E+00 0.  1.
          1   -1    0    0  502    0 -0.00000000000E+00 -0.00000000000E+00 -0.54399509881E+03  0.54399509881E+03  0.00000000000E+00 0. -1.
        -24    2    1    2    0    0  0.57747750063E+01 -0.18433174863E+02 -0.37741322661E+03  0.38630663166E+03  0.80118288082E+02 0.  0.
         23    2    1    2    0    0  0.19055283805E+02  0.25892518870E+02 -0.13548855070E+03  0.16593646590E+03  0.90245426316E+02 0.  0.
         13    1    3    3    0    0 -0.18687890064E+02  0.18517029958E+02 -0.56221233432E+02  0.62072092942E+02  0.00000000000E+00 0. -1.
        -14    1    3    3    0    0  0.24462665070E+02 -0.36950204822E+02 -0.32119199317E+03  0.32423453872E+03  0.00000000000E+00 0.  1.
        -13    1    4    4    0    0  0.49838230242E+02  0.36184095066E+02 -0.72909228880E+02  0.95440523811E+02  0.00000000000E+00 0.  1.
         13    1    4    4    0    0 -0.30782946437E+02 -0.10291576196E+02 -0.62579321816E+02  0.70495942088E+02  0.00000000000E+00 0. -1.
          2    1    1    2  501    0 -0.24830058812E+02 -0.74593440066E+01  0.32887445581E+01  0.26134067314E+02  0.00000000000E+00 0. -1.
<scales pt_clust_5="13000.00000" pt_clust_6="13000.00000" pt_clust_7="13000.00000" pt_clust_8="13000.00000" pt_clust_9="25.92631"></scales>
<clustering>
<clus scale="   25.926">  1  9  2 -1</clus>
<clus scale="   80.118">  5  6 -1 -1</clus>
<clus scale="   82.606">  2  5  1 -1</clus>
<clus scale="   90.245">  7  8 -1 -1</clus>
<clus scale="   25.926">  1  5  2 -1</clus>
</clustering>
</event>
<event>
 9    1  0.4731329E-005  0.9584268E+02  0.7546771E-02  0.1293618E+00
         21   -1    0    0  501  502  0.00000000000E+00  0.00000000000E+00  0.71994512774E+02  0.71994512774E+02  0.00000000000E+00 0.  1.
          1   -1    0    0  502    0 -0.00000000000E+00 -0.00000000000E+00 -0.39363728795E+03  0.39363728795E+03  0.00000000000E+00 0. -1.
        -24    2    1    2    0    0 -0.46012750533E+01 -0.28704298070E+02 -0.32603466382E+03  0.33770314841E+03  0.83064468815E+02 0.  0.
         23    2    1    2    0    0 -0.13554729684E+02  0.41186425586E+02 -0.10549813540E+02  0.10130726093E+03  0.90949492587E+02 0.  0.
         13    1    3    3    0    0 -0.17595193700E+01 -0.56449745456E+02 -0.16834765397E+03  0.17756858469E+03  0.00000000000E+00 0. -1.
        -14    1    3    3    0    0 -0.28417556833E+01  0.27745447386E+02 -0.15768700985E+03  0.16013456373E+03  0.00000000000E+00 0.  1.
        -13    1    4    4    0    0 -0.23288244560E+02 -0.21895000392E+02 -0.18586165376E+02  0.36975382625E+02  0.00000000000E+00 0. -1.
         13    1    4    4    0    0  0.97335148759E+01  0.63081425978E+02  0.80363518359E+01  0.64331878304E+02  0.00000000000E+00 0.  1.
          2    1    1    2  501    0  0.18156004738E+02 -0.12482127516E+02  0.14941702176E+02  0.26621391385E+02  0.00000000000E+00 0. -1.
<scales pt_clust_5="13000.00000" pt_clust_6="13000.00000" pt_clust_7="13000.00000" pt_clust_8="13000.00000" pt_clust_9="22.03279"></scales>
<clustering>
<clus scale="   22.033">  1  9  2 -1</clus>
<clus scale="   83.064">  5  6 -1 -1</clus>
<clus scale="   88.395">  2  5  1 -1</clus>
<clus scale="   90.949">  7  8 -1 -1</clus>
<clus scale="   22.033">  1  5  2 -1</clus>
</clustering>
</event>
<event>
 9    1  0.4731329E-005  0.1487537E+03  0.7546771E-02  0.1204306E+00
         21   -1    0    0  501  502  0.00000000000E+00  0.00000000000E+00  0.49144666022E+03  0.49144666022E+03  0.00000000000E+00 0. -1.
          1   -1    0    0  502    0 -0.00000000000E+00 -0.00000000000E+00 -0.60240303853E+02  0.60240303853E+02  0.00000000000E+00 0. -1.
         23    2    1    2    0    0  0.13747233002E+03 -0.15693556609E+02  0.15515590276E+03  0.22686340395E+03  0.90822467765E+02 0.  0.
        -24    2    1    2    0    0 -0.97165526995E+02  0.12124556075E+01  0.17442612267E+03  0.21454280344E+03  0.78495430145E+02 0.  0.
         11    1    4    4    0    0 -0.57438702401E+02 -0.36339230066E+02  0.76036442104E+02  0.10198668885E+03  0.00000000000E+00 0. -1.
        -12    1    4    4    0    0 -0.39726824594E+02  0.37551685673E+02  0.98389680571E+02  0.11255611459E+03  0.00000000000E+00 0.  1.
        -13    1    3    3    0    0  0.39585552117E+02 -0.10811105010E+02  0.11291384717E+03  0.12013922261E+03  0.00000000000E+00 0.  1.
         13    1    3    3    0    0  0.97886777902E+02 -0.48824515997E+01  0.42242055596E+02  0.10672418134E+03  0.00000000000E+00 0. -1.
          2    1    1    2  501    0 -0.40306803024E+02  0.14481101002E+02  0.10162433093E+03  0.11028075668E+03  0.00000000000E+00 0. -1.
<scales pt_clust_5="13000.00000" pt_clust_6="13000.00000" pt_clust_7="13000.00000" pt_clust_8="13000.00000" pt_clust_9="42.82920"></scales>
<clustering>
<clus scale="   42.829">  1  9  2 -1</clus>
<clus scale="   78.495">  5  6 -1 -1</clus>
<clus scale="   90.822">  7  8 -1 -1</clus>
<clus scale="  141.564">  1  5  2 -1</clus>
<clus scale="   42.829">  1  5  2 -1</clus>
</clustering>
</event>
<event>
 9    1  0.4731329E-005  0.1107707E+03  0.7546771E-02  0.1262471E+00
         21   -1    0    0  501  502  0.00000000000E+00  0.00000000000E+00  0.12769768104E+03  0.12769768104E+03  0.00000000000E+00 0.  1.
          1   -1    0    0  502    0 -0.00000000000E+00 -0.00000000000E+00 -0.29446118512E+03  0.29446118512E+03  0.00000000000E+00 0. -1.
         23    2    1    2    0    0 -0.39598805271E+02 -0.37702574727E+02 -0.18444928109E+03  0.21306144785E+03  0.91564697049E+02 0.  0.
        -24    2    1    2    0    0  0.35426448112E+02  0.82093239675E+02 -0.46844844394E+02  0.13066183457E+03  0.82968321312E+02 0.  0.
         13    1    4    4    0    0  0.36462944842E+02  0.17990757181E+02 -0.52384009246E+02  0.66312126456E+02  0.00000000000E+00 0. -1.
        -14    1    4    4    0    0 -0.10364967295E+01  0.64102482495E+02  0.55391648521E+01  0.64349708117E+02  0.00000000000E+00 0.  1.
        -13    1    3    3    0    0  0.27602379228E+02 -0.34171218143E+01 -0.76195964396E+02  0.81113457890E+02  0.00000000000E+00 0. -1.
         13    1    3    3    0    0 -0.67201184499E+02 -0.34285452912E+02 -0.10825331669E+03  0.13194798996E+03  0.00000000000E+00 0.  1.
          2    1    1    2  501    0  0.41723571593E+01 -0.44390664949E+02  0.64530621395E+02  0.78435583739E+02  0.00000000000E+00 0. -1.
<scales pt_clust_5="13000.00000" pt_clust_6="13000.00000" pt_clust_7="13000.00000" pt_clust_8="13000.00000" pt_clust_9="44.58632"></scales>
<clustering>
<clus scale="   44.586">  1  9  2 -1</clus>
<clus scale="   82.968">  5  6 -1 -1</clus>
<clus scale="   91.565">  7  8 -1 -1</clus>
<clus scale="  103.778">  1  5  2 -1</clus>
<clus scale="   44.586">  1  5  2 -1</clus>
</clustering>
</event>
<event>
 9    1  0.4731329E-005  0.1039373E+03  0.7546771E-02  0.1277518E+00
         21   -1    0    0  501  502  0.00000000000E+00  0.00000000000E+00  0.73902755748E+03  0.73902755748E+03  0.00000000000E+00 0. -1.
          3   -1    0    0  502    0 -0.00000000000E+00 -0.00000000000E+00 -0.94579404324E+02  0.94579404324E+02  0.00000000000E+00 0. -1.
         23    2    1    2    0    0 -0.28559379227E+02 -0.47247061413E+02 -0.50050305080E+02  0.11809949110E+03  0.91621688512E+02 0.  0.
        -24    2    1    2    0    0 -0.38870448228E+02  0.19103695221E+02  0.27443604081E+03  0.28913760166E+03  0.80059660775E+02 0.  0.
         13    1    4    4    0    0 -0.54950413356E+02  0.71032272397E+00  0.11071413842E+03  0.12360288400E+03  0.00000000000E+00 0. -1.
        -14    1    4    4    0    0  0.16079965128E+02  0.18393372497E+02  0.16372190239E+03  0.16553471767E+03  0.00000000000E+00 0.  1.
        -11    1    3    3    0    0 -0.44017245034E+02  0.59202310568E+00  0.40968846190E+01  0.44211455702E+02  0.00000000000E+00 0.  1.
         11    1    3    3    0    0  0.15457865807E+02 -0.47839084519E+02 -0.54147189699E+02  0.73888035399E+02  0.00000000000E+00 0. -1.
          4    1    1    2  501    0  0.67429827455E+02  0.28143366192E+02  0.42006241742E+03  0.42636986904E+03  0.00000000000E+00 0. -1.
<scales pt_clust_5="13000.00000" pt_clust_6="13000.00000" pt_clust_7="13000.00000" pt_clust_8="13000.00000" pt_clust_9="73.06730"></scales>
<clustering>
<clus scale="   73.067">  1  9  2 -1</clus>
<clus scale="   80.060">  5  6 -1 -1</clus>
<clus scale="   91.622">  7  8 -1 -1</clus>
<clus scale="   93.904">  1  5  2 -1</clus>
<clus scale="   73.067">  1  5  2 -1</clus>
</clustering>
</event>
<event>
 9    1  0.4731329E-005  0.9858883E+02  0.7546771E-02  0.1289421E+00
          1   -1    0    0  502    0 -0.00000000000E+00  0.00000000000E+00  0.37489028825E+03  0.37489028825E+03  0.00000000000E+00 0. -1.
         21   -1    0    0  501  502  0.00000000000E+00 -0.00000000000E+00 -0.98248714900E+02  0.98248714900E+02  0.00000000000E+00 0.  1.
         23    2    1    2    0    0 -0.13460556654E+01 -0.35551927209E+02  0.32320672451E+03  0.33812557850E+03  0.92739250996E+02 0.  0.
        -24    2    1    2    0    0 -0.81214809478E+01  0.10046268598E+02 -0.62671613269E+02  0.10339711568E+03  0.81217894927E+02 0.  0.
         13    1    4    4    0    0  0.13458818430E+02 -0.31685959868E+02 -0.19354015723E+02  0.39493262348E+02  0.00000000000E+00 0. -1.
        -14    1    4    4    0    0 -0.21580299378E+02  0.41732228466E+02 -0.43317597546E+02  0.63903853335E+02  0.00000000000E+00 0.  1.
        -11    1    3    3    0    0  0.43195891909E+02 -0.67126636518E+01  0.18469131634E+03  0.18979417078E+03  0.00000000000E+00 0. -1.
         11    1    3    3    0    0 -0.44541947575E+02 -0.28839263557E+02  0.13851540817E+03  0.14833140773E+03  0.00000000000E+00 0.  1.
          2    1    1    2  501    0  0.94675366132E+01  0.25505658611E+02  0.16106462106E+02  0.31616308960E+02  0.00000000000E+00 0. -1.
<scales pt_clust_5="13000.00000" pt_clust_6="13000.00000" pt_clust_7="13000.00000" pt_clust_8="13000.00000" pt_clust_9="27.20612"></scales>
<clustering>
<clus scale="   27.206">  2  9  1 -1</clus>
<clus scale="   81.218">  5  6 -1 -1</clus>
<clus scale="   87.838">  2  5  1 -1</clus>
<clus scale="   92.739">  7  8 -1 -1</clus>
<clus scale="   27.206">  2  5  1 -1</clus>
</clustering>
</event>
<event>
 9    1  0.4731329E-005  0.1960848E+03  0.7546771E-02  0.1156871E+00
         21   -1    0    0  501  502  0.00000000000E+00  0.00000000000E+00  0.22473694240E+03  0.22473694240E+03  0.00000000000E+00 0. -1.
          1   -1    0    0  502    0 -0.00000000000E+00 -0.00000000000E+00 -0.40592896591E+03  0.40592896591E+03  0.00000000000E+00 0. -1.
         23    2    1    2    0    0 -0.11409828127E+03 -0.85063274727E+02 -0.10692891934E+03  0.20885226671E+03  0.10923047662E+03 0.  0.
        -24    2    1    2    0    0 -0.56480953247E+02  0.17874885284E+03  0.18531618057E+02  0.20620955243E+03  0.83891049435E+02 0.  0.
         13    1    4    4    0    0 -0.66536321980E+02  0.18261994874E+03  0.19758687662E+02  0.19536512882E+03  0.00000000000E+00 0. -1.
        -14    1    4    4    0    0  0.10055368733E+02 -0.38710958955E+01 -0.12270696042E+01  0.10844423617E+02  0.00000000000E+00 0.  1.
        -13    1    3    3    0    0 -0.55458388155E+01 -0.21532787438E+02  0.20183782412E+02  0.30030023900E+02  0.00000000000E+00 0. -1.
         13    1    3    3    0    0 -0.10855244245E+03 -0.63530487289E+02 -0.12711270175E+03  0.17882224281E+03  0.00000000000E+00 0.  1.
          2    1    1    2  501    0  0.17057923452E+03 -0.93685578116E+02 -0.92794722231E+02  0.21560408917E+03  0.00000000000E+00 0. -1.
<scales pt_clust_5="13000.00000" pt_clust_6="13000.00000" pt_clust_7="13000.00000" pt_clust_8="13000.00000" pt_clust_9="177.23308"></scales>
<clustering>
<clus scale="   83.891">  5  6 -1 -1</clus>
<clus scale="  109.230">  7  8 -1 -1</clus>
<clus scale="  179.403">  2  7  1 -1</clus>
<clus scale="  177.233">  1  9  2 -1</clus>
<clus scale="  177.233">  1  5  2 -1</clus>
</clustering>
</event>
<event>
 9    1  0.4731329E-005  0.2144507E+03  0.7546771E-02  0.1159211E+00
         -2   -1    0    0    0  501 -0.00000000000E+00  0.00000000000E+00  0.36379802400E+03  0.36379802400E+03  0.00000000000E+00 0.  1.
         21   -1    0    0  501  502  0.00000000000E+00 -0.00000000000E+00 -0.31618991560E+03  0.31618991560E+03  0.00000000000E+00 0. -1.
         23    2    1    2    0    0  0.89586541698E+02 -0.20172438846E+02 -0.15761692272E+03  0.20421435147E+03  0.91802675770E+02 0.  0.
        -24    2    1    2    0    0 -0.14933103110E+03  0.18666793910E+03  0.12758592960E+03  0.28259495137E+03  0.80231295472E+02 0.  0.
         11    1    4    4    0    0 -0.80681629598E+02  0.73374803593E+02  0.17704586644E+02  0.11048456700E+03  0.00000000000E+00 0. -1.
        -12    1    4    4    0    0 -0.68649401499E+02  0.11329313551E+03  0.10988134295E+03  0.17211038437E+03  0.00000000000E+00 0.  1.
        -13    1    3    3    0    0  0.21129420934E+02 -0.43828167417E+02 -0.10160464308E+03  0.11265373577E+03  0.00000000000E+00 0.  1.
         13    1    3    3    0    0  0.68457120763E+02  0.23655728571E+02 -0.56012279637E+02  0.91560615701E+02  0.00000000000E+00 0. -1.
         -1    1    1    2    0  502  0.59744489399E+02 -0.16649550025E+03  0.77639101516E+02  0.19317863676E+03  0.00000000000E+00 0.  1.
<scales pt_clust_5="13000.00000" pt_clust_6="13000.00000" pt_clust_7="13000.00000" pt_clust_8="13000.00000" pt_clust_9="198.87693"></scales>
<clustering>
<clus scale="   80.231">  5  6 -1 -1</clus>
<clus scale="   91.803">  7  8 -1 -1</clus>
<clus scale="  129.848">  1  7  2 -1</clus>
<clus scale="  198.877">  2  9  1 -1</clus>
<clus scale="  198.877">  2  5  1 -1</clus>
</clustering>
</event>
<event>
 9    1  0.4731329E-005  0.2349503E+03  0.7546771E-02  0.1142640E+00
         -2   -1    0    0    0  501 -0.00000000000E+00  0.00000000000E+00  0.10557990161E+03  0.10557990161E+03  0.00000000000E+00 0.  1.
         21   -1    0    0  501  502  0.00000000000E+00 -0.00000000000E+00 -0.97576559871E+03  0.97576559871E+03  0.00000000000E+00 0.  1.
         23    2    1    2    0    0 -0.11507259957E+03 -0.60881972157E+01 -0.93312628680E+02  0.17338070124E+03  0.89860177916E+02 0.  0.
        -24    2    1    2    0    0  0.27030658161E+03 -0.66556091052E+02 -0.56818103392E+03  0.63791453142E+03  0.81301296240E+02 0.  0.
         13    1    4    4    0    0  0.12592904797E+03 -0.64757812111E+02 -0.22850393149E+03  0.26882288976E+03  0.00000000000E+00 0. -1.
        -14    1    4    4    0    0  0.14437753364E+03 -0.17982789415E+01 -0.33967710243E+03  0.36909164166E+03  0.00000000000E+00 0.  1.
        -13    1    3    3    0    0  0.13655678975E+01 -0.27331517802E+02 -0.22717856986E+02  0.35566524529E+02  0.00000000000E+00 0. -1.
         13    1    3    3    0    0 -0.11643816746E+03  0.21243320587E+02 -0.70594771695E+02  0.13781417671E+03  0.00000000000E+00 0.  1.
         -1    1    1    2    0  502 -0.15523398205E+03  0.72644288268E+02 -0.20869203449E+03  0.27005026766E+03  0.00000000000E+00 0.  1.
<scales pt_clust_5="13000.00000" pt_clust_6="13000.00000" pt_clust_7="13000.00000" pt_clust_8="13000.00000" pt_clust_9="220.43537"></scales>
<clustering>
<clus scale="   81.301">  5  6 -1 -1</clus>
<clus scale="   89.860">  7  8 -1 -1</clus>
<clus scale="  146.129">  1  7  2 -1</clus>
<clus scale="  220.435">  2  9  1 -1</clus>
<clus scale="  220.435">  2  5  1 -1</clus>
</clustering>
</event>
<event>
 9    1  0.4731329E-005  0.1591191E+03  0.7546771E-02  0.1211114E+00
         -2   -1    0    0    0  501 -0.00000000000E+00  0.00000000000E+00  0.95367406678E+03  0.95367406678E+03  0.00000000000E+00 0.  1.
         21   -1    0    0  501  502  0.00000000000E+00 -0.00000000000E+00 -0.12909786921E+03  0.12909786921E+03  0.00000000000E+00 0.  1.
         23    2    1    2    0    0  0.30015419066E+02  0.24637780484E+02  0.77847088039E+02  0.12669460553E+03  0.92105419739E+02 0.  0.
        -24    2    1    2    0    0 -0.16048585751E+03  0.16743031587E+02  0.79183514265E+03  0.81196119279E+03  0.79006619300E+02 0.  0.
         13    1    4    4    0    0 -0.19020050996E+02  0.30189893961E+02  0.11670344516E+03  0.12203641322E+03  0.00000000000E+00 0. -1.
        -14    1    4    4    0    0 -0.14146580652E+03 -0.13446862374E+02  0.67513169748E+03  0.68992477957E+03  0.00000000000E+00 0.  1.
        -13    1    3    3    0    0  0.60390247221E+01 -0.26918175600E+02  0.61701906897E+02  0.67588337100E+02  0.00000000000E+00 0.  1.
         13    1    3    3    0    0  0.23976394344E+02  0.51555956085E+02  0.16145181142E+02  0.59106268430E+02  0.00000000000E+00 0. -1.
         -1    1    1    2    0  502  0.13047043845E+03 -0.41380812072E+02 -0.45106033115E+02  0.14411613768E+03  0.00000000000E+00 0.  1.
<scales pt_clust_5="13000.00000" pt_clust_6="13000.00000" pt_clust_7="13000.00000" pt_clust_8="13000.00000" pt_clust_9="138.11898"></scales>
<clustering>
<clus scale="   79.007">  5  6 -1 -1</clus>
<clus scale="   92.105">  7  8 -1 -1</clus>
<clus scale="   99.957">  1  7  2 -1</clus>
<clus scale="  138.119">  2  9  1 -1</clus>
<clus scale="  138.119">  2  5  1 -1</clus>
</clustering>
</event>
<event>
 9    1  0.4731329E-005  0.9614529E+02  0.7546771E-02  0.1295461E+00
         21   -1    0    0  501  502  0.00000000000E+00  0.00000000000E+00  0.66507337928E+03  0.66507337928E+03  0.00000000000E+00 0. -1.
          3   -1    0    0  502    0 -0.00000000000E+00 -0.00000000000E+00 -0.36293774854E+02  0.36293774854E+02  0.00000000000E+00 0. -1.
         23    2    1    2    0    0 -0.69200750334E+01  0.22928347039E+02  0.51647032739E+02  0.10750102403E+03  0.91189131154E+02 0.  0.
        -24    2    1    2    0    0  0.21667826935E+02 -0.53390259036E+02  0.32215731612E+03  0.33665453390E+03  0.78936204514E+02 0.  0.
         13    1    4    4    0    0  0.43743799959E+02 -0.32074570579E+02  0.11399541896E+03  0.12624283606E+03  0.00000000000E+00 0. -1.
        -14    1    4    4    0    0 -0.22075973024E+02 -0.21315688457E+02  0.20816189716E+03  0.21041169784E+03  0.00000000000E+00 0.  1.
        -11    1    3    3    0    0 -0.16617779725E+02 -0.24510391227E+02 -0.80006566965E+01  0.30674425645E+02  0.00000000000E+00 0.  1.
         11    1    3    3    0    0  0.96977046919E+01  0.47438738266E+02  0.59647689436E+02  0.76826598386E+02  0.00000000000E+00 0. -1.
          4    1    1    2  501    0 -0.14747751901E+02  0.30461911997E+02  0.25497525557E+03  0.25721159620E+03  0.00000000000E+00 0. -1.
<scales pt_clust_5="13000.00000" pt_clust_6="13000.00000" pt_clust_7="13000.00000" pt_clust_8="13000.00000" pt_clust_9="33.84412"></scales>
<clustering>
<clus scale="   33.844">  1  9  2 -1</clus>
<clus scale="   78.936">  5  6 -1 -1</clus>
<clus scale="   84.613">  1  5  2 -1</clus>
<clus scale="   91.189">  7  8 -1 -1</clus>
<clus scale="   33.844">  1  5  2 -1</clus>
</clustering>
</event>
<event>
 9    1  0.4731329E-005  0.9835750E+02  0.7546771E-02  0.1285965E+00
          1   -1    0    0  502    0 -0.00000000000E+00  0.00000000000E+00  0.51569057181E+03  0.51569057181E+03  0.00000000000E+00 0. -1.
         21   -1    0    0  501  502  0.00000000000E+00 -0.00000000000E+00 -0.34589542799E+02  0.34589542799E+02  0.00000000000E+00 0.  1.
        -24    2    1    2    0    0  0.30723334068E+02  0.26317150939E+02  0.28041086793E+03  0.29467292935E+03  0.81026938426E+02 0.  0.
         23    2    1    2    0    0 -0.62210353439E+02 -0.42912797243E+02  0.11160577346E+03  0.15967556386E+03  0.85608415378E+02 0.  0.
         13    1    3    3    0    0  0.14035209615E+02  0.54732671382E+02  0.19839584229E+03  0.20628514892E+03  0.00000000000E+00 0. -1.
        -14    1    3    3    0    0  0.16688124453E+02 -0.28415520443E+02  0.82015025636E+02  0.88387780433E+02  0.00000000000E+00 0.  1.
        -13    1    4    4    0    0 -0.24776499977E+02 -0.50930302543E+02  0.19448914823E+02  0.59883478155E+02  0.00000000000E+00 0.  1.
         13    1    4    4    0    0 -0.37433853462E+02  0.80175053002E+01  0.92156858637E+02  0.99792085708E+02  0.00000000000E+00 0. -1.
          2    1    1    2  501    0  0.31487019371E+02  0.16595646303E+02  0.89084387623E+02  0.95931621394E+02  0.00000000000E+00 0. -1.
<scales pt_clust_5="13000.00000" pt_clust_6="13000.00000" pt_clust_7="13000.00000" pt_clust_8="13000.00000" pt_clust_9="35.59282"></scales>
<clustering>
<clus scale="   35.593">  2  9  1 -1</clus>
<clus scale="   81.027">  5  6 -1 -1</clus>
<clus scale="   85.608">  7  8 -1 -1</clus>
<clus scale="   94.397">  1  5  2 -1</clus>
<clus scale="   35.593">  2  5  1 -1</clus>
</clustering>
</event>
<event>
 9    1  0.4731329E-005  0.1017358E+03  0.7546771E-02  0.1281774E+00
         21   -1    0    0  501  502  0.00000000000E+00  0.00000000000E+00  0.20622603710E+03  0.20622603710E+03  0.00000000000E+00 0.  1.
          3   -1    0    0  502    0 -0.00000000000E+00 -0.00000000000E+00 -0.11988918978E+03  0.11988918978E+03  0.00000000000E+00 0. -1.
         23    2    1    2    0    0  0.23648152790E+02  0.36790235160E+02 -0.73193636607E+02  0.12479961060E+03  0.91131102438E+02 0.  0.
        -24    2    1    2    0    0 -0.10983053613E+02 -0.56328546301E+02  0.13670339024E+03  0.16870846146E+03  0.80505872274E+02 0.  0.
         11    1    4    4    0    0  0.57717323746E+01 -0.66182348478E+02  0.59790416161E+02  0.89377346175E+02  0.00000000000E+00 0. -1.
        -12    1    4    4    0    0 -0.16754785988E+02  0.98538021765E+01  0.76912974081E+02  0.79331115288E+02  0.00000000000E+00 0.  1.
        -13    1    3    3    0    0 -0.30871927383E+02 -0.44831823380E+01 -0.13356582198E+02  0.33934836264E+02  0.00000000000E+00 0.  1.
         13    1    3    3    0    0  0.54520080174E+02  0.41273417498E+02 -0.59837054409E+02  0.90864774332E+02  0.00000000000E+00 0. -1.
          4    1    1    2  501    0 -0.12665099177E+02  0.19538311141E+02  0.22827093688E+02  0.32607154823E+02  0.00000000000E+00 0. -1.
<scales pt_clust_5="13000.00000" pt_clust_6="13000.00000" pt_clust_7="13000.00000" pt_clust_8="13000.00000" pt_clust_9="23.28412"></scales>
<clustering>
<clus scale="   23.284">  1  9  2 -1</clus>
<clus scale="   80.506">  5  6 -1 -1</clus>
<clus scale="   91.131">  7  8 -1 -1</clus>
<clus scale="   92.339">  1  5  2 -1</clus>
<clus scale="   23.284">  1  5  2 -1</clus>
</clustering>
</event>
<event>
 9    1  0.4731329E-005  0.1134094E+03  0.7546771E-02  0.1262405E+00
         21   -1    0    0  501  502  0.00000000000E+00  0.00000000000E+00  0.10755375126E+04  0.10755375126E+04  0.00000000000E+00 0. -1.
          3   -1    0    0  502    0 -0.00000000000E+00 -0.00000000000E+00 -0.37176916482E+02  0.37176916482E+02  0.00000000000E+00 0. -1.
         23    2    1    2    0    0  0.20472511571E+01  0.30685173577E+02  0.63569583325E+02  0.11582968744E+03  0.91813144228E+02 0.  0.
        -24    2    1    2    0    0  0.42149838536E+02  0.56434891068E+02  0.61575998676E+03  0.62480065699E+03  0.79082196845E+02 0.  0.
         11    1    4    4    0    0  0.27804150776E+02  0.17228169978E+02  0.68060782160E+02  0.75512586431E+02  0.00000000000E+00 0. -1.
        -12    1    4    4    0    0  0.14345687759E+02  0.39206721091E+02  0.54769920460E+03  0.54928807056E+03  0.00000000000E+00 0.  1.
        -11    1    3    3    0    0 -0.35995476869E+02  0.31092589273E+02  0.76214686114E+01  0.48171674732E+02  0.00000000000E+00 0.  1.
         11    1    3    3    0    0  0.38042728026E+02 -0.40741569560E+00  0.55948114713E+02  0.67658012705E+02  0.00000000000E+00 0. -1.
          4    1    1    2  501    0 -0.44197089693E+02 -0.87120064646E+02  0.35903102602E+03  0.37208408464E+03  0.00000000000E+00 0. -1.
<scales pt_clust_5="13000.00000" pt_clust_6="13000.00000" pt_clust_7="13000.00000" pt_clust_8="13000.00000" pt_clust_9="81.28786"></scales>
<clustering>
<clus scale="   79.082">  5  6 -1 -1</clus>
<clus scale="   91.813">  7  8 -1 -1</clus>
<clus scale="   96.827">  2  7  1 -1</clus>
<clus scale="   81.288">  1  9  2 -1</clus>
<clus scale="   81.288">  1  5  2 -1</clus>
</clustering>
</event>
<event>
 9    1  0.4731329E-005  0.1433791E+03  0.7546771E-02  0.1224809E+00
         21   -1    0    0  501  502  0.00000000000E+00  0.00000000000E+00  0.73435035708E+02  0.73435035708E+02  0.00000000000E+00 0.  1.
         -2   -1    0    0    0  501 -0.00000000000E+00 -0.00000000000E+00 -0.49083085901E+03  0.49083085901E+03  0.00000000000E+00 0.  1.
         23    2    1    2    0    0  0.35691784821E+02  0.29793371051E+02 -0.69774159108E+02  0.12389375253E+03  0.91212280838E+02 0.  0.
        -24    2    1    2    0    0  0.10032414167E+03 -0.55599633007E+01 -0.14805725413E+03  0.19765101810E+03  0.83959084460E+02 0.  0.
         11    1    4    4    0    0  0.27452077410E+02  0.37292538759E+02 -0.56004434524E+02  0.72669434342E+02  0.00000000000E+00 0. -1.
        -12    1    4    4    0    0  0.72872064257E+02 -0.42852502060E+02 -0.92052819603E+02  0.12498158376E+03  0.00000000000E+00 0.  1.
        -11    1    3    3    0    0  0.59981321445E+02 -0.42215321843E-01 -0.58542431804E+02  0.83815136019E+02  0.00000000000E+00 0. -1.
         11    1    3    3    0    0 -0.24289536623E+02  0.29835586373E+02 -0.11231727304E+02  0.40078616516E+02  0.00000000000E+00 0.  1.
         -1    1    1    2    0  502 -0.13601592649E+03 -0.24233407750E+02 -0.19956441006E+03  0.24272112408E+03  0.00000000000E+00 0.  1.
<scales pt_clust_5="13000.00000" pt_clust_6="13000.00000" pt_clust_7="13000.00000" pt_clust_8="13000.00000" pt_clust_9="116.22583"></scales>
<clustering>
<clus scale="   83.959">  5  6 -1 -1</clus>
<clus scale="   91.212">  7  8 -1 -1</clus>
<clus scale="  102.378">  2  7  1 -1</clus>
<clus scale="  116.226">  1  9  2 -1</clus>
<clus scale="  116.226">  1  5  2 -1</clus>
</clustering>
</event>
<event>
 9    1  0.4731329E-005  0.3099786E+03  0.7546771E-02  0.1080722E+00
         21   -1    0    0  501  502  0.00000000000E+00  0.00000000000E+00  0.12429243898E+03  0.12429243898E+03  0.00000000000E+00 0. -1.
          1   -1    0    0  502    0 -0.00000000000E+00 -0.00000000000E+00 -0.13012011201E+04  0.13012011201E+04  0.00000000000E+00 0. -1.
         23    2    1    2    0    0  0.12644755737E+03 -0.28773965669E+03 -0.79932385472E+03  0.86380591445E+03  0.91972486705E+02 0.  0.
        -24    2    1    2    0    0 -0.12675505038E+03  0.21331436685E+03 -0.10886619823E+03  0.28285271238E+03  0.81141517599E+02 0.  0.
         13    1    4    4    0    0 -0.13333399923E+03  0.21605136143E+03 -0.10682124853E+03  0.27543951289E+03  0.00000000000E+00 0. -1.
        -14    1    4    4    0    0  0.65789488504E+01 -0.27369945750E+01 -0.20449497030E+01  0.74131994825E+01  0.00000000000E+00 0.  1.
        -11    1    3    3    0    0 -0.16200469996E+01 -0.10009884215E+03 -0.25813055024E+03  0.27686419725E+03  0.00000000000E+00 0.  1.
         11    1    3    3    0    0  0.12806760437E+03 -0.18764081455E+03 -0.54119330448E+03  0.58694171720E+03  0.00000000000E+00 0. -1.
          2    1    1    2  501    0  0.30749300796E+00  0.74425289838E+02 -0.26871862816E+03  0.27883493225E+03  0.00000000000E+00 0. -1.
<scales pt_clust_5="13000.00000" pt_clust_6="13000.00000" pt_clust_7="13000.00000" pt_clust_8="13000.00000" pt_clust_9="74.42596"></scales>
<clustering>
<clus scale="   74.426">  1  9  2 -1</clus>
<clus scale="   81.142">  5  6 -1 -1</clus>
<clus scale="   91.972">  7  8 -1 -1</clus>
<clus scale="  306.939">  1  5  2 -1</clus>
<clus scale="   74.426">  1  5  2 -1</clus>
</clustering>
</event>
<event>
 9    1  0.4731329E-005  0.1120448E+03  0.7546771E-02  0.1261584E+00
         21   -1    0    0  501  502  0.00000000000E+00  0.00000000000E+00  0.55218469957E+02  0.55218469957E+02  0.00000000000E+00 0. -1.
          1   -1    0    0  502    0 -0.00000000000E+00 -0.00000000000E+00 -0.30783909160E+03  0.30783909160E+03  0.00000000000E+00 0. -1.
         23    2    1    2    0    0 -0.74361736231E+02  0.10506193621E+02 -0.18722315315E+03  0.22146071735E+03  0.91390876634E+02 0.  0.
        -24    2    1    2    0    0  0.50672052489E+02  0.41602083846E+01 -0.64312751875E+02  0.11371349660E+03  0.78801427768E+02 0.  0.
         11    1    4    4    0    0  0.38974387718E+02 -0.35151370131E+02 -0.31719034799E+02  0.61324700478E+02  0.00000000000E+00 0. -1.
        -12    1    4    4    0    0  0.11697664770E+02  0.39311578515E+02 -0.32593717076E+02  0.52388796124E+02  0.00000000000E+00 0.  1.
        -11    1    3    3    0    0 -0.24262157636E+02 -0.32242070109E+02 -0.27886067282E+02  0.49049323406E+02  0.00000000000E+00 0.  1.
         11    1    3    3    0    0 -0.50099578595E+02  0.42748263730E+02 -0.15933708587E+03  0.17241139394E+03  0.00000000000E+00 0. -1.
          2    1    1    2  501    0  0.23689683742E+02 -0.14666402005E+02 -0.10847166129E+01  0.27883347606E+02  0.00000000000E+00 0. -1.
<scales pt_clust_5="13000.00000" pt_clust_6="13000.00000" pt_clust_7="13000.00000" pt_clust_8="13000.00000" pt_clust_9="27.86224"></scales>
<clustering>
<clus scale="   27.862">  1  9  2 -1</clus>
<clus scale="   78.801">  5  6 -1 -1</clus>
<clus scale="   91.391">  7  8 -1 -1</clus>
<clus scale="  102.036">  1  5  2 -1</clus>
<clus scale="   27.862">  1  5  2 -1</clus>
</clustering>
</event>
<event>
 9    1  0.4731329E-005  0.1049608E+03  0.7546771E-02  0.1274441E+00
         21   -1    0    0  501  502  0.00000000000E+00  0.00000000000E+00  0.35322510497E+03  0.35322510497E+03  0.00000000000E+00 0.  1.
         -4   -1    0    0    0  501 -0.00000000000E+00 -0.00000000000E+00 -0.13885000626E+03  0.13885000626E+03  0.00000000000E+00 0.  1.
        -24    2    1    2    0    0 -0.56709951129E+01 -0.56357039388E+02 -0.98320330090E+02  0.13881243300E+03  0.79960791473E+02 0.  0.
         23    2    1    2    0    0 -0.10328653495E+02  0.21835285310E+02  0.29852490878E+03  0.31266041355E+03  0.89754956795E+02 0.  0.
         11    1    3    3    0    0  0.29383093699E+02  0.47130439880E-01 -0.44532887013E+02  0.53353035924E+02  0.00000000000E+00 0. -1.
        -12    1    3    3    0    0 -0.35054088811E+02 -0.56404169827E+02 -0.53787443078E+02  0.85459397079E+02  0.00000000000E+00 0.  1.
        -11    1    4    4    0    0 -0.38102772820E+02 -0.17873916888E+02  0.10405931810E+03  0.11224811752E+03  0.00000000000E+00 0. -1.
         11    1    4    4    0    0  0.27774119325E+02  0.39709202198E+02  0.19446559067E+03  0.20041229603E+03  0.00000000000E+00 0.  1.
         -3    1    1    2    0  502  0.15999648608E+02  0.34521754078E+02  0.14170520018E+02  0.40602264688E+02  0.00000000000E+00 0.  1.
<scales pt_clust_5="13000.00000" pt_clust_6="13000.00000" pt_clust_7="13000.00000" pt_clust_8="13000.00000" pt_clust_9="38.04920"></scales>
<clustering>
<clus scale="   38.049">  1  9  2 -1</clus>
<clus scale="   79.961">  5  6 -1 -1</clus>
<clus scale="   89.755">  7  8 -1 -1</clus>
<clus scale="   96.719">  2  5  1 -1</clus>
<clus scale="   38.049">  1  5  2 -1</clus>
</clustering>
</event>
<event>
 9    1  0.4731329E-005  0.1203341E+03  0.7546771E-02  0.1246067E+00
         21   -1    0    0  501  502  0.00000000000E+00  0.00000000000E+00  0.51662539092E+03  0.51662539092E+03  0.00000000000E+00 0.  1.
          3   -1    0    0  502    0 -0.00000000000E+00 -0.00000000000E+00 -0.60207051283E+02  0.60207051283E+02  0.00000000000E+00 0. -1.
         23    2    1    2    0    0 -0.69894623144E+02  0.53673866576E+02  0.40928835116E+02  0.13333286568E+03  0.91303566347E+02 0.  0.
        -24    2    1    2    0    0  0.32794845847E+02 -0.20549637446E+02  0.35075399050E+03  0.36186444434E+03  0.80123184641E+02 0.  0.
         11    1    4    4    0    0  0.21766537481E+02  0.20880232203E+02  0.52522743955E+02  0.60567358233E+02  0.00000000000E+00 0. -1.
        -12    1    4    4    0    0  0.11028308366E+02 -0.41429869649E+02  0.29823124654E+03  0.30129708611E+03  0.00000000000E+00 0.  1.
        -13    1    3    3    0    0  0.20494832511E+02  0.68409996936E+01 -0.41426668774E+01  0.21999980121E+02  0.00000000000E+00 0.  1.
         13    1    3    3    0    0 -0.90389455655E+02  0.46832866882E+02  0.45071501994E+02  0.11133288555E+03  0.00000000000E+00 0. -1.
          4    1    1    2  501    0  0.37099777298E+02 -0.33124229130E+02  0.64735514027E+02  0.81635132188E+02  0.00000000000E+00 0. -1.
<scales pt_clust_5="13000.00000" pt_clust_6="13000.00000" pt_clust_7="13000.00000" pt_clust_8="13000.00000" pt_clust_9="49.73538"></scales>
<clustering>
<clus scale="   49.735">  1  9  2 -1</clus>
<clus scale="   80.123">  5  6 -1 -1</clus>
<clus scale="   91.304">  7  8 -1 -1</clus>
<clus scale="  112.088">  1  5  2 -1</clus>
<clus scale="   49.735">  1  5  2 -1</clus>
</clustering>
</event>
<event>
 9    1  0.4731329E-005  0.9329856E+02  0.7546771E-02  0.1300820E+00
         21   -1    0    0  501  502  0.00000000000E+00  0.00000000000E+00  0.34721366789E+03  0.34721366789E+03  0.00000000000E+00 0. -1.
          1   -1    0    0  502    0 -0.00000000000E+00 -0.00000000000E+00 -0.12882961910E+03  0.12882961910E+03  0.00000000000E+00 0. -1.
         23    2    1    2    0    0  0.56677848137E+01 -0.80660827538E+01 -0.64948341315E+02  0.11189074752E+03  0.90576304106E+02 0.  0.
        -24    2    1    2    0    0 -0.26454648319E+02  0.49583060442E+02  0.24844998169E+02  0.10152831188E+03  0.80823238484E+02 0.  0.
         11    1    4    4    0    0 -0.45941961448E+02  0.12749226408E+02 -0.81581037852E+01  0.48371078684E+02  0.00000000000E+00 0. -1.
        -12    1    4    4    0    0  0.19487313129E+02  0.36833834035E+02  0.33003101954E+02  0.53157233198E+02  0.00000000000E+00 0.  1.
        -11    1    3    3    0    0 -0.29327424608E+02 -0.24703165274E+02 -0.62168001696E+02  0.73042485196E+02  0.00000000000E+00 0. -1.
         11    1    3    3    0    0  0.34995209422E+02  0.16637082521E+02 -0.27803396191E+01  0.38848262325E+02  0.00000000000E+00 0.  1.
          2    1    1    2  501    0  0.20786863505E+02 -0.41516977689E+02  0.25848739193E+03  0.26262422759E+03  0.00000000000E+00 0. -1.
<scales pt_clust_5="13000.00000" pt_clust_6="13000.00000" pt_clust_7="13000.00000" pt_clust_8="13000.00000" pt_clust_9="46.43009"></scales>
<clustering>
<clus scale="   46.430">  1  9  2 -1</clus>
<clus scale="   80.823">  5  6 -1 -1</clus>
<clus scale="   83.863">  1  5  2 -1</clus>
<clus scale="   90.576">  7  8 -1 -1</clus>
<clus scale="   46.430">  1  5  2 -1</clus>
</clustering>
</event>
<event>
 9    1  0.4731329E-005  0.1198808E+03  0.7546771E-02  0.1252133E+00
          3   -1    0    0  502    0 -0.00000000000E+00  0.00000000000E+00  0.32047675897E+03  0.32047675897E+03  0.00000000000E+00 0. -1.
         21   -1    0    0  501  502  0.00000000000E+00 -0.00000000000E+00 -0.65156453367E+02  0.65156453367E+02  0.00000000000E+00 0.  1.
         23    2    1    2    0    0 -0.56091303088E+02 -0.28546086557E+02  0.21047499380E+03  0.24222209120E+03  0.10203286290E+03 0.  0.
        -24    2    1    2    0    0  0.40346089493E+02  0.54334749654E+02  0.45913276475E+02  0.11317691131E+03  0.78236259744E+02 0.  0.
         13    1    4    4    0    0  0.23423625661E+02 -0.14044706041E+01  0.49536028049E+02  0.54812925954E+02  0.00000000000E+00 0. -1.
        -14    1    4    4    0    0  0.16922463832E+02  0.55739220258E+02 -0.36227515746E+01  0.58363985351E+02  0.00000000000E+00 0.  1.
        -11    1    3    3    0    0 -0.25081086989E+01  0.23127402965E+02  0.51592203597E+01  0.23828238120E+02  0.00000000000E+00 0.  1.
         11    1    3    3    0    0 -0.53583194389E+02 -0.51673489523E+02  0.20531577344E+03  0.21839385308E+03  0.00000000000E+00 0. -1.
          4    1    1    2  501    0  0.15745213595E+02 -0.25788663097E+02 -0.10679646724E+01  0.30234209829E+02  0.00000000000E+00 0. -1.
<scales pt_clust_5="13000.00000" pt_clust_6="13000.00000" pt_clust_7="13000.00000" pt_clust_8="13000.00000" pt_clust_9="30.21534"></scales>
<clustering>
<clus scale="   30.215">  2  9  1 -1</clus>
<clus scale="   78.236">  5  6 -1 -1</clus>
<clus scale="  100.407">  2  5  1 -1</clus>
<clus scale="  102.033">  7  8 -1 -1</clus>
<clus scale="   30.215">  2  5  1 -1</clus>
</clustering>
</event>
<event>
 9    1  0.4731329E-005  0.9152058E+02  0.7546771E-02  0.1305180E+00
         21   -1    0    0  501  502  0.00000000000E+00  0.00000000000E+00  0.46932973125E+02  0.46932973125E+02  0.00000000000E+00 0. -1.
         -4   -1    0    0    0  501 -0.00000000000E+00 -0.00000000000E+00 -0.39212172163E+03  0.39212172163E+03  0.00000000000E+00 0.  1.
        -24    2    1    2    0    0  0.17608167196E+02 -0.94861875918E+01 -0.28458322387E+03  0.29647843140E+03  0.80695809503E+02 0.  0.
         23    2    1    2    0    0  0.10976633149E+02  0.57926629704E+01 -0.66870334812E+02  0.11308082673E+03  0.90341520229E+02 0.  0.
         13    1    3    3    0    0 -0.10865677932E+02 -0.36151375611E+02 -0.83362053664E+02  0.91510747492E+02  0.00000000000E+00 0. -1.
        -14    1    3    3    0    0  0.28473845128E+02  0.26665188019E+02 -0.20122117020E+03  0.20496768391E+03  0.00000000000E+00 0.  1.
        -11    1    4    4    0    0 -0.24278480259E+02  0.27659569349E+02 -0.60914791980E+02  0.71169573992E+02  0.00000000000E+00 0.  1.
         11    1    4    4    0    0  0.35255113407E+02 -0.21866906379E+02 -0.59555428325E+01  0.41911252742E+02  0.00000000000E+00 0. -1.
         -3    1    1    2    0  502 -0.28584800345E+02  0.36935246214E+01  0.62648101757E+01  0.29495436621E+02  0.00000000000E+00 0.  1.
<scales pt_clust_5="13000.00000" pt_clust_6="13000.00000" pt_clust_7="13000.00000" pt_clust_8="13000.00000" pt_clust_9="28.82244"></scales>
<clustering>
<clus scale="   28.822">  1  9  2 -1</clus>
<clus scale="   80.696">  5  6 -1 -1</clus>
<clus scale="   82.014">  2  5  1 -1</clus>
<clus scale="   90.342">  7  8 -1 -1</clus>
<clus scale="   28.822">  1  5  2 -1</clus>
</clustering>
</event>
<event>
 9    1  0.4731329E-005  0.1610385E+03  0.7546771E-02  0.1188499E+00
          1   -1    0    0  502    0 -0.00000000000E+00  0.00000000000E+00  0.38630374470E+03  0.38630374470E+03  0.00000000000E+00 0. -1.
         21   -1    0    0  501  502  0.00000000000E+00 -0.00000000000E+00 -0.28586092657E+03  0.28586092657E+03  0.00000000000E+00 0.  1.
        -24    2    1    2    0    0 -0.34511366452E+02  0.13234553788E+03  0.33286834022E+03  0.36936669649E+03  0.83210869138E+02 0.  0.
         23    2    1    2    0    0  0.28253416889E+02 -0.10632329817E+03 -0.11569982190E+03  0.18304319209E+03  0.89529113037E+02 0.  0.
         11    1    3    3    0    0 -0.32501281563E+02  0.49565135905E+02  0.22892018602E+03  0.23646878772E+03  0.00000000000E+00 0. -1.
        -12    1    3    3    0    0 -0.20100848891E+01  0.82780401972E+02  0.10394815420E+03  0.13289790876E+03  0.00000000000E+00 0.  1.
        -11    1    4    4    0    0 -0.32766191601E+02 -0.34556426982E+02 -0.40186491440E+02  0.62311508184E+02  0.00000000000E+00 0. -1.
         11    1    4    4    0    0  0.61019608491E+02 -0.71766871192E+02 -0.75513330460E+02  0.12073168390E+03  0.00000000000E+00 0.  1.
          2    1    1    2  501    0  0.62579495624E+01 -0.26022239703E+02 -0.11672570019E+03  0.11975478269E+03  0.00000000000E+00 0. -1.
<scales pt_clust_5="13000.00000" pt_clust_6="13000.00000" pt_clust_7="13000.00000" pt_clust_8="13000.00000" pt_clust_9="26.76413"></scales>
<clustering>
<clus scale="   26.764">  2  9  1 -1</clus>
<clus scale="   83.211">  5  6 -1 -1</clus>
<clus scale="   89.529">  7  8 -1 -1</clus>
<clus scale="  157.613">  1  5  2 -1</clus>
<clus scale="   26.764">  2  5  1 -1</clus>
</clustering>
</event>
<event>
 9    1  0.4731329E-005  0.1499910E+03  0.7546771E-02  0.1207263E+00
         21   -1    0    0  501  502  0.00000000000E+00  0.00000000000E+00  0.11919305792E+03  0.11919305792E+03  0.00000000000E+00 0. -1.
          1   -1    0    0  502    0 -0.00000000000E+00 -0.00000000000E+00 -0.10131435113E+04  0.10131435113E+04  0.00000000000E+00 0. -1.
        -24    2    1    2    0    0  0.97096306808E+02  0.25367047972E+02 -0.47082570170E+02  0.13786930953E+03  0.81975595009E+02 0.  0.
         23    2    1    2    0    0  0.29829738223E+02  0.10885289295E+03 -0.20437262456E+02  0.14764213939E+03  0.92961035070E+02 0.  0.
         11    1    3    3    0    0  0.62668481743E+02  0.27313811382E+02 -0.68903502700E+02  0.97062225302E+02  0.00000000000E+00 0. -1.
        -12    1    3    3    0    0  0.34427825065E+02 -0.19467634102E+01  0.21820932530E+02  0.40807084225E+02  0.00000000000E+00 0.  1.
        -13    1    4    4    0    0  0.26107758621E+02  0.15056062775E+02  0.28761817195E+02  0.41659839353E+02  0.00000000000E+00 0.  1.
         13    1    4    4    0    0  0.37219796021E+01  0.93796830174E+02 -0.49199079651E+02  0.10598230004E+03  0.00000000000E+00 0. -1.
          2    1    1    2  501    0 -0.12692604503E+03 -0.13421994092E+03 -0.82643062071E+03  0.84682512026E+03  0.00000000000E+00 0. -1.
<scales pt_clust_5="13000.00000" pt_clust_6="13000.00000" pt_clust_7="13000.00000" pt_clust_8="13000.00000" pt_clust_9="117.70967"></scales>
<clustering>
<clus scale="   81.976">  5  6 -1 -1</clus>
<clus scale="   92.961">  7  8 -1 -1</clus>
<clus scale="  129.581">  2  5  1 -1</clus>
<clus scale="  117.710">  1  9  2 -1</clus>
<clus scale="  117.710">  1  5  2 -1</clus>
</clustering>
</event>
<event>
 9    1  0.4731329E-005  0.2168307E+03  0.7546771E-02  0.1137067E+00
         21   -1    0    0  501  502  0.00000000000E+00  0.00000000000E+00  0.35896947451E+02  0.35896947451E+02  0.00000000000E+00 0. -1.
          1   -1    0    0  502    0 -0.00000000000E+00 -0.00000000000E+00 -0.17543618432E+04  0.17543618432E+04  0.00000000000E+00 0. -1.
        -24    2    1    2    0    0  0.66784897113E+02  0.20057945207E+03 -0.92623997750E+03  0.95360867408E+03  0.82198955500E+02 0.  0.
         23    2    1    2    0    0 -0.91225062684E+02 -0.15142894019E+03 -0.48275774711E+03  0.52235244792E+03  0.92435390714E+02 0.  0.
         11    1    3    3    0    0  0.62381018640E+02  0.14980019388E+03 -0.53514346544E+03  0.55920480879E+03  0.00000000000E+00 0. -1.
        -12    1    3    3    0    0  0.44038784732E+01  0.50779258190E+02 -0.39109651206E+03  0.39440386529E+03  0.00000000000E+00 0.  1.
        -11    1    4    4    0    0 -0.14068857207E+02 -0.17226337172E+02 -0.90839085113E+01  0.24024921005E+02  0.00000000000E+00 0. -1.
         11    1    4    4    0    0 -0.77156205477E+02 -0.13420260302E+03 -0.47367383860E+03  0.49832752691E+03  0.00000000000E+00 0.  1.
          2    1    1    2  501    0  0.24440165571E+02 -0.49150511880E+02 -0.30946717112E+03  0.31429766864E+03  0.00000000000E+00 0. -1.
<scales pt_clust_5="13000.00000" pt_clust_6="13000.00000" pt_clust_7="13000.00000" pt_clust_8="13000.00000" pt_clust_9="54.89169"></scales>
<clustering>
<clus scale="   54.892">  1  9  2 -1</clus>
<clus scale="   82.199">  5  6 -1 -1</clus>
<clus scale="   92.435">  7  8 -1 -1</clus>
<clus scale="  212.669">  2  5  1 -1</clus>
<clus scale="   54.892">  1  5  2 -1</clus>
</clustering>
</event>
<event>
 9    1  0.4731329E-005  0.1605706E+03  0.7546771E-02  0.1189683E+00
         21   -1    0    0  501  502  0.00000000000E+00  0.00000000000E+00  0.71384320920E+03  0.71384320920E+03  0.00000000000E+00 0.  1.
         -4   -1    0    0    0  501 -0.00000000000E+00 -0.00000000000E+00 -0.51574862880E+02  0.51574862880E+02  0.00000000000E+00 0.  1.
        -24    2    1    2    0    0 -0.92531289127E+02 -0.12348521984E+03  0.23409496580E+03  0.29159704967E+03  0.80110844320E+02 0.  0.
         23    2    1    2    0    0  0.59969685513E+02  0.80884769085E+02  0.37321756535E+03  0.39704082929E+03  0.90616554728E+02 0.  0.
         13    1    3    3    0    0 -0.20420172740E+02 -0.32393541246E+02  0.13028287021E+03  0.13579378203E+03  0.00000000000E+00 0. -1.
        -14    1    3    3    0    0 -0.72111116387E+02 -0.91091678591E+02  0.10381209559E+03  0.15580326764E+03  0.00000000000E+00 0.  1.
        -13    1    4    4    0    0  0.22757947335E+02  0.57786158295E+02  0.32897472759E+03  0.33478580562E+03  0.00000000000E+00 0.  1.
         13    1    4    4    0    0  0.37211738179E+02  0.23098610790E+02  0.44242837762E+02  0.62255023668E+02  0.00000000000E+00 0. -1.
         -3    1    1    2    0  502  0.32561603614E+02  0.42600450752E+02  0.54955815172E+02  0.76780193119E+02  0.00000000000E+00 0.  1.
<scales pt_clust_5="13000.00000" pt_clust_6="13000.00000" pt_clust_7="13000.00000" pt_clust_8="13000.00000" pt_clust_9="53.61958"></scales>
<clustering>
<clus scale="   53.620">  1  9  2 -1</clus>
<clus scale="   80.111">  5  6 -1 -1</clus>
<clus scale="   90.617">  7  8 -1 -1</clus>
<clus scale="  154.885">  2  5  1 -1</clus>
<clus scale="   53.620">  1  5  2 -1</clus>
</clustering>
</event>
<event>
 9    1  0.4731329E-005  0.1975833E+03  0.7546771E-02  0.1152858E+00
         21   -1    0    0  501  502  0.00000000000E+00  0.00000000000E+00  0.10648171298E+03  0.10648171298E+03  0.00000000000E+00 0. -1.
          1   -1    0    0  502    0 -0.00000000000E+00 -0.00000000000E+00 -0.43343853992E+03  0.43343853992E+03  0.00000000000E+00 0. -1.
        -24    2    1    2    0    0  0.18507877832E+03  0.73229560770E+01 -0.18225366664E+03  0.27204615128E+03  0.80529060288E+02 0.  0.
         23    2    1    2    0    0 -0.16109897769E+03 -0.16032676812E+02 -0.88196053966E+02  0.20587456017E+03  0.91628943318E+02 0.  0.
         11    1    3    3    0    0  0.12718236196E+03  0.32962829831E+02 -0.15477711880E+03  0.20302181619E+03  0.00000000000E+00 0. -1.
        -12    1    3    3    0    0  0.57896416363E+02 -0.25639873754E+02 -0.27476547845E+02  0.69024335095E+02  0.00000000000E+00 0.  1.
        -11    1    4    4    0    0 -0.32548188943E+02  0.30924468781E+02 -0.41862685032E+02  0.61385599052E+02  0.00000000000E+00 0.  1.
         11    1    4    4    0    0 -0.12855078874E+03 -0.46957145594E+02 -0.46333368934E+02  0.14448896112E+03  0.00000000000E+00 0. -1.
          2    1    1    2  501    0 -0.23979800638E+02  0.87097207351E+01 -0.56507106333E+02  0.61999541451E+02  0.00000000000E+00 0. -1.
<scales pt_clust_5="13000.00000" pt_clust_6="13000.00000" pt_clust_7="13000.00000" pt_clust_8="13000.00000" pt_clust_9="25.51256"></scales>
<clustering>
<clus scale="   25.513">  1  9  2 -1</clus>
<clus scale="   80.529">  5  6 -1 -1</clus>
<clus scale="   91.629">  7  8 -1 -1</clus>
<clus scale="  192.687">  2  5  1 -1</clus>
<clus scale="   25.513">  1  5  2 -1</clus>
</clustering>
</event>
<event>
 9    1  0.4731329E-005  0.1023127E+03  0.7546771E-02  0.1278550E+00
         21   -1    0    0  501  502  0.00000000000E+00  0.00000000000E+00  0.26644537768E+02  0.26644537768E+02  0.00000000000E+00 0.  1.
         -2   -1    0    0    0  501 -0.00000000000E+00 -0.00000000000E+00 -0.10511866719E+04  0.10511866719E+04  0.00000000000E+00 0.  1.
        -24    2    1    2    0    0  0.65711424372E+02  0.23938375760E+02 -0.65280269653E+03  0.66134667624E+03  0.79605454960E+02 0.  0.
         23    2    1    2    0    0 -0.51825895790E+01  0.29608290414E+02 -0.11325762466E+03  0.14566386781E+03  0.86528392716E+02 0.  0.
         13    1    3    3    0    0  0.32236099105E+02  0.26901753150E+01 -0.69078195334E+02  0.76277127629E+02  0.00000000000E+00 0. -1.
        -14    1    3    3    0    0  0.33475325267E+02  0.21248200445E+02 -0.58372450119E+03  0.58506954861E+03  0.00000000000E+00 0.  1.
        -11    1    4    4    0    0  0.22749080937E+02 -0.91722395842E+01 -0.20410703858E+01  0.24613342536E+02  0.00000000000E+00 0.  1.
         11    1    4    4    0    0 -0.27931670516E+02  0.38780529999E+02 -0.11121655427E+03  0.12105052527E+03  0.00000000000E+00 0. -1.
         -1    1    1    2    0  502 -0.60528834793E+02 -0.53546666175E+02 -0.25848181296E+03  0.27082066563E+03  0.00000000000E+00 0.  1.
<scales pt_clust_5="13000.00000" pt_clust_6="13000.00000" pt_clust_7="13000.00000" pt_clust_8="13000.00000" pt_clust_9="80.81455"></scales>
<clustering>
<clus scale="   79.605">  5  6 -1 -1</clus>
<clus scale="   80.815">  1  9  2 -1</clus>
<clus scale="   86.528">  7  8 -1 -1</clus>
<clus scale="   96.529">  2  5  1 -1</clus>
<clus scale="   80.815">  1  5  2 -1</clus>
</clustering>
</event>
<event>
 9    1  0.4731329E-005  0.1439486E+03  0.7546771E-02  0.1225017E+00
          3   -1    0    0  502    0 -0.00000000000E+00  0.00000000000E+00  0.21588609920E+03  0.21588609920E+03  0.00000000000E+00 0. -1.
         21   -1    0    0  501  502  0.00000000000E+00 -0.00000000000E+00 -0.48124088398E+03  0.48124088398E+03  0.00000000000E+00 0. -1.
         23    2    1    2    0    0  0.13046692672E+02  0.45581897664E+02  0.13584421062E+03  0.16911559514E+03  0.88873558367E+02 0.  0.
        -24    2    1    2    0    0 -0.93516443661E+02 -0.12531398282E+03 -0.90831030131E+02  0.19761638188E+03  0.79705952266E+02 0.  0.
         13    1    4    4    0    0 -0.61617556675E+02 -0.87737062871E+02 -0.16569433096E+02  0.10848530594E+03  0.00000000000E+00 0. -1.
        -14    1    4    4    0    0 -0.31898886986E+02 -0.37576919952E+02 -0.74261597035E+02  0.89131075940E+02  0.00000000000E+00 0.  1.
        -11    1    3    3    0    0  0.42716599969E+02 -0.18082420481E+01  0.42352759355E+02  0.60180843108E+02  0.00000000000E+00 0.  1.
         11    1    3    3    0    0 -0.29669907297E+02  0.47390139712E+02  0.93491451266E+02  0.10893475203E+03  0.00000000000E+00 0. -1.
          4    1    1    2  501    0  0.80469750989E+02  0.79732085159E+02 -0.31036796527E+03  0.33039500616E+03  0.00000000000E+00 0. -1.
<scales pt_clust_5="13000.00000" pt_clust_6="13000.00000" pt_clust_7="13000.00000" pt_clust_8="13000.00000" pt_clust_9="119.86731"></scales>
<clustering>
<clus scale="   79.706">  5  6 -1 -1</clus>
<clus scale="   88.874">  7  8 -1 -1</clus>
<clus scale="  100.730">  1  7  2 -1</clus>
<clus scale="  119.867">  2  9  1 -1</clus>
<clus scale="  119.867">  2  5  1 -1</clus>
</clustering>
</event>
<event>
 9    1  0.4731329E-005  0.9921529E+02  0.7546771E-02  0.1291492E+00
         21   -1    0    0  501  502  0.00000000000E+00  0.00000000000E+00  0.66373802842E+02  0.66373802842E+02  0.00000000000E+00 0. -1.
          1   -1    0    0  502    0 -0.00000000000E+00 -0.00000000000E+00 -0.27036482022E+03  0.27036482022E+03  0.00000000000E+00 0. -1.
         23    2    1    2    0    0  0.20921779694E+02 -0.28016922632E+02 -0.16495350824E+03  0.19454981976E+03  0.97042792974E+02 0.  0.
        -24    2    1    2    0    0 -0.11470993606E+02 -0.14067994737E+02 -0.51731556982E+02  0.97226636112E+02  0.80295532949E+02 0.  0.
         13    1    4    4    0    0 -0.33055061339E+02 -0.37662207570E+02 -0.27977550790E+02  0.57391831365E+02  0.00000000000E+00 0. -1.
        -14    1    4    4    0    0  0.21584067732E+02  0.23594212833E+02 -0.23754006192E+02  0.39834804747E+02  0.00000000000E+00 0.  1.
        -11    1    3    3    0    0  0.27190557336E+02 -0.55609855566E+02 -0.15059139118E+03  0.16281753450E+03  0.00000000000E+00 0. -1.
         11    1    3    3    0    0 -0.62687776420E+01  0.27592932935E+02 -0.14362117059E+02  0.31732285255E+02  0.00000000000E+00 0.  1.
          2    1    1    2  501    0 -0.94507860874E+01  0.42084917369E+02  0.12694047846E+02  0.44962167189E+02  0.00000000000E+00 0. -1.
<scales pt_clust_5="13000.00000" pt_clust_6="13000.00000" pt_clust_7="13000.00000" pt_clust_8="13000.00000" pt_clust_9="43.13302"></scales>
<clustering>
<clus scale="   43.133">  1  9  2 -1</clus>
<clus scale="   80.296">  5  6 -1 -1</clus>
<clus scale="   82.908">  1  5  2 -1</clus>
<clus scale="   97.043">  7  8 -1 -1</clus>
<clus scale="   43.133">  1  5  2 -1</clus>
</clustering>
</event>
<event>
 9    1  0.4731329E-005  0.9935305E+02  0.7546771E-02  0.1288313E+00
         21   -1    0    0  501  502  0.00000000000E+00  0.00000000000E+00  0.24263070423E+03  0.24263070423E+03  0.00000000000E+00 0. -1.
          1   -1    0    0  502    0 -0.00000000000E+00 -0.00000000000E+00 -0.39471415300E+03  0.39471415300E+03  0.00000000000E+00 0. -1.
         23    2    1    2    0    0  0.64288691268E+01  0.14474865724E+02 -0.24503052459E+03  0.26273266112E+03  0.93475350466E+02 0.  0.
        -24    2    1    2    0    0 -0.26282612560E-01 -0.10033481573E+03 -0.10012635762E+03  0.16321145148E+03  0.80904971837E+02 0.  0.
         13    1    4    4    0    0 -0.34169495311E+02 -0.61475384391E+02 -0.82842063595E+02  0.10867191356E+03  0.00000000000E+00 0. -1.
        -14    1    4    4    0    0  0.34143212699E+02 -0.38859431335E+02 -0.17284294021E+02  0.54539537924E+02  0.00000000000E+00 0.  1.
        -13    1    3    3    0    0  0.32046657753E+02 -0.18063475929E+02 -0.43400043831E+02  0.56893244242E+02  0.00000000000E+00 0. -1.
         13    1    3    3    0    0 -0.25617788626E+02  0.32538341653E+02 -0.20163048076E+03  0.20583941688E+03  0.00000000000E+00 0.  1.
          2    1    1    2  501    0 -0.64025865142E+01  0.85859950002E+02  0.19307343344E+03  0.21140074463E+03  0.00000000000E+00 0. -1.
<scales pt_clust_5="13000.00000" pt_clust_6="13000.00000" pt_clust_7="13000.00000" pt_clust_8="13000.00000" pt_clust_9="86.09834"></scales>
<clustering>
<clus scale="   80.905">  5  6 -1 -1</clus>
<clus scale="   86.098">  1  9  2 -1</clus>
<clus scale="   87.630">  1  5  2 -1</clus>
<clus scale="   93.475">  7  8 -1 -1</clus>
<clus scale="   86.098">  1  5  2 -1</clus>
</clustering>
</event>
<event>
 9    1  0.4731329E-005  0.1648532E+03  0.7546771E-02  0.1206029E+00
         21   -1    0    0  501  502  0.00000000000E+00  0.00000000000E+00  0.15014794279E+03  0.15014794279E+03  0.00000000000E+00 0. -1.
          1   -1    0    0  502    0 -0.00000000000E+00 -0.00000000000E+00 -0.40695347758E+03  0.40695347758E+03  0.00000000000E+00 0. -1.
         23    2    1    2    0    0 -0.15919624527E+02 -0.21656623068E+02 -0.21552752787E+03  0.23768919859E+03  0.96548413198E+02 0.  0.
        -24    2    1    2    0    0  0.14703158943E+03 -0.30446031754E+02 -0.51448868985E+02  0.17796088592E+03  0.80485039954E+02 0.  0.
         11    1    4    4    0    0  0.13304162501E+03  0.36894723925E+01 -0.45106494505E+02  0.14052858086E+03  0.00000000000E+00 0. -1.
        -12    1    4    4    0    0  0.13989964421E+02 -0.34135504147E+02 -0.63423744803E+01  0.37432305057E+02  0.00000000000E+00 0.  1.
        -11    1    3    3    0    0 -0.35941246308E+02  0.15409167965E+02 -0.35556780392E+02  0.52853573913E+02  0.00000000000E+00 0.  1.
         11    1    3    3    0    0  0.20021621781E+02 -0.37065791034E+02 -0.17997074747E+03  0.18483562468E+03  0.00000000000E+00 0. -1.
          2    1    1    2  501    0 -0.13111196491E+03  0.52102654822E+02  0.10170862060E+02  0.14145133586E+03  0.00000000000E+00 0. -1.
<scales pt_clust_5="13000.00000" pt_clust_6="13000.00000" pt_clust_7="13000.00000" pt_clust_8="13000.00000" pt_clust_9="143.87060"></scales>
<clustering>
<clus scale="   80.485">  5  6 -1 -1</clus>
<clus scale="   96.548">  7  8 -1 -1</clus>
<clus scale="  100.220">  2  7  1 -1</clus>
<clus scale="  143.871">  1  9  2 -1</clus>
<clus scale="  143.871">  1  5  2 -1</clus>
</clustering>
</event>
<event>
 9    1  0.4731329E-005  0.9367473E+02  0.7546771E-02  0.1300087E+00
          3   -1    0    0  502    0 -0.00000000000E+00  0.00000000000E+00  0.50759377362E+02  0.50759377362E+02  0.00000000000E+00 0. -1.
         21   -1    0    0  501  502  0.00000000000E+00 -0.00000000000E+00 -0.69686803697E+03  0.69686803697E+03  0.00000000000E+00 0.  1.
         23    2    1    2    0    0  0.21680163862E+02 -0.92790346264E+01 -0.48673282291E+02  0.10524413557E+03  0.90283496135E+02 0.  0.
        -24    2    1    2    0    0 -0.42719749906E+02 -0.13162310905E+02 -0.60399371157E+03  0.61093029928E+03  0.80182314131E+02 0.  0.
         11    1    4    4    0    0  0.15804171763E+02 -0.20851047645E+02 -0.95397795187E+02  0.98920560853E+02  0.00000000000E+00 0. -1.
        -12    1    4    4    0    0 -0.58523921669E+02  0.76887367399E+01 -0.50859591638E+03  0.51200973842E+03  0.00000000000E+00 0.  1.
        -13    1    3    3    0    0 -0.24787629917E+02  0.14791274059E+02 -0.44107737535E+02  0.52713384407E+02  0.00000000000E+00 0.  1.
         13    1    3    3    0    0  0.46467793778E+02 -0.24070308686E+02 -0.45655447558E+01  0.52530751163E+02  0.00000000000E+00 0. -1.
          4    1    1    2  501    0  0.21039586044E+02  0.22441345532E+02  0.65583342534E+01  0.31452979483E+02  0.00000000000E+00 0. -1.
<scales pt_clust_5="13000.00000" pt_clust_6="13000.00000" pt_clust_7="13000.00000" pt_clust_8="13000.00000" pt_clust_9="30.76165"></scales>
<clustering>
<clus scale="   30.762">  2  9  1 -1</clus>
<clus scale="   80.182">  5  6 -1 -1</clus>
<clus scale="   83.982">  2  5  1 -1</clus>
<clus scale="   90.283">  7  8 -1 -1</clus>
<clus scale="   30.762">  2  5  1 -1</clus>
</clustering>
</event>
<event>
 9    1  0.4731329E-005  0.9216481E+02  0.7546771E-02  0.1320609E+00
         -4   -1    0    0    0  501 -0.00000000000E+00  0.00000000000E+00  0.15633479645E+02  0.15633479645E+02  0.00000000000E+00 0.  1.
         21   -1    0    0  501  502  0.00000000000E+00 -0.00000000000E+00 -0.59710816024E+03  0.59710816024E+03  0.00000000000E+00 0.  1.
         23    2    1    2    0    0 -0.68592223789E+01  0.47742185321E+01 -0.25963159067E+03  0.27548989054E+03  0.91740257363E+02 0.  0.
        -24    2    1    2    0    0 -0.22518035772E+02 -0.41121668863E+01 -0.27096509261E+03  0.27849775187E+03  0.60124408783E+02 0.  0.
         11    1    4    4    0    0 -0.36272664743E+02  0.13510835378E+02 -0.12576469718E+03  0.13158650363E+03  0.00000000000E+00 0. -1.
        -12    1    4    4    0    0  0.13754628971E+02 -0.17623002264E+02 -0.14520039542E+03  0.14691124823E+03  0.00000000000E+00 0.  1.
        -13    1    3    3    0    0  0.17782110759E+02 -0.32345975218E+02 -0.18437297589E+03  0.18803153941E+03  0.00000000000E+00 0. -1.
         13    1    3    3    0    0 -0.24641333138E+02  0.37120193750E+02 -0.75258614776E+02  0.87458351121E+02  0.00000000000E+00 0.  1.
         -3    1    1    2    0  502  0.29377258151E+02 -0.66205164576E+00 -0.50877997323E+02  0.58753997485E+02  0.00000000000E+00 0.  1.
<scales pt_clust_5="13000.00000" pt_clust_6="13000.00000" pt_clust_7="13000.00000" pt_clust_8="13000.00000" pt_clust_9="29.38473"></scales>
<clustering>
<clus scale="   29.385">  2  9  1 -1</clus>
<clus scale="   60.124">  5  6 -1 -1</clus>
<clus scale="   60.770">  2  5  1 -1</clus>
<clus scale="   91.740">  7  8 -1 -1</clus>
<clus scale="   29.385">  2  5  1 -1</clus>
</clustering>
</event>
<event>
 9    1  0.5395993E-005  0.1023299E+03  0.7546771E-02  0.1279716E+00
         21   -1    0    0  501  502  0.00000000000E+00  0.00000000000E+00  0.47734861676E+03  0.47734861676E+03  0.00000000000E+00 0. -1.
          1   -1    0    0  502    0 -0.00000000000E+00 -0.00000000000E+00 -0.23412837726E+03  0.23412837726E+03  0.00000000000E+00 0. -1.
        -24    2    1    2    0    0 -0.56680126084E+02 -0.16060034320E+01 -0.19359184110E+03  0.21743576192E+03  0.81149822432E+02 0.  0.
         23    2    1    2    0    0 -0.24672652256E+02  0.25682225902E+02  0.75689732463E+02  0.12308666700E+03  0.90294382423E+02 0.  0.
         13    1    3    3    0    0 -0.25543764743E+02  0.24737875713E+02 -0.16197023941E+03  0.16582763601E+03  0.00000000000E+00 0. -1.
        -14    1    3    3    0    0 -0.31136361341E+02 -0.26343879145E+02 -0.31621601697E+02  0.51608125910E+02  0.00000000000E+00 0.  1.
        -13    1    4    4    0    0  0.15670404927E+02 -0.24352327306E+02  0.40568568596E+02  0.49843818009E+02  0.00000000000E+00 0.  1.
         13    1    4    4    0    0 -0.40343057183E+02  0.50034553207E+02  0.35121163867E+02  0.73242848995E+02  0.00000000000E+00 0. -1.
          2    1    1    2  501    0  0.81352778341E+02 -0.24076222470E+02  0.36112234815E+03  0.37095456509E+03  0.00000000000E+00 0. -1.
<scales pt_clust_5="13000.00000" pt_clust_6="13000.00000" pt_clust_7="13000.00000" pt_clust_8="13000.00000" pt_clust_9="84.84067"></scales>
<clustering>
<clus scale="   81.150">  5  6 -1 -1</clus>
<clus scale="   84.841">  1  9  2 -1</clus>
<clus scale="   90.294">  7  8 -1 -1</clus>
<clus scale="   94.359">  2  5  1 -1</clus>
<clus scale="   84.841">  1  5  2 -1</clus>
</clustering>
</event>
<event>
 9    1  0.4731329E-005  0.1037076E+03  0.7546771E-02  0.1277282E+00
         21   -1    0    0  501  502  0.00000000000E+00  0.00000000000E+00  0.73635397853E+03  0.73635397853E+03  0.00000000000E+00 0. -1.
          3   -1    0    0  502    0 -0.00000000000E+00 -0.00000000000E+00 -0.46514884446E+02  0.46514884446E+02  0.00000000000E+00 0. -1.
        -24    2    1    2    0    0  0.54633457104E+02  0.16811093879E+02  0.20641166076E+02  0.10009632791E+03  0.79534832690E+02 0.  0.
         23    2    1    2    0    0 -0.18279337358E+02  0.26763463759E+01  0.39573916068E+03  0.40622040657E+03  0.89801104736E+02 0.  0.
         11    1    3    3    0    0  0.42092491440E+02  0.32163254015E+02 -0.18589992028E+02  0.56141255313E+02  0.00000000000E+00 0. -1.
        -12    1    3    3    0    0  0.12540965664E+02 -0.15352160136E+02  0.39231158104E+02  0.43955072595E+02  0.00000000000E+00 0.  1.
        -11    1    4    4    0    0 -0.21916912789E+02  0.43807920114E+02  0.17891926428E+03  0.18550360660E+03  0.00000000000E+00 0. -1.
         11    1    4    4    0    0  0.36375754307E+01 -0.41131573738E+02  0.21681989641E+03  0.22071679997E+03  0.00000000000E+00 0.  1.
          4    1    1    2  501    0 -0.36354119746E+02 -0.19487440255E+02  0.27345876732E+03  0.27655212850E+03  0.00000000000E+00 0. -1.
<scales pt_clust_5="13000.00000" pt_clust_6="13000.00000" pt_clust_7="13000.00000" pt_clust_8="13000.00000" pt_clust_9="41.24782"></scales>
<clustering>
<clus scale="   41.248">  1  9  2 -1</clus>
<clus scale="   79.535">  5  6 -1 -1</clus>
<clus scale="   89.801">  7  8 -1 -1</clus>
<clus scale="   94.957">  2  5  1 -1</clus>
<clus scale="   41.248">  1  5  2 -1</clus>
</clustering>
</event>
<event>
 9    1  0.4731329E-005  0.9251866E+02  0.7546771E-02  0.1303410E+00
         21   -1    0    0  501  502  0.00000000000E+00  0.00000000000E+00  0.36421590686E+03  0.36421590686E+03  0.00000000000E+00 0. -1.
          3   -1    0    0  502    0 -0.00000000000E+00 -0.00000000000E+00 -0.66990255117E+02  0.66990255117E+02  0.00000000000E+00 0. -1.
        -24    2    1    2    0    0  0.25787452266E+02  0.39189475238E+02  0.36151851442E+02  0.99931113930E+02  0.80488902991E+02 0.  0.
         23    2    1    2    0    0  0.31176921056E+02  0.13547891326E+02  0.56627444898E+02  0.11258695533E+03  0.91178995544E+02 0.  0.
         11    1    3    3    0    0  0.54384426804E+02  0.18090205907E+02  0.26247733415E+02  0.63038598795E+02  0.00000000000E+00 0. -1.
        -12    1    3    3    0    0 -0.28596974538E+02  0.21099269331E+02  0.99041180275E+01  0.36892515135E+02  0.00000000000E+00 0.  1.
        -13    1    4    4    0    0 -0.14167629674E+01  0.49075150151E+02  0.28761688897E+02  0.56900020456E+02  0.00000000000E+00 0. -1.
         13    1    4    4    0    0  0.32593684023E+02 -0.35527258825E+02  0.27865756001E+02  0.55686934871E+02  0.00000000000E+00 0.  1.
          4    1    1    2  501    0 -0.56964373322E+02 -0.52737366564E+02  0.20444635540E+03  0.21868809272E+03  0.00000000000E+00 0. -1.
<scales pt_clust_5="13000.00000" pt_clust_6="13000.00000" pt_clust_7="13000.00000" pt_clust_8="13000.00000" pt_clust_9="77.62841"></scales>
<clustering>
<clus scale="   77.628">  1  9  2 -1</clus>
<clus scale="   80.489">  5  6 -1 -1</clus>
<clus scale="   82.003">  2  5  1 -1</clus>
<clus scale="   91.179">  7  8 -1 -1</clus>
<clus scale="   77.628">  1  5  2 -1</clus>
</clustering>
</event>
<event>
 9    1  0.4731329E-005  0.2194065E+03  0.7546771E-02  0.1134326E+00
         21   -1    0    0  501  502  0.00000000000E+00  0.00000000000E+00  0.51478618262E+02  0.51478618262E+02  0.00000000000E+00 0. -1.
          1   -1    0    0  502    0 -0.00000000000E+00 -0.00000000000E+00 -0.69405279344E+03  0.69405279344E+03  0.00000000000E+00 0. -1.
        -24    2    1    2    0    0  0.10777418447E+02  0.50448363584E+02 -0.29888556645E+03  0.31640272622E+03  0.90093913174E+02 0.  0.
         23    2    1    2    0    0  0.66320662789E+01  0.67095389073E+02 -0.25938445353E+03  0.28343443532E+03  0.92244289003E+02 0.  0.
         13    1    3    3    0    0  0.43648714993E+02  0.54708586003E+02 -0.21907556895E+03  0.22998335725E+03  0.00000000000E+00 0. -1.
        -14    1    3    3    0    0 -0.32871296546E+02 -0.42602224188E+01 -0.79809997501E+02  0.86419368968E+02  0.00000000000E+00 0.  1.
        -13    1    4    4    0    0 -0.33218966630E+02  0.58544370767E+02 -0.11345863815E+03  0.13192348412E+03  0.00000000000E+00 0.  1.
         13    1    4    4    0    0  0.39851032909E+02  0.85510183063E+01 -0.14592581538E+03  0.15151095119E+03  0.00000000000E+00 0. -1.
          2    1    1    2  501    0 -0.17409484726E+02 -0.11754375266E+03 -0.84304155204E+02  0.14569425017E+03  0.00000000000E+00 0. -1.
<scales pt_clust_5="13000.00000" pt_clust_6="13000.00000" pt_clust_7="13000.00000" pt_clust_8="13000.00000" pt_clust_9="118.82602"></scales>
<clustering>
<clus scale="   90.094">  5  6 -1 -1</clus>
<clus scale="   92.244">  7  8 -1 -1</clus>
<clus scale="   95.391">  5  7 -1 -1</clus>
<clus scale="  118.826">  1  9  2 -1</clus>
<clus scale="  118.826">  1  5  2 -1</clus>
</clustering>
</event>
<event>
 9    1  0.4731329E-005  0.9610829E+02  0.7546771E-02  0.1296344E+00
          1   -1    0    0  502    0 -0.00000000000E+00  0.00000000000E+00  0.14899690549E+03  0.14899690549E+03  0.00000000000E+00 0. -1.
         21   -1    0    0  501  502  0.00000000000E+00 -0.00000000000E+00 -0.19371875994E+03  0.19371875994E+03  0.00000000000E+00 0. -1.
        -24    2    1    2    0    0  0.28738646605E+01 -0.30506401459E+02  0.46322604570E+02  0.98215554314E+02  0.81003776375E+02 0.  0.
         23    2    1    2    0    0 -0.20897452615E+02 -0.45249603178E+02 -0.12089793485E+03  0.16110315685E+03  0.94094029470E+02 0.  0.
         11    1    3    3    0    0 -0.31942700156E+02  0.86860779976E+01  0.10525103682E+02  0.34735599199E+02  0.00000000000E+00 0. -1.
        -12    1    3    3    0    0  0.34816564816E+02 -0.39192479456E+02  0.35797500889E+02  0.63479955115E+02  0.00000000000E+00 0.  1.
        -11    1    4    4    0    0 -0.58592223655E+02 -0.28789186497E+02 -0.71417012958E+02  0.96758749847E+02  0.00000000000E+00 0.  1.
         11    1    4    4    0    0  0.37694771040E+02 -0.16460416680E+02 -0.49480921892E+02  0.64344407002E+02  0.00000000000E+00 0. -1.
          2    1    1    2  501    0  0.18023587954E+02  0.75756004636E+02  0.29853475831E+02  0.83396954264E+02  0.00000000000E+00 0. -1.
<scales pt_clust_5="13000.00000" pt_clust_6="13000.00000" pt_clust_7="13000.00000" pt_clust_8="13000.00000" pt_clust_9="77.87059"></scales>
<clustering>
<clus scale="   77.871">  2  9  1 -1</clus>
<clus scale="   81.004">  5  6 -1 -1</clus>
<clus scale="   83.335">  1  5  2 -1</clus>
<clus scale="   94.094">  7  8 -1 -1</clus>
<clus scale="   77.871">  2  5  1 -1</clus>
</clustering>
</event>
<event>
 9    1  0.4731329E-005  0.9820223E+02  0.7546771E-02  0.1294504E+00
          1   -1    0    0  502    0 -0.00000000000E+00  0.00000000000E+00  0.44060286202E+03  0.44060286202E+03  0.00000000000E+00 0. -1.
         21   -1    0    0  501  502  0.00000000000E+00 -0.00000000000E+00 -0.22895010420E+03  0.22895010420E+03  0.00000000000E+00 0.  1.
         23    2    1    2    0    0 -0.33122980559E+02  0.47981728129E+01  0.39360065691E+03  0.40579083560E+03  0.92868567545E+02 0.  0.
        -24    2    1    2    0    0 -0.20998187772E+02 -0.61327368712E+02 -0.14943267026E+03  0.17901609262E+03  0.74260813561E+02 0.  0.
         13    1    4    4    0    0 -0.21420228828E+02 -0.34019512948E+02 -0.16749247851E+02  0.43551013396E+02  0.00000000000E+00 0. -1.
        -14    1    4    4    0    0  0.42204105573E+00 -0.27307855763E+02 -0.13268342241E+03  0.13546507922E+03  0.00000000000E+00 0.  1.
        -11    1    3    3    0    0  0.13097515609E+02  0.35446832579E+02  0.98013687419E+02  0.10504620782E+03  0.00000000000E+00 0.  1.
         11    1    3    3    0    0 -0.46220496168E+02 -0.30648659766E+02  0.29558696949E+03  0.30074462779E+03  0.00000000000E+00 0. -1.
          2    1    1    2  501    0  0.54121168332E+02  0.56529195899E+02 -0.32515228832E+02  0.84746037999E+02  0.00000000000E+00 0. -1.
<scales pt_clust_5="13000.00000" pt_clust_6="13000.00000" pt_clust_7="13000.00000" pt_clust_8="13000.00000" pt_clust_9="78.26015"></scales>
<clustering>
<clus scale="   74.261">  5  6 -1 -1</clus>
<clus scale="   78.260">  2  9  1 -1</clus>
<clus scale="   80.832">  2  5  1 -1</clus>
<clus scale="   92.869">  7  8 -1 -1</clus>
<clus scale="   78.260">  2  5  1 -1</clus>
</clustering>
</event>
<event>
 9    1  0.4731329E-005  0.1240968E+03  0.7546771E-02  0.1238682E+00
          3   -1    0    0  502    0 -0.00000000000E+00  0.00000000000E+00  0.11816265822E+03  0.11816265822E+03  0.00000000000E+00 0. -1.
         21   -1    0    0  501  502  0.00000000000E+00 -0.00000000000E+00 -0.31285917700E+03  0.31285917700E+03  0.00000000000E+00 0.  1.
        -24    2    1    2    0    0 -0.24228258723E+02  0.80641724551E+02  0.38616702581E+02  0.12286166280E+03  0.80707138523E+02 0.  0.
         23    2    1    2    0    0  0.20093304548E+02 -0.10299216244E+03 -0.24630921613E+03  0.28197743383E+03  0.88498117666E+02 0.  0.
         11    1    3    3    0    0 -0.18585996130E+02  0.94966376682E+02  0.20193808849E+02  0.98852627016E+02  0.00000000000E+00 0. -1.
        -12    1    3    3    0    0 -0.56422625934E+01 -0.14324652131E+02  0.18422893732E+02  0.24009035784E+02  0.00000000000E+00 0.  1.
        -13    1    4    4    0    0 -0.29115646465E+02 -0.48378976947E+02 -0.15366389315E+03  0.16370961590E+03  0.00000000000E+00 0.  1.
         13    1    4    4    0    0  0.49208951013E+02 -0.54613185494E+02 -0.92645322975E+02  0.11826781793E+03  0.00000000000E+00 0. -1.
          4    1    1    2  501    0  0.41349541757E+01  0.22350437890E+02  0.12995994772E+02  0.26182738589E+02  0.00000000000E+00 0. -1.
<scales pt_clust_5="13000.00000" pt_clust_6="13000.00000" pt_clust_7="13000.00000" pt_clust_8="13000.00000" pt_clust_9="22.72973"></scales>
<clustering>
<clus scale="   22.730">  2  9  1 -1</clus>
<clus scale="   80.707">  5  6 -1 -1</clus>
<clus scale="   88.498">  7  8 -1 -1</clus>
<clus scale="  118.666">  1  5  2 -1</clus>
<clus scale="   22.730">  2  5  1 -1</clus>
</clustering>
</event>
<event>
 9    1  0.4731329E-005  0.1062407E+03  0.7546771E-02  0.1272288E+00
         21   -1    0    0  501  502  0.00000000000E+00  0.00000000000E+00  0.65538610151E+03  0.65538610151E+03  0.00000000000E+00 0.  1.
         -4   -1    0    0    0  501 -0.00000000000E+00 -0.00000000000E+00 -0.34862568640E+02  0.34862568640E+02  0.00000000000E+00 0.  1.
         23    2    1    2    0    0 -0.74925877743E+02 -0.66812031463E+01  0.13377943815E+03  0.17874654337E+03  0.91623485335E+02 0.  0.
        -24    2    1    2    0    0  0.19499130338E+02 -0.30013494494E+02  0.23483395613E+03  0.25096932062E+03  0.80978929372E+02 0.  0.
         11    1    4    4    0    0  0.36270611242E+02 -0.36057148015E+02  0.78941186840E+02  0.94060545090E+02  0.00000000000E+00 0. -1.
        -12    1    4    4    0    0 -0.16771480904E+02  0.60436535216E+01  0.15589276929E+03  0.15690877553E+03  0.00000000000E+00 0.  1.
        -11    1    3    3    0    0 -0.12529894942E+02 -0.37195160956E+02  0.16784760136E+02  0.42687310042E+02  0.00000000000E+00 0.  1.
         11    1    3    3    0    0 -0.62395982801E+02  0.30513957810E+02  0.11699467801E+03  0.13605923333E+03  0.00000000000E+00 0. -1.
         -3    1    1    2    0  502  0.55426747405E+02  0.36694697640E+02  0.25191013859E+03  0.26053280616E+03  0.00000000000E+00 0.  1.
<scales pt_clust_5="13000.00000" pt_clust_6="13000.00000" pt_clust_7="13000.00000" pt_clust_8="13000.00000" pt_clust_9="66.47274"></scales>
<clustering>
<clus scale="   66.473">  1  9  2 -1</clus>
<clus scale="   80.979">  5  6 -1 -1</clus>
<clus scale="   91.623">  7  8 -1 -1</clus>
<clus scale="   97.210">  1  5  2 -1</clus>
<clus scale="   66.473">  1  5  2 -1</clus>
</clustering>
</event>
<event>
 9    1  0.4731329E-005  0.1376537E+03  0.7546771E-02  0.1233862E+00
         21   -1    0    0  501  502  0.00000000000E+00  0.00000000000E+00  0.54431155773E+03  0.54431155773E+03  0.00000000000E+00 0.  1.
         -2   -1    0    0    0  501 -0.00000000000E+00 -0.00000000000E+00 -0.11862977259E+03  0.11862977259E+03  0.00000000000E+00 0.  1.
        -24    2    1    2    0    0  0.54183985866E+02  0.76440556301E+01 -0.61534519257E+02  0.11398265076E+03  0.78811240974E+02 0.  0.
         23    2    1    2    0    0  0.50430233560E+02  0.42616955107E+02  0.13036075427E+03  0.17370384912E+03  0.93913191969E+02 0.  0.
         13    1    3    3    0    0  0.49831375936E+02  0.74351719810E+01  0.18804962383E+01  0.50418092746E+02  0.00000000000E+00 0. -1.
        -14    1    3    3    0    0  0.43526099305E+01  0.20888364916E+00 -0.63415015495E+02  0.63564558016E+02  0.00000000000E+00 0.  1.
        -11    1    4    4    0    0  0.58959858526E+02  0.10766579363E+01  0.33156487134E+02  0.67651879123E+02  0.00000000000E+00 0.  1.
         11    1    4    4    0    0 -0.85296249664E+01  0.41540297170E+02  0.97204267132E+02  0.10605196999E+03  0.00000000000E+00 0. -1.
         -1    1    1    2    0  502 -0.10461421943E+03 -0.50261010737E+02  0.35685555013E+03  0.37525483044E+03  0.00000000000E+00 0.  1.
<scales pt_clust_5="13000.00000" pt_clust_6="13000.00000" pt_clust_7="13000.00000" pt_clust_8="13000.00000" pt_clust_9="100.64217"></scales>
<clustering>
<clus scale="   78.811">  5  6 -1 -1</clus>
<clus scale="   93.913">  7  8 -1 -1</clus>
<clus scale="   95.946">  2  5  1 -1</clus>
<clus scale="  100.642">  1  9  2 -1</clus>
<clus scale="  100.642">  1  5  2 -1</clus>
</clustering>
</event>
<event>
 9    1  0.4731329E-005  0.1630400E+03  0.7546771E-02  0.1187107E+00
         21   -1    0    0  501  502  0.00000000000E+00  0.00000000000E+00  0.63463542536E+02  0.63463542536E+02  0.00000000000E+00 0.  1.
          1   -1    0    0  502    0 -0.00000000000E+00 -0.00000000000E+00 -0.88241014666E+03  0.88241014666E+03  0.00000000000E+00 0. -1.
        -24    2    1    2    0    0 -0.15485706690E+03 -0.26108492367E+02 -0.65891236725E+03  0.68234290473E+03  0.82243342465E+02 0.  0.
         23    2    1    2    0    0  0.83642368993E+02  0.65021039263E+00 -0.13350537230E+03  0.18338443099E+03  0.93859983136E+02 0.  0.
         13    1    3    3    0    0 -0.11619345348E+03  0.40779309973E+01 -0.55992529319E+03  0.57186876301E+03  0.00000000000E+00 0. -1.
        -14    1    3    3    0    0 -0.38663613415E+02 -0.30186423364E+02 -0.98987074060E+02  0.11047414172E+03  0.00000000000E+00 0.  1.
        -11    1    4    4    0    0 -0.37055663467E+01  0.31705104636E+02 -0.45343479276E+02  0.55452466084E+02  0.00000000000E+00 0. -1.
         11    1    4    4    0    0  0.87347935340E+02 -0.31054894243E+02 -0.88161893019E+02  0.12793196491E+03  0.00000000000E+00 0.  1.
          2    1    1    2  501    0  0.71214697902E+02  0.25458281974E+02 -0.26528864571E+02  0.80146353465E+02  0.00000000000E+00 0. -1.
<scales pt_clust_5="13000.00000" pt_clust_6="13000.00000" pt_clust_7="13000.00000" pt_clust_8="13000.00000" pt_clust_9="75.62842"></scales>
<clustering>
<clus scale="   75.628">  1  9  2 -1</clus>
<clus scale="   82.243">  5  6 -1 -1</clus>
<clus scale="   93.860">  7  8 -1 -1</clus>
<clus scale="  156.641">  2  5  1 -1</clus>
<clus scale="   75.628">  1  5  2 -1</clus>
</clustering>
</event>
<event>
 9    1  0.4731329E-005  0.1353713E+03  0.7546771E-02  0.1221779E+00
          1   -1    0    0  502    0 -0.00000000000E+00  0.00000000000E+00  0.59962182083E+03  0.59962182083E+03  0.00000000000E+00 0. -1.
         21   -1    0    0  501  502  0.00000000000E+00 -0.00000000000E+00 -0.40915292498E+02  0.40915292498E+02  0.00000000000E+00 0.  1.
        -24    2    1    2    0    0 -0.47385955542E+02 -0.76098978798E+02  0.23559266210E+03  0.26482016447E+03  0.81174711083E+02 0.  0.
         23    2    1    2    0    0  0.53579900422E+02  0.99792815783E+02  0.31976398249E+03  0.35099884648E+03  0.90120885013E+02 0.  0.
         13    1    3    3    0    0 -0.24666129347E+02 -0.62454439058E+02  0.69549390601E+02  0.96675191379E+02  0.00000000000E+00 0. -1.
        -14    1    3    3    0    0 -0.22719826195E+02 -0.13644539740E+02  0.16604327150E+03  0.16814497309E+03  0.00000000000E+00 0.  1.
        -11    1    4    4    0    0 -0.21622418346E+02  0.42507974940E+01  0.34947190444E+02  0.41314699253E+02  0.00000000000E+00 0.  1.
         11    1    4    4    0    0  0.75202318768E+02  0.95542018289E+02  0.28481679205E+03  0.30968414722E+03  0.00000000000E+00 0. -1.
          2    1    1    2  501    0 -0.61939448796E+01 -0.23693836984E+02  0.33498837378E+01  0.24718102380E+02  0.00000000000E+00 0. -1.
<scales pt_clust_5="13000.00000" pt_clust_6="13000.00000" pt_clust_7="13000.00000" pt_clust_8="13000.00000" pt_clust_9="24.49006"></scales>
<clustering>
<clus scale="   24.490">  2  9  1 -1</clus>
<clus scale="   81.175">  5  6 -1 -1</clus>
<clus scale="   90.121">  7  8 -1 -1</clus>
<clus scale="  129.588">  1  5  2 -1</clus>
<clus scale="   24.490">  2  5  1 -1</clus>
</clustering>
</event>
<event>
 9    1  0.4731329E-005  0.1060656E+03  0.7546771E-02  0.1272737E+00
          1   -1    0    0  502    0 -0.00000000000E+00  0.00000000000E+00  0.79831987440E+02  0.79831987440E+02  0.00000000000E+00 0. -1.
         21   -1    0    0  501  502  0.00000000000E+00 -0.00000000000E+00 -0.17000750160E+03  0.17000750160E+03  0.00000000000E+00 0.  1.
         23    2    1    2    0    0 -0.55509663145E+02  0.24564718060E+02 -0.26976904918E+02  0.11248713138E+03  0.90779145465E+02 0.  0.
        -24    2    1    2    0    0  0.51431873807E+02  0.97485704639E+00 -0.41657489016E+02  0.10369350856E+03  0.79817349842E+02 0.  0.
         11    1    4    4    0    0  0.39425891415E+02  0.51920399686E+01  0.17308679403E+02  0.43369904030E+02  0.00000000000E+00 0. -1.
        -12    1    4    4    0    0  0.12005982392E+02 -0.42171829222E+01 -0.58966168418E+02  0.60323604525E+02  0.00000000000E+00 0.  1.
        -11    1    3    3    0    0 -0.33573962466E+02  0.56781000080E+02 -0.16100031341E+01  0.65983975599E+02  0.00000000000E+00 0.  1.
         11    1    3    3    0    0 -0.21935700679E+02 -0.32216282020E+02 -0.25366901784E+02  0.46503155781E+02  0.00000000000E+00 0. -1.
          2    1    1    2  501    0  0.40777893381E+01 -0.25539575107E+02 -0.21541120230E+02  0.33658849108E+02  0.00000000000E+00 0. -1.
<scales pt_clust_5="13000.00000" pt_clust_6="13000.00000" pt_clust_7="13000.00000" pt_clust_8="13000.00000" pt_clust_9="25.86307"></scales>
<clustering>
<clus scale="   25.863">  2  9  1 -1</clus>
<clus scale="   79.817">  5  6 -1 -1</clus>
<clus scale="   90.779">  7  8 -1 -1</clus>
<clus scale="   96.850">  2  5  1 -1</clus>
<clus scale="   25.863">  2  5  1 -1</clus>
</clustering>
</event>
<event>
 9    1  0.4731329E-005  0.1068726E+03  0.7546771E-02  0.1271515E+00
         21   -1    0    0  501  502  0.00000000000E+00  0.00000000000E+00  0.36810150801E+03  0.36810150801E+03  0.00000000000E+00 0. -1.
          1   -1    0    0  502    0 -0.00000000000E+00 -0.00000000000E+00 -0.99410855413E+02  0.99410855413E+02  0.00000000000E+00 0. -1.
        -24    2    1    2    0    0  0.14701593413E+02 -0.57586843628E+02 -0.49039138222E+02  0.11119678987E+03  0.80171738109E+02 0.  0.
         23    2    1    2    0    0  0.35300100459E+02  0.26391214146E+02  0.21283459826E+03  0.23599791853E+03  0.91944864229E+02 0.  0.
         11    1    3    3    0    0  0.41530347033E+02 -0.51704956536E+02 -0.50999814793E+02  0.83660942882E+02  0.00000000000E+00 0. -1.
        -12    1    3    3    0    0 -0.26828753620E+02 -0.58818870915E+01  0.19606765715E+01  0.27535846985E+02  0.00000000000E+00 0.  1.
        -11    1    4    4    0    0  0.36089716483E+02 -0.19864803396E+02  0.16246627954E+03  0.16760778633E+03  0.00000000000E+00 0. -1.
         11    1    4    4    0    0 -0.78961602451E+00  0.46256017542E+02  0.50368318719E+02  0.68390132204E+02  0.00000000000E+00 0.  1.
          2    1    1    2  501    0 -0.50001693871E+02  0.31195629482E+02  0.10489519256E+03  0.12031765502E+03  0.00000000000E+00 0. -1.
<scales pt_clust_5="13000.00000" pt_clust_6="13000.00000" pt_clust_7="13000.00000" pt_clust_8="13000.00000" pt_clust_9="58.93502"></scales>
<clustering>
<clus scale="   58.935">  1  9  2 -1</clus>
<clus scale="   80.172">  5  6 -1 -1</clus>
<clus scale="   91.945">  7  8 -1 -1</clus>
<clus scale="   96.930">  2  5  1 -1</clus>
<clus scale="   58.935">  1  5  2 -1</clus>
</clustering>
</event>
<event>
 9    1  0.4731329E-005  0.9639428E+02  0.7546771E-02  0.1293483E+00
         21   -1    0    0  501  502  0.00000000000E+00  0.00000000000E+00  0.25121812461E+03  0.25121812461E+03  0.00000000000E+00 0. -1.
          1   -1    0    0  502    0 -0.00000000000E+00 -0.00000000000E+00 -0.15625994143E+03  0.15625994143E+03  0.00000000000E+00 0. -1.
         23    2    1    2    0    0 -0.33525318411E+02 -0.11054219797E+02 -0.70910858123E+02  0.12030488094E+03  0.90547069681E+02 0.  0.
        -24    2    1    2    0    0  0.16549102245E+02  0.32167030846E+02 -0.27033780614E+02  0.92377288296E+02  0.80586273273E+02 0.  0.
         11    1    4    4    0    0 -0.62029191771E+01  0.31924345560E+02 -0.50259389433E+02  0.59863563810E+02  0.00000000000E+00 0. -1.
        -12    1    4    4    0    0  0.22752021423E+02  0.24268528615E+00  0.23225608819E+02  0.32513724486E+02  0.00000000000E+00 0.  1.
        -11    1    3    3    0    0  0.11897682039E+02 -0.41051348448E+02 -0.30329215980E+02  0.52408295043E+02  0.00000000000E+00 0.  1.
         11    1    3    3    0    0 -0.45423000450E+02  0.29997128651E+02 -0.40581642143E+02  0.67896585895E+02  0.00000000000E+00 0. -1.
          2    1    1    2  501    0  0.16976216166E+02 -0.21112811049E+02  0.19290282192E+03  0.19479589680E+03  0.00000000000E+00 0. -1.
<scales pt_clust_5="13000.00000" pt_clust_6="13000.00000" pt_clust_7="13000.00000" pt_clust_8="13000.00000" pt_clust_9="27.09138"></scales>
<clustering>
<clus scale="   27.091">  1  9  2 -1</clus>
<clus scale="   80.586">  5  6 -1 -1</clus>
<clus scale="   87.105">  1  5  2 -1</clus>
<clus scale="   90.547">  7  8 -1 -1</clus>
<clus scale="   27.091">  1  5  2 -1</clus>
</clustering>
</event>
<event>
 9    1  0.4731329E-005  0.9640249E+02  0.7546771E-02  0.1296250E+00
         21   -1    0    0  501  502  0.00000000000E+00  0.00000000000E+00  0.40283660498E+03  0.40283660498E+03  0.00000000000E+00 0. -1.
          3   -1    0    0  502    0 -0.00000000000E+00 -0.00000000000E+00 -0.39602650319E+03  0.39602650319E+03  0.00000000000E+00 0. -1.
         23    2    1    2    0    0 -0.17958447328E+02 -0.23751683966E+02 -0.35384778997E+03  0.36707250200E+03  0.92990940092E+02 0.  0.
        -24    2    1    2    0    0 -0.56819435316E+02  0.68352718769E+01  0.45481703928E+02  0.10742364406E+03  0.78715212885E+02 0.  0.
         11    1    4    4    0    0 -0.54744565136E+02 -0.55172782936E+01 -0.51530434318E+01  0.55262660344E+02  0.00000000000E+00 0. -1.
        -12    1    4    4    0    0 -0.20748701805E+01  0.12352550170E+02  0.50634747360E+02  0.52160983715E+02  0.00000000000E+00 0.  1.
        -13    1    3    3    0    0 -0.48741760525E+02 -0.39262291638E+02 -0.20837986459E+03  0.21757631932E+03  0.00000000000E+00 0. -1.
         13    1    3    3    0    0  0.30783313197E+02  0.15510607672E+02 -0.14546792538E+03  0.14949618268E+03  0.00000000000E+00 0.  1.
          4    1    1    2  501    0  0.74777882644E+02  0.16916412089E+02  0.31517618784E+03  0.32436696211E+03  0.00000000000E+00 0. -1.
<scales pt_clust_5="13000.00000" pt_clust_6="13000.00000" pt_clust_7="13000.00000" pt_clust_8="13000.00000" pt_clust_9="76.66744"></scales>
<clustering>
<clus scale="   76.667">  1  9  2 -1</clus>
<clus scale="   78.715">  5  6 -1 -1</clus>
<clus scale="   82.718">  1  5  2 -1</clus>
<clus scale="   92.991">  7  8 -1 -1</clus>
<clus scale="   76.667">  1  5  2 -1</clus>
</clustering>
</event>
<event>
 9    1  0.4731329E-005  0.1259544E+03  0.7546771E-02  0.1235988E+00
         21   -1    0    0  501  502  0.00000000000E+00  0.00000000000E+00  0.32300676142E+03  0.32300676142E+03  0.00000000000E+00 0.  1.
          1   -1    0    0  502    0 -0.00000000000E+00 -0.00000000000E+00 -0.78887886256E+02  0.78887886256E+02  0.00000000000E+00 0. -1.
         23    2    1    2    0    0  0.62975022138E+02 -0.47023894028E+02  0.30671567001E+02  0.12340783294E+03  0.90064688889E+02 0.  0.
        -24    2    1    2    0    0 -0.87585387613E+02  0.59742106422E+02  0.11534552295E+03  0.17654868018E+03  0.81391199811E+02 0.  0.
         11    1    4    4    0    0 -0.23900820340E+02  0.47778161127E+02  0.12296701962E+02  0.54819802743E+02  0.00000000000E+00 0. -1.
        -12    1    4    4    0    0 -0.63684567273E+02  0.11963945295E+02  0.10304882099E+03  0.12172887744E+03  0.00000000000E+00 0.  1.
        -13    1    3    3    0    0  0.25951634554E+02  0.13389250863E+02  0.42506458856E+02  0.51570906713E+02  0.00000000000E+00 0.  1.
         13    1    3    3    0    0  0.37023387585E+02 -0.60413144891E+02 -0.11834891855E+02  0.71836926223E+02  0.00000000000E+00 0. -1.
          2    1    1    2  501    0  0.24610365474E+02 -0.12718212394E+02  0.98101785213E+02  0.10193813456E+03  0.00000000000E+00 0. -1.
<scales pt_clust_5="13000.00000" pt_clust_6="13000.00000" pt_clust_7="13000.00000" pt_clust_8="13000.00000" pt_clust_9="27.70240"></scales>
<clustering>
<clus scale="   27.702">  1  9  2 -1</clus>
<clus scale="   81.391">  5  6 -1 -1</clus>
<clus scale="   90.065">  7  8 -1 -1</clus>
<clus scale="  119.906">  1  5  2 -1</clus>
<clus scale="   27.702">  1  5  2 -1</clus>
</clustering>
</event>
<event>
 9    1  0.4731329E-005  0.9887977E+02  0.7546771E-02  0.1286809E+00
          3   -1    0    0  502    0 -0.00000000000E+00  0.00000000000E+00  0.29481685826E+03  0.29481685826E+03  0.00000000000E+00 0. -1.
         21   -1    0    0  501  502  0.00000000000E+00 -0.00000000000E+00 -0.10408423352E+03  0.10408423352E+03  0.00000000000E+00 0.  1.
         23    2    1    2    0    0  0.43087207558E+02 -0.22834278315E+02  0.22567285045E+03  0.24706182436E+03  0.87939740201E+02 0.  0.
        -24    2    1    2    0    0  0.17434524154E+01  0.51149962657E+02 -0.18558345857E+02  0.96342131990E+02  0.79486073556E+02 0.  0.
         11    1    4    4    0    0  0.27059452139E+02  0.58481460796E+02 -0.58520206297E+00  0.64440962658E+02  0.00000000000E+00 0. -1.
        -12    1    4    4    0    0 -0.25315999723E+02 -0.73314981385E+01 -0.17973143794E+02  0.31901169332E+02  0.00000000000E+00 0.  1.
        -13    1    3    3    0    0  0.54462711347E+02  0.15270423862E+02  0.16582854545E+03  0.17520981496E+03  0.00000000000E+00 0.  1.
         13    1    3    3    0    0 -0.11375503789E+02 -0.38104702177E+02  0.59844304996E+02  0.71852009401E+02  0.00000000000E+00 0. -1.
          4    1    1    2  501    0 -0.44830659974E+02 -0.28315684342E+02 -0.16381879842E+02  0.55497135427E+02  0.00000000000E+00 0. -1.
<scales pt_clust_5="13000.00000" pt_clust_6="13000.00000" pt_clust_7="13000.00000" pt_clust_8="13000.00000" pt_clust_9="53.02420"></scales>
<clustering>
<clus scale="   53.024">  2  9  1 -1</clus>
<clus scale="   79.486">  5  6 -1 -1</clus>
<clus scale="   87.940">  7  8 -1 -1</clus>
<clus scale="   91.443">  2  5  1 -1</clus>
<clus scale="   53.024">  2  5  1 -1</clus>
</clustering>
</event>
<event>
 9    1  0.4731329E-005  0.2121245E+03  0.7546771E-02  0.1139895E+00
          1   -1    0    0  502    0 -0.00000000000E+00  0.00000000000E+00  0.33436575190E+03  0.33436575190E+03  0.00000000000E+00 0. -1.
         21   -1    0    0  501  502  0.00000000000E+00 -0.00000000000E+00 -0.99859922689E+02  0.99859922689E+02  0.00000000000E+00 0. -1.
        -24    2    1    2    0    0  0.14787245041E+02  0.51165733121E+02  0.95377468587E+02  0.13475902446E+03  0.78908417152E+02 0.  0.
         23    2    1    2    0    0  0.37169050892E+02  0.61577867585E+02  0.13037867604E+03  0.17501933932E+03  0.91977159386E+02 0.  0.
         11    1    3    3    0    0 -0.17653304111E+02  0.59091820591E+02  0.65237737689E+02  0.89774410751E+02  0.00000000000E+00 0. -1.
        -12    1    3    3    0    0  0.32440549153E+02 -0.79260874703E+01  0.30139730897E+02  0.44984613708E+02  0.00000000000E+00 0.  1.
        -13    1    4    4    0    0 -0.15122340048E+02  0.41497660492E+02  0.14797352133E+02  0.46580066820E+02  0.00000000000E+00 0.  1.
         13    1    4    4    0    0  0.52291390941E+02  0.20080207093E+02  0.11558132391E+03  0.12843927250E+03  0.00000000000E+00 0. -1.
          2    1    1    2  501    0 -0.51956295933E+02 -0.11274360071E+03  0.87496845788E+01  0.12444731081E+03  0.00000000000E+00 0. -1.
<scales pt_clust_5="13000.00000" pt_clust_6="13000.00000" pt_clust_7="13000.00000" pt_clust_8="13000.00000" pt_clust_9="124.13934"></scales>
<clustering>
<clus scale="   78.908">  5  6 -1 -1</clus>
<clus scale="   91.977">  7  8 -1 -1</clus>
<clus scale="   93.113">  5  7 -1 -1</clus>
<clus scale="  124.139">  2  9  1 -1</clus>
<clus scale="  124.139">  2  5  1 -1</clus>
</clustering>
</event>
<event>
 9    1  0.4731329E-005  0.9428114E+02  0.7546771E-02  0.1296085E+00
          1   -1    0    0  502    0 -0.00000000000E+00  0.00000000000E+00  0.85387371352E+02  0.85387371352E+02  0.00000000000E+00 0. -1.
         21   -1    0    0  501  502  0.00000000000E+00 -0.00000000000E+00 -0.37404319969E+03  0.37404319969E+03  0.00000000000E+00 0. -1.
         23    2    1    2    0    0  0.28351045573E+02 -0.12167109798E+02  0.42421005780E+02  0.10417962912E+03  0.90011293998E+02 0.  0.
        -24    2    1    2    0    0 -0.17769947083E+02 -0.11126934469E+02 -0.15747293007E+03  0.17977191854E+03  0.84146534697E+02 0.  0.
         11    1    4    4    0    0 -0.29443767282E+01 -0.20140208431E+02  0.97426145729E+00  0.20377598861E+02  0.00000000000E+00 0. -1.
        -12    1    4    4    0    0 -0.14825570355E+02  0.90132739624E+01 -0.15844719152E+03  0.15939431968E+03  0.00000000000E+00 0.  1.
        -11    1    3    3    0    0  0.59260339670E+02  0.48404792763E+01  0.21879013435E+02  0.63355420655E+02  0.00000000000E+00 0.  1.
         11    1    3    3    0    0 -0.30909294097E+02 -0.17007589074E+02  0.20541992345E+02  0.40824208470E+02  0.00000000000E+00 0. -1.
          2    1    1    2  501    0 -0.10581098490E+02  0.23294044266E+02 -0.17360390405E+03  0.17547902338E+03  0.00000000000E+00 0. -1.
<scales pt_clust_5="13000.00000" pt_clust_6="13000.00000" pt_clust_7="13000.00000" pt_clust_8="13000.00000" pt_clust_9="25.58461"></scales>
<clustering>
<clus scale="   25.585">  2  9  1 -1</clus>
<clus scale="   84.147">  5  6 -1 -1</clus>
<clus scale="   88.699">  2  5  1 -1</clus>
<clus scale="   90.011">  7  8 -1 -1</clus>
<clus scale="   25.585">  2  5  1 -1</clus>
</clustering>
</event>
<event>
 9    1  0.4731329E-005  0.1134095E+03  0.7546771E-02  0.1258489E+00
         -2   -1    0    0    0  501 -0.00000000000E+00  0.00000000000E+00  0.19582019826E+03  0.19582019826E+03  0.00000000000E+00 0.  1.
         21   -1    0    0  501  502  0.00000000000E+00 -0.00000000000E+00 -0.10635747424E+03  0.10635747424E+03  0.00000000000E+00 0. -1.
        -24    2    1    2    0    0  0.72993595125E+02 -0.11482026925E+02  0.11337520901E+03  0.15742289596E+03  0.80424674584E+02 0.  0.
         23    2    1    2    0    0 -0.51115139217E+02  0.47578774864E+01  0.81705290392E+01  0.10534410785E+03  0.91625480398E+02 0.  0.
         11    1    3    3    0    0  0.49733934221E+01 -0.19810225904E+02 -0.46481394140E+01  0.20947192951E+02  0.00000000000E+00 0. -1.
        -12    1    3    3    0    0  0.68020201703E+02  0.83281989798E+01  0.11802334842E+03  0.13647570301E+03  0.00000000000E+00 0.  1.
        -11    1    4    4    0    0  0.85016614014E+01  0.21853839660E+02 -0.25608091281E+02  0.34722368778E+02  0.00000000000E+00 0.  1.
         11    1    4    4    0    0 -0.59616800618E+02 -0.17095962174E+02  0.33778620320E+02  0.70621739070E+02  0.00000000000E+00 0. -1.
         -1    1    1    2    0  502 -0.21878455909E+02  0.67241494382E+01 -0.32083014022E+02  0.39410668700E+02  0.00000000000E+00 0.  1.
<scales pt_clust_5="13000.00000" pt_clust_6="13000.00000" pt_clust_7="13000.00000" pt_clust_8="13000.00000" pt_clust_9="22.88845"></scales>
<clustering>
<clus scale="   22.888">  2  9  1 -1</clus>
<clus scale="   80.425">  5  6 -1 -1</clus>
<clus scale="   91.625">  7  8 -1 -1</clus>
<clus scale="  104.569">  1  5  2 -1</clus>
<clus scale="   22.888">  2  5  1 -1</clus>
</clustering>
</event>
<event>
 9    1  0.4731329E-005  0.9769013E+02  0.7546771E-02  0.1291755E+00
          1   -1    0    0  502    0 -0.00000000000E+00  0.00000000000E+00  0.25543164422E+03  0.25543164422E+03  0.00000000000E+00 0. -1.
         21   -1    0    0  501  502  0.00000000000E+00 -0.00000000000E+00 -0.15186180966E+03  0.15186180966E+03  0.00000000000E+00 0.  1.
         23    2    1    2    0    0  0.16350015485E+02  0.29935514074E+02  0.21723264905E+03  0.23823426244E+03  0.91662871311E+02 0.  0.
        -24    2    1    2    0    0  0.15250085927E+02 -0.41542125020E+02 -0.76406122894E+02  0.11884623598E+03  0.79550103202E+02 0.  0.
         11    1    4    4    0    0  0.16579410631E+02 -0.21715165144E+02  0.10819923588E+02  0.29385302458E+02  0.00000000000E+00 0. -1.
        -12    1    4    4    0    0 -0.13293247037E+01 -0.19826959876E+02 -0.87226046482E+02  0.89460933524E+02  0.00000000000E+00 0.  1.
        -11    1    3    3    0    0 -0.25268723421E+02  0.46186260690E+02  0.12914403403E+03  0.13946275698E+03  0.00000000000E+00 0.  1.
         11    1    3    3    0    0  0.41618738906E+02 -0.16250746616E+02  0.88088615021E+02  0.98771505456E+02  0.00000000000E+00 0. -1.
          2    1    1    2  501    0 -0.31600101412E+02  0.11606610946E+02 -0.37256691600E+02  0.50212955459E+02  0.00000000000E+00 0. -1.
<scales pt_clust_5="13000.00000" pt_clust_6="13000.00000" pt_clust_7="13000.00000" pt_clust_8="13000.00000" pt_clust_9="33.66422"></scales>
<clustering>
<clus scale="   33.664">  2  9  1 -1</clus>
<clus scale="   79.550">  5  6 -1 -1</clus>
<clus scale="   86.426">  2  5  1 -1</clus>
<clus scale="   91.663">  7  8 -1 -1</clus>
<clus scale="   33.664">  2  5  1 -1</clus>
</clustering>
</event>
<event>
 9    1  0.4731329E-005  0.1103824E+03  0.7546771E-02  0.1264544E+00
         21   -1    0    0  501  502  0.00000000000E+00  0.00000000000E+00  0.65179932689E+02  0.65179932689E+02  0.00000000000E+00 0. -1.
          1   -1    0    0  502    0 -0.00000000000E+00 -0.00000000000E+00 -0.44198636441E+03  0.44198636441E+03  0.00000000000E+00 0. -1.
        -24    2    1    2    0    0 -0.73202688185E+02 -0.35530411262E+02 -0.25404348713E+03  0.27814086858E+03  0.78760432601E+02 0.  0.
         23    2    1    2    0    0  0.43844411462E+02 -0.15495267718E+02 -0.13468950992E+03  0.16896070270E+03  0.90796581626E+02 0.  0.
         11    1    3    3    0    0 -0.79836137158E+02 -0.51514954575E+02 -0.22636991452E+03  0.24550140029E+03  0.00000000000E+00 0. -1.
        -12    1    3    3    0    0  0.66334489725E+01  0.15984543312E+02 -0.27673572603E+02  0.32639468299E+02  0.00000000000E+00 0.  1.
        -13    1    4    4    0    0  0.68714485643E+02 -0.13979560450E+02 -0.12266815053E+03  0.14129608559E+03  0.00000000000E+00 0. -1.
         13    1    4    4    0    0 -0.24870074181E+02 -0.15157072680E+01 -0.12021359393E+02  0.27664617112E+02  0.00000000000E+00 0.  1.
          2    1    1    2  501    0  0.29358276723E+02  0.51025678980E+02  0.11926565324E+02  0.60064725821E+02  0.00000000000E+00 0. -1.
<scales pt_clust_5="13000.00000" pt_clust_6="13000.00000" pt_clust_7="13000.00000" pt_clust_8="13000.00000" pt_clust_9="58.86874"></scales>
<clustering>
<clus scale="   58.869">  1  9  2 -1</clus>
<clus scale="   78.760">  5  6 -1 -1</clus>
<clus scale="   90.797">  7  8 -1 -1</clus>
<clus scale="  100.715">  2  5  1 -1</clus>
<clus scale="   58.869">  1  5  2 -1</clus>
</clustering>
</event>
<event>
 9    1  0.4731329E-005  0.1091501E+03  0.7546771E-02  0.1271554E+00
         -4   -1    0    0    0  501 -0.00000000000E+00  0.00000000000E+00  0.16983866476E+03  0.16983866476E+03  0.00000000000E+00 0.  1.
         21   -1    0    0  501  502  0.00000000000E+00 -0.00000000000E+00 -0.25030268785E+03  0.25030268785E+03  0.00000000000E+00 0. -1.
         23    2    1    2    0    0 -0.52735907795E+02 -0.25590321243E+02  0.13034471758E+03  0.16921111957E+03  0.90590932621E+02 0.  0.
        -24    2    1    2    0    0  0.80952969338E+02  0.20102701031E+02 -0.16352443222E+03  0.19559378606E+03  0.67521754866E+02 0.  0.
         13    1    4    4    0    0  0.83089091647E+02  0.36350742704E+02 -0.14291933591E+03  0.16926638834E+03  0.00000000000E+00 0. -1.
        -14    1    4    4    0    0 -0.21361223087E+01 -0.16248041673E+02 -0.20605096309E+02  0.26327397719E+02  0.00000000000E+00 0.  1.
        -13    1    3    3    0    0 -0.14259447855E+02  0.19576824158E+02  0.99369633577E+02  0.10227858023E+03  0.00000000000E+00 0.  1.
         13    1    3    3    0    0 -0.38476459940E+02 -0.45167145402E+02  0.30975084003E+02  0.66932539338E+02  0.00000000000E+00 0. -1.
         -3    1    1    2    0  502 -0.28217061543E+02  0.54876202126E+01 -0.47284308462E+02  0.55336446981E+02  0.00000000000E+00 0.  1.
<scales pt_clust_5="13000.00000" pt_clust_6="13000.00000" pt_clust_7="13000.00000" pt_clust_8="13000.00000" pt_clust_9="28.74572"></scales>
<clustering>
<clus scale="   28.746">  2  9  1 -1</clus>
<clus scale="   67.522">  5  6 -1 -1</clus>
<clus scale="   90.591">  7  8 -1 -1</clus>
<clus scale="   90.919">  2  5  1 -1</clus>
<clus scale="   28.746">  2  5  1 -1</clus>
</clustering>
</event>
<event>
 9    1  0.4731329E-005  0.9514400E+02  0.7546771E-02  0.1295514E+00
          1   -1    0    0  502    0 -0.00000000000E+00  0.00000000000E+00  0.24018627188E+03  0.24018627188E+03  0.00000000000E+00 0. -1.
         21   -1    0    0  501  502  0.00000000000E+00 -0.00000000000E+00 -0.13194577649E+03  0.13194577649E+03  0.00000000000E+00 0. -1.
        -24    2    1    2    0    0  0.31210903947E+02  0.41447154250E+02  0.13611713572E+03  0.16756220855E+03  0.82808405233E+02 0.  0.
         23    2    1    2    0    0  0.13663566846E+02  0.12061631279E+02  0.45341267980E+02  0.10338797210E+03  0.91110187050E+02 0.  0.
         13    1    3    3    0    0  0.93612805418E+01  0.63331001027E+02  0.10911143414E+03  0.12650594581E+03  0.00000000000E+00 0. -1.
        -14    1    3    3    0    0  0.21849623406E+02 -0.21883846776E+02  0.27005701582E+02  0.41056262746E+02  0.00000000000E+00 0.  1.
        -11    1    4    4    0    0  0.52202628226E+02  0.14651265916E+02  0.24500559813E+02  0.59498331218E+02  0.00000000000E+00 0. -1.
         11    1    4    4    0    0 -0.38539061380E+02 -0.25896346371E+01  0.20840708167E+02  0.43889640879E+02  0.00000000000E+00 0.  1.
          2    1    1    2  501    0 -0.44874470794E+02 -0.53508785530E+02 -0.73217908312E+02  0.10118186772E+03  0.00000000000E+00 0. -1.
<scales pt_clust_5="13000.00000" pt_clust_6="13000.00000" pt_clust_7="13000.00000" pt_clust_8="13000.00000" pt_clust_9="69.83486"></scales>
<clustering>
<clus scale="   69.835">  2  9  1 -1</clus>
<clus scale="   82.808">  5  6 -1 -1</clus>
<clus scale="   87.227">  1  5  2 -1</clus>
<clus scale="   91.110">  7  8 -1 -1</clus>
<clus scale="   69.835">  2  5  1 -1</clus>
</clustering>
</event>
<event>
 9    1  0.4731329E-005  0.2309305E+03  0.7546771E-02  0.1138241E+00
         21   -1    0    0  501  502  0.00000000000E+00  0.00000000000E+00  0.16765853169E+03  0.16765853169E+03  0.00000000000E+00 0. -1.
          1   -1    0    0  502    0 -0.00000000000E+00 -0.00000000000E+00 -0.93440910440E+03  0.93440910440E+03  0.00000000000E+00 0. -1.
         23    2    1    2    0    0 -0.13798025146E+03 -0.43728184074E+02 -0.55811198937E+03  0.58375282856E+03  0.91256058936E+02 0.  0.
        -24    2    1    2    0    0 -0.11903770730E+03  0.10768017531E+03 -0.17575817619E+03  0.25142679829E+03  0.80990755564E+02 0.  0.
         11    1    4    4    0    0 -0.88303897268E+02  0.30630623871E+02 -0.68730864036E+02  0.11601614139E+03  0.00000000000E+00 0. -1.
        -12    1    4    4    0    0 -0.30733810034E+02  0.77049551436E+02 -0.10702731215E+03  0.13541065690E+03  0.00000000000E+00 0.  1.
        -11    1    3    3    0    0 -0.67921259007E+02 -0.62803902996E+02 -0.23432373570E+03  0.25192308502E+03  0.00000000000E+00 0.  1.
         11    1    3    3    0    0 -0.70058992448E+02  0.19075718922E+02 -0.32378825367E+03  0.33182974353E+03  0.00000000000E+00 0. -1.
          2    1    1    2  501    0  0.25701795876E+03 -0.63951991233E+02 -0.32880407145E+02  0.26688800925E+03  0.00000000000E+00 0. -1.
<scales pt_clust_5="13000.00000" pt_clust_6="13000.00000" pt_clust_7="13000.00000" pt_clust_8="13000.00000" pt_clust_9="216.26232"></scales>
<clustering>
<clus scale="   80.991">  5  6 -1 -1</clus>
<clus scale="   91.256">  7  8 -1 -1</clus>
<clus scale="  171.109">  2  7  1 -1</clus>
<clus scale="  216.262">  1  9  2 -1</clus>
<clus scale="  216.262">  1  5  2 -1</clus>
</clustering>
</event>
<event>
 9    1  0.4731329E-005  0.1769700E+03  0.7546771E-02  0.1171925E+00
          1   -1    0    0  502    0 -0.00000000000E+00  0.00000000000E+00  0.96399759789E+03  0.96399759789E+03  0.00000000000E+00 0. -1.
         21   -1    0    0  501  502  0.00000000000E+00 -0.00000000000E+00 -0.58788774631E+02  0.58788774631E+02  0.00000000000E+00 0. -1.
         23    2    1    2    0    0 -0.12850299888E+03  0.90042151931E+01  0.37140905258E+03  0.40332728076E+03  0.90189325631E+02 0.  0.
        -24    2    1    2    0    0  0.17634514838E+03 -0.21840189240E+02  0.53543101004E+03  0.56989807442E+03  0.80764122504E+02 0.  0.
         13    1    4    4    0    0  0.13843200948E+03 -0.43189764834E+02  0.33913944048E+03  0.36884188635E+03  0.00000000000E+00 0. -1.
        -14    1    4    4    0    0  0.37913138903E+02  0.21349575593E+02  0.19629156956E+03  0.20105618807E+03  0.00000000000E+00 0.  1.
        -11    1    3    3    0    0 -0.27148701059E+02  0.99966067418E+01  0.14609828708E+02  0.32410356530E+02  0.00000000000E+00 0. -1.
         11    1    3    3    0    0 -0.10135429782E+03 -0.99239154870E+00  0.35679922387E+03  0.37091692423E+03  0.00000000000E+00 0.  1.
          2    1    1    2  501    0 -0.47842149503E+02  0.12835974047E+02 -0.16312393576E+01  0.49561017349E+02  0.00000000000E+00 0. -1.
<scales pt_clust_5="13000.00000" pt_clust_6="13000.00000" pt_clust_7="13000.00000" pt_clust_8="13000.00000" pt_clust_9="49.53416"></scales>
<clustering>
<clus scale="   49.534">  2  9  1 -1</clus>
<clus scale="   80.764">  5  6 -1 -1</clus>
<clus scale="   90.189">  7  8 -1 -1</clus>
<clus scale="  172.357">  2  5  1 -1</clus>
<clus scale="   49.534">  2  5  1 -1</clus>
</clustering>
</event>
<event>
 9    1  0.4731329E-005  0.1016617E+03  0.7546771E-02  0.1282966E+00
         21   -1    0    0  501  502  0.00000000000E+00  0.00000000000E+00  0.62326723420E+02  0.62326723420E+02  0.00000000000E+00 0.  1.
          1   -1    0    0  502    0 -0.00000000000E+00 -0.00000000000E+00 -0.78193346261E+03  0.78193346261E+03  0.00000000000E+00 0. -1.
        -24    2    1    2    0    0  0.26553267677E+02 -0.31876824847E+02 -0.71732578184E+03  0.72307562013E+03  0.80999179932E+02 0.  0.
         23    2    1    2    0    0 -0.82187402909E+01  0.23228751154E+02 -0.14353553946E+02  0.97590251721E+02  0.93331185292E+02 0.  0.
         13    1    3    3    0    0  0.65630248530E+01 -0.49177676403E+02 -0.24297269101E+03  0.24798638214E+03  0.00000000000E+00 0. -1.
        -14    1    3    3    0    0  0.19990242824E+02  0.17300851556E+02 -0.47435309083E+03  0.47508923799E+03  0.00000000000E+00 0.  1.
        -11    1    4    4    0    0 -0.42446898732E+02  0.16844118248E+01  0.17664381617E+02  0.46006595539E+02  0.00000000000E+00 0.  1.
         11    1    4    4    0    0  0.34228158441E+02  0.21544339329E+02 -0.32017935563E+02  0.51583656182E+02  0.00000000000E+00 0. -1.
          2    1    1    2  501    0 -0.18334527386E+02  0.86480736930E+01  0.12072596593E+02  0.23594314179E+02  0.00000000000E+00 0. -1.
<scales pt_clust_5="13000.00000" pt_clust_6="13000.00000" pt_clust_7="13000.00000" pt_clust_8="13000.00000" pt_clust_9="20.27176"></scales>
<clustering>
<clus scale="   20.272">  1  9  2 -1</clus>
<clus scale="   80.999">  5  6 -1 -1</clus>
<clus scale="   90.472">  2  5  1 -1</clus>
<clus scale="   93.331">  7  8 -1 -1</clus>
<clus scale="   20.272">  1  5  2 -1</clus>
</clustering>
</event>
<event>
 9    1  0.4731329E-005  0.1064303E+03  0.7546771E-02  0.1272340E+00
         21   -1    0    0  501  502  0.00000000000E+00  0.00000000000E+00  0.17397632829E+02  0.17397632829E+02  0.00000000000E+00 0. -1.
          1   -1    0    0  502    0 -0.00000000000E+00 -0.00000000000E+00 -0.11574718989E+04  0.11574718989E+04  0.00000000000E+00 0. -1.
         23    2    1    2    0    0  0.69523909714E+02  0.37097021665E+02 -0.45021177106E+03  0.46631482111E+03  0.92461400300E+02 0.  0.
        -24    2    1    2    0    0 -0.11203758671E+02 -0.33743420129E+02 -0.25729162314E+03  0.27205723542E+03  0.80944532854E+02 0.  0.
         11    1    4    4    0    0 -0.24424687441E+02 -0.39045732488E+02 -0.67403444364E+02  0.81635524707E+02  0.00000000000E+00 0. -1.
        -12    1    4    4    0    0  0.13220928770E+02  0.53023123594E+01 -0.18988817877E+03  0.19042171072E+03  0.00000000000E+00 0.  1.
        -13    1    3    3    0    0 -0.21386518608E+02  0.12825965566E+02 -0.61217759527E+02  0.66102213672E+02  0.00000000000E+00 0.  1.
         13    1    3    3    0    0  0.90910428322E+02  0.24271056099E+02 -0.38899401153E+03  0.40021260743E+03  0.00000000000E+00 0. -1.
          2    1    1    2  501    0 -0.58320151043E+02 -0.33536015361E+01 -0.43257087189E+03  0.43649747521E+03  0.00000000000E+00 0. -1.
<scales pt_clust_5="13000.00000" pt_clust_6="13000.00000" pt_clust_7="13000.00000" pt_clust_8="13000.00000" pt_clust_9="58.41652"></scales>
<clustering>
<clus scale="   58.417">  1  9  2 -1</clus>
<clus scale="   80.945">  5  6 -1 -1</clus>
<clus scale="   92.461">  7  8 -1 -1</clus>
<clus scale="   96.594">  1  5  2 -1</clus>
<clus scale="   58.417">  1  5  2 -1</clus>
</clustering>
</event>
<event>
 9    1  0.4731329E-005  0.1429842E+03  0.7546771E-02  0.1210079E+00
          1   -1    0    0  502    0 -0.00000000000E+00  0.00000000000E+00  0.77901654246E+03  0.77901654246E+03  0.00000000000E+00 0. -1.
         21   -1    0    0  501  502  0.00000000000E+00 -0.00000000000E+00 -0.96713399988E+02  0.96713399988E+02  0.00000000000E+00 0. -1.
        -24    2    1    2    0    0 -0.63902048764E+02 -0.92191947496E+02  0.49138771427E+03  0.51266679501E+03  0.93715153277E+02 0.  0.
         23    2    1    2    0    0  0.56301006618E+02  0.51878330938E+02 -0.42663521864E+02  0.12590900044E+03  0.90397653330E+02 0.  0.
         13    1    3    3    0    0 -0.39512999702E+02 -0.10845569852E+03  0.41788572519E+03  0.43353476793E+03  0.00000000000E+00 0. -1.
        -14    1    3    3    0    0 -0.24389049063E+02  0.16263751022E+02  0.73501989080E+02  0.79132027082E+02  0.00000000000E+00 0.  1.
        -13    1    4    4    0    0  0.65303455062E+02  0.24021148316E+02 -0.60006224909E+02  0.91882010412E+02  0.00000000000E+00 0. -1.
         13    1    4    4    0    0 -0.90024484447E+01  0.27857182623E+02  0.17342703045E+02  0.34026990031E+02  0.00000000000E+00 0.  1.
          2    1    1    2  501    0  0.76010421469E+01  0.40313616558E+02  0.23357895006E+03  0.23715414699E+03  0.00000000000E+00 0. -1.
<scales pt_clust_5="13000.00000" pt_clust_6="13000.00000" pt_clust_7="13000.00000" pt_clust_8="13000.00000" pt_clust_9="41.02396"></scales>
<clustering>
<clus scale="   41.024">  2  9  1 -1</clus>
<clus scale="   90.398">  7  8 -1 -1</clus>
<clus scale="   93.715">  5  6 -1 -1</clus>
<clus scale="  140.832">  2  7  1 -1</clus>
<clus scale="   41.024">  2  5  1 -1</clus>
</clustering>
</event>
<event>
 9    1  0.4731329E-005  0.1511529E+03  0.7546771E-02  0.1220719E+00
         21   -1    0    0  501  502  0.00000000000E+00  0.00000000000E+00  0.86735893046E+03  0.86735893046E+03  0.00000000000E+00 0. -1.
          1   -1    0    0  502    0 -0.00000000000E+00 -0.00000000000E+00 -0.50716899208E+02  0.50716899208E+02  0.00000000000E+00 0. -1.
        -24    2    1    2    0    0 -0.31281183108E+02 -0.41269211398E+02  0.13163868238E+03  0.16244260774E+03  0.79857359624E+02 0.  0.
         23    2    1    2    0    0 -0.34163501886E+02 -0.69082711944E+02  0.10252996687E+03  0.15919731210E+03  0.94296469309E+02 0.  0.
         11    1    3    3    0    0  0.18168563381E+02 -0.34773625682E+02  0.30568818009E+02  0.49736851256E+02  0.00000000000E+00 0. -1.
        -12    1    3    3    0    0 -0.49449746489E+02 -0.64955857153E+01  0.10106986437E+03  0.11270575649E+03  0.00000000000E+00 0.  1.
        -11    1    4    4    0    0 -0.56591901009E+02 -0.75461045629E+02  0.96861562427E+02  0.13520049905E+03  0.00000000000E+00 0. -1.
         11    1    4    4    0    0  0.22428399124E+02  0.63783336850E+01  0.56684044417E+01  0.23996813054E+02  0.00000000000E+00 0.  1.
          2    1    1    2  501    0  0.65444684994E+02  0.11035192334E+03  0.58247338200E+03  0.59643590982E+03  0.00000000000E+00 0. -1.
<scales pt_clust_5="13000.00000" pt_clust_6="13000.00000" pt_clust_7="13000.00000" pt_clust_8="13000.00000" pt_clust_9="118.13287"></scales>
<clustering>
<clus scale="   79.857">  5  6 -1 -1</clus>
<clus scale="   94.296">  7  8 -1 -1</clus>
<clus scale="   95.178">  2  5  1 -1</clus>
<clus scale="  118.133">  1  9  2 -1</clus>
<clus scale="  118.133">  1  5  2 -1</clus>
</clustering>
</event>
<event>
 9    1  0.4731329E-005  0.1200209E+03  0.7546771E-02  0.1245791E+00
          1   -1    0    0  502    0 -0.00000000000E+00  0.00000000000E+00  0.50051847877E+03  0.50051847877E+03  0.00000000000E+00 0. -1.
         21   -1    0    0  501  502  0.00000000000E+00 -0.00000000000E+00 -0.69779464811E+02  0.69779464811E+02  0.00000000000E+00 0. -1.
        -24    2    1    2    0    0 -0.58011301675E+02 -0.51780738856E+02  0.37570731571E+03  0.39233464528E+03  0.81999577863E+02 0.  0.
         23    2    1    2    0    0  0.44509750715E+02  0.76148763659E+02  0.12506617113E+02  0.12712556589E+03  0.90690362862E+02 0.  0.
         13    1    3    3    0    0 -0.56938858722E+02 -0.45181983990E+02  0.15157274208E+03  0.16810039099E+03  0.00000000000E+00 0. -1.
        -14    1    3    3    0    0 -0.10724429534E+01 -0.65987548668E+01  0.22413457363E+03  0.22423425429E+03  0.00000000000E+00 0.  1.
        -11    1    4    4    0    0  0.51930341025E+02  0.46198348069E+02  0.44616244118E+02  0.82593322505E+02  0.00000000000E+00 0.  1.
         11    1    4    4    0    0 -0.74205903100E+01  0.29950415590E+02 -0.32109627005E+02  0.44532243386E+02  0.00000000000E+00 0. -1.
          2    1    1    2  501    0  0.13501550961E+02 -0.24368024803E+02  0.42525081141E+02  0.50837732416E+02  0.00000000000E+00 0. -1.
<scales pt_clust_5="13000.00000" pt_clust_6="13000.00000" pt_clust_7="13000.00000" pt_clust_8="13000.00000" pt_clust_9="27.85845"></scales>
<clustering>
<clus scale="   27.858">  2  9  1 -1</clus>
<clus scale="   82.000">  5  6 -1 -1</clus>
<clus scale="   90.690">  7  8 -1 -1</clus>
<clus scale="  113.597">  1  5  2 -1</clus>
<clus scale="   27.858">  2  5  1 -1</clus>
</clustering>
</event>
<event>
 9    1  0.4731329E-005  0.9744596E+02  0.7546771E-02  0.1290895E+00
          1   -1    0    0  502    0 -0.00000000000E+00  0.00000000000E+00  0.58330637954E+03  0.58330637954E+03  0.00000000000E+00 0. -1.
         21   -1    0    0  501  502  0.00000000000E+00 -0.00000000000E+00 -0.19883945979E+02  0.19883945979E+02  0.00000000000E+00 0. -1.
         23    2    1    2    0    0  0.31761209838E+02  0.38596622483E+02  0.29428155575E+03  0.31182507236E+03  0.90192948603E+02 0.  0.
        -24    2    1    2    0    0 -0.14477134665E+02 -0.18324371331E+02  0.18424103164E+03  0.20238386578E+03  0.80430724069E+02 0.  0.
         11    1    4    4    0    0  0.16119043234E+02  0.21325194572E+02  0.10729432289E+03  0.11057422486E+03  0.00000000000E+00 0. -1.
        -12    1    4    4    0    0 -0.30596177900E+02 -0.39649565902E+02  0.76946708749E+02  0.91809640919E+02  0.00000000000E+00 0.  1.
        -11    1    3    3    0    0  0.28733355587E+02 -0.25456327067E+02  0.12696614683E+03  0.13264249980E+03  0.00000000000E+00 0.  1.
         11    1    3    3    0    0  0.30278542513E+01  0.64052949550E+02  0.16731540892E+03  0.17918257256E+03  0.00000000000E+00 0. -1.
          2    1    1    2  501    0 -0.17284075173E+02 -0.20272251152E+02  0.84899846169E+02  0.88981387385E+02  0.00000000000E+00 0. -1.
<scales pt_clust_5="13000.00000" pt_clust_6="13000.00000" pt_clust_7="13000.00000" pt_clust_8="13000.00000" pt_clust_9="26.64027"></scales>
<clustering>
<clus scale="   26.640">  2  9  1 -1</clus>
<clus scale="   80.431">  5  6 -1 -1</clus>
<clus scale="   88.488">  2  5  1 -1</clus>
<clus scale="   90.193">  7  8 -1 -1</clus>
<clus scale="   26.640">  2  5  1 -1</clus>
</clustering>
</event>
<event>
 9    1  0.4731329E-005  0.8882746E+02  0.7546771E-02  0.1314557E+00
          1   -1    0    0  502    0 -0.00000000000E+00  0.00000000000E+00  0.36322055953E+03  0.36322055953E+03  0.00000000000E+00 0. -1.
         21   -1    0    0  501  502  0.00000000000E+00 -0.00000000000E+00 -0.36029847375E+02  0.36029847375E+02  0.00000000000E+00 0.  1.
         23    2    1    2    0    0 -0.20510000696E+02 -0.14889349802E+02  0.23437461171E+03  0.24653826358E+03  0.72161651356E+02 0.  0.
        -24    2    1    2    0    0  0.23206998072E+02 -0.15593725239E+02  0.64034766513E+02  0.11070194407E+03  0.85864661371E+02 0.  0.
         11    1    4    4    0    0  0.32185533878E+01  0.22875315550E+02  0.63256790123E+02  0.67342858895E+02  0.00000000000E+00 0. -1.
        -12    1    4    4    0    0  0.19988444684E+02 -0.38469040788E+02  0.77797638959E+00  0.43359085176E+02  0.00000000000E+00 0.  1.
        -11    1    3    3    0    0  0.41671932508E+01 -0.33617649646E+02  0.18624372222E+03  0.18929932893E+03  0.00000000000E+00 0.  1.
         11    1    3    3    0    0 -0.24677193947E+02  0.18728299844E+02  0.48130889490E+02  0.57238934645E+02  0.00000000000E+00 0. -1.
          2    1    1    2  501    0 -0.26969973762E+01  0.30483075040E+02  0.28781333930E+02  0.42010199256E+02  0.00000000000E+00 0. -1.
<scales pt_clust_5="13000.00000" pt_clust_6="13000.00000" pt_clust_7="13000.00000" pt_clust_8="13000.00000" pt_clust_9="30.60215"></scales>
<clustering>
<clus scale="   30.602">  2  9  1 -1</clus>
<clus scale="   72.162">  7  8 -1 -1</clus>
<clus scale="   75.663">  1  7  2 -1</clus>
<clus scale="   85.865">  5  6 -1 -1</clus>
<clus scale="   30.602">  2  5  1 -1</clus>
</clustering>
</event>
<event>
 9    1  0.4731329E-005  0.1374237E+03  0.7546771E-02  0.1220504E+00
         21   -1    0    0  501  502  0.00000000000E+00  0.00000000000E+00  0.74284742997E+02  0.74284742997E+02  0.00000000000E+00 0. -1.
          1   -1    0    0  502    0 -0.00000000000E+00 -0.00000000000E+00 -0.31527308590E+03  0.31527308590E+03  0.00000000000E+00 0. -1.
         23    2    1    2    0    0  0.54473172026E+02  0.58868200959E+02 -0.78968093932E+02  0.14744686215E+03  0.95246132429E+02 0.  0.
        -24    2    1    2    0    0 -0.82779221632E+02 -0.83130776367E+02 -0.11906107610E+03  0.18523042927E+03  0.79822594384E+02 0.  0.
         13    1    4    4    0    0 -0.63761788553E+02 -0.88406949926E+02 -0.12378558742E+03  0.16493703686E+03  0.00000000000E+00 0. -1.
        -14    1    4    4    0    0 -0.19017433079E+02  0.52761735594E+01  0.47245113265E+01  0.20293392412E+02  0.00000000000E+00 0.  1.
        -13    1    3    3    0    0  0.76604707668E+02  0.23897994924E+02 -0.36526921457E+02  0.88168086003E+02  0.00000000000E+00 0. -1.
         13    1    3    3    0    0 -0.22131535642E+02  0.34970206035E+02 -0.42441172475E+02  0.59278776143E+02  0.00000000000E+00 0.  1.
          2    1    1    2  501    0  0.28306049605E+02  0.24262575408E+02 -0.42959172875E+02  0.56880537478E+02  0.00000000000E+00 0. -1.
<scales pt_clust_5="13000.00000" pt_clust_6="13000.00000" pt_clust_7="13000.00000" pt_clust_8="13000.00000" pt_clust_9="37.28145"></scales>
<clustering>
<clus scale="   37.281">  1  9  2 -1</clus>
<clus scale="   79.823">  5  6 -1 -1</clus>
<clus scale="   95.246">  7  8 -1 -1</clus>
<clus scale="  127.221">  1  5  2 -1</clus>
<clus scale="   37.281">  1  5  2 -1</clus>
</clustering>
</event>
<event>
 9    1  0.4731329E-005  0.2389409E+03  0.7546771E-02  0.1121261E+00
          3   -1    0    0  502    0 -0.00000000000E+00  0.00000000000E+00  0.88164258495E+03  0.88164258495E+03  0.00000000000E+00 0. -1.
         21   -1    0    0  501  502  0.00000000000E+00 -0.00000000000E+00 -0.11561346535E+03  0.11561346535E+03  0.00000000000E+00 0. -1.
         23    2    1    2    0    0 -0.54348129193E+02  0.21985283213E+03  0.43922684223E+03  0.50297074636E+03  0.93650231215E+02 0.  0.
        -24    2    1    2    0    0  0.10067988024E+03 -0.18236797294E+03  0.75613952051E+02  0.23612388042E+03  0.81501541817E+02 0.  0.
         13    1    4    4    0    0  0.75381819946E+02 -0.56887039331E+02  0.19863307206E+02  0.96504429927E+02  0.00000000000E+00 0. -1.
        -14    1    4    4    0    0  0.25298060291E+02 -0.12548093361E+03  0.55750644845E+02  0.13961945049E+03  0.00000000000E+00 0.  1.
        -11    1    3    3    0    0 -0.57147485347E+02  0.81346545243E+02  0.24498962596E+03  0.26439177811E+03  0.00000000000E+00 0.  1.
         11    1    3    3    0    0  0.27993561547E+01  0.13850628689E+03  0.19423721628E+03  0.23857896825E+03  0.00000000000E+00 0. -1.
          4    1    1    2  501    0 -0.46331751044E+02 -0.37484859188E+02  0.25118832531E+03  0.25816142352E+03  0.00000000000E+00 0. -1.
<scales pt_clust_5="13000.00000" pt_clust_6="13000.00000" pt_clust_7="13000.00000" pt_clust_8="13000.00000" pt_clust_9="59.59656"></scales>
<clustering>
<clus scale="   59.597">  2  9  1 -1</clus>
<clus scale="   81.502">  5  6 -1 -1</clus>
<clus scale="   93.650">  7  8 -1 -1</clus>
<clus scale="  234.446">  2  5  1 -1</clus>
<clus scale="   59.597">  2  5  1 -1</clus>
</clustering>
</event>
<event>
 9    1  0.4731329E-005  0.1119986E+03  0.7546771E-02  0.1263850E+00
         21   -1    0    0  501  502  0.00000000000E+00  0.00000000000E+00  0.38069809016E+03  0.38069809016E+03  0.00000000000E+00 0.  1.
          1   -1    0    0  502    0 -0.00000000000E+00 -0.00000000000E+00 -0.17561283384E+03  0.17561283384E+03  0.00000000000E+00 0. -1.
        -24    2    1    2    0    0  0.37366176157E+02 -0.36955245459E+02 -0.13932216410E+03  0.16952356726E+03  0.81028718128E+02 0.  0.
         23    2    1    2    0    0 -0.51072588599E+02  0.72845951938E+02  0.22076319389E+03  0.25731186366E+03  0.97765358821E+02 0.  0.
         13    1    3    3    0    0  0.26625952246E+02 -0.35225106458E+02 -0.14872684704E+03  0.15514323862E+03  0.00000000000E+00 0. -1.
        -14    1    3    3    0    0  0.10740223911E+02 -0.17301390007E+01  0.94046829453E+01  0.14380328644E+02  0.00000000000E+00 0.  1.
        -11    1    4    4    0    0 -0.80447130098E+02  0.58530444082E+02  0.16818147134E+03  0.19540358474E+03  0.00000000000E+00 0.  1.
         11    1    4    4    0    0  0.29374541499E+02  0.14315507856E+02  0.52581722545E+02  0.61908278924E+02  0.00000000000E+00 0. -1.
          2    1    1    2  501    0  0.13706412442E+02 -0.35890706479E+02  0.12364422653E+03  0.12947549308E+03  0.00000000000E+00 0. -1.
<scales pt_clust_5="13000.00000" pt_clust_6="13000.00000" pt_clust_7="13000.00000" pt_clust_8="13000.00000" pt_clust_9="38.41886"></scales>
<clustering>
<clus scale="   38.419">  1  9  2 -1</clus>
<clus scale="   81.029">  5  6 -1 -1</clus>
<clus scale="   97.731">  2  5  1 -1</clus>
<clus scale="   97.765">  7  8 -1 -1</clus>
<clus scale="   38.419">  1  5  2 -1</clus>
</clustering>
</event>
<event>
 9    1  0.4731329E-005  0.1085651E+03  0.7546771E-02  0.1268629E+00
         21   -1    0    0  501  502  0.00000000000E+00  0.00000000000E+00  0.33578300082E+03  0.33578300082E+03  0.00000000000E+00 0. -1.
          1   -1    0    0  502    0 -0.00000000000E+00 -0.00000000000E+00 -0.94410939530E+02  0.94410939530E+02  0.00000000000E+00 0. -1.
        -24    2    1    2    0    0  0.32996188350E+02  0.29399112222E+02  0.14992643918E+02  0.91007975624E+02  0.78132042150E+02 0.  0.
         23    2    1    2    0    0 -0.77197043018E+02 -0.96209245723E+02  0.20537307435E+03  0.25636944500E+03  0.91277545142E+02 0.  0.
         11    1    3    3    0    0  0.52701381364E+02  0.40077813223E+02  0.47899835010E+01  0.66382306772E+02  0.00000000000E+00 0. -1.
        -12    1    3    3    0    0 -0.19705193014E+02 -0.10678701002E+02  0.10202660417E+02  0.24625668852E+02  0.00000000000E+00 0.  1.
        -13    1    4    4    0    0 -0.11422847172E+02  0.18080900250E+02  0.33377070050E+02  0.39641256243E+02  0.00000000000E+00 0.  1.
         13    1    4    4    0    0 -0.65774195846E+02 -0.11429014597E+03  0.17199600430E+03  0.21672818876E+03  0.00000000000E+00 0. -1.
          2    1    1    2  501    0  0.44200854668E+02  0.66810133501E+02  0.21006343012E+02  0.82816519720E+02  0.00000000000E+00 0. -1.
<scales pt_clust_5="13000.00000" pt_clust_6="13000.00000" pt_clust_7="13000.00000" pt_clust_8="13000.00000" pt_clust_9="80.10815"></scales>
<clustering>
<clus scale="   78.132">  5  6 -1 -1</clus>
<clus scale="   80.108">  1  9  2 -1</clus>
<clus scale="   91.278">  7  8 -1 -1</clus>
<clus scale="   97.772">  2  5  1 -1</clus>
<clus scale="   80.108">  1  5  2 -1</clus>
</clustering>
</event>
<event>
 9    1  0.4731329E-005  0.1458207E+03  0.7546771E-02  0.1212069E+00
          3   -1    0    0  502    0 -0.00000000000E+00  0.00000000000E+00  0.10840022397E+03  0.10840022397E+03  0.00000000000E+00 0. -1.
         21   -1    0    0  501  502  0.00000000000E+00 -0.00000000000E+00 -0.29094489444E+03  0.29094489444E+03  0.00000000000E+00 0.  1.
        -24    2    1    2    0    0  0.10330780788E+03 -0.11397213110E+02 -0.16349135919E+02  0.13262429131E+03  0.80743475054E+02 0.  0.
         23    2    1    2    0    0 -0.85419325687E+02 -0.31192558979E+02 -0.16947829004E+03  0.22041032111E+03  0.10764934705E+03 0.  0.
         13    1    3    3    0    0  0.88506475966E+02 -0.39338582170E+02  0.37153592610E+00  0.96855863912E+02  0.00000000000E+00 0. -1.
        -14    1    3    3    0    0  0.14801331914E+02  0.27941369061E+02 -0.16720671845E+02  0.35768427396E+02  0.00000000000E+00 0.  1.
        -13    1    4    4    0    0 -0.96069413853E+02 -0.57450142446E+02 -0.12629833003E+03  0.16876350113E+03  0.00000000000E+00 0.  1.
         13    1    4    4    0    0  0.10650088165E+02  0.26257583467E+02 -0.43179960005E+02  0.51646819975E+02  0.00000000000E+00 0. -1.
          4    1    1    2  501    0 -0.17888482193E+02  0.42589772088E+02  0.32827554850E+01  0.46310505992E+02  0.00000000000E+00 0. -1.
<scales pt_clust_5="13000.00000" pt_clust_6="13000.00000" pt_clust_7="13000.00000" pt_clust_8="13000.00000" pt_clust_9="46.19403"></scales>
<clustering>
<clus scale="   46.194">  2  9  1 -1</clus>
<clus scale="   80.743">  5  6 -1 -1</clus>
<clus scale="  107.649">  7  8 -1 -1</clus>
<clus scale="  127.259">  1  5  2 -1</clus>
<clus scale="   46.194">  2  5  1 -1</clus>
</clustering>
</event>
<event>
 9    1  0.4731329E-005  0.9656922E+02  0.7546771E-02  0.1291228E+00
         21   -1    0    0  501  502  0.00000000000E+00  0.00000000000E+00  0.28314167959E+03  0.28314167959E+03  0.00000000000E+00 0. -1.
          1   -1    0    0  502    0 -0.00000000000E+00 -0.00000000000E+00 -0.21123314168E+03  0.21123314168E+03  0.00000000000E+00 0. -1.
         23    2    1    2    0    0 -0.36142354960E+02  0.16489459360E+02 -0.18155370584E+03  0.20582370602E+03  0.88450425444E+02 0.  0.
        -24    2    1    2    0    0  0.37877136326E+01 -0.46296710308E+02  0.17334128969E+03  0.19714727340E+03  0.81621765104E+02 0.  0.
         13    1    4    4    0    0  0.28835414255E+02 -0.45974301758E+02  0.59286997491E+02  0.80374533335E+02  0.00000000000E+00 0. -1.
        -14    1    4    4    0    0 -0.25047700622E+02 -0.32240855040E+00  0.11405429220E+03  0.11677274007E+03  0.00000000000E+00 0.  1.
        -11    1    3    3    0    0 -0.27070383342E+01 -0.29105031299E+02 -0.11421442829E+03  0.11789557469E+03  0.00000000000E+00 0. -1.
         11    1    3    3    0    0 -0.33435316626E+02  0.45594490659E+02 -0.67339277558E+02  0.87928131325E+02  0.00000000000E+00 0.  1.
          2    1    1    2  501    0  0.32354641328E+02  0.29807250949E+02  0.80120954067E+02  0.91403841851E+02  0.00000000000E+00 0. -1.
<scales pt_clust_5="13000.00000" pt_clust_6="13000.00000" pt_clust_7="13000.00000" pt_clust_8="13000.00000" pt_clust_9="43.99199"></scales>
<clustering>
<clus scale="   43.992">  1  9  2 -1</clus>
<clus scale="   81.622">  5  6 -1 -1</clus>
<clus scale="   88.450">  7  8 -1 -1</clus>
<clus scale="   90.356">  1  5  2 -1</clus>
<clus scale="   43.992">  1  5  2 -1</clus>
</clustering>
</event>
<event>
 9    1  0.4731329E-005  0.8678047E+02  0.7546771E-02  0.1311663E+00
         -2   -1    0    0    0  501 -0.00000000000E+00  0.00000000000E+00  0.24213654270E+03  0.24213654270E+03  0.00000000000E+00 0.  1.
         21   -1    0    0  501  502  0.00000000000E+00 -0.00000000000E+00 -0.12328995770E+03  0.12328995770E+03  0.00000000000E+00 0.  1.
        -24    2    1    2    0    0  0.20516592502E+01  0.33861059805E+02  0.55747637947E+01  0.87319788958E+02  0.80267595426E+02 0.  0.
         23    2    1    2    0    0  0.36884523878E+02 -0.14368714634E+02 -0.53784885146E+02  0.10546858989E+03  0.81632600845E+02 0.  0.
         13    1    3    3    0    0 -0.95239242326E+00  0.52877967316E+02 -0.18915900273E+02  0.56167586400E+02  0.00000000000E+00 0. -1.
        -14    1    3    3    0    0  0.30040516735E+01 -0.19016907511E+02  0.24490664068E+02  0.31152202558E+02  0.00000000000E+00 0.  1.
        -13    1    4    4    0    0  0.39956729255E+02  0.15469109981E+02  0.11676734263E+01  0.42862536528E+02  0.00000000000E+00 0.  1.
         13    1    4    4    0    0 -0.30722053768E+01 -0.29837824615E+02 -0.54952558572E+02  0.62606053360E+02  0.00000000000E+00 0. -1.
         -1    1    1    2    0  502 -0.38936183129E+02 -0.19492345170E+02  0.16705670636E+03  0.17263812156E+03  0.00000000000E+00 0.  1.
<scales pt_clust_5="13000.00000" pt_clust_6="13000.00000" pt_clust_7="13000.00000" pt_clust_8="13000.00000" pt_clust_9="43.54285"></scales>
<clustering>
<clus scale="   43.543">  2  9  1 -1</clus>
<clus scale="   80.268">  5  6 -1 -1</clus>
<clus scale="   81.633">  7  8 -1 -1</clus>
<clus scale="   85.498">  1  5  2 -1</clus>
<clus scale="   43.543">  2  5  1 -1</clus>
</clustering>
</event>
<event>
 9    1  0.4731329E-005  0.2519097E+03  0.7546771E-02  0.1128495E+00
         21   -1    0    0  501  502  0.00000000000E+00  0.00000000000E+00  0.74095836286E+02  0.74095836286E+02  0.00000000000E+00 0.  1.
          1   -1    0    0  502    0 -0.00000000000E+00 -0.00000000000E+00 -0.16590556420E+04  0.16590556420E+04  0.00000000000E+00 0. -1.
        -24    2    1    2    0    0 -0.59567042005E+02 -0.13505544238E+03 -0.21847951440E+03  0.27513249835E+03  0.78590002091E+02 0.  0.
         23    2    1    2    0    0 -0.94676662295E+02 -0.12723646757E+03 -0.72866503449E+03  0.75133908905E+03  0.91678269909E+02 0.  0.
         11    1    3    3    0    0 -0.50392520201E+02 -0.41668602394E+02 -0.13297547625E+03  0.14818284584E+03  0.00000000000E+00 0. -1.
        -12    1    3    3    0    0 -0.91745218039E+01 -0.93386839988E+02 -0.85504038145E+02  0.12694965251E+03  0.00000000000E+00 0.  1.
        -13    1    4    4    0    0 -0.98718016889E+02 -0.65957237472E+02 -0.54126347016E+03  0.55413152605E+03  0.00000000000E+00 0. -1.
         13    1    4    4    0    0  0.40413545937E+01 -0.61279230098E+02 -0.18740156433E+03  0.19720756299E+03  0.00000000000E+00 0.  1.
          2    1    1    2  501    0  0.15424370430E+03  0.26229190995E+03 -0.63781525679E+03  0.70667989085E+03  0.00000000000E+00 0. -1.
<scales pt_clust_5="13000.00000" pt_clust_6="13000.00000" pt_clust_7="13000.00000" pt_clust_8="13000.00000" pt_clust_9="234.63506"></scales>
<clustering>
<clus scale="   78.590">  5  6 -1 -1</clus>
<clus scale="   91.678">  7  8 -1 -1</clus>
<clus scale="  167.226">  2  5  1 -1</clus>
<clus scale="  234.635">  1  9  2 -1</clus>
<clus scale="  234.635">  1  5  2 -1</clus>
</clustering>
</event>
<event>
 9    1  0.4731329E-005  0.1416248E+03  0.7546771E-02  0.1231417E+00
         21   -1    0    0  501  502  0.00000000000E+00  0.00000000000E+00  0.89444919697E+02  0.89444919697E+02  0.00000000000E+00 0. -1.
          1   -1    0    0  502    0 -0.00000000000E+00 -0.00000000000E+00 -0.47143295967E+03  0.47143295967E+03  0.00000000000E+00 0. -1.
         23    2    1    2    0    0  0.35930432660E+00  0.21217607449E+01 -0.10525415196E+03  0.14021595942E+03  0.92614511847E+02 0.  0.
        -24    2    1    2    0    0 -0.44766968015E+02  0.10185073925E+03 -0.27362815319E+03  0.30756034198E+03  0.85693309117E+02 0.  0.
         11    1    4    4    0    0 -0.58740320460E+02  0.35030286304E+02 -0.17234135703E+03  0.18541599055E+03  0.00000000000E+00 0. -1.
        -12    1    4    4    0    0  0.13973352444E+02  0.66820452947E+02 -0.10128679616E+03  0.12214435143E+03  0.00000000000E+00 0.  1.
        -13    1    3    3    0    0  0.20371504339E+02 -0.37942492646E+02 -0.73948567046E+02  0.85574654573E+02  0.00000000000E+00 0.  1.
         13    1    3    3    0    0 -0.20012200012E+02  0.40064253391E+02 -0.31305584911E+02  0.54641304850E+02  0.00000000000E+00 0. -1.
          2    1    1    2  501    0  0.44407663689E+02 -0.10397250000E+03 -0.31057348269E+01  0.11310157797E+03  0.00000000000E+00 0. -1.
<scales pt_clust_5="13000.00000" pt_clust_6="13000.00000" pt_clust_7="13000.00000" pt_clust_8="13000.00000" pt_clust_9="112.75748"></scales>
<clustering>
<clus scale="   85.693">  5  6 -1 -1</clus>
<clus scale="   92.615">  7  8 -1 -1</clus>
<clus scale="   92.640">  2  7  1 -1</clus>
<clus scale="  112.757">  1  9  2 -1</clus>
<clus scale="  112.757">  1  5  2 -1</clus>
</clustering>
</event>
<event>
 9    1  0.4731329E-005  0.3390481E+03  0.7546771E-02  0.1109140E+00
         21   -1    0    0  501  502  0.00000000000E+00  0.00000000000E+00  0.23196517471E+03  0.23196517471E+03  0.00000000000E+00 0. -1.
          1   -1    0    0  502    0 -0.00000000000E+00 -0.00000000000E+00 -0.92362720918E+03  0.92362720918E+03  0.00000000000E+00 0. -1.
         23    2    1    2    0    0  0.59391874386E+02  0.18939004818E+02 -0.30478868124E+03  0.32451454290E+03  0.92344288914E+02 0.  0.
        -24    2    1    2    0    0  0.13655970796E+03 -0.29008436132E+03 -0.36994273177E+03  0.49610997250E+03  0.80436244965E+02 0.  0.
         11    1    4    4    0    0  0.14489935024E+03 -0.25904502060E+03 -0.31776055360E+03  0.43482400327E+03  0.00000000000E+00 0. -1.
        -12    1    4    4    0    0 -0.83396422782E+01 -0.31039340724E+02 -0.52182178173E+02  0.61285969233E+02  0.00000000000E+00 0.  1.
        -11    1    3    3    0    0  0.81016839213E+02  0.27525276983E+02 -0.20682556060E+03  0.22382623087E+03  0.00000000000E+00 0.  1.
         11    1    3    3    0    0 -0.21624964827E+02 -0.85862721650E+01 -0.97963120636E+02  0.10068831202E+03  0.00000000000E+00 0. -1.
          2    1    1    2  501    0 -0.19595158235E+03  0.27114535650E+03 -0.16930621461E+02  0.33496786849E+03  0.00000000000E+00 0. -1.
<scales pt_clust_5="13000.00000" pt_clust_6="13000.00000" pt_clust_7="13000.00000" pt_clust_8="13000.00000" pt_clust_9="329.36852"></scales>
<clustering>
<clus scale="   80.436">  5  6 -1 -1</clus>
<clus scale="   92.344">  7  8 -1 -1</clus>
<clus scale="  111.416">  2  7  1 -1</clus>
<clus scale="  329.369">  1  9  2 -1</clus>
<clus scale="  329.369">  1  5  2 -1</clus>
</clustering>
</event>
<event>
 9    1  0.4731329E-005  0.1114502E+03  0.7546771E-02  0.1260350E+00
         21   -1    0    0  501  502  0.00000000000E+00  0.00000000000E+00  0.86762826616E+03  0.86762826616E+03  0.00000000000E+00 0.  1.
          1   -1    0    0  502    0 -0.00000000000E+00 -0.00000000000E+00 -0.85611330066E+02  0.85611330066E+02  0.00000000000E+00 0. -1.
         23    2    1    2    0    0 -0.14896112925E+02 -0.66247956883E+02 -0.22233474925E+02  0.11474963774E+03  0.89791235553E+02 0.  0.
        -24    2    1    2    0    0  0.70933947848E+01  0.32676209223E+02  0.79853254856E+03  0.80355231972E+03  0.83210867847E+02 0.  0.
         11    1    4    4    0    0 -0.24946231372E+02  0.20896317438E+02  0.12536223202E+03  0.12951702498E+03  0.00000000000E+00 0. -1.
        -12    1    4    4    0    0  0.32039626157E+02  0.11779891785E+02  0.67317031654E+03  0.67403529474E+03  0.00000000000E+00 0.  1.
        -11    1    3    3    0    0  0.30145764871E+02 -0.48725771086E+00  0.49111518304E+01  0.30547077962E+02  0.00000000000E+00 0.  1.
         11    1    3    3    0    0 -0.45041877796E+02 -0.65760699172E+02 -0.27144626755E+02  0.84202559775E+02  0.00000000000E+00 0. -1.
          2    1    1    2  501    0  0.78027181407E+01  0.33571747660E+02  0.57178624601E+01  0.34937638764E+02  0.00000000000E+00 0. -1.
<scales pt_clust_5="13000.00000" pt_clust_6="13000.00000" pt_clust_7="13000.00000" pt_clust_8="13000.00000" pt_clust_9="34.46659"></scales>
<clustering>
<clus scale="   34.467">  1  9  2 -1</clus>
<clus scale="   83.211">  5  6 -1 -1</clus>
<clus scale="   89.791">  7  8 -1 -1</clus>
<clus scale="  106.220">  1  5  2 -1</clus>
<clus scale="   34.467">  1  5  2 -1</clus>
</clustering>
</event>
<event>
 9    1  0.4731329E-005  0.1162413E+03  0.7546771E-02  0.1251624E+00
         21   -1    0    0  501  502  0.00000000000E+00  0.00000000000E+00  0.24803149857E+03  0.24803149857E+03  0.00000000000E+00 0. -1.
          3   -1    0    0  502    0 -0.00000000000E+00 -0.00000000000E+00 -0.14762712571E+03  0.14762712571E+03  0.00000000000E+00 0. -1.
         23    2    1    2    0    0  0.67814168253E+02 -0.14497010706E+02 -0.10189510015E+02  0.11416443049E+03  0.90115294699E+02 0.  0.
        -24    2    1    2    0    0 -0.17069543070E+02  0.96147849783E+02  0.12349047354E+03  0.18449832503E+03  0.96197487316E+02 0.  0.
         11    1    4    4    0    0 -0.26689612654E+02  0.11022451746E+03  0.12319224655E+03  0.16744583985E+03  0.00000000000E+00 0. -1.
        -12    1    4    4    0    0  0.96200695838E+01 -0.14076667674E+02  0.29822698834E+00  0.17052485183E+02  0.00000000000E+00 0.  1.
        -11    1    3    3    0    0  0.55993404156E+02  0.31832649029E+02  0.32694603033E+01  0.64492388883E+02  0.00000000000E+00 0.  1.
         11    1    3    3    0    0  0.11820764097E+02 -0.46329659735E+02 -0.13458970318E+02  0.49672041603E+02  0.00000000000E+00 0. -1.
          4    1    1    2  501    0 -0.50744625183E+02 -0.81650839078E+02 -0.12896590665E+02  0.96995868767E+02  0.00000000000E+00 0. -1.
<scales pt_clust_5="13000.00000" pt_clust_6="13000.00000" pt_clust_7="13000.00000" pt_clust_8="13000.00000" pt_clust_9="96.13473"></scales>
<clustering>
<clus scale="   90.115">  7  8 -1 -1</clus>
<clus scale="   96.135">  1  9  2 -1</clus>
<clus scale="   96.197">  5  6 -1 -1</clus>
<clus scale="  111.260">  2  7  1 -1</clus>
<clus scale="   96.135">  1  5  2 -1</clus>
</clustering>
</event>
<event>
 9    1  0.4731329E-005  0.1071245E+03  0.7546771E-02  0.1270331E+00
         21   -1    0    0  501  502  0.00000000000E+00  0.00000000000E+00  0.11750450270E+03  0.11750450270E+03  0.00000000000E+00 0.  1.
          1   -1    0    0  502    0 -0.00000000000E+00 -0.00000000000E+00 -0.15761017193E+03  0.15761017193E+03  0.00000000000E+00 0. -1.
         23    2    1    2    0    0  0.18052887943E+02  0.60684843025E+02 -0.93892203933E+02  0.14489552711E+03  0.90390325151E+02 0.  0.
        -24    2    1    2    0    0 -0.14288391124E+02 -0.36401614166E+02  0.56619778213E+02  0.10548306237E+03  0.79947742471E+02 0.  0.
         13    1    4    4    0    0 -0.29995390148E+02 -0.23795299755E+02 -0.68490544373E+01  0.38895363056E+02  0.00000000000E+00 0. -1.
        -14    1    4    4    0    0  0.15706999023E+02 -0.12606314411E+02  0.63468832651E+02  0.66587699310E+02  0.00000000000E+00 0.  1.
        -11    1    3    3    0    0  0.49553488945E+02  0.10901072418E+02 -0.51657460216E+02  0.72407698779E+02  0.00000000000E+00 0.  1.
         11    1    3    3    0    0 -0.31500601002E+02  0.49783770607E+02 -0.42234743717E+02  0.72487828331E+02  0.00000000000E+00 0. -1.
          2    1    1    2  501    0 -0.37644968185E+01 -0.24283228859E+02 -0.28332435078E+01  0.24736085157E+02  0.00000000000E+00 0. -1.
<scales pt_clust_5="13000.00000" pt_clust_6="13000.00000" pt_clust_7="13000.00000" pt_clust_8="13000.00000" pt_clust_9="24.57329"></scales>
<clustering>
<clus scale="   24.573">  1  9  2 -1</clus>
<clus scale="   79.948">  5  6 -1 -1</clus>
<clus scale="   90.390">  7  8 -1 -1</clus>
<clus scale="   98.473">  1  5  2 -1</clus>
<clus scale="   24.573">  1  5  2 -1</clus>
</clustering>
</event>
<event>
 9    1  0.4731329E-005  0.1317906E+03  0.7546771E-02  0.1227092E+00
          1   -1    0    0  502    0 -0.00000000000E+00  0.00000000000E+00  0.19875108954E+03  0.19875108954E+03  0.00000000000E+00 0. -1.
         21   -1    0    0  501  502  0.00000000000E+00 -0.00000000000E+00 -0.14171657282E+03  0.14171657282E+03  0.00000000000E+00 0.  1.
         23    2    1    2    0    0 -0.50940733707E+02  0.90398500137E+02  0.12267339977E+03  0.18445369144E+03  0.90595552299E+02 0.  0.
        -24    2    1    2    0    0  0.39341212439E+02 -0.63799012944E+02 -0.41454332420E+02  0.11823866017E+03  0.81509962794E+02 0.  0.
         11    1    4    4    0    0 -0.19494529277E+02 -0.12195309702E+02  0.94706317260E+01  0.24868757825E+02  0.00000000000E+00 0. -1.
        -12    1    4    4    0    0  0.58835741716E+02 -0.51603703242E+02 -0.50924964146E+02  0.93369902350E+02  0.00000000000E+00 0.  1.
        -11    1    3    3    0    0 -0.26484978258E+02 -0.13543661781E+02  0.37492829769E+02  0.47860183157E+02  0.00000000000E+00 0.  1.
         11    1    3    3    0    0 -0.24455755450E+02  0.10394216192E+03  0.85180569999E+02  0.13659350828E+03  0.00000000000E+00 0. -1.
          2    1    1    2  501    0  0.11599521268E+02 -0.26599487193E+02 -0.24184550634E+02  0.37775310746E+02  0.00000000000E+00 0. -1.
<scales pt_clust_5="13000.00000" pt_clust_6="13000.00000" pt_clust_7="13000.00000" pt_clust_8="13000.00000" pt_clust_9="29.01864"></scales>
<clustering>
<clus scale="   29.019">  2  9  1 -1</clus>
<clus scale="   81.510">  5  6 -1 -1</clus>
<clus scale="   90.596">  7  8 -1 -1</clus>
<clus scale="  125.718">  2  5  1 -1</clus>
<clus scale="   29.019">  2  5  1 -1</clus>
</clustering>
</event>
<event>
 9    1  0.4731329E-005  0.1087954E+03  0.7546771E-02  0.1263225E+00
         21   -1    0    0  501  502  0.00000000000E+00  0.00000000000E+00  0.22813539969E+03  0.22813539969E+03  0.00000000000E+00 0.  1.
          3   -1    0    0  502    0 -0.00000000000E+00 -0.00000000000E+00 -0.84798484792E+02  0.84798484792E+02  0.00000000000E+00 0. -1.
         23    2    1    2    0    0  0.46511940266E+02 -0.39005516581E+02 -0.14888688355E+02  0.11082668020E+03  0.91520976245E+02 0.  0.
        -24    2    1    2    0    0 -0.44960163327E+02  0.18411753891E+02  0.12443890935E+03  0.16250857099E+03  0.92539637548E+02 0.  0.
         11    1    4    4    0    0  0.29977815125E+01 -0.28387578355E+02  0.71898691546E+02  0.77358019267E+02  0.00000000000E+00 0. -1.
        -12    1    4    4    0    0 -0.47957944839E+02  0.46799332247E+02  0.52540217803E+02  0.85150551723E+02  0.00000000000E+00 0.  1.
        -11    1    3    3    0    0  0.65005353105E+02 -0.20874647168E+01  0.45318924696E+01  0.65196560420E+02  0.00000000000E+00 0. -1.
         11    1    3    3    0    0 -0.18493412839E+02 -0.36918051865E+02 -0.19420580824E+02  0.45630119783E+02  0.00000000000E+00 0.  1.
          4    1    1    2  501    0 -0.15517769394E+01  0.20593762690E+02  0.33786693901E+02  0.39598633286E+02  0.00000000000E+00 0. -1.
<scales pt_clust_5="13000.00000" pt_clust_6="13000.00000" pt_clust_7="13000.00000" pt_clust_8="13000.00000" pt_clust_9="20.65214"></scales>
<clustering>
<clus scale="   20.652">  1  9  2 -1</clus>
<clus scale="   91.521">  7  8 -1 -1</clus>
<clus scale="   92.540">  5  6 -1 -1</clus>
<clus scale="  107.930">  2  7  1 -1</clus>
<clus scale="   20.652">  1  5  2 -1</clus>
</clustering>
</event>
<event>
 9    1  0.4731329E-005  0.1020203E+03  0.7546771E-02  0.1281924E+00
         21   -1    0    0  501  502  0.00000000000E+00  0.00000000000E+00  0.76692008632E+02  0.76692008632E+02  0.00000000000E+00 0. -1.
          3   -1    0    0  502    0 -0.00000000000E+00 -0.00000000000E+00 -0.44741360952E+03  0.44741360952E+03  0.00000000000E+00 0. -1.
         23    2    1    2    0    0  0.42599315259E+01  0.37373786661E+02 -0.32468215346E+03  0.33957311784E+03  0.92067663370E+02 0.  0.
        -24    2    1    2    0    0  0.16585703822E+02 -0.66754212527E+02 -0.81991126755E+02  0.13363777383E+03  0.80033113553E+02 0.  0.
         11    1    4    4    0    0  0.48592114884E+02 -0.45321368597E+02 -0.58432194165E+02  0.88484695826E+02  0.00000000000E+00 0. -1.
        -12    1    4    4    0    0 -0.32006411062E+02 -0.21432843930E+02 -0.23558932590E+02  0.45153077999E+02  0.00000000000E+00 0.  1.
        -13    1    3    3    0    0  0.33452546305E+02 -0.16271522983E+02 -0.14916622826E+03  0.15373483330E+03  0.00000000000E+00 0. -1.
         13    1    3    3    0    0 -0.29192614779E+02  0.53645309644E+02 -0.17551592520E+03  0.18583828454E+03  0.00000000000E+00 0.  1.
          4    1    1    2  501    0 -0.20845635348E+02  0.29380425866E+02  0.35951679330E+02  0.50894726483E+02  0.00000000000E+00 0. -1.
<scales pt_clust_5="13000.00000" pt_clust_6="13000.00000" pt_clust_7="13000.00000" pt_clust_8="13000.00000" pt_clust_9="36.02430"></scales>
<clustering>
<clus scale="   36.024">  1  9  2 -1</clus>
<clus scale="   80.033">  5  6 -1 -1</clus>
<clus scale="   91.307">  1  5  2 -1</clus>
<clus scale="   92.068">  7  8 -1 -1</clus>
<clus scale="   36.024">  1  5  2 -1</clus>
</clustering>
</event>
<event>
 9    1  0.4731329E-005  0.1639264E+03  0.7546771E-02  0.1209227E+00
         -2   -1    0    0    0  501 -0.00000000000E+00  0.00000000000E+00  0.56878760695E+03  0.56878760695E+03  0.00000000000E+00 0.  1.
         21   -1    0    0  501  502  0.00000000000E+00 -0.00000000000E+00 -0.86622998429E+02  0.86622998429E+02  0.00000000000E+00 0. -1.
        -24    2    1    2    0    0 -0.44103265216E+02  0.25528037654E+02  0.60812486885E+02  0.11294375010E+03  0.80382544221E+02 0.  0.
         23    2    1    2    0    0  0.14662751831E+03  0.37399421683E+02  0.10201204232E+03  0.20122035512E+03  0.84763368683E+02 0.  0.
         11    1    3    3    0    0 -0.61599380974E+02  0.10718113012E+02  0.19150367251E+02  0.65391882132E+02  0.00000000000E+00 0. -1.
        -12    1    3    3    0    0  0.17496115758E+02  0.14809924642E+02  0.41662119634E+02  0.47551867964E+02  0.00000000000E+00 0.  1.
        -13    1    4    4    0    0  0.99087966718E+02 -0.12451733036E+02  0.36999422893E+02  0.10650083614E+03  0.00000000000E+00 0.  1.
         13    1    4    4    0    0  0.47539551592E+02  0.49851154719E+02  0.65012619424E+02  0.94719518985E+02  0.00000000000E+00 0. -1.
         -1    1    1    2    0  502 -0.10252425309E+03 -0.62927459338E+02  0.31934007932E+03  0.34124650016E+03  0.00000000000E+00 0.  1.
<scales pt_clust_5="13000.00000" pt_clust_6="13000.00000" pt_clust_7="13000.00000" pt_clust_8="13000.00000" pt_clust_9="140.31062"></scales>
<clustering>
<clus scale="   80.383">  5  6 -1 -1</clus>
<clus scale="   84.763">  7  8 -1 -1</clus>
<clus scale="   95.174">  1  5  2 -1</clus>
<clus scale="  140.311">  2  9  1 -1</clus>
<clus scale="  140.311">  2  5  1 -1</clus>
</clustering>
</event>
<event>
 9    1  0.4731329E-005  0.1123289E+03  0.7546771E-02  0.1258976E+00
         21   -1    0    0  501  502  0.00000000000E+00  0.00000000000E+00  0.50567977037E+02  0.50567977037E+02  0.00000000000E+00 0. -1.
          1   -1    0    0  502    0 -0.00000000000E+00 -0.00000000000E+00 -0.56425277561E+03  0.56425277561E+03  0.00000000000E+00 0. -1.
         23    2    1    2    0    0  0.47436635835E+02  0.45398480629E+02 -0.24362918728E+03  0.26737182230E+03  0.88437853893E+02 0.  0.
        -24    2    1    2    0    0 -0.98547474117E+02  0.23815261346E+02 -0.18880503633E+03  0.22910825349E+03  0.81021470893E+02 0.  0.
         11    1    4    4    0    0 -0.67839391547E+02  0.32957562925E+02 -0.59994845725E+02  0.96373053874E+02  0.00000000000E+00 0. -1.
        -12    1    4    4    0    0 -0.30708082569E+02 -0.91423015792E+01 -0.12881019060E+03  0.13273519961E+03  0.00000000000E+00 0.  1.
        -11    1    3    3    0    0  0.45651006745E+02  0.18015434500E+02 -0.23272514239E+03  0.23784356665E+03  0.00000000000E+00 0. -1.
         11    1    3    3    0    0  0.17856290899E+01  0.27383046129E+02 -0.10904044891E+02  0.29528255647E+02  0.00000000000E+00 0.  1.
          2    1    1    2  501    0  0.51110838282E+02 -0.69213741975E+02 -0.81250574967E+02  0.11834067686E+03  0.00000000000E+00 0. -1.
<scales pt_clust_5="13000.00000" pt_clust_6="13000.00000" pt_clust_7="13000.00000" pt_clust_8="13000.00000" pt_clust_9="86.03987"></scales>
<clustering>
<clus scale="   81.021">  5  6 -1 -1</clus>
<clus scale="   86.040">  1  9  2 -1</clus>
<clus scale="   88.438">  7  8 -1 -1</clus>
<clus scale="  106.588">  1  5  2 -1</clus>
<clus scale="   86.040">  1  5  2 -1</clus>
</clustering>
</event>
<event>
 9    1  0.4731329E-005  0.9487081E+02  0.7546771E-02  0.1297539E+00
          1   -1    0    0  502    0 -0.00000000000E+00  0.00000000000E+00  0.34901957113E+03  0.34901957113E+03  0.00000000000E+00 0. -1.
         21   -1    0    0  501  502  0.00000000000E+00 -0.00000000000E+00 -0.52527772291E+02  0.52527772291E+02  0.00000000000E+00 0. -1.
         23    2    1    2    0    0 -0.74073845835E+01  0.52608275150E+01  0.13222534183E+03  0.16134015782E+03  0.92003042618E+02 0.  0.
        -24    2    1    2    0    0 -0.51990096100E+02 -0.39649717679E+01  0.15097906247E+03  0.17932783929E+03  0.81517516806E+02 0.  0.
         11    1    4    4    0    0 -0.60146649501E+02  0.25426091019E+02  0.90581027622E+02  0.11166480249E+03  0.00000000000E+00 0. -1.
        -12    1    4    4    0    0  0.81565534005E+01 -0.29391062786E+02  0.60398034844E+02  0.67663036793E+02  0.00000000000E+00 0.  1.
        -13    1    3    3    0    0 -0.41760547556E+02 -0.13359420245E+02  0.33547475984E+02  0.55207341779E+02  0.00000000000E+00 0. -1.
         13    1    3    3    0    0  0.34353162973E+02  0.18620247760E+02  0.98677865844E+02  0.10613281604E+03  0.00000000000E+00 0.  1.
          2    1    1    2  501    0  0.59397480684E+02 -0.12958557472E+01  0.13287394542E+02  0.60879346312E+02  0.00000000000E+00 0. -1.
<scales pt_clust_5="13000.00000" pt_clust_6="13000.00000" pt_clust_7="13000.00000" pt_clust_8="13000.00000" pt_clust_9="59.41161"></scales>
<clustering>
<clus scale="   59.412">  2  9  1 -1</clus>
<clus scale="   81.518">  5  6 -1 -1</clus>
<clus scale="   84.741">  2  5  1 -1</clus>
<clus scale="   92.003">  7  8 -1 -1</clus>
<clus scale="   59.412">  2  5  1 -1</clus>
</clustering>
</event>
<event>
 9    1  0.4731329E-005  0.9623583E+02  0.7546771E-02  0.1292333E+00
         21   -1    0    0  501  502  0.00000000000E+00  0.00000000000E+00  0.70392474782E+03  0.70392474782E+03  0.00000000000E+00 0.  1.
          1   -1    0    0  502    0 -0.00000000000E+00 -0.00000000000E+00 -0.30627504329E+02  0.30627504329E+02  0.00000000000E+00 0. -1.
        -24    2    1    2    0    0 -0.36543618135E+02  0.11644509060E+02  0.93975981392E+02  0.12927270320E+03  0.80055706202E+02 0.  0.
         23    2    1    2    0    0  0.12699084296E+02 -0.69616732056E+02  0.36395629980E+03  0.38097750389E+03  0.87589463875E+02 0.  0.
         11    1    3    3    0    0 -0.51061642064E+02  0.32904067406E+02  0.78415899770E+02  0.99191845829E+02  0.00000000000E+00 0. -1.
        -12    1    3    3    0    0  0.14518023929E+02 -0.21259558347E+02  0.15560081622E+02  0.30080857368E+02  0.00000000000E+00 0.  1.
        -13    1    4    4    0    0  0.33245090092E+02 -0.81885979147E+02  0.27453447609E+03  0.28840895991E+03  0.00000000000E+00 0.  1.
         13    1    4    4    0    0 -0.20546005796E+02  0.12269247091E+02  0.89421823710E+02  0.92568543977E+02  0.00000000000E+00 0. -1.
          2    1    1    2  501    0  0.23844533839E+02  0.57972222997E+02  0.21536496230E+03  0.22430204506E+03  0.00000000000E+00 0. -1.
<scales pt_clust_5="13000.00000" pt_clust_6="13000.00000" pt_clust_7="13000.00000" pt_clust_8="13000.00000" pt_clust_9="62.68445"></scales>
<clustering>
<clus scale="   62.684">  1  9  2 -1</clus>
<clus scale="   80.056">  5  6 -1 -1</clus>
<clus scale="   87.589">  7  8 -1 -1</clus>
<clus scale="   89.433">  2  5  1 -1</clus>
<clus scale="   62.684">  1  5  2 -1</clus>
</clustering>
</event>
<event>
 9    1  0.4731329E-005  0.9506974E+02  0.7546771E-02  0.1296590E+00
          1   -1    0    0  502    0 -0.00000000000E+00  0.00000000000E+00  0.56619116739E+03  0.56619116739E+03  0.00000000000E+00 0. -1.
         21   -1    0    0  501  502  0.00000000000E+00 -0.00000000000E+00 -0.39231000833E+02  0.39231000833E+02  0.00000000000E+00 0. -1.
        -24    2    1    2    0    0  0.36406623910E+02  0.62431887609E+01  0.34228983813E+03  0.35374300293E+03  0.81285663964E+02 0.  0.
         23    2    1    2    0    0  0.71860772656E+01  0.46468780031E+02  0.11419607518E+03  0.15346768114E+03  0.91107619563E+02 0.  0.
         11    1    3    3    0    0  0.56329728721E+02  0.62689656312E+00  0.31206934363E+03  0.31711308167E+03  0.00000000000E+00 0. -1.
        -12    1    3    3    0    0 -0.19923104812E+02  0.56162921978E+01  0.30220494504E+02  0.36629921259E+02  0.00000000000E+00 0.  1.
        -13    1    4    4    0    0 -0.38560739585E+02  0.39446823877E+02  0.73059236987E+02  0.91545806351E+02  0.00000000000E+00 0.  1.
         13    1    4    4    0    0  0.45746816851E+02  0.70219561534E+01  0.41136838193E+02  0.61921874784E+02  0.00000000000E+00 0. -1.
          2    1    1    2  501    0 -0.43592701175E+02 -0.52711968792E+02  0.70474253249E+02  0.98211484159E+02  0.00000000000E+00 0. -1.
<scales pt_clust_5="13000.00000" pt_clust_6="13000.00000" pt_clust_7="13000.00000" pt_clust_8="13000.00000" pt_clust_9="68.40230"></scales>
<clustering>
<clus scale="   68.402">  2  9  1 -1</clus>
<clus scale="   81.286">  5  6 -1 -1</clus>
<clus scale="   85.703">  1  5  2 -1</clus>
<clus scale="   91.108">  7  8 -1 -1</clus>
<clus scale="   68.402">  2  5  1 -1</clus>
</clustering>
</event>
<event>
 9    1  0.4731329E-005  0.1865097E+03  0.7546771E-02  0.1163454E+00
         21   -1    0    0  501  502  0.00000000000E+00  0.00000000000E+00  0.52459351792E+02  0.52459351792E+02  0.00000000000E+00 0. -1.
          1   -1    0    0  502    0 -0.00000000000E+00 -0.00000000000E+00 -0.11076670250E+04  0.11076670250E+04  0.00000000000E+00 0. -1.
        -24    2    1    2    0    0 -0.10215591847E+03  0.55543604557E+02 -0.25696556323E+03  0.29312588233E+03  0.79815778636E+02 0.  0.
         23    2    1    2    0    0  0.20198391172E+03 -0.69071501476E+02 -0.61319845135E+03  0.65631165320E+03  0.95730206760E+02 0.  0.
         11    1    3    3    0    0 -0.37836945776E+02  0.23320801427E+02 -0.26621078189E+02  0.51809034433E+02  0.00000000000E+00 0. -1.
        -12    1    3    3    0    0 -0.64318972692E+02  0.32222803130E+02 -0.23034448504E+03  0.24131684790E+03  0.00000000000E+00 0.  1.
        -11    1    4    4    0    0  0.31133372733E+02  0.19477355044E+02 -0.15603352422E+03  0.16029695861E+03  0.00000000000E+00 0.  1.
         11    1    4    4    0    0  0.17085053898E+03 -0.88548856521E+02 -0.45716492713E+03  0.49601469460E+03  0.00000000000E+00 0. -1.
          2    1    1    2  501    0 -0.99827993247E+02  0.13527896919E+02 -0.18504365859E+03  0.21068884122E+03  0.00000000000E+00 0. -1.
<scales pt_clust_5="13000.00000" pt_clust_6="13000.00000" pt_clust_7="13000.00000" pt_clust_8="13000.00000" pt_clust_9="100.74042"></scales>
<clustering>
<clus scale="   79.816">  5  6 -1 -1</clus>
<clus scale="   95.730">  7  8 -1 -1</clus>
<clus scale="  100.740">  1  9  2 -1</clus>
<clus scale="  178.864">  2  5  1 -1</clus>
<clus scale="  100.740">  1  5  2 -1</clus>
</clustering>
</event>
<event>
 9    1  0.4731329E-005  0.1218709E+03  0.7546771E-02  0.1245410E+00
         21   -1    0    0  501  502  0.00000000000E+00  0.00000000000E+00  0.24620806685E+03  0.24620806685E+03  0.00000000000E+00 0. -1.
          1   -1    0    0  502    0 -0.00000000000E+00 -0.00000000000E+00 -0.17623170218E+03  0.17623170218E+03  0.00000000000E+00 0. -1.
         23    2    1    2    0    0  0.17440593508E+02 -0.62078348434E+02 -0.11599164749E+03  0.16238999397E+03  0.93587136984E+02 0.  0.
        -24    2    1    2    0    0 -0.88220854642E+01  0.24198132035E+02  0.55844452292E+02  0.12425091531E+03  0.10796438448E+03 0.  0.
         11    1    4    4    0    0 -0.31370312651E+02 -0.16555341598E+02  0.67488356574E+02  0.76242075813E+02  0.00000000000E+00 0. -1.
        -12    1    4    4    0    0  0.22548227186E+02  0.40753473634E+02 -0.11643904283E+02  0.48008839492E+02  0.00000000000E+00 0.  1.
        -13    1    3    3    0    0  0.10797295206E+02  0.17016439638E+02 -0.64991031880E+02  0.68043919836E+02  0.00000000000E+00 0.  1.
         13    1    3    3    0    0  0.66432983018E+01 -0.79094788072E+02 -0.51000615611E+02  0.94346074138E+02  0.00000000000E+00 0. -1.
          2    1    1    2  501    0 -0.86185080438E+01  0.37880216399E+02  0.13012355988E+03  0.13579885975E+03  0.00000000000E+00 0. -1.
<scales pt_clust_5="13000.00000" pt_clust_6="13000.00000" pt_clust_7="13000.00000" pt_clust_8="13000.00000" pt_clust_9="38.84829"></scales>
<clustering>
<clus scale="   38.848">  1  9  2 -1</clus>
<clus scale="   93.587">  7  8 -1 -1</clus>
<clus scale="  107.964">  5  6 -1 -1</clus>
<clus scale="  109.338">  2  7  1 -1</clus>
<clus scale="   38.848">  1  5  2 -1</clus>
</clustering>
</event>
<event>
 9    1  0.4731329E-005  0.1103401E+03  0.7546771E-02  0.1264871E+00
         21   -1    0    0  501  502  0.00000000000E+00  0.00000000000E+00  0.52157370282E+02  0.52157370282E+02  0.00000000000E+00 0. -1.
          1   -1    0    0  502    0 -0.00000000000E+00 -0.00000000000E+00 -0.33370570819E+03  0.33370570819E+03  0.00000000000E+00 0. -1.
        -24    2    1    2    0    0  0.22176793583E+02 -0.52842544852E+02 -0.20216393513E+03  0.22493730676E+03  0.80264503887E+02 0.  0.
         23    2    1    2    0    0 -0.59509342038E+01  0.70078092214E+02 -0.65217993701E+02  0.13333900402E+03  0.92625863914E+02 0.  0.
         13    1    3    3    0    0  0.28797912247E+02 -0.72192398564E+02 -0.16822993257E+03  0.18531695112E+03  0.00000000000E+00 0. -1.
        -14    1    3    3    0    0 -0.66211186642E+01  0.19349853712E+02 -0.33934002555E+02  0.39620355632E+02  0.00000000000E+00 0.  1.
        -11    1    4    4    0    0  0.25208857271E+02 -0.12028810058E+02 -0.10352117105E+02  0.29788338068E+02  0.00000000000E+00 0.  1.
         11    1    4    4    0    0 -0.31159791475E+02  0.82106902271E+02 -0.54865876596E+02  0.10355066596E+03  0.00000000000E+00 0. -1.
          2    1    1    2  501    0 -0.16225859379E+02 -0.17235547362E+02 -0.14166409078E+02  0.27586767690E+02  0.00000000000E+00 0. -1.
<scales pt_clust_5="13000.00000" pt_clust_6="13000.00000" pt_clust_7="13000.00000" pt_clust_8="13000.00000" pt_clust_9="23.67156"></scales>
<clustering>
<clus scale="   23.672">  1  9  2 -1</clus>
<clus scale="   80.265">  5  6 -1 -1</clus>
<clus scale="   92.626">  7  8 -1 -1</clus>
<clus scale="  100.189">  2  5  1 -1</clus>
<clus scale="   23.672">  1  5  2 -1</clus>
</clustering>
</event>
<event>
 9    1  0.4731329E-005  0.5824429E+03  0.7546771E-02  0.1006792E+00
         21   -1    0    0  501  502  0.00000000000E+00  0.00000000000E+00  0.19099497621E+04  0.19099497621E+04  0.00000000000E+00 0. -1.
         -2   -1    0    0    0  501 -0.00000000000E+00 -0.00000000000E+00 -0.37080174180E+03  0.37080174180E+03  0.00000000000E+00 0.  1.
         23    2    1    2    0    0 -0.31559277456E+03  0.21510514049E+03  0.64776596334E+03  0.75737452208E+03  0.90257424178E+02 0.  0.
        -24    2    1    2    0    0  0.23381236928E+03  0.44815048815E+03  0.17010774464E+03  0.54010047075E+03  0.85233735507E+02 0.  0.
         13    1    4    4    0    0  0.26672017736E+02  0.13007409877E+03  0.36675777427E+02  0.13775260560E+03  0.00000000000E+00 0. -1.
        -14    1    4    4    0    0  0.20714035154E+03  0.31807638938E+03  0.13343196721E+03  0.40234786515E+03  0.00000000000E+00 0.  1.
        -11    1    3    3    0    0 -0.26163861064E+02  0.12343712817E+02  0.14928544918E+02  0.32554205954E+02  0.00000000000E+00 0.  1.
         11    1    3    3    0    0 -0.28942891349E+03  0.20276142767E+03  0.63283741842E+03  0.72482031613E+03  0.00000000000E+00 0. -1.
         -1    1    1    2    0  502  0.81780405279E+02 -0.66325562864E+03  0.72127431233E+03  0.98327651108E+03  0.00000000000E+00 0.  1.
<scales pt_clust_5="13000.00000" pt_clust_6="13000.00000" pt_clust_7="13000.00000" pt_clust_8="13000.00000" pt_clust_9="576.17271"></scales>
<clustering>
<clus scale="   85.234">  5  6 -1 -1</clus>
<clus scale="   90.257">  7  8 -1 -1</clus>
<clus scale="  392.448">  2  7  1 -1</clus>
<clus scale="  576.173">  1  9  2 -1</clus>
<clus scale="  576.173">  1  5  2 -1</clus>
</clustering>
</event>
<event>
 9    1  0.4731329E-005  0.1153112E+03  0.7546771E-02  0.1254721E+00
         21   -1    0    0  501  502  0.00000000000E+00  0.00000000000E+00  0.62608392531E+03  0.62608392531E+03  0.00000000000E+00 0. -1.
         -2   -1    0    0    0  501 -0.00000000000E+00 -0.00000000000E+00 -0.49460652510E+02  0.49460652510E+02  0.00000000000E+00 0.  1.
         23    2    1    2    0    0  0.43044519663E-01  0.63909485959E+02  0.51298991155E+02  0.12239488894E+03  0.90909284981E+02 0.  0.
        -24    2    1    2    0    0 -0.16832335248E+02 -0.97325252123E+02  0.31906031612E+03  0.34352307515E+03  0.80331100003E+02 0.  0.
         11    1    4    4    0    0 -0.34045213310E+02 -0.73425263187E+02  0.29372806065E+03  0.30467444828E+03  0.00000000000E+00 0. -1.
        -12    1    4    4    0    0  0.17212878061E+02 -0.23899988936E+02  0.25332255469E+02  0.38848626867E+02  0.00000000000E+00 0.  1.
        -13    1    3    3    0    0 -0.45198560499E+02  0.37232044655E+02  0.28792327352E+02  0.65254372534E+02  0.00000000000E+00 0. -1.
         13    1    3    3    0    0  0.45241605019E+02  0.26677441303E+02  0.22506663803E+02  0.57140516402E+02  0.00000000000E+00 0.  1.
         -1    1    1    2    0  502  0.16789290729E+02  0.33415766165E+02  0.20626396553E+03  0.20962661374E+03  0.00000000000E+00 0.  1.
<scales pt_clust_5="13000.00000" pt_clust_6="13000.00000" pt_clust_7="13000.00000" pt_clust_8="13000.00000" pt_clust_9="37.39644"></scales>
<clustering>
<clus scale="   37.396">  1  9  2 -1</clus>
<clus scale="   80.331">  5  6 -1 -1</clus>
<clus scale="   90.909">  7  8 -1 -1</clus>
<clus scale="  107.169">  1  5  2 -1</clus>
<clus scale="   37.396">  1  5  2 -1</clus>
</clustering>
</event>
<event>
 9    1  0.4731329E-005  0.1493859E+03  0.7546771E-02  0.1207649E+00
         21   -1    0    0  501  502  0.00000000000E+00  0.00000000000E+00  0.37355558635E+03  0.37355558635E+03  0.00000000000E+00 0. -1.
          1   -1    0    0  502    0 -0.00000000000E+00 -0.00000000000E+00 -0.12971587327E+03  0.12971587327E+03  0.00000000000E+00 0. -1.
        -24    2    1    2    0    0 -0.66180682480E+02 -0.78512580167E+02  0.11389900932E+03  0.17289936636E+03  0.79856737888E+02 0.  0.
         23    2    1    2    0    0 -0.69956017403E+02  0.10567132199E+03  0.16007188498E+02  0.15078466549E+03  0.80121860946E+02 0.  0.
         11    1    3    3    0    0 -0.83155079329E+02 -0.75241577945E+02  0.92354765241E+02  0.14527720032E+03  0.00000000000E+00 0. -1.
        -12    1    3    3    0    0  0.16974396849E+02 -0.32710022218E+01  0.21544244081E+02  0.27622166044E+02  0.00000000000E+00 0.  1.
        -11    1    4    4    0    0  0.75794874555E+01  0.42583701782E+02 -0.15548993594E+02  0.45962936039E+02  0.00000000000E+00 0. -1.
         11    1    4    4    0    0 -0.77535504858E+02  0.63087620213E+02  0.31556182091E+02  0.10482172946E+03  0.00000000000E+00 0.  1.
          2    1    1    2  501    0  0.13613669988E+03 -0.27158741828E+02  0.11393351526E+03  0.17958742776E+03  0.00000000000E+00 0. -1.
<scales pt_clust_5="13000.00000" pt_clust_6="13000.00000" pt_clust_7="13000.00000" pt_clust_8="13000.00000" pt_clust_9="126.08190"></scales>
<clustering>
<clus scale="   79.857">  5  6 -1 -1</clus>
<clus scale="   80.122">  7  8 -1 -1</clus>
<clus scale="  130.082">  2  5  1 -1</clus>
<clus scale="  126.082">  1  9  2 -1</clus>
<clus scale="  126.082">  1  5  2 -1</clus>
</clustering>
</event>
<event>
 9    1  0.4731329E-005  0.1331759E+03  0.7546771E-02  0.1225666E+00
         21   -1    0    0  501  502  0.00000000000E+00  0.00000000000E+00  0.43731919502E+03  0.43731919502E+03  0.00000000000E+00 0.  1.
          3   -1    0    0  502    0 -0.00000000000E+00 -0.00000000000E+00 -0.15319271952E+03  0.15319271952E+03  0.00000000000E+00 0. -1.
         23    2    1    2    0    0  0.84372398594E+02 -0.34378274183E+02 -0.88550842761E+02  0.15639027867E+03  0.91192653915E+02 0.  0.
        -24    2    1    2    0    0 -0.12900949408E+03  0.45194696846E+02  0.19751977920E+03  0.25304256812E+03  0.79564237683E+02 0.  0.
         11    1    4    4    0    0 -0.14566865838E+02 -0.21254035761E+02  0.34908537186E+02  0.43388173330E+02  0.00000000000E+00 0. -1.
        -12    1    4    4    0    0 -0.11444262824E+03  0.66448732607E+02  0.16261124201E+03  0.20965439479E+03  0.00000000000E+00 0.  1.
        -13    1    3    3    0    0  0.44969419044E+02  0.26277507038E+02 -0.57769859628E+02  0.77782470433E+02  0.00000000000E+00 0.  1.
         13    1    3    3    0    0  0.39402979549E+02 -0.60655781221E+02 -0.30780983133E+02  0.78607808235E+02  0.00000000000E+00 0. -1.
          4    1    1    2  501    0  0.44637095483E+02 -0.10816422663E+02  0.17515753906E+03  0.18107906776E+03  0.00000000000E+00 0. -1.
<scales pt_clust_5="13000.00000" pt_clust_6="13000.00000" pt_clust_7="13000.00000" pt_clust_8="13000.00000" pt_clust_9="45.92892"></scales>
<clustering>
<clus scale="   45.929">  1  9  2 -1</clus>
<clus scale="   79.564">  5  6 -1 -1</clus>
<clus scale="   91.193">  7  8 -1 -1</clus>
<clus scale="  125.500">  1  5  2 -1</clus>
<clus scale="   45.929">  1  5  2 -1</clus>
</clustering>
</event>
<event>
 9    1  0.4731329E-005  0.1195413E+03  0.7546771E-02  0.1245482E+00
          1   -1    0    0  502    0 -0.00000000000E+00  0.00000000000E+00  0.17874798985E+03  0.17874798985E+03  0.00000000000E+00 0. -1.
         21   -1    0    0  501  502  0.00000000000E+00 -0.00000000000E+00 -0.30666388613E+03  0.30666388613E+03  0.00000000000E+00 0. -1.
         23    2    1    2    0    0  0.64873930809E+02 -0.27886857918E+02  0.10966914557E+03  0.15871866557E+03  0.90432237437E+02 0.  0.
        -24    2    1    2    0    0 -0.11114616640E+03  0.67343301158E+02 -0.12795559593E+03  0.20132756076E+03  0.85273452356E+02 0.  0.
         11    1    4    4    0    0 -0.46079267885E+02 -0.94471059322E+01 -0.13552303701E+02  0.48951115155E+02  0.00000000000E+00 0. -1.
        -12    1    4    4    0    0 -0.65066898513E+02  0.76790407090E+02 -0.11440329223E+03  0.15237644560E+03  0.00000000000E+00 0.  1.
        -13    1    3    3    0    0  0.87633165749E+02 -0.17392401640E+02  0.90456995109E+02  0.12713982593E+03  0.00000000000E+00 0. -1.
         13    1    3    3    0    0 -0.22759234941E+02 -0.10494456277E+02  0.19212150459E+02  0.31578839638E+02  0.00000000000E+00 0.  1.
          2    1    1    2  501    0  0.46272235590E+02 -0.39456443240E+02 -0.10962944592E+03  0.12536564965E+03  0.00000000000E+00 0. -1.
<scales pt_clust_5="13000.00000" pt_clust_6="13000.00000" pt_clust_7="13000.00000" pt_clust_8="13000.00000" pt_clust_9="60.81061"></scales>
<clustering>
<clus scale="   60.811">  2  9  1 -1</clus>
<clus scale="   85.273">  5  6 -1 -1</clus>
<clus scale="   90.432">  7  8 -1 -1</clus>
<clus scale="  115.688">  2  5  1 -1</clus>
<clus scale="   60.811">  2  5  1 -1</clus>
</clustering>
</event>
<event>
 9    1  0.4731329E-005  0.9424664E+02  0.7546771E-02  0.1299714E+00
         21   -1    0    0  501  502  0.00000000000E+00  0.00000000000E+00  0.17479827622E+03  0.17479827622E+03  0.00000000000E+00 0.  1.
         -2   -1    0    0    0  501 -0.00000000000E+00 -0.00000000000E+00 -0.11492946502E+03  0.11492946502E+03  0.00000000000E+00 0.  1.
         23    2    1    2    0    0  0.66142299596E+01  0.23705610326E+02 -0.62557748733E+02  0.11400802705E+03  0.92079608528E+02 0.  0.
        -24    2    1    2    0    0 -0.24852876171E+02  0.10434836324E+02  0.99094108005E+02  0.13052434245E+03  0.80563083782E+02 0.  0.
         11    1    4    4    0    0 -0.31326581562E+01 -0.24665005054E+02  0.19083407372E+01  0.24936274497E+02  0.00000000000E+00 0. -1.
        -12    1    4    4    0    0 -0.21720218015E+02  0.35099841378E+02  0.97185767267E+02  0.10558806796E+03  0.00000000000E+00 0.  1.
        -13    1    3    3    0    0 -0.30757832301E+02 -0.20849493683E+02 -0.24348623516E+02  0.44425230465E+02  0.00000000000E+00 0. -1.
         13    1    3    3    0    0  0.37372062261E+02  0.44555104010E+02 -0.38209125217E+02  0.69582796587E+02  0.00000000000E+00 0.  1.
         -1    1    1    2    0  502  0.18238646212E+02 -0.34140446651E+02  0.23332451924E+02  0.45195371732E+02  0.00000000000E+00 0.  1.
<scales pt_clust_5="13000.00000" pt_clust_6="13000.00000" pt_clust_7="13000.00000" pt_clust_8="13000.00000" pt_clust_9="38.70683"></scales>
<clustering>
<clus scale="   38.707">  1  9  2 -1</clus>
<clus scale="   80.563">  5  6 -1 -1</clus>
<clus scale="   83.031">  1  5  2 -1</clus>
<clus scale="   92.080">  7  8 -1 -1</clus>
<clus scale="   38.707">  1  5  2 -1</clus>
</clustering>
</event>
<event>
 9    1  0.4731329E-005  0.9680014E+02  0.7546771E-02  0.1292634E+00
          1   -1    0    0  502    0 -0.00000000000E+00  0.00000000000E+00  0.13928553785E+03  0.13928553785E+03  0.00000000000E+00 0. -1.
         21   -1    0    0  501  502  0.00000000000E+00 -0.00000000000E+00 -0.49605147793E+03  0.49605147793E+03  0.00000000000E+00 0.  1.
         23    2    1    2    0    0 -0.26415786530E+02 -0.19902039826E+02  0.10994743787E+03  0.14628037327E+03  0.90640076915E+02 0.  0.
        -24    2    1    2    0    0  0.14538235136E+02  0.56954547719E+02 -0.25489120233E+03  0.27369044588E+03  0.80509343272E+02 0.  0.
         13    1    4    4    0    0  0.29487095275E+02  0.61263072712E+02 -0.12014252690E+03  0.13804665746E+03  0.00000000000E+00 0. -1.
        -14    1    4    4    0    0 -0.14948860139E+02 -0.43085249930E+01 -0.13474867543E+03  0.13564378842E+03  0.00000000000E+00 0.  1.
        -11    1    3    3    0    0  0.20265955854E+02 -0.14175536891E+01  0.89984185950E+02  0.92248968267E+02  0.00000000000E+00 0.  1.
         11    1    3    3    0    0 -0.46681742383E+02 -0.18484486137E+02  0.19963251921E+02  0.54031405007E+02  0.00000000000E+00 0. -1.
          2    1    1    2  501    0  0.11877551394E+02 -0.37052507892E+02 -0.21182217561E+03  0.21536619663E+03  0.00000000000E+00 0. -1.
<scales pt_clust_5="13000.00000" pt_clust_6="13000.00000" pt_clust_7="13000.00000" pt_clust_8="13000.00000" pt_clust_9="38.90970"></scales>
<clustering>
<clus scale="   38.910">  2  9  1 -1</clus>
<clus scale="   80.509">  5  6 -1 -1</clus>
<clus scale="   87.386">  2  5  1 -1</clus>
<clus scale="   90.640">  7  8 -1 -1</clus>
<clus scale="   38.910">  2  5  1 -1</clus>
</clustering>
</event>
<event>
 9    1  0.4731329E-005  0.1549452E+03  0.7546771E-02  0.1196628E+00
         21   -1    0    0  501  502  0.00000000000E+00  0.00000000000E+00  0.77360844846E+02  0.77360844846E+02  0.00000000000E+00 0.  1.
          3   -1    0    0  502    0 -0.00000000000E+00 -0.00000000000E+00 -0.49643141264E+03  0.49643141264E+03  0.00000000000E+00 0. -1.
         23    2    1    2    0    0 -0.10814495622E+03  0.62152254033E+02 -0.31019267150E+03  0.34652390608E+03  0.91110316632E+02 0.  0.
        -24    2    1    2    0    0  0.95792724584E+02 -0.85274031371E+02 -0.12575367942E+03  0.19609165708E+03  0.78676830008E+02 0.  0.
         13    1    4    4    0    0  0.66685842036E+02 -0.60575310948E+02 -0.12947773306E+03  0.15773665770E+03  0.00000000000E+00 0. -1.
        -14    1    4    4    0    0  0.29106882549E+02 -0.24698720423E+02  0.37240536367E+01  0.38354999384E+02  0.00000000000E+00 0.  1.
        -13    1    3    3    0    0 -0.31331049031E+02  0.65811251917E+02 -0.19347932409E+03  0.20675348694E+03  0.00000000000E+00 0.  1.
         13    1    3    3    0    0 -0.76813907185E+02 -0.36589978835E+01 -0.11671334741E+03  0.13977041914E+03  0.00000000000E+00 0. -1.
          4    1    1    2  501    0  0.12352231632E+02  0.23121777338E+02  0.16875783118E+02  0.31176694331E+02  0.00000000000E+00 0. -1.
<scales pt_clust_5="13000.00000" pt_clust_6="13000.00000" pt_clust_7="13000.00000" pt_clust_8="13000.00000" pt_clust_9="26.21439"></scales>
<clustering>
<clus scale="   26.214">  1  9  2 -1</clus>
<clus scale="   78.677">  5  6 -1 -1</clus>
<clus scale="   91.110">  7  8 -1 -1</clus>
<clus scale="  147.976">  1  5  2 -1</clus>
<clus scale="   26.214">  1  5  2 -1</clus>
</clustering>
</event>
<event>
 9    1  0.4731329E-005  0.9458620E+02  0.7546771E-02  0.1297791E+00
         21   -1    0    0  501  502  0.00000000000E+00  0.00000000000E+00  0.12018932909E+03  0.12018932909E+03  0.00000000000E+00 0. -1.
          3   -1    0    0  502    0 -0.00000000000E+00 -0.00000000000E+00 -0.30390028105E+03  0.30390028105E+03  0.00000000000E+00 0. -1.
        -24    2    1    2    0    0 -0.26049467324E+02 -0.24751876358E+01 -0.18231900223E+03  0.20088006334E+03  0.80174060460E+02 0.  0.
         23    2    1    2    0    0  0.44569821025E+02  0.58637211043E+02  0.65771664392E+02  0.13372140549E+03  0.90170455164E+02 0.  0.
         11    1    3    3    0    0 -0.10774095762E+01  0.37096245455E+02 -0.70662285751E+02  0.79815104246E+02  0.00000000000E+00 0. -1.
        -12    1    3    3    0    0 -0.24972057748E+02 -0.39571433090E+02 -0.11165671648E+03  0.12106495909E+03  0.00000000000E+00 0.  1.
        -11    1    4    4    0    0 -0.71004259903E+01 -0.20100725024E+02  0.19057140034E+02  0.28594226376E+02  0.00000000000E+00 0.  1.
         11    1    4    4    0    0  0.51670247015E+02  0.78737936067E+02  0.46714524358E+02  0.10512717912E+03  0.00000000000E+00 0. -1.
          4    1    1    2  501    0 -0.18520353701E+02 -0.56162023407E+02 -0.67163614121E+02  0.89488141316E+02  0.00000000000E+00 0. -1.
<scales pt_clust_5="13000.00000" pt_clust_6="13000.00000" pt_clust_7="13000.00000" pt_clust_8="13000.00000" pt_clust_9="59.13696"></scales>
<clustering>
<clus scale="   59.137">  1  9  2 -1</clus>
<clus scale="   80.174">  5  6 -1 -1</clus>
<clus scale="   85.110">  2  5  1 -1</clus>
<clus scale="   90.170">  7  8 -1 -1</clus>
<clus scale="   59.137">  1  5  2 -1</clus>
</clustering>
</event>
<event>
 9    1  0.4731329E-005  0.1396630E+03  0.7546771E-02  0.1233373E+00
         21   -1    0    0  501  502  0.00000000000E+00  0.00000000000E+00  0.37580382288E+03  0.37580382288E+03  0.00000000000E+00 0. -1.
          1   -1    0    0  502    0 -0.00000000000E+00 -0.00000000000E+00 -0.19860109927E+03  0.19860109927E+03  0.00000000000E+00 0. -1.
         23    2    1    2    0    0  0.14135925664E+02 -0.18026880261E+02 -0.13823475578E+03  0.16648997647E+03  0.89918139172E+02 0.  0.
        -24    2    1    2    0    0  0.63679751976E+02  0.10017322116E+03  0.14740085008E+03  0.20533259255E+03  0.79653486488E+02 0.  0.
         13    1    4    4    0    0  0.50154649204E+02  0.10180129938E+03  0.85870108307E+02  0.14231187194E+03  0.00000000000E+00 0. -1.
        -14    1    4    4    0    0  0.13525102772E+02 -0.16280782252E+01  0.61530741769E+02  0.63020720611E+02  0.00000000000E+00 0.  1.
        -11    1    3    3    0    0  0.35846049089E+02 -0.36506729503E+02 -0.12498443542E+03  0.13505106305E+03  0.00000000000E+00 0. -1.
         11    1    3    3    0    0 -0.21710123425E+02  0.18479849243E+02 -0.13250320363E+02  0.31438913417E+02  0.00000000000E+00 0.  1.
          2    1    1    2  501    0 -0.77815677640E+02 -0.82146340898E+02  0.16803662932E+03  0.20258235314E+03  0.00000000000E+00 0. -1.
<scales pt_clust_5="13000.00000" pt_clust_6="13000.00000" pt_clust_7="13000.00000" pt_clust_8="13000.00000" pt_clust_9="114.72171"></scales>
<clustering>
<clus scale="   79.653">  5  6 -1 -1</clus>
<clus scale="   89.918">  7  8 -1 -1</clus>
<clus scale="   92.790">  2  7  1 -1</clus>
<clus scale="  114.722">  1  9  2 -1</clus>
<clus scale="  114.722">  1  5  2 -1</clus>
</clustering>
</event>
<event>
 9    1  0.4731329E-005  0.8113806E+02  0.7546771E-02  0.1326263E+00
          1   -1    0    0  502    0 -0.00000000000E+00  0.00000000000E+00  0.51328426138E+03  0.51328426138E+03  0.00000000000E+00 0. -1.
         21   -1    0    0  501  502  0.00000000000E+00 -0.00000000000E+00 -0.19246322014E+02  0.19246322014E+02  0.00000000000E+00 0. -1.
         23    2    1    2    0    0 -0.13326835854E+02 -0.10946442330E+02  0.30526646682E+03  0.31614839247E+03  0.80403738371E+02 0.  0.
        -24    2    1    2    0    0 -0.96630963727E+01  0.74866084030E+01  0.16140417294E+03  0.18047290908E+03  0.79810645486E+02 0.  0.
         11    1    4    4    0    0 -0.34733599268E+02  0.24714317708E+02  0.12974301504E+03  0.13656672498E+03  0.00000000000E+00 0. -1.
        -12    1    4    4    0    0  0.25070502896E+02 -0.17227709305E+02  0.31661157894E+02  0.43906184104E+02  0.00000000000E+00 0.  1.
        -11    1    3    3    0    0 -0.10480384088E+02 -0.44113872607E+02  0.21979299080E+03  0.22442110198E+03  0.00000000000E+00 0. -1.
         11    1    3    3    0    0 -0.28464517669E+01  0.33167430277E+02  0.85473476016E+02  0.91727290492E+02  0.00000000000E+00 0.  1.
          2    1    1    2  501    0  0.22989932227E+02  0.34598339268E+01  0.27367299611E+02  0.35909281844E+02  0.00000000000E+00 0. -1.
<scales pt_clust_5="13000.00000" pt_clust_6="13000.00000" pt_clust_7="13000.00000" pt_clust_8="13000.00000" pt_clust_9="23.24882"></scales>
<clustering>
<clus scale="   23.249">  2  9  1 -1</clus>
<clus scale="   79.811">  5  6 -1 -1</clus>
<clus scale="   80.404">  7  8 -1 -1</clus>
<clus scale="   80.550">  2  5  1 -1</clus>
<clus scale="   23.249">  2  5  1 -1</clus>
</clustering>
</event>
<event>
 9    1  0.4731329E-005  0.9846414E+02  0.7546771E-02  0.1287503E+00
          1   -1    0    0  502    0 -0.00000000000E+00  0.00000000000E+00  0.30745584859E+03  0.30745584859E+03  0.00000000000E+00 0. -1.
         21   -1    0    0  501  502  0.00000000000E+00 -0.00000000000E+00 -0.43262838829E+02  0.43262838829E+02  0.00000000000E+00 0.  1.
         23    2    1    2    0    0  0.81337536850E+01  0.34242003585E+02  0.15898859614E+03  0.18570472159E+03  0.89275960707E+02 0.  0.
        -24    2    1    2    0    0 -0.28686331139E+02 -0.47571731168E+02  0.65457200127E+02  0.11832423400E+03  0.81424837141E+02 0.  0.
         11    1    4    4    0    0 -0.44786720800E+02  0.35599230494E+01  0.28275947831E+02  0.53085333548E+02  0.00000000000E+00 0. -1.
        -12    1    4    4    0    0  0.16100389662E+02 -0.51131654217E+02  0.37181252296E+02  0.65238900455E+02  0.00000000000E+00 0.  1.
        -11    1    3    3    0    0  0.83111594132E+01 -0.27451372820E+02  0.24424899021E+02  0.37672654972E+02  0.00000000000E+00 0.  1.
         11    1    3    3    0    0 -0.17740572822E+00  0.61693376405E+02  0.13456369712E+03  0.14803206662E+03  0.00000000000E+00 0. -1.
          2    1    1    2  501    0  0.20552577454E+02  0.13329727582E+02  0.39747213495E+02  0.46689731826E+02  0.00000000000E+00 0. -1.
<scales pt_clust_5="13000.00000" pt_clust_6="13000.00000" pt_clust_7="13000.00000" pt_clust_8="13000.00000" pt_clust_9="24.49675"></scales>
<clustering>
<clus scale="   24.497">  2  9  1 -1</clus>
<clus scale="   81.425">  5  6 -1 -1</clus>
<clus scale="   89.276">  7  8 -1 -1</clus>
<clus scale="   91.406">  2  5  1 -1</clus>
<clus scale="   24.497">  2  5  1 -1</clus>
</clustering>
</event>
<event>
 9    1  0.4731329E-005  0.1212518E+03  0.7546771E-02  0.1245046E+00
         -2   -1    0    0    0  501 -0.00000000000E+00  0.00000000000E+00  0.47761983052E+02  0.47761983052E+02  0.00000000000E+00 0.  1.
         21   -1    0    0  501  502  0.00000000000E+00 -0.00000000000E+00 -0.60547164250E+03  0.60547164250E+03  0.00000000000E+00 0. -1.
         23    2    1    2    0    0  0.64211487975E+02  0.51712283197E+02 -0.69250350413E+02  0.14176975852E+03  0.92226774732E+02 0.  0.
        -24    2    1    2    0    0 -0.71851977731E+02 -0.16908466137E+02 -0.28552507480E+03  0.30542506925E+03  0.79443701178E+02 0.  0.
         13    1    4    4    0    0 -0.68588205347E+02  0.15380163332E+02 -0.23574019587E+03  0.24599660829E+03  0.00000000000E+00 0. -1.
        -14    1    4    4    0    0 -0.32637723835E+01 -0.32288629470E+02 -0.49784878924E+02  0.59428460965E+02  0.00000000000E+00 0.  1.
        -11    1    3    3    0    0  0.29339062349E+02 -0.53417778898E+01 -0.68707458832E+02  0.74900133976E+02  0.00000000000E+00 0. -1.
         11    1    3    3    0    0  0.34872425627E+02  0.57054061087E+02 -0.54289158124E+00  0.66869624545E+02  0.00000000000E+00 0.  1.
         -1    1    1    2    0  502  0.76404897553E+01 -0.34803817059E+02 -0.20293423424E+03  0.20603879778E+03  0.00000000000E+00 0.  1.
<scales pt_clust_5="13000.00000" pt_clust_6="13000.00000" pt_clust_7="13000.00000" pt_clust_8="13000.00000" pt_clust_9="35.63261"></scales>
<clustering>
<clus scale="   35.633">  2  9  1 -1</clus>
<clus scale="   79.444">  5  6 -1 -1</clus>
<clus scale="   92.227">  7  8 -1 -1</clus>
<clus scale="  111.837">  2  5  1 -1</clus>
<clus scale="   35.633">  2  5  1 -1</clus>
</clustering>
</event>
<event>
 9    1  0.4731329E-005  0.9110057E+02  0.7546771E-02  0.1307578E+00
          3   -1    0    0  502    0 -0.00000000000E+00  0.00000000000E+00  0.44149456526E+02  0.44149456526E+02  0.00000000000E+00 0. -1.
         21   -1    0    0  501  502  0.00000000000E+00 -0.00000000000E+00 -0.33999756757E+03  0.33999756757E+03  0.00000000000E+00 0. -1.
         23    2    1    2    0    0  0.25859337750E+01  0.14939904451E+02 -0.75053543610E+02  0.11876632656E+03  0.90788314873E+02 0.  0.
        -24    2    1    2    0    0  0.11458166381E+02  0.25800125026E+02 -0.72811704002E+02  0.11125115909E+03  0.79235977510E+02 0.  0.
         11    1    4    4    0    0 -0.15584903971E+02  0.33267020937E+02 -0.74583650272E+02  0.83140271840E+02  0.00000000000E+00 0. -1.
        -12    1    4    4    0    0  0.27043070352E+02 -0.74668959109E+01  0.17719462703E+01  0.28110887254E+02  0.00000000000E+00 0.  1.
        -13    1    3    3    0    0  0.39428326942E+01 -0.28269349848E+02 -0.69559651488E+02  0.75188078747E+02  0.00000000000E+00 0.  1.
         13    1    3    3    0    0 -0.13568989192E+01  0.43209254299E+02 -0.54938921216E+01  0.43578247813E+02  0.00000000000E+00 0. -1.
          4    1    1    2  501    0 -0.14044100156E+02 -0.40740029477E+02 -0.14798286344E+03  0.15412953845E+03  0.00000000000E+00 0. -1.
<scales pt_clust_5="13000.00000" pt_clust_6="13000.00000" pt_clust_7="13000.00000" pt_clust_8="13000.00000" pt_clust_9="43.09277"></scales>
<clustering>
<clus scale="   43.093">  2  9  1 -1</clus>
<clus scale="   79.236">  5  6 -1 -1</clus>
<clus scale="   79.594">  2  5  1 -1</clus>
<clus scale="   90.788">  7  8 -1 -1</clus>
<clus scale="   43.093">  2  5  1 -1</clus>
</clustering>
</event>
<event>
 9    1  0.4731329E-005  0.1115984E+03  0.7546771E-02  0.1261509E+00
         21   -1    0    0  501  502  0.00000000000E+00  0.00000000000E+00  0.16603289233E+03  0.16603289233E+03  0.00000000000E+00 0. -1.
          3   -1    0    0  502    0 -0.00000000000E+00 -0.00000000000E+00 -0.16022655087E+03  0.16022655087E+03  0.00000000000E+00 0. -1.
        -24    2    1    2    0    0 -0.16769414685E+02  0.71271939969E+02 -0.62449881811E+02  0.12558133314E+03  0.80683212628E+02 0.  0.
         23    2    1    2    0    0 -0.50641743363E+02 -0.45261257044E+02  0.58743929023E+02  0.12779941908E+03  0.90932253684E+02 0.  0.
         13    1    3    3    0    0 -0.25852220159E+02  0.85546795328E+02 -0.61790061906E+02  0.10864899092E+03  0.00000000000E+00 0. -1.
        -14    1    3    3    0    0  0.90828054740E+01 -0.14274855359E+02 -0.65981990488E+00  0.16932342221E+02  0.00000000000E+00 0.  1.
        -11    1    4    4    0    0  0.21787900488E+02  0.40056613338E+01  0.26300479626E+02  0.34387107452E+02  0.00000000000E+00 0.  1.
         11    1    4    4    0    0 -0.72429643851E+02 -0.49266918378E+02  0.32443449397E+02  0.93412311627E+02  0.00000000000E+00 0. -1.
          4    1    1    2  501    0  0.67411158048E+02 -0.26010682925E+02  0.95122942497E+01  0.72878690970E+02  0.00000000000E+00 0. -1.
<scales pt_clust_5="13000.00000" pt_clust_6="13000.00000" pt_clust_7="13000.00000" pt_clust_8="13000.00000" pt_clust_9="72.25524"></scales>
<clustering>
<clus scale="   72.255">  1  9  2 -1</clus>
<clus scale="   80.683">  5  6 -1 -1</clus>
<clus scale="   90.932">  7  8 -1 -1</clus>
<clus scale="  103.418">  2  5  1 -1</clus>
<clus scale="   72.255">  1  5  2 -1</clus>
</clustering>
</event>
<event>
 9    1  0.4731329E-005  0.2326015E+03  0.7546771E-02  0.1143543E+00
          1   -1    0    0  502    0 -0.00000000000E+00  0.00000000000E+00  0.10448047624E+04  0.10448047624E+04  0.00000000000E+00 0. -1.
         21   -1    0    0  501  502  0.00000000000E+00 -0.00000000000E+00 -0.89339137158E+02  0.89339137158E+02  0.00000000000E+00 0. -1.
        -24    2    1    2    0    0  0.11572914920E+03  0.43962747414E+02  0.25484373088E+03  0.29438810248E+03  0.79956666861E+02 0.  0.
         23    2    1    2    0    0  0.31568359360E+02  0.16674822678E+03  0.39806486061E+03  0.44272125281E+03  0.93514394539E+02 0.  0.
         13    1    3    3    0    0  0.96398938231E+02  0.17390840276E+02  0.23819886859E+03  0.25755367910E+03  0.00000000000E+00 0. -1.
        -14    1    3    3    0    0  0.19330210969E+02  0.26571907138E+02  0.16644862288E+02  0.36834423379E+02  0.00000000000E+00 0.  1.
        -11    1    4    4    0    0 -0.10991667502E+02  0.37123729628E+02  0.26545939467E+02  0.46943316438E+02  0.00000000000E+00 0.  1.
         11    1    4    4    0    0  0.42560026862E+02  0.12962449716E+03  0.37151892115E+03  0.39577793637E+03  0.00000000000E+00 0. -1.
          2    1    1    2  501    0 -0.14729750856E+03 -0.21071097420E+03  0.30255703375E+03  0.39703454427E+03  0.00000000000E+00 0. -1.
<scales pt_clust_5="13000.00000" pt_clust_6="13000.00000" pt_clust_7="13000.00000" pt_clust_8="13000.00000" pt_clust_9="212.97544"></scales>
<clustering>
<clus scale="   79.957">  5  6 -1 -1</clus>
<clus scale="   93.514">  7  8 -1 -1</clus>
<clus scale="  147.374">  1  5  2 -1</clus>
<clus scale="  212.975">  2  9  1 -1</clus>
<clus scale="  212.975">  2  5  1 -1</clus>
</clustering>
</event>
<event>
 9    1  0.4731329E-005  0.9742900E+02  0.7546771E-02  0.1292858E+00
         21   -1    0    0  501  502  0.00000000000E+00  0.00000000000E+00  0.10568397433E+03  0.10568397433E+03  0.00000000000E+00 0. -1.
          3   -1    0    0  502    0 -0.00000000000E+00 -0.00000000000E+00 -0.34509087356E+03  0.34509087356E+03  0.00000000000E+00 0. -1.
         23    2    1    2    0    0 -0.25374392040E+02  0.80827448392E+01 -0.17796302085E+03  0.20206533436E+03  0.91925905095E+02 0.  0.
        -24    2    1    2    0    0  0.26289376597E+02 -0.31488638015E+02 -0.14045986699E+03  0.16629471214E+03  0.79008173012E+02 0.  0.
         13    1    4    4    0    0 -0.44385023259E+01 -0.33569329121E+02 -0.12910214889E+03  0.13346896646E+03  0.00000000000E+00 0. -1.
        -14    1    4    4    0    0  0.30727878923E+02  0.20806911059E+01 -0.11357718106E+02  0.32825745676E+02  0.00000000000E+00 0.  1.
        -13    1    3    3    0    0 -0.92264882797E+01 -0.29031078866E+02 -0.14631637084E+02  0.33793733589E+02  0.00000000000E+00 0.  1.
         13    1    3    3    0    0 -0.16147903760E+02  0.37113823705E+02 -0.16333138376E+03  0.16827160078E+03  0.00000000000E+00 0. -1.
          4    1    1    2  501    0 -0.91498455777E+00  0.23405893176E+02  0.79015988605E+02  0.82414801385E+02  0.00000000000E+00 0. -1.
<scales pt_clust_5="13000.00000" pt_clust_6="13000.00000" pt_clust_7="13000.00000" pt_clust_8="13000.00000" pt_clust_9="23.42377"></scales>
<clustering>
<clus scale="   23.424">  1  9  2 -1</clus>
<clus scale="   79.008">  5  6 -1 -1</clus>
<clus scale="   85.348">  1  5  2 -1</clus>
<clus scale="   91.926">  7  8 -1 -1</clus>
<clus scale="   23.424">  1  5  2 -1</clus>
</clustering>
</event>
<event>
 9    1  0.4731329E-005  0.1219566E+03  0.7546771E-02  0.1243317E+00
          1   -1    0    0  502    0 -0.00000000000E+00  0.00000000000E+00  0.27851680437E+03  0.27851680437E+03  0.00000000000E+00 0. -1.
         21   -1    0    0  501  502  0.00000000000E+00 -0.00000000000E+00 -0.18311036517E+03  0.18311036517E+03  0.00000000000E+00 0.  1.
         23    2    1    2    0    0 -0.69209616382E+02  0.39776598884E+02  0.15303095899E+03  0.19518812299E+03  0.91147024797E+02 0.  0.
        -24    2    1    2    0    0  0.11299568708E+02 -0.12962500126E+03 -0.42305520920E+02  0.15845302543E+03  0.79920478985E+02 0.  0.
         11    1    4    4    0    0  0.22228053838E+02 -0.13098957641E+02  0.13131530124E+02  0.28950063075E+02  0.00000000000E+00 0. -1.
        -12    1    4    4    0    0 -0.10928485129E+02 -0.11652604362E+03 -0.55437051044E+02  0.12950296235E+03  0.00000000000E+00 0.  1.
        -11    1    3    3    0    0 -0.25845930189E+02  0.19969021773E+02  0.14272374054E+03  0.14641325094E+03  0.00000000000E+00 0. -1.
         11    1    3    3    0    0 -0.43363686193E+02  0.19807577111E+02  0.10307218449E+02  0.48774872049E+02  0.00000000000E+00 0.  1.
          2    1    1    2  501    0  0.57910047674E+02  0.89848402379E+02 -0.15318998874E+02  0.10798602112E+03  0.00000000000E+00 0. -1.
<scales pt_clust_5="13000.00000" pt_clust_6="13000.00000" pt_clust_7="13000.00000" pt_clust_8="13000.00000" pt_clust_9="106.89391"></scales>
<clustering>
<clus scale="   79.920">  5  6 -1 -1</clus>
<clus scale="   91.147">  7  8 -1 -1</clus>
<clus scale="  106.894">  2  9  1 -1</clus>
<clus scale="  113.811">  2  5  1 -1</clus>
<clus scale="  106.894">  2  5  1 -1</clus>
</clustering>
</event>
<event>
 9    1  0.4731329E-005  0.1144613E+03  0.7546771E-02  0.1266264E+00
         21   -1    0    0  501  502  0.00000000000E+00  0.00000000000E+00  0.49240437804E+03  0.49240437804E+03  0.00000000000E+00 0. -1.
          1   -1    0    0  502    0 -0.00000000000E+00 -0.00000000000E+00 -0.14519372503E+03  0.14519372503E+03  0.00000000000E+00 0. -1.
         23    2    1    2    0    0 -0.18192751675E+02 -0.20516493563E+02 -0.10131861086E+03  0.15252334397E+03  0.11066167731E+03 0.  0.
        -24    2    1    2    0    0  0.53108353293E+02 -0.20363590957E+00  0.12403301420E+03  0.15804840076E+03  0.82307774314E+02 0.  0.
         13    1    4    4    0    0  0.35830429640E+02 -0.19131432526E+02  0.12596105769E+03  0.13234809955E+03  0.00000000000E+00 0. -1.
        -14    1    4    4    0    0  0.17277923653E+02  0.18927796617E+02 -0.19280434910E+01  0.25700301209E+02  0.00000000000E+00 0.  1.
        -13    1    3    3    0    0 -0.41196908593E+02  0.25306448888E+02 -0.86594952475E+02  0.99178059202E+02  0.00000000000E+00 0. -1.
         13    1    3    3    0    0  0.23004156918E+02 -0.45822942451E+02 -0.14723658390E+02  0.53345284765E+02  0.00000000000E+00 0.  1.
          2    1    1    2  501    0 -0.34915601618E+02  0.20720129472E+02  0.32449624968E+03  0.32702635835E+03  0.00000000000E+00 0. -1.
<scales pt_clust_5="13000.00000" pt_clust_6="13000.00000" pt_clust_7="13000.00000" pt_clust_8="13000.00000" pt_clust_9="40.60078"></scales>
<clustering>
<clus scale="   40.601">  1  9  2 -1</clus>
<clus scale="   82.308">  5  6 -1 -1</clus>
<clus scale="   87.350">  1  5  2 -1</clus>
<clus scale="  110.662">  7  8 -1 -1</clus>
<clus scale="   40.601">  1  5  2 -1</clus>
</clustering>
</event>
<event>
 9    1  0.4731329E-005  0.1466267E+03  0.7546771E-02  0.1217256E+00
          1   -1    0    0  502    0 -0.00000000000E+00  0.00000000000E+00  0.19315673548E+03  0.19315673548E+03  0.00000000000E+00 0. -1.
         21   -1    0    0  501  502  0.00000000000E+00 -0.00000000000E+00 -0.30426216563E+03  0.30426216563E+03  0.00000000000E+00 0. -1.
        -24    2    1    2    0    0 -0.76045082476E+02  0.15809928334E+02 -0.18242394825E+03  0.21413770337E+03  0.80892834701E+02 0.  0.
         23    2    1    2    0    0 -0.73166177592E+02  0.18172020929E+02  0.51536203334E+02  0.12897593865E+03  0.91078540874E+02 0.  0.
         13    1    3    3    0    0 -0.82038935513E+02 -0.86082691947E+01 -0.16181522250E+03  0.18162779377E+03  0.00000000000E+00 0. -1.
        -14    1    3    3    0    0  0.59938530367E+01  0.24418197529E+02 -0.20608725751E+02  0.32509909595E+02  0.00000000000E+00 0.  1.
        -13    1    4    4    0    0 -0.78723219439E+02 -0.22474590823E+01  0.66485152305E+02  0.10306634673E+03  0.00000000000E+00 0. -1.
         13    1    4    4    0    0  0.55570418471E+01  0.20419480011E+02 -0.14948948970E+02  0.25909591917E+02  0.00000000000E+00 0.  1.
          2    1    1    2  501    0  0.14921126007E+03 -0.33981949262E+02  0.19782314765E+02  0.15430525909E+03  0.00000000000E+00 0. -1.
<scales pt_clust_5="13000.00000" pt_clust_6="13000.00000" pt_clust_7="13000.00000" pt_clust_8="13000.00000" pt_clust_9="114.90914"></scales>
<clustering>
<clus scale="   80.893">  5  6 -1 -1</clus>
<clus scale="   91.079">  7  8 -1 -1</clus>
<clus scale="  112.145">  1  5  2 -1</clus>
<clus scale="  114.909">  2  9  1 -1</clus>
<clus scale="  114.909">  2  5  1 -1</clus>
</clustering>
</event>
<event>
 9    1  0.4731329E-005  0.1039168E+03  0.7546771E-02  0.1277930E+00
         -4   -1    0    0    0  501 -0.00000000000E+00  0.00000000000E+00  0.14033166957E+03  0.14033166957E+03  0.00000000000E+00 0.  1.
         21   -1    0    0  501  502  0.00000000000E+00 -0.00000000000E+00 -0.17293205731E+03  0.17293205731E+03  0.00000000000E+00 0.  1.
         23    2    1    2    0    0 -0.60190561377E+02  0.41177291314E+02  0.50973060534E+02  0.12722914854E+03  0.90942456195E+02 0.  0.
        -24    2    1    2    0    0  0.32391817104E+02  0.17921134088E+02 -0.95463693097E+01  0.87315773203E+02  0.78501682917E+02 0.  0.
         13    1    4    4    0    0  0.42806753282E+02 -0.19969799382E+02 -0.85737912571E+01  0.48007508896E+02  0.00000000000E+00 0. -1.
        -14    1    4    4    0    0 -0.10414936178E+02  0.37890933470E+02 -0.97257805252E+00  0.39308264307E+02  0.00000000000E+00 0.  1.
        -13    1    3    3    0    0 -0.58478823772E+02 -0.88347659476E+01  0.51313808523E+01  0.59364610574E+02  0.00000000000E+00 0.  1.
         13    1    3    3    0    0 -0.17117376050E+01  0.50012057262E+02  0.45841679682E+02  0.67864537965E+02  0.00000000000E+00 0. -1.
         -3    1    1    2    0  502  0.27798744274E+02 -0.59098425402E+02 -0.74027078960E+02  0.98718805137E+02  0.00000000000E+00 0.  1.
<scales pt_clust_5="13000.00000" pt_clust_6="13000.00000" pt_clust_7="13000.00000" pt_clust_8="13000.00000" pt_clust_9="65.30998"></scales>
<clustering>
<clus scale="   65.310">  2  9  1 -1</clus>
<clus scale="   78.502">  5  6 -1 -1</clus>
<clus scale="   90.942">  7  8 -1 -1</clus>
<clus scale="   93.224">  2  5  1 -1</clus>
<clus scale="   65.310">  2  5  1 -1</clus>
</clustering>
</event>
<event>
 9    1  0.4731329E-005  0.9048030E+02  0.7546771E-02  0.1309964E+00
         21   -1    0    0  501  502  0.00000000000E+00  0.00000000000E+00  0.97432947755E+02  0.97432947755E+02  0.00000000000E+00 0.  1.
          3   -1    0    0  502    0 -0.00000000000E+00 -0.00000000000E+00 -0.10357716996E+03  0.10357716996E+03  0.00000000000E+00 0. -1.
         23    2    1    2    0    0 -0.71675520189E+00  0.47661091052E+00 -0.13645085784E+02  0.90424845981E+02  0.89385253307E+02 0.  0.
        -24    2    1    2    0    0  0.28477535039E+02 -0.65585695238E+01  0.60380102242E+01  0.82128443769E+02  0.76515611952E+02 0.  0.
         11    1    4    4    0    0 -0.17842252735E+02 -0.12446347631E+02 -0.19231800362E+02  0.29036523503E+02  0.00000000000E+00 0. -1.
        -12    1    4    4    0    0  0.46319787773E+02  0.58877781074E+01  0.25269810586E+02  0.53091920265E+02  0.00000000000E+00 0.  1.
        -11    1    3    3    0    0  0.22942620005E+02  0.33771799048E+02  0.11554991903E+02  0.42431309920E+02  0.00000000000E+00 0. -1.
         11    1    3    3    0    0 -0.23659375207E+02 -0.33295188137E+02 -0.25200077687E+02  0.47993536062E+02  0.00000000000E+00 0.  1.
          4    1    1    2  501    0 -0.27760779837E+02  0.60819586132E+01  0.14628533574E+01  0.28456827962E+02  0.00000000000E+00 0. -1.
<scales pt_clust_5="13000.00000" pt_clust_6="13000.00000" pt_clust_7="13000.00000" pt_clust_8="13000.00000" pt_clust_9="28.41920"></scales>
<clustering>
<clus scale="   28.419">  1  9  2 -1</clus>
<clus scale="   76.516">  5  6 -1 -1</clus>
<clus scale="   77.792">  1  5  2 -1</clus>
<clus scale="   89.385">  7  8 -1 -1</clus>
<clus scale="   28.419">  1  5  2 -1</clus>
</clustering>
</event>
<event>
 9    1  0.4731329E-005  0.1024766E+03  0.7546771E-02  0.1281190E+00
          1   -1    0    0  502    0 -0.00000000000E+00  0.00000000000E+00  0.27308029443E+03  0.27308029443E+03  0.00000000000E+00 0. -1.
         21   -1    0    0  501  502  0.00000000000E+00 -0.00000000000E+00 -0.66497030499E+02  0.66497030499E+02  0.00000000000E+00 0. -1.
         23    2    1    2    0    0 -0.48304227782E+02 -0.26280260879E+02  0.18991061184E+03  0.21813047484E+03  0.92146150393E+02 0.  0.
        -24    2    1    2    0    0  0.22487169850E+02  0.73570328918E+01  0.27783653001E+02  0.87563766128E+02  0.79597003860E+02 0.  0.
         11    1    4    4    0    0  0.27616828294E+02 -0.30278795211E+02  0.83301039988E+00  0.40990103084E+02  0.00000000000E+00 0. -1.
        -12    1    4    4    0    0 -0.51296584443E+01  0.37635828103E+02  0.26950642601E+02  0.46573663044E+02  0.00000000000E+00 0.  1.
        -11    1    3    3    0    0  0.85470518107E+01  0.22548939189E+02  0.90371829198E+02  0.93533813489E+02  0.00000000000E+00 0.  1.
         11    1    3    3    0    0 -0.56851279592E+02 -0.48829200068E+02  0.99538782638E+02  0.12459666135E+03  0.00000000000E+00 0. -1.
          2    1    1    2  501    0  0.25817057932E+02  0.18923227987E+02 -0.11111000906E+02  0.33883083963E+02  0.00000000000E+00 0. -1.
<scales pt_clust_5="13000.00000" pt_clust_6="13000.00000" pt_clust_7="13000.00000" pt_clust_8="13000.00000" pt_clust_9="32.00951"></scales>
<clustering>
<clus scale="   32.010">  2  9  1 -1</clus>
<clus scale="   79.597">  5  6 -1 -1</clus>
<clus scale="   91.358">  2  5  1 -1</clus>
<clus scale="   92.146">  7  8 -1 -1</clus>
<clus scale="   32.010">  2  5  1 -1</clus>
</clustering>
</event>
<event>
 9    1  0.4731329E-005  0.1341725E+03  0.7546771E-02  0.1242193E+00
         21   -1    0    0  501  502  0.00000000000E+00  0.00000000000E+00  0.11809354948E+03  0.11809354948E+03  0.00000000000E+00 0.  1.
         -2   -1    0    0    0  501 -0.00000000000E+00 -0.00000000000E+00 -0.24092088053E+03  0.24092088053E+03  0.00000000000E+00 0.  1.
        -24    2    1    2    0    0  0.84552053717E+00  0.23419931784E+02 -0.31716207358E+02  0.93006626735E+02  0.84232456320E+02 0.  0.
         23    2    1    2    0    0 -0.90536966179E+02  0.34009921886E+02 -0.98812332049E+01  0.13206364095E+03  0.89384279707E+02 0.  0.
         13    1    3    3    0    0 -0.21900453868E+02 -0.42569894852E+00 -0.50520383068E+02  0.55064691087E+02  0.00000000000E+00 0. -1.
        -14    1    3    3    0    0  0.22745974405E+02  0.23845630732E+02  0.18804175709E+02  0.37941935648E+02  0.00000000000E+00 0.  1.
        -13    1    4    4    0    0 -0.10669718670E+03  0.21614505811E+02  0.12132719656E+01  0.10887124754E+03  0.00000000000E+00 0.  1.
         13    1    4    4    0    0  0.16160220523E+02  0.12395416075E+02 -0.11094505171E+02  0.23192393408E+02  0.00000000000E+00 0. -1.
         -1    1    1    2    0  502  0.89691445642E+02 -0.57429853669E+02 -0.81229890485E+02  0.13394416233E+03  0.00000000000E+00 0.  1.
<scales pt_clust_5="13000.00000" pt_clust_6="13000.00000" pt_clust_7="13000.00000" pt_clust_8="13000.00000" pt_clust_9="100.06358"></scales>
<clustering>
<clus scale="   84.232">  5  6 -1 -1</clus>
<clus scale="   87.432">  2  5  1 -1</clus>
<clus scale="   89.384">  7  8 -1 -1</clus>
<clus scale="  100.064">  1  9  2 -1</clus>
<clus scale="  100.064">  1  5  2 -1</clus>
</clustering>
</event>
<event>
 9    1  0.4731329E-005  0.9655380E+02  0.7546771E-02  0.1295344E+00
         21   -1    0    0  501  502  0.00000000000E+00  0.00000000000E+00  0.23775960974E+03  0.23775960974E+03  0.00000000000E+00 0. -1.
          1   -1    0    0  502    0 -0.00000000000E+00 -0.00000000000E+00 -0.93255220290E+02  0.93255220290E+02  0.00000000000E+00 0. -1.
         23    2    1    2    0    0 -0.75800113856E+01 -0.14550028559E+02 -0.36205144297E+02  0.10194638205E+03  0.93878072182E+02 0.  0.
        -24    2    1    2    0    0  0.28345460009E+02  0.28520297767E+02  0.66060106385E+02  0.11171912556E+03  0.80624765869E+02 0.  0.
         13    1    4    4    0    0  0.31360765239E+02  0.48678110908E+02  0.19849558555E+02  0.61213242463E+02  0.00000000000E+00 0. -1.
        -14    1    4    4    0    0 -0.30153052294E+01 -0.20157813141E+02  0.46210547830E+02  0.50505883093E+02  0.00000000000E+00 0.  1.
        -13    1    3    3    0    0  0.49829023282E+01  0.38104114327E+02 -0.32358814483E+01  0.38564540357E+02  0.00000000000E+00 0.  1.
         13    1    3    3    0    0 -0.12562913714E+02 -0.52654142886E+02 -0.32969262849E+02  0.63381841696E+02  0.00000000000E+00 0. -1.
          2    1    1    2  501    0 -0.20765448624E+02 -0.13970269208E+02  0.11464942736E+03  0.11734932242E+03  0.00000000000E+00 0. -1.
<scales pt_clust_5="13000.00000" pt_clust_6="13000.00000" pt_clust_7="13000.00000" pt_clust_8="13000.00000" pt_clust_9="25.02743"></scales>
<clustering>
<clus scale="   25.027">  1  9  2 -1</clus>
<clus scale="   80.625">  5  6 -1 -1</clus>
<clus scale="   83.725">  1  5  2 -1</clus>
<clus scale="   93.878">  7  8 -1 -1</clus>
<clus scale="   25.027">  1  5  2 -1</clus>
</clustering>
</event>
<event>
 9    1  0.4731329E-005  0.1449481E+03  0.7546771E-02  0.1209080E+00
         21   -1    0    0  501  502  0.00000000000E+00  0.00000000000E+00  0.51451168892E+02  0.51451168892E+02  0.00000000000E+00 0.  1.
          3   -1    0    0  502    0 -0.00000000000E+00 -0.00000000000E+00 -0.70156742983E+03  0.70156742983E+03  0.00000000000E+00 0. -1.
        -24    2    1    2    0    0 -0.25081194385E+02  0.12051992699E+03 -0.40773095682E+03  0.43335488577E+03  0.79986278536E+02 0.  0.
         23    2    1    2    0    0  0.63864492175E+02 -0.71958759209E+02 -0.10601070855E+03  0.16979589947E+03  0.91299730346E+02 0.  0.
         11    1    3    3    0    0 -0.51528279102E+02  0.91806762203E+02 -0.25883266805E+03  0.27942439976E+03  0.00000000000E+00 0. -1.
        -12    1    3    3    0    0  0.26447084717E+02  0.28713164787E+02 -0.14889828877E+03  0.15393048600E+03  0.00000000000E+00 0.  1.
        -11    1    4    4    0    0  0.48455526800E+02 -0.97774872799E+01 -0.91669633322E+02  0.10414825495E+03  0.00000000000E+00 0. -1.
         11    1    4    4    0    0  0.15408965375E+02 -0.62181271929E+02 -0.14341075231E+02  0.65647644523E+02  0.00000000000E+00 0.  1.
          4    1    1    2  501    0 -0.38783297790E+02 -0.48561167781E+02 -0.13637459557E+03  0.14986781349E+03  0.00000000000E+00 0. -1.
<scales pt_clust_5="13000.00000" pt_clust_6="13000.00000" pt_clust_7="13000.00000" pt_clust_8="13000.00000" pt_clust_9="62.14769"></scales>
<clustering>
<clus scale="   62.148">  1  9  2 -1</clus>
<clus scale="   79.986">  5  6 -1 -1</clus>
<clus scale="   91.300">  7  8 -1 -1</clus>
<clus scale="  138.102">  2  5  1 -1</clus>
<clus scale="   62.148">  1  5  2 -1</clus>
</clustering>
</event>
<event>
 9    1  0.4731329E-005  0.1665787E+03  0.7546771E-02  0.1182928E+00
         21   -1    0    0  501  502  0.00000000000E+00  0.00000000000E+00  0.43266598484E+03  0.43266598484E+03  0.00000000000E+00 0.  1.
         -2   -1    0    0    0  501 -0.00000000000E+00 -0.00000000000E+00 -0.91279841833E+02  0.91279841833E+02  0.00000000000E+00 0.  1.
         23    2    1    2    0    0  0.24815112923E+02  0.13177716208E+03  0.97258289903E+02  0.18874793769E+03  0.90474298849E+02 0.  0.
        -24    2    1    2    0    0 -0.61644485351E+02 -0.13546212221E+03  0.12440199797E+03  0.20988124208E+03  0.80151416386E+02 0.  0.
         11    1    4    4    0    0  0.44254859255E+01 -0.30914361842E+02  0.66198318725E+02  0.73194945835E+02  0.00000000000E+00 0. -1.
        -12    1    4    4    0    0 -0.66069971277E+02 -0.10454776037E+03  0.58203679244E+02  0.13668629624E+03  0.00000000000E+00 0.  1.
        -13    1    3    3    0    0 -0.30411115131E+02  0.18458655517E+02  0.24544059156E+02  0.43220003782E+02  0.00000000000E+00 0. -1.
         13    1    3    3    0    0  0.55226228054E+02  0.11331850656E+03  0.72714230747E+02  0.14552793391E+03  0.00000000000E+00 0.  1.
         -1    1    1    2    0  502  0.36829372429E+02  0.36849601302E+01  0.11972585514E+03  0.12531664691E+03  0.00000000000E+00 0.  1.
<scales pt_clust_5="13000.00000" pt_clust_6="13000.00000" pt_clust_7="13000.00000" pt_clust_8="13000.00000" pt_clust_9="37.01326"></scales>
<clustering>
<clus scale="   37.013">  1  9  2 -1</clus>
<clus scale="   80.151">  5  6 -1 -1</clus>
<clus scale="   90.474">  7  8 -1 -1</clus>
<clus scale="  161.205">  1  5  2 -1</clus>
<clus scale="   37.013">  1  5  2 -1</clus>
</clustering>
</event>
<event>
 9    1  0.4731329E-005  0.1407938E+03  0.7546771E-02  0.1214487E+00
          1   -1    0    0  502    0 -0.00000000000E+00  0.00000000000E+00  0.41677418384E+03  0.41677418384E+03  0.00000000000E+00 0. -1.
         21   -1    0    0  501  502  0.00000000000E+00 -0.00000000000E+00 -0.62039178005E+02  0.62039178005E+02  0.00000000000E+00 0. -1.
         23    2    1    2    0    0 -0.27697841351E+02  0.11085728023E+03  0.23676933139E+03  0.27799677852E+03  0.90365843014E+02 0.  0.
        -24    2    1    2    0    0  0.50819415742E+02 -0.87231715259E+02  0.10119512435E+03  0.16374872834E+03  0.79882461639E+02 0.  0.
         13    1    4    4    0    0  0.46250266449E+02 -0.10177671687E+03  0.96811406401E+02  0.14788521107E+03  0.00000000000E+00 0. -1.
        -14    1    4    4    0    0  0.45691492932E+01  0.14545001612E+02  0.43837179505E+01  0.15863517272E+02  0.00000000000E+00 0.  1.
        -13    1    3    3    0    0 -0.49209956340E+02  0.45304782420E+02  0.16690110948E+03  0.17980579373E+03  0.00000000000E+00 0.  1.
         13    1    3    3    0    0  0.21512114989E+02  0.65552497814E+02  0.69868221910E+02  0.98190984789E+02  0.00000000000E+00 0. -1.
          2    1    1    2  501    0 -0.23121574391E+02 -0.23625564974E+02  0.16770550090E+02  0.37067854982E+02  0.00000000000E+00 0. -1.
<scales pt_clust_5="13000.00000" pt_clust_6="13000.00000" pt_clust_7="13000.00000" pt_clust_8="13000.00000" pt_clust_9="33.05714"></scales>
<clustering>
<clus scale="   33.057">  2  9  1 -1</clus>
<clus scale="   79.882">  5  6 -1 -1</clus>
<clus scale="   90.366">  7  8 -1 -1</clus>
<clus scale="  134.306">  2  5  1 -1</clus>
<clus scale="   33.057">  2  5  1 -1</clus>
</clustering>
</event>
<event>
 9    1  0.4731329E-005  0.1057612E+03  0.7546771E-02  0.1272158E+00
         21   -1    0    0  501  502  0.00000000000E+00  0.00000000000E+00  0.64817969299E+02  0.64817969299E+02  0.00000000000E+00 0. -1.
         -2   -1    0    0    0  501 -0.00000000000E+00 -0.00000000000E+00 -0.67563254828E+03  0.67563254828E+03  0.00000000000E+00 0.  1.
         23    2    1    2    0    0 -0.18163426481E+02 -0.62695991720E+02 -0.57813355413E+03  0.58847353125E+03  0.88328891856E+02 0.  0.
        -24    2    1    2    0    0  0.33129645948E+02  0.11020982173E+02 -0.43035319508E+02  0.97190986707E+02  0.79843682801E+02 0.  0.
         11    1    4    4    0    0  0.18709369594E+02  0.36823654718E+02  0.41497633348E+01  0.41511957230E+02  0.00000000000E+00 0. -1.
        -12    1    4    4    0    0  0.14420276354E+02 -0.25802672544E+02 -0.47185082843E+02  0.55679029477E+02  0.00000000000E+00 0.  1.
        -13    1    3    3    0    0 -0.50561775890E+02 -0.57011810949E+02 -0.43351041753E+03  0.44015692869E+03  0.00000000000E+00 0.  1.
         13    1    3    3    0    0  0.32398349409E+02 -0.56841807711E+01 -0.14462313659E+03  0.14831660256E+03  0.00000000000E+00 0. -1.
         -1    1    1    2    0  502 -0.14966219467E+02  0.51675009547E+02  0.10354294653E+02  0.54785999621E+02  0.00000000000E+00 0.  1.
<scales pt_clust_5="13000.00000" pt_clust_6="13000.00000" pt_clust_7="13000.00000" pt_clust_8="13000.00000" pt_clust_9="53.79865"></scales>
<clustering>
<clus scale="   53.799">  1  9  2 -1</clus>
<clus scale="   79.844">  5  6 -1 -1</clus>
<clus scale="   88.329">  7  8 -1 -1</clus>
<clus scale="   98.785">  1  5  2 -1</clus>
<clus scale="   53.799">  1  5  2 -1</clus>
</clustering>
</event>
<event>
 9    1  0.4731329E-005  0.1233813E+03  0.7546771E-02  0.1251872E+00
          3   -1    0    0  502    0 -0.00000000000E+00  0.00000000000E+00  0.68722441694E+03  0.68722441694E+03  0.00000000000E+00 0. -1.
         21   -1    0    0  501  502  0.00000000000E+00 -0.00000000000E+00 -0.35010236200E+02  0.35010236200E+02  0.00000000000E+00 0. -1.
        -24    2    1    2    0    0  0.39694233787E+02  0.25888439696E+02  0.20575594427E+03  0.22562556552E+03  0.79533286803E+02 0.  0.
         23    2    1    2    0    0  0.58543815484E+02 -0.34840180263E+02  0.30060676770E+03  0.32053098300E+03  0.87945811623E+02 0.  0.
         13    1    3    3    0    0  0.13801279975E+02  0.20420056627E+02  0.77173248603E+01  0.25826558899E+02  0.00000000000E+00 0. -1.
        -14    1    3    3    0    0  0.25892953812E+02  0.54683830693E+01  0.19803861941E+03  0.19979900662E+03  0.00000000000E+00 0.  1.
        -11    1    4    4    0    0  0.78827520409E+02 -0.42256760570E+02  0.23400007958E+03  0.25051037709E+03  0.00000000000E+00 0. -1.
         11    1    4    4    0    0 -0.20283704925E+02  0.74165803065E+01  0.66606688125E+02  0.70020605910E+02  0.00000000000E+00 0.  1.
          4    1    1    2  501    0 -0.98238049272E+02  0.89517405672E+01  0.14585146877E+03  0.17607810462E+03  0.00000000000E+00 0. -1.
<scales pt_clust_5="13000.00000" pt_clust_6="13000.00000" pt_clust_7="13000.00000" pt_clust_8="13000.00000" pt_clust_9="86.53604"></scales>
<clustering>
<clus scale="   79.533">  5  6 -1 -1</clus>
<clus scale="   87.946">  7  8 -1 -1</clus>
<clus scale="   92.582">  1  5  2 -1</clus>
<clus scale="   86.536">  2  9  1 -1</clus>
<clus scale="   86.536">  2  5  1 -1</clus>
</clustering>
</event>
<event>
 9    1  0.4731329E-005  0.1766106E+03  0.7546771E-02  0.1172965E+00
          1   -1    0    0  502    0 -0.00000000000E+00  0.00000000000E+00  0.10078410467E+04  0.10078410467E+04  0.00000000000E+00 0. -1.
         21   -1    0    0  501  502  0.00000000000E+00 -0.00000000000E+00 -0.24685374313E+03  0.24685374313E+03  0.00000000000E+00 0.  1.
        -24    2    1    2    0    0 -0.14287085172E+03  0.55916986390E+02  0.84499800224E+03  0.86270070313E+03  0.81805194006E+02 0.  0.
         23    2    1    2    0    0  0.94036928491E+02  0.11085933087E+03 -0.12384092621E+03  0.21370909274E+03  0.95928442883E+02 0.  0.
         11    1    3    3    0    0 -0.14748655444E+03  0.52637392942E+02  0.84170925788E+03  0.85615270464E+03  0.00000000000E+00 0. -1.
        -12    1    3    3    0    0  0.46157027167E+01  0.32795934484E+01  0.32887443603E+01  0.65479984899E+01  0.00000000000E+00 0.  1.
        -11    1    4    4    0    0  0.10604850291E+03  0.73254324360E+02 -0.11612299614E+03  0.17348495970E+03  0.00000000000E+00 0.  1.
         11    1    4    4    0    0 -0.12011574421E+02  0.37605006508E+02 -0.77179300678E+01  0.40224133043E+02  0.00000000000E+00 0. -1.
          2    1    1    2  501    0  0.48833923227E+02 -0.16677631726E+03  0.39830227591E+02  0.17828499400E+03  0.00000000000E+00 0. -1.
<scales pt_clust_5="13000.00000" pt_clust_6="13000.00000" pt_clust_7="13000.00000" pt_clust_8="13000.00000" pt_clust_9="173.77886"></scales>
<clustering>
<clus scale="   81.805">  5  6 -1 -1</clus>
<clus scale="   95.928">  7  8 -1 -1</clus>
<clus scale="  173.779">  2  9  1 -1</clus>
<clus scale="  169.355">  1  5  2 -1</clus>
<clus scale="  173.779">  2  5  1 -1</clus>
</clustering>
</event>
<event>
 9    1  0.4731329E-005  0.9408646E+02  0.7546771E-02  0.1301962E+00
          1   -1    0    0  502    0 -0.00000000000E+00  0.00000000000E+00  0.33413542910E+03  0.33413542910E+03  0.00000000000E+00 0. -1.
         21   -1    0    0  501  502  0.00000000000E+00 -0.00000000000E+00 -0.44337471826E+03  0.44337471826E+03  0.00000000000E+00 0. -1.
         23    2    1    2    0    0 -0.38478462224E+02  0.31803253575E+02  0.19697947917E+03  0.22342417276E+03  0.92873068035E+02 0.  0.
        -24    2    1    2    0    0 -0.27063433193E+02  0.70550005999E+01  0.10598090788E+03  0.13490310634E+03  0.78642817957E+02 0.  0.
         11    1    4    4    0    0 -0.47387454617E+02  0.19242936767E+01  0.10343225214E+03  0.11378710183E+03  0.00000000000E+00 0. -1.
        -12    1    4    4    0    0  0.20324021424E+02  0.51307069231E+01  0.25486557429E+01  0.21116004511E+02  0.00000000000E+00 0.  1.
        -11    1    3    3    0    0 -0.57827056208E+02 -0.56224878629E+01  0.78393077635E+02  0.97575895695E+02  0.00000000000E+00 0.  1.
         11    1    3    3    0    0  0.19348593985E+02  0.37425741438E+02  0.11858640153E+03  0.12584827706E+03  0.00000000000E+00 0. -1.
          2    1    1    2  501    0  0.65541895416E+02 -0.38858254175E+02 -0.41219967622E+03  0.41918286826E+03  0.00000000000E+00 0. -1.
<scales pt_clust_5="13000.00000" pt_clust_6="13000.00000" pt_clust_7="13000.00000" pt_clust_8="13000.00000" pt_clust_9="76.19517"></scales>
<clustering>
<clus scale="   76.195">  2  9  1 -1</clus>
<clus scale="   78.643">  5  6 -1 -1</clus>
<clus scale="   80.072">  2  5  1 -1</clus>
<clus scale="   92.873">  7  8 -1 -1</clus>
<clus scale="   76.195">  2  5  1 -1</clus>
</clustering>
</event>
<event>
 9    1  0.4731329E-005  0.1452133E+03  0.7546771E-02  0.1225076E+00
         21   -1    0    0  501  502  0.00000000000E+00  0.00000000000E+00  0.39258683293E+02  0.39258683293E+02  0.00000000000E+00 0. -1.
          1   -1    0    0  502    0 -0.00000000000E+00 -0.00000000000E+00 -0.94535955479E+03  0.94535955479E+03  0.00000000000E+00 0. -1.
         23    2    1    2    0    0  0.13108052823E+02  0.37703244672E+02 -0.39678800612E+03  0.40871111727E+03  0.89502513209E+02 0.  0.
        -24    2    1    2    0    0 -0.10925999131E+03  0.42990558279E+02 -0.29007184826E+03  0.32327436621E+03  0.81109215856E+02 0.  0.
         13    1    4    4    0    0 -0.11032979577E+03  0.28275612918E+02 -0.28618633756E+03  0.30801752211E+03  0.00000000000E+00 0. -1.
        -14    1    4    4    0    0  0.10698044612E+01  0.14714945361E+02 -0.38855106960E+01  0.15256844102E+02  0.00000000000E+00 0.  1.
        -11    1    3    3    0    0  0.24576529151E+02  0.62609285924E+02 -0.32450465352E+03  0.33140186877E+03  0.00000000000E+00 0. -1.
         11    1    3    3    0    0 -0.11468476328E+02 -0.24906041252E+02 -0.72283352599E+02  0.77309248496E+02  0.00000000000E+00 0.  1.
          2    1    1    2  501    0  0.96151938488E+02 -0.80693802951E+02 -0.21924101712E+03  0.25263275460E+03  0.00000000000E+00 0. -1.
<scales pt_clust_5="13000.00000" pt_clust_6="13000.00000" pt_clust_7="13000.00000" pt_clust_8="13000.00000" pt_clust_9="120.44998"></scales>
<clustering>
<clus scale="   81.109">  5  6 -1 -1</clus>
<clus scale="   89.503">  7  8 -1 -1</clus>
<clus scale="   98.000">  2  7  1 -1</clus>
<clus scale="  120.450">  1  9  2 -1</clus>
<clus scale="  120.450">  1  5  2 -1</clus>
</clustering>
</event>
<event>
 9    1  0.4731329E-005  0.1160727E+03  0.7546771E-02  0.1258525E+00
          1   -1    0    0  502    0 -0.00000000000E+00  0.00000000000E+00  0.63008403889E+03  0.63008403889E+03  0.00000000000E+00 0. -1.
         21   -1    0    0  501  502  0.00000000000E+00 -0.00000000000E+00 -0.30301215672E+02  0.30301215672E+02  0.00000000000E+00 0. -1.
         23    2    1    2    0    0  0.29983867697E+02  0.20653180066E+02  0.34178296123E+03  0.36024756519E+03  0.10787552765E+03 0.  0.
        -24    2    1    2    0    0 -0.11931040564E+02 -0.61874089776E+02  0.17073254172E+03  0.20195086159E+03  0.87543114969E+02 0.  0.
         13    1    4    4    0    0 -0.74125888788E+01 -0.65251410204E+02  0.53834271807E+02  0.84916558035E+02  0.00000000000E+00 0. -1.
        -14    1    4    4    0    0 -0.45184516857E+01  0.33773204276E+01  0.11689826992E+03  0.11703430355E+03  0.00000000000E+00 0.  1.
        -13    1    3    3    0    0  0.37396235560E+02  0.57233337822E+02  0.14971140863E+03  0.16458322900E+03  0.00000000000E+00 0. -1.
         13    1    3    3    0    0 -0.74123678636E+01 -0.36580157756E+02  0.19207155260E+03  0.19566433619E+03  0.00000000000E+00 0.  1.
          2    1    1    2  501    0 -0.18052827132E+02  0.41220909710E+02  0.87267320267E+02  0.98186827790E+02  0.00000000000E+00 0. -1.
<scales pt_clust_5="13000.00000" pt_clust_6="13000.00000" pt_clust_7="13000.00000" pt_clust_8="13000.00000" pt_clust_9="45.00076"></scales>
<clustering>
<clus scale="   45.001">  2  9  1 -1</clus>
<clus scale="   87.543">  5  6 -1 -1</clus>
<clus scale="   97.466">  2  5  1 -1</clus>
<clus scale="  107.876">  7  8 -1 -1</clus>
<clus scale="   45.001">  2  5  1 -1</clus>
</clustering>
</event>
<event>
 9    1  0.4731329E-005  0.1124821E+03  0.7546771E-02  0.1260512E+00
         21   -1    0    0  501  502  0.00000000000E+00  0.00000000000E+00  0.12510659886E+03  0.12510659886E+03  0.00000000000E+00 0.  1.
          1   -1    0    0  502    0 -0.00000000000E+00 -0.00000000000E+00 -0.44703055695E+03  0.44703055695E+03  0.00000000000E+00 0. -1.
        -24    2    1    2    0    0 -0.20855153227E+02  0.38370704213E+02 -0.37334623059E+02  0.97511189094E+02  0.78786480830E+02 0.  0.
         23    2    1    2    0    0  0.74137302709E+02 -0.11069199104E+03  0.14919573823E+02  0.16193611643E+03  0.90838623890E+02 0.  0.
         13    1    3    3    0    0  0.24813440218E+02  0.15508840902E+01 -0.29098375187E+02  0.38273064882E+02  0.00000000000E+00 0. -1.
        -14    1    3    3    0    0 -0.45668593446E+02  0.36819820123E+02 -0.82362478727E+01  0.59238124213E+02  0.00000000000E+00 0.  1.
        -11    1    4    4    0    0 -0.58919614893E+01 -0.32656125489E+02  0.35153657150E+02  0.48341673049E+02  0.00000000000E+00 0. -1.
         11    1    4    4    0    0  0.80029264199E+02 -0.78035865547E+02 -0.20234083327E+02  0.11359444338E+03  0.00000000000E+00 0.  1.
          2    1    1    2  501    0 -0.53282149482E+02  0.72321286823E+02 -0.29950890885E+03  0.31268985027E+03  0.00000000000E+00 0. -1.
<scales pt_clust_5="13000.00000" pt_clust_6="13000.00000" pt_clust_7="13000.00000" pt_clust_8="13000.00000" pt_clust_9="89.82964"></scales>
<clustering>
<clus scale="   78.786">  5  6 -1 -1</clus>
<clus scale="   89.830">  1  9  2 -1</clus>
<clus scale="   90.839">  7  8 -1 -1</clus>
<clus scale="  102.995">  2  5  1 -1</clus>
<clus scale="   89.830">  1  5  2 -1</clus>
</clustering>
</event>
<event>
 9    1  0.4731329E-005  0.1021130E+03  0.7546771E-02  0.1277969E+00
         21   -1    0    0  501  502  0.00000000000E+00  0.00000000000E+00  0.45264750658E+02  0.45264750658E+02  0.00000000000E+00 0.  1.
         -4   -1    0    0    0  501 -0.00000000000E+00 -0.00000000000E+00 -0.55468066303E+03  0.55468066303E+03  0.00000000000E+00 0.  1.
        -24    2    1    2    0    0  0.58335191849E+02  0.14252440536E+02 -0.42731914379E+03  0.43904143225E+03  0.80929610838E+02 0.  0.
         23    2    1    2    0    0 -0.23394288743E+02 -0.31274185733E+02 -0.36452031253E+02  0.10095359724E+03  0.85659271390E+02 0.  0.
         11    1    3    3    0    0 -0.13869843055E+02  0.23861384554E+02 -0.10209081999E+03  0.10575572678E+03  0.00000000000E+00 0. -1.
        -12    1    3    3    0    0  0.72205034905E+02 -0.96089440185E+01 -0.32522832380E+03  0.33328570547E+03  0.00000000000E+00 0.  1.
        -13    1    4    4    0    0 -0.37669475961E+02  0.11083891142E+02  0.55021554674E+01  0.39649915218E+02  0.00000000000E+00 0. -1.
         13    1    4    4    0    0  0.14275187218E+02 -0.42358076874E+02 -0.41954186720E+02  0.61303682026E+02  0.00000000000E+00 0.  1.
         -3    1    1    2    0  502 -0.34940903107E+02  0.17021745197E+02 -0.45644737329E+02  0.59950384196E+02  0.00000000000E+00 0.  1.
<scales pt_clust_5="13000.00000" pt_clust_6="13000.00000" pt_clust_7="13000.00000" pt_clust_8="13000.00000" pt_clust_9="38.86652"></scales>
<clustering>
<clus scale="   38.867">  1  9  2 -1</clus>
<clus scale="   80.930">  5  6 -1 -1</clus>
<clus scale="   85.659">  7  8 -1 -1</clus>
<clus scale="   98.179">  2  5  1 -1</clus>
<clus scale="   38.867">  1  5  2 -1</clus>
</clustering>
</event>
<event>
 9    1  0.4731329E-005  0.1403185E+03  0.7546771E-02  0.1215339E+00
          1   -1    0    0  502    0 -0.00000000000E+00  0.00000000000E+00  0.18546509132E+03  0.18546509132E+03  0.00000000000E+00 0. -1.
         21   -1    0    0  501  502  0.00000000000E+00 -0.00000000000E+00 -0.27461746047E+03  0.27461746047E+03  0.00000000000E+00 0. -1.
        -24    2    1    2    0    0  0.63930193435E+02  0.53204113730E+02  0.25186499221E+02  0.11818721963E+03  0.80100635400E+02 0.  0.
         23    2    1    2    0    0 -0.14036351108E+03 -0.12850680800E+03 -0.10017427857E+03  0.23366787070E+03  0.91377638206E+02 0.  0.
         11    1    3    3    0    0  0.70206452894E+02  0.20927032143E+02 -0.51623030432E+01  0.73440697675E+02  0.00000000000E+00 0. -1.
        -12    1    3    3    0    0 -0.62762594594E+01  0.32277081587E+02  0.30348802264E+02  0.44746521959E+02  0.00000000000E+00 0.  1.
        -13    1    4    4    0    0 -0.15180328529E+03 -0.10862862152E+03 -0.97446760563E+02  0.21057133229E+03  0.00000000000E+00 0. -1.
         13    1    4    4    0    0  0.11439774213E+02 -0.19878186486E+02 -0.27275180104E+01  0.23096538410E+02  0.00000000000E+00 0.  1.
          2    1    1    2  501    0  0.76433317640E+02  0.75302694274E+02 -0.14164589801E+02  0.10822746146E+03  0.00000000000E+00 0. -1.
<scales pt_clust_5="13000.00000" pt_clust_6="13000.00000" pt_clust_7="13000.00000" pt_clust_8="13000.00000" pt_clust_9="107.29660"></scales>
<clustering>
<clus scale="   80.101">  5  6 -1 -1</clus>
<clus scale="   91.378">  7  8 -1 -1</clus>
<clus scale="  107.297">  2  9  1 -1</clus>
<clus scale="  133.250">  1  5  2 -1</clus>
<clus scale="  107.297">  2  5  1 -1</clus>
</clustering>
</event>
<event>
 9    1  0.4731329E-005  0.9678639E+02  0.7546771E-02  0.1292580E+00
         21   -1    0    0  501  502  0.00000000000E+00  0.00000000000E+00  0.27273525157E+03  0.27273525157E+03  0.00000000000E+00 0.  1.
         -4   -1    0    0    0  501 -0.00000000000E+00 -0.00000000000E+00 -0.23135623853E+03  0.23135623853E+03  0.00000000000E+00 0.  1.
         23    2    1    2    0    0 -0.21921397501E+02 -0.21685680092E+02 -0.18624885190E+03  0.20952219569E+03  0.90885088221E+02 0.  0.
        -24    2    1    2    0    0  0.71811481113E+02 -0.63817122098E+00  0.72897543678E+02  0.13046918138E+03  0.80937379092E+02 0.  0.
         13    1    4    4    0    0  0.28859823599E+02  0.34292602742E+02  0.57692232801E+02  0.73056592766E+02  0.00000000000E+00 0. -1.
        -14    1    4    4    0    0  0.42951657514E+02 -0.34930773963E+02  0.15205310877E+02  0.57412588618E+02  0.00000000000E+00 0.  1.
        -13    1    3    3    0    0  0.19720056932E+02 -0.17657907107E+02 -0.15515486052E+03  0.15739667427E+03  0.00000000000E+00 0.  1.
         13    1    3    3    0    0 -0.41641454434E+02 -0.40277729851E+01 -0.31093991379E+02  0.52125521412E+02  0.00000000000E+00 0. -1.
         -3    1    1    2    0  502 -0.49890083612E+02  0.22323851313E+02  0.15473032126E+03  0.16410011303E+03  0.00000000000E+00 0.  1.
<scales pt_clust_5="13000.00000" pt_clust_6="13000.00000" pt_clust_7="13000.00000" pt_clust_8="13000.00000" pt_clust_9="54.65688"></scales>
<clustering>
<clus scale="   54.657">  1  9  2 -1</clus>
<clus scale="   80.937">  5  6 -1 -1</clus>
<clus scale="   87.512">  1  5  2 -1</clus>
<clus scale="   90.885">  7  8 -1 -1</clus>
<clus scale="   54.657">  1  5  2 -1</clus>
</clustering>
</event>
<event>
 9    1  0.4731329E-005  0.1365098E+03  0.7546771E-02  0.1231578E+00
         21   -1    0    0  501  502  0.00000000000E+00  0.00000000000E+00  0.31425463605E+03  0.31425463605E+03  0.00000000000E+00 0. -1.
          3   -1    0    0  502    0 -0.00000000000E+00 -0.00000000000E+00 -0.32989994199E+03  0.32989994199E+03  0.00000000000E+00 0. -1.
        -24    2    1    2    0    0 -0.39295451914E+02 -0.51889696571E+02  0.41548654308E+02  0.11116371999E+03  0.79965047468E+02 0.  0.
         23    2    1    2    0    0 -0.64260687874E+02  0.28631154625E+02 -0.27138319038E+03  0.29394722152E+03  0.88356969131E+02 0.  0.
         13    1    3    3    0    0 -0.55557744221E+02 -0.17137866535E+02  0.53033089848E+01  0.58382313234E+02  0.00000000000E+00 0. -1.
        -14    1    3    3    0    0  0.16262292307E+02 -0.34751830036E+02  0.36245345323E+02  0.52781406760E+02  0.00000000000E+00 0.  1.
        -13    1    4    4    0    0 -0.79688200737E+01  0.20866726180E+02 -0.68263222248E+01  0.23356391630E+02  0.00000000000E+00 0.  1.
         13    1    4    4    0    0 -0.56291867800E+02  0.77644284448E+01 -0.26455686816E+03  0.27059082989E+03  0.00000000000E+00 0. -1.
          4    1    1    2  501    0  0.10355613979E+03  0.23258541946E+02  0.21418923013E+03  0.23904363653E+03  0.00000000000E+00 0. -1.
<scales pt_clust_5="13000.00000" pt_clust_6="13000.00000" pt_clust_7="13000.00000" pt_clust_8="13000.00000" pt_clust_9="104.05748"></scales>
<clustering>
<clus scale="   79.965">  5  6 -1 -1</clus>
<clus scale="   88.357">  7  8 -1 -1</clus>
<clus scale="  103.107">  2  5  1 -1</clus>
<clus scale="  104.057">  1  9  2 -1</clus>
<clus scale="  104.057">  1  5  2 -1</clus>
</clustering>
</event>
<event>
 9    1  0.4731329E-005  0.9594913E+02  0.7546771E-02  0.1295233E+00
         21   -1    0    0  501  502  0.00000000000E+00  0.00000000000E+00  0.71903138742E+02  0.71903138742E+02  0.00000000000E+00 0.  1.
          1   -1    0    0  502    0 -0.00000000000E+00 -0.00000000000E+00 -0.23480970741E+03  0.23480970741E+03  0.00000000000E+00 0. -1.
         23    2    1    2    0    0 -0.48559716909E+01  0.26947679045E+02 -0.16339980088E+03  0.18888833007E+03  0.90716858643E+02 0.  0.
        -24    2    1    2    0    0  0.14088897401E+02 -0.45546228620E+02  0.12865335591E+02  0.93653833312E+02  0.79577431867E+02 0.  0.
         11    1    4    4    0    0  0.22564895364E+02  0.58962357072E+01 -0.21082882743E+02  0.31439275485E+02  0.00000000000E+00 0. -1.
        -12    1    4    4    0    0 -0.84759979625E+01 -0.51442464327E+02  0.33948218333E+02  0.62214557826E+02  0.00000000000E+00 0.  1.
        -13    1    3    3    0    0 -0.34911428108E+02  0.38021629228E+01 -0.19700662604E+02  0.40266367634E+02  0.00000000000E+00 0.  1.
         13    1    3    3    0    0  0.30055456417E+02  0.23145516122E+02 -0.14369913828E+03  0.14862196244E+03  0.00000000000E+00 0. -1.
          2    1    1    2  501    0 -0.92329257104E+01  0.18598549575E+02 -0.12372103376E+02  0.24170682767E+02  0.00000000000E+00 0. -1.
<scales pt_clust_5="13000.00000" pt_clust_6="13000.00000" pt_clust_7="13000.00000" pt_clust_8="13000.00000" pt_clust_9="20.76422"></scales>
<clustering>
<clus scale="   20.764">  1  9  2 -1</clus>
<clus scale="   79.577">  5  6 -1 -1</clus>
<clus scale="   85.494">  1  5  2 -1</clus>
<clus scale="   90.717">  7  8 -1 -1</clus>
<clus scale="   20.764">  1  5  2 -1</clus>
</clustering>
</event>
<event>
 9    1  0.4731329E-005  0.9061372E+02  0.7546771E-02  0.1303550E+00
         21   -1    0    0  501  502  0.00000000000E+00  0.00000000000E+00  0.31353313253E+02  0.31353313253E+02  0.00000000000E+00 0. -1.
          1   -1    0    0  502    0 -0.00000000000E+00 -0.00000000000E+00 -0.44576808331E+03  0.44576808331E+03  0.00000000000E+00 0. -1.
         23    2    1    2    0    0  0.27868310947E+02  0.45298536821E+02 -0.20967282898E+03  0.22967488236E+03  0.77196218691E+02 0.  0.
        -24    2    1    2    0    0 -0.22881297401E+02 -0.43086844878E+01 -0.81089416763E+02  0.11708169891E+03  0.81181969521E+02 0.  0.
         11    1    4    4    0    0  0.83131222334E+01 -0.29691756645E+02 -0.53039489390E+01  0.31286423386E+02  0.00000000000E+00 0. -1.
        -12    1    4    4    0    0 -0.31194419634E+02  0.25383072157E+02 -0.75785467824E+02  0.85795275521E+02  0.00000000000E+00 0.  1.
        -11    1    3    3    0    0 -0.19811793970E+02  0.36461925900E+02 -0.12941264542E+03  0.13590295072E+03  0.00000000000E+00 0. -1.
         11    1    3    3    0    0  0.47680104917E+02  0.88366109209E+01 -0.80260183566E+02  0.93771931640E+02  0.00000000000E+00 0.  1.
          2    1    1    2  501    0 -0.49870135467E+01 -0.40989852333E+02 -0.12365252431E+03  0.13036481530E+03  0.00000000000E+00 0. -1.
<scales pt_clust_5="13000.00000" pt_clust_6="13000.00000" pt_clust_7="13000.00000" pt_clust_8="13000.00000" pt_clust_9="41.29213"></scales>
<clustering>
<clus scale="   41.292">  1  9  2 -1</clus>
<clus scale="   77.196">  7  8 -1 -1</clus>
<clus scale="   81.182">  5  6 -1 -1</clus>
<clus scale="   87.061">  2  7  1 -1</clus>
<clus scale="   41.292">  1  5  2 -1</clus>
</clustering>
</event>
<event>
 9    1  0.4731329E-005  0.1407071E+03  0.7546771E-02  0.1219917E+00
         21   -1    0    0  501  502  0.00000000000E+00  0.00000000000E+00  0.16023280893E+03  0.16023280893E+03  0.00000000000E+00 0. -1.
          1   -1    0    0  502    0 -0.00000000000E+00 -0.00000000000E+00 -0.34661328994E+03  0.34661328994E+03  0.00000000000E+00 0. -1.
         23    2    1    2    0    0 -0.64791344743E+02 -0.42028905131E+02 -0.19239441711E+03  0.22674495728E+03  0.91833091512E+02 0.  0.
        -24    2    1    2    0    0 -0.59362078483E+02  0.93975974817E+02  0.35653005876E+02  0.14229314108E+03  0.81368673127E+02 0.  0.
         11    1    4    4    0    0 -0.65245438343E+02  0.10345575576E+03  0.21362133677E+02  0.12416280192E+03  0.00000000000E+00 0. -1.
        -12    1    4    4    0    0  0.58833598598E+01 -0.94797809450E+01  0.14290872200E+02  0.18130339165E+02  0.00000000000E+00 0.  1.
        -13    1    3    3    0    0 -0.56694133603E+02  0.16561679249E+02 -0.76680007258E+02  0.96790172629E+02  0.00000000000E+00 0. -1.
         13    1    3    3    0    0 -0.80972111402E+01 -0.58590584380E+02 -0.11571440985E+03  0.12995478465E+03  0.00000000000E+00 0.  1.
          2    1    1    2  501    0  0.12415342323E+03 -0.51947069686E+02 -0.29639069772E+02  0.13780800051E+03  0.00000000000E+00 0. -1.
<scales pt_clust_5="13000.00000" pt_clust_6="13000.00000" pt_clust_7="13000.00000" pt_clust_8="13000.00000" pt_clust_9="114.79391"></scales>
<clustering>
<clus scale="   81.369">  5  6 -1 -1</clus>
<clus scale="   91.833">  7  8 -1 -1</clus>
<clus scale="  119.990">  2  7  1 -1</clus>
<clus scale="  114.794">  1  9  2 -1</clus>
<clus scale="  114.794">  1  5  2 -1</clus>
</clustering>
</event>
<event>
 9    1  0.4731329E-005  0.1168494E+03  0.7546771E-02  0.1252112E+00
          1   -1    0    0  502    0 -0.00000000000E+00  0.00000000000E+00  0.33251423749E+03  0.33251423749E+03  0.00000000000E+00 0. -1.
         21   -1    0    0  501  502  0.00000000000E+00 -0.00000000000E+00 -0.79567482768E+02  0.79567482768E+02  0.00000000000E+00 0.  1.
         23    2    1    2    0    0  0.51387631345E+02  0.35695507796E+02  0.16088486706E+03  0.19460087916E+03  0.89837095836E+02 0.  0.
        -24    2    1    2    0    0 -0.94102666905E+02 -0.62453855081E+02  0.36322966931E+02  0.14233158497E+03  0.78632857130E+02 0.  0.
         13    1    4    4    0    0 -0.12508784662E+02  0.17459627273E+02 -0.26835180529E+01  0.21645081367E+02  0.00000000000E+00 0. -1.
        -14    1    4    4    0    0 -0.81593882243E+02 -0.79913482354E+02  0.39006484984E+02  0.12068650360E+03  0.00000000000E+00 0.  1.
        -11    1    3    3    0    0  0.32300411099E+02 -0.22025464517E+02  0.26863324743E+02  0.47434964537E+02  0.00000000000E+00 0.  1.
         11    1    3    3    0    0  0.19087220245E+02  0.57720972312E+02  0.13402154232E+03  0.14716591462E+03  0.00000000000E+00 0. -1.
          2    1    1    2  501    0  0.42715035561E+02  0.26758347286E+02  0.55738920731E+02  0.75149256129E+02  0.00000000000E+00 0. -1.
<scales pt_clust_5="13000.00000" pt_clust_6="13000.00000" pt_clust_7="13000.00000" pt_clust_8="13000.00000" pt_clust_9="50.40423"></scales>
<clustering>
<clus scale="   50.404">  2  9  1 -1</clus>
<clus scale="   78.633">  5  6 -1 -1</clus>
<clus scale="   89.837">  7  8 -1 -1</clus>
<clus scale="  108.472">  2  5  1 -1</clus>
<clus scale="   50.404">  2  5  1 -1</clus>
</clustering>
</event>
