<event>
10    2  0.1671105E-006  0.1377480E+03  0.7546771E-02  0.1236336E+00
         -1   -1    0    0    0  501 -0.00000000000E+00  0.00000000000E+00  0.37771903702E+03  0.37771903702E+03  0.00000000000E+00 0.  1.
         21   -1    0    0  503  502  0.00000000000E+00 -0.00000000000E+00 -0.18428104746E+03  0.18428104746E+03  0.00000000000E+00 0.  1.
         23    2    1    2    0    0 -0.13097263988E+02 -0.36530217033E+01  0.13609805821E+03  0.16354538841E+03  0.89663424717E+02 0.  0.
         23    2    1    2    0    0 -0.81648181271E+02  0.71963623853E+02  0.16489411160E+03  0.21154311899E+03  0.75599169871E+02 0.  0.
        -11    1    4    4    0    0 -0.61898412919E+02  0.19803894119E+02  0.13111530063E+03  0.14633806683E+03  0.00000000000E+00 0.  1.
         11    1    4    4    0    0 -0.19749768351E+02  0.52159729734E+02  0.33778810977E+02  0.65205052158E+02  0.00000000000E+00 0. -1.
        -11    1    3    3    0    0  0.15307685783E+01 -0.34564297531E+02  0.14997516148E+02  0.37708877030E+02  0.00000000000E+00 0. -1.
         11    1    3    3    0    0 -0.14628032566E+02  0.30911275828E+02  0.12110054206E+03  0.12583651138E+03  0.00000000000E+00 0.  1.
         21    1    1    2  503  501 -0.13770338009E+02 -0.21102001303E+02 -0.48500724312E+02  0.54655621181E+02  0.00000000000E+00 0. -1.
         -1    1    1    2    0  502  0.10851578327E+03 -0.47208600846E+02 -0.59053455940E+02  0.13225595590E+03  0.00000000000E+00 0.  1.
<scales pt_clust_5="13000.00000" pt_clust_6="13000.00000" pt_clust_7="13000.00000" pt_clust_8="13000.00000" pt_clust_9="25.19755" pt_clust_10="115.14889"></scales>
<clustering>
<clus scale="   25.198">  2  9  1 -1</clus>
<clus scale="   75.599">  5  6 -1 -1</clus>
<clus scale="   89.663">  7  8 -1 -1</clus>
<clus scale="   91.019">  1  7  2 -1</clus>
<clus scale="  115.149">  2 10  1 -1</clus>
<clus scale="   25.198">  2  5  1 -1</clus>
</clustering>
</event>
<event>
10    2  0.1671105E-006  0.2857750E+03  0.7546771E-02  0.1114068E+00
          1   -1    0    0  502    0 -0.00000000000E+00  0.00000000000E+00  0.18949317479E+04  0.18949317479E+04  0.00000000000E+00 0. -1.
         21   -1    0    0  503  502  0.00000000000E+00 -0.00000000000E+00 -0.79629276682E+02  0.79629276682E+02  0.00000000000E+00 0. -1.
         23    2    1    2    0    0 -0.55814089089E+02 -0.12297517215E+03  0.61476893113E+03  0.63631225283E+03  0.93350623513E+02 0.  0.
         23    2    1    2    0    0 -0.20231646726E+03  0.20812431382E+03  0.75524738269E+03  0.81411216206E+03  0.90179379085E+02 0.  0.
        -11    1    4    4    0    0 -0.26927300186E+02  0.74584570257E+02  0.14494012653E+03  0.16521373398E+03  0.00000000000E+00 0.  1.
         11    1    4    4    0    0 -0.17538916707E+03  0.13353974357E+03  0.61030725616E+03  0.64889842808E+03  0.00000000000E+00 0. -1.
        -13    1    3    3    0    0  0.23586686465E+02 -0.90417803953E+01  0.89641839920E+02  0.93132942804E+02  0.00000000000E+00 0.  1.
         13    1    3    3    0    0 -0.79400775554E+02 -0.11393339176E+03  0.52512709121E+03  0.54317931003E+03  0.00000000000E+00 0. -1.
         21    1    1    2  503  501  0.33023739267E+02 -0.19595325300E+02  0.37026335782E+02  0.53343168918E+02  0.00000000000E+00 0. -1.
          1    1    1    2  501    0  0.22510681708E+03 -0.65553816369E+02  0.40825982160E+03  0.47079344077E+03  0.00000000000E+00 0. -1.
<scales pt_clust_5="13000.00000" pt_clust_6="13000.00000" pt_clust_7="13000.00000" pt_clust_8="13000.00000" pt_clust_9="20.46699" pt_clust_10="275.84904"></scales>
<clustering>
<clus scale="   20.467">  9 10 -1 -1</clus>
<clus scale="   90.179">  5  6 -1 -1</clus>
<clus scale="   93.351">  7  8 -1 -1</clus>
<clus scale="  164.172">  1  7  2 -1</clus>
<clus scale="  275.849">  2  9  1 -1</clus>
<clus scale="  275.849">  2  5  1 -1</clus>
</clustering>
</event>
<event>
10    2  0.1671105E-006  0.9313702E+02  0.7546771E-02  0.1298373E+00
         21   -1    0    0  503  502  0.00000000000E+00  0.00000000000E+00  0.25429266247E+02  0.25429266247E+02  0.00000000000E+00 0.  1.
         -2   -1    0    0    0  501 -0.00000000000E+00 -0.00000000000E+00 -0.10987237769E+04  0.10987237769E+04  0.00000000000E+00 0. -1.
         23    2    1    2    0    0  0.18341077901E+01  0.69508380253E+02 -0.46880441475E+03  0.48161629159E+03  0.85684853686E+02 0.  0.
         23    2    1    2    0    0  0.17659438427E+02  0.32763539411E+02 -0.26105381614E+03  0.27887835439E+03  0.90767485086E+02 0.  0.
        -13    1    4    4    0    0  0.47025431675E+02  0.31133021861E+02 -0.22691056465E+03  0.23381415830E+03  0.00000000000E+00 0. -1.
         13    1    4    4    0    0 -0.29365993248E+02  0.16305175497E+01 -0.34143251490E+02  0.45064196090E+02  0.00000000000E+00 0.  1.
        -13    1    3    3    0    0  0.11947897158E+02 -0.18331120237E+02 -0.87511628129E+02  0.90205694241E+02  0.00000000000E+00 0. -1.
         13    1    3    3    0    0 -0.10113789368E+02  0.87839500490E+02 -0.38129278663E+03  0.39141059735E+03  0.00000000000E+00 0.  1.
         21    1    1    2  503  501  0.55617493266E+01 -0.40008249552E+02 -0.21481025675E+03  0.21857502029E+03  0.00000000000E+00 0. -1.
         -2    1    1    2    0  502 -0.25055295543E+02 -0.62263670111E+02 -0.12862602296E+03  0.14508337683E+03  0.00000000000E+00 0. -1.
<scales pt_clust_5="13000.00000" pt_clust_6="13000.00000" pt_clust_7="13000.00000" pt_clust_8="13000.00000" pt_clust_9="40.39298" pt_clust_10="72.61947"></scales>
<clustering>
<clus scale="   40.393">  2  9  1 -1</clus>
<clus scale="   72.619">  1 10  2 -1</clus>
<clus scale="   85.685">  7  8 -1 -1</clus>
<clus scale="   88.191">  2  7  1 -1</clus>
<clus scale="   90.767">  5  6 -1 -1</clus>
<clus scale="   72.619">  1  5  2 -1</clus>
</clustering>
</event>
<event>
10    2  0.1671105E-006  0.9955670E+02  0.7546771E-02  0.1281405E+00
         21   -1    0    0  501  502  0.00000000000E+00  0.00000000000E+00  0.24736646138E+02  0.24736646138E+02  0.00000000000E+00 0.  1.
          1   -1    0    0  503    0 -0.00000000000E+00 -0.00000000000E+00 -0.81368278596E+03  0.81368278596E+03  0.00000000000E+00 0. -1.
         23    2    1    2    0    0  0.38407144523E+02  0.24754861286E+02 -0.33398235743E+03  0.34928360785E+03  0.91470824462E+02 0.  0.
         23    2    1    2    0    0 -0.35078954300E+02  0.96322417817E+01 -0.21675335801E+03  0.23819615553E+03  0.91826342538E+02 0.  0.
        -11    1    3    3    0    0  0.63837273821E+02  0.34310421621E+02 -0.27424081852E+03  0.28365547607E+03  0.00000000000E+00 0.  1.
         11    1    3    3    0    0 -0.25430129298E+02 -0.95555603349E+01 -0.59741538912E+02  0.65628131781E+02  0.00000000000E+00 0. -1.
        -13    1    4    4    0    0 -0.12037449065E+02 -0.35171958801E+02 -0.40909457253E+02  0.55277034640E+02  0.00000000000E+00 0.  1.
         13    1    4    4    0    0 -0.23041505234E+02  0.44804200583E+02 -0.17584390076E+03  0.18291912089E+03  0.00000000000E+00 0. -1.
         21    1    1    2  503  502 -0.25044607776E+02 -0.37119475180E+02 -0.84056268973E+02  0.95239404502E+02  0.00000000000E+00 0.  1.
          1    1    1    2  501    0  0.21716417553E+02  0.27323721119E+01 -0.15415415540E+03  0.15570026421E+03  0.00000000000E+00 0. -1.
<scales pt_clust_5="13000.00000" pt_clust_6="13000.00000" pt_clust_7="13000.00000" pt_clust_8="13000.00000" pt_clust_9="41.59358" pt_clust_10="21.88765"></scales>
<clustering>
<clus scale="   21.888">  1 10  2 -1</clus>
<clus scale="   41.594">  1  9  2 -1</clus>
<clus scale="   91.471">  5  6 -1 -1</clus>
<clus scale="   91.826">  7  8 -1 -1</clus>
<clus scale="   99.229">  2  5  1 -1</clus>
<clus scale="   21.888">  1  5  2 -1</clus>
</clustering>
</event>
<event>
10    2  0.1671105E-006  0.9489136E+02  0.7546771E-02  0.1291788E+00
          1   -1    0    0  503    0 -0.00000000000E+00  0.00000000000E+00  0.15866675743E+03  0.15866675743E+03  0.00000000000E+00 0. -1.
         21   -1    0    0  501  502  0.00000000000E+00 -0.00000000000E+00 -0.25943803089E+03  0.25943803089E+03  0.00000000000E+00 0.  1.
         23    2    1    2    0    0 -0.32390860570E+02  0.85602046517E+01  0.78496691444E+02  0.12481997882E+03  0.91081565610E+02 0.  0.
         23    2    1    2    0    0  0.90025343208E+01  0.16302951819E+02  0.79133600392E+01  0.93956806190E+02  0.91751993440E+02 0.  0.
        -11    1    3    3    0    0 -0.42725640234E+02 -0.28506882452E+02  0.20682852890E+02  0.55370597651E+02  0.00000000000E+00 0.  1.
         11    1    3    3    0    0  0.10334779664E+02  0.37067087104E+02  0.57813838554E+02  0.69449381174E+02  0.00000000000E+00 0. -1.
        -13    1    4    4    0    0  0.12805943496E+02 -0.22503305170E+02 -0.29960692135E+02  0.39598409130E+02  0.00000000000E+00 0.  1.
         13    1    4    4    0    0 -0.38034091748E+01  0.38806256990E+02  0.37874052174E+02  0.54358397061E+02  0.00000000000E+00 0. -1.
         21    1    1    2  503  502  0.13643998950E+02 -0.44162247084E+02 -0.13990832146E+03  0.14734585569E+03  0.00000000000E+00 0.  1.
          1    1    1    2  501    0  0.97443272993E+01  0.19299090613E+02 -0.47273003482E+02  0.51982147620E+02  0.00000000000E+00 0. -1.
<scales pt_clust_5="13000.00000" pt_clust_6="13000.00000" pt_clust_7="13000.00000" pt_clust_8="13000.00000" pt_clust_9="37.02216" pt_clust_10="21.61959"></scales>
<clustering>
<clus scale="   21.620">  2 10  1 -1</clus>
<clus scale="   37.022">  2  9  1 -1</clus>
<clus scale="   91.082">  5  6 -1 -1</clus>
<clus scale="   91.752">  7  8 -1 -1</clus>
<clus scale="   94.243">  1  5  2 -1</clus>
<clus scale="   21.620">  2  5  1 -1</clus>
</clustering>
</event>
<event>
10    2  0.1671105E-006  0.1023028E+03  0.7546771E-02  0.1275580E+00
         -1   -1    0    0    0  501 -0.00000000000E+00  0.00000000000E+00  0.23798228480E+03  0.23798228480E+03  0.00000000000E+00 0.  1.
         21   -1    0    0  503  502  0.00000000000E+00 -0.00000000000E+00 -0.16283015717E+03  0.16283015717E+03  0.00000000000E+00 0.  1.
         23    2    1    2    0    0 -0.18237845242E+02 -0.45200759057E+02  0.11778855292E+03  0.15715144020E+03  0.91905953773E+02 0.  0.
         23    2    1    2    0    0 -0.16594070499E+02  0.34122073648E+02  0.45159349475E+02  0.10910706589E+03  0.91789465057E+02 0.  0.
        -11    1    3    3    0    0 -0.68520928416E+00 -0.70432304341E+02  0.63841428232E+02  0.95062647582E+02  0.00000000000E+00 0.  1.
         11    1    3    3    0    0 -0.17552635958E+02  0.25231545284E+02  0.53947124684E+02  0.62088792614E+02  0.00000000000E+00 0. -1.
        -11    1    4    4    0    0 -0.32782953841E+02 -0.52621904845E+01 -0.14152246744E+02  0.36092918961E+02  0.00000000000E+00 0.  1.
         11    1    4    4    0    0  0.16188883343E+02  0.39384264133E+02  0.59311596219E+02  0.73014146925E+02  0.00000000000E+00 0. -1.
         21    1    1    2  503  501  0.21966784904E+01 -0.25936584817E+02  0.76291076146E+01  0.27124437530E+02  0.00000000000E+00 0.  1.
         -1    1    1    2    0  502  0.32635237251E+02  0.37015270225E+02 -0.95424882381E+02  0.10742949836E+03  0.00000000000E+00 0.  1.
<scales pt_clust_5="13000.00000" pt_clust_6="13000.00000" pt_clust_7="13000.00000" pt_clust_8="13000.00000" pt_clust_9="26.02944" pt_clust_10="48.86050"></scales>
<clustering>
<clus scale="   26.029">  1  9  2 -1</clus>
<clus scale="   48.861">  2 10  1 -1</clus>
<clus scale="   91.789">  7  8 -1 -1</clus>
<clus scale="   91.906">  5  6 -1 -1</clus>
<clus scale="  102.198">  2  7  1 -1</clus>
<clus scale="   48.861">  2  5  1 -1</clus>
</clustering>
</event>
<event>
10    2  0.1671105E-006  0.1988248E+03  0.7546771E-02  0.1181900E+00
         21   -1    0    0  503  502  0.00000000000E+00  0.00000000000E+00  0.42583559087E+03  0.42583559087E+03  0.00000000000E+00 0. -1.
         -1   -1    0    0    0  501 -0.00000000000E+00 -0.00000000000E+00 -0.23308766485E+03  0.23308766485E+03  0.00000000000E+00 0.  1.
         23    2    1    2    0    0 -0.22884096126E+02 -0.32550419788E+02 -0.11415010129E+03  0.15004512642E+03  0.88882409142E+02 0.  0.
         23    2    1    2    0    0 -0.12554841660E+03  0.10850158674E+03  0.15984827821E+03  0.24788271473E+03  0.91429584813E+02 0.  0.
        -13    1    3    3    0    0  0.25679921101E+02 -0.38310013449E+02 -0.71882967765E+02  0.85406536828E+02  0.00000000000E+00 0.  1.
         13    1    3    3    0    0 -0.48564017227E+02  0.57595936607E+01 -0.42267133522E+02  0.64638589593E+02  0.00000000000E+00 0. -1.
        -13    1    4    4    0    0 -0.65780167032E+02  0.20922711698E+01  0.41058568751E+02  0.77570703499E+02  0.00000000000E+00 0. -1.
         13    1    4    4    0    0 -0.59768249572E+02  0.10640931557E+03  0.11878970945E+03  0.17031201123E+03  0.00000000000E+00 0.  1.
         21    1    1    2  503  501  0.15375927450E+03 -0.10484523069E+03  0.12366898737E+03  0.22344676174E+03  0.00000000000E+00 0.  1.
         -1    1    1    2    0  502 -0.53267617710E+01  0.28894063742E+02  0.23380761733E+02  0.37548652835E+02  0.00000000000E+00 0.  1.
<scales pt_clust_5="13000.00000" pt_clust_6="13000.00000" pt_clust_7="13000.00000" pt_clust_8="13000.00000" pt_clust_9="176.55575" pt_clust_10="29.38097"></scales>
<clustering>
<clus scale="   29.381">  1 10  2 -1</clus>
<clus scale="   88.882">  5  6 -1 -1</clus>
<clus scale="   91.430">  7  8 -1 -1</clus>
<clus scale="   97.009">  2  5  1 -1</clus>
<clus scale="  176.556">  2  9  1 -1</clus>
<clus scale="   29.381">  1  5  2 -1</clus>
</clustering>
</event>
<event>
10    2  0.1671105E-006  0.2996049E+03  0.7546771E-02  0.1085573E+00
         21   -1    0    0  503  502  0.00000000000E+00  0.00000000000E+00  0.13269606620E+03  0.13269606620E+03  0.00000000000E+00 0.  1.
          2   -1    0    0  502    0 -0.00000000000E+00 -0.00000000000E+00 -0.21553282560E+04  0.21553282560E+04  0.00000000000E+00 0. -1.
         23    2    1    2    0    0 -0.14499213992E+03 -0.20725377034E+03 -0.58071471409E+03  0.64006336650E+03  0.92058068720E+02 0.  0.
         23    2    1    2    0    0  0.15289508476E+03  0.36573579063E+03 -0.32833870908E+03  0.52228243424E+03  0.88504563393E+02 0.  0.
        -11    1    3    3    0    0 -0.11284464517E+03 -0.16545713360E+03 -0.34860071121E+03  0.40203536270E+03  0.00000000000E+00 0. -1.
         11    1    3    3    0    0 -0.32147494752E+02 -0.41796636736E+02 -0.23211400288E+03  0.23802800380E+03  0.00000000000E+00 0.  1.
        -11    1    4    4    0    0 -0.56312981801E+01  0.55067576357E+02 -0.64225001188E+02  0.84787972394E+02  0.00000000000E+00 0. -1.
         11    1    4    4    0    0  0.15852638294E+03  0.31066821428E+03 -0.26411370789E+03  0.43749446184E+03  0.00000000000E+00 0.  1.
         21    1    1    2  503  501  0.14968187088E+02 -0.25891754512E+02 -0.18469405796E+03  0.18709977184E+03  0.00000000000E+00 0.  1.
          2    1    1    2  501    0 -0.22871131929E+02 -0.13259026578E+03 -0.92888470865E+03  0.93857874961E+03  0.00000000000E+00 0. -1.
<scales pt_clust_5="13000.00000" pt_clust_6="13000.00000" pt_clust_7="13000.00000" pt_clust_8="13000.00000" pt_clust_9="20.63400" pt_clust_10="164.60404"></scales>
<clustering>
<clus scale="   20.634">  9 10 -1 -1</clus>
<clus scale="   88.505">  7  8 -1 -1</clus>
<clus scale="   92.058">  5  6 -1 -1</clus>
<clus scale="  164.604">  1  9  2 -1</clus>
<clus scale="  298.532">  1  7  2 -1</clus>
<clus scale="  164.604">  1  5  2 -1</clus>
</clustering>
</event>
<event>
10    2  0.1671105E-006  0.3844114E+03  0.7546771E-02  0.1049346E+00
          2   -1    0    0  502    0 -0.00000000000E+00  0.00000000000E+00  0.13386286626E+04  0.13386286626E+04  0.00000000000E+00 0. -1.
         21   -1    0    0  503  502  0.00000000000E+00 -0.00000000000E+00 -0.21276117206E+03  0.21276117206E+03  0.00000000000E+00 0. -1.
         23    2    1    2    0    0  0.36756660560E+03  0.25115284417E+03  0.55212026198E+03  0.71523468580E+03  0.92417051452E+02 0.  0.
         23    2    1    2    0    0 -0.13062485992E+03 -0.28875008637E+03  0.18359657776E+03  0.37740152127E+03  0.91020538822E+02 0.  0.
        -11    1    3    3    0    0  0.98546292781E+01  0.34849404752E+02  0.36034286393E+02  0.51088790607E+02  0.00000000000E+00 0.  1.
         11    1    3    3    0    0  0.35771197632E+03  0.21630343942E+03  0.51608597559E+03  0.66414589520E+03  0.00000000000E+00 0. -1.
        -13    1    4    4    0    0 -0.72555194294E+02 -0.62178284473E+02  0.46191338064E+02  0.10613215814E+03  0.00000000000E+00 0.  1.
         13    1    4    4    0    0 -0.58069665629E+02 -0.22657180189E+03  0.13740523970E+03  0.27126936313E+03  0.00000000000E+00 0. -1.
         21    1    1    2  503  501 -0.10829441923E+03  0.42100829752E+01  0.17934035839E+03  0.20954324179E+03  0.00000000000E+00 0. -1.
          2    1    1    2  501    0 -0.12864732644E+03  0.33387159220E+02  0.21081029239E+03  0.24921038578E+03  0.00000000000E+00 0. -1.
<scales pt_clust_5="13000.00000" pt_clust_6="13000.00000" pt_clust_7="13000.00000" pt_clust_8="13000.00000" pt_clust_9="23.58927" pt_clust_10="241.32430"></scales>
<clustering>
<clus scale="   23.589">  9 10 -1 -1</clus>
<clus scale="   91.021">  7  8 -1 -1</clus>
<clus scale="   92.417">  5  6 -1 -1</clus>
<clus scale="  241.324">  2  9  1 -1</clus>
<clus scale="  384.078">  2  7  1 -1</clus>
<clus scale="  241.324">  2  5  1 -1</clus>
</clustering>
</event>
<event>
10    2  0.1671105E-006  0.1905468E+03  0.7546771E-02  0.1158244E+00
         -1   -1    0    0    0  501 -0.00000000000E+00  0.00000000000E+00  0.92411457714E+02  0.92411457714E+02  0.00000000000E+00 0.  1.
         21   -1    0    0  503  502  0.00000000000E+00 -0.00000000000E+00 -0.80875165042E+03  0.80875165042E+03  0.00000000000E+00 0.  1.
         23    2    1    2    0    0 -0.15669952349E+03 -0.28652473072E+01 -0.10804210774E+03  0.21243040149E+03  0.94290127411E+02 0.  0.
         23    2    1    2    0    0  0.18106221259E+03  0.51815132459E+02 -0.30561321390E+03  0.37053437087E+03  0.91803870882E+02 0.  0.
        -11    1    4    4    0    0  0.58953784288E+02  0.12432551639E+02 -0.18453495976E+03  0.19412178754E+03  0.00000000000E+00 0. -1.
         11    1    4    4    0    0  0.12210842830E+03  0.39382580820E+02 -0.12107825414E+03  0.17641258334E+03  0.00000000000E+00 0.  1.
        -13    1    3    3    0    0 -0.13582357422E+03  0.23250166923E+01 -0.40810582255E+02  0.14184129385E+03  0.00000000000E+00 0.  1.
         13    1    3    3    0    0 -0.20875949274E+02 -0.51902639995E+01 -0.67231525489E+02  0.70589107644E+02  0.00000000000E+00 0. -1.
         21    1    1    2  503  501  0.15169839858E+02  0.16029093181E+02 -0.65862101276E+02  0.69461300406E+02  0.00000000000E+00 0.  1.
         -1    1    1    2    0  502 -0.39532528956E+02 -0.64978978332E+02 -0.23682276978E+03  0.24873703536E+03  0.00000000000E+00 0.  1.
<scales pt_clust_5="13000.00000" pt_clust_6="13000.00000" pt_clust_7="13000.00000" pt_clust_8="13000.00000" pt_clust_9="22.06934" pt_clust_10="69.00735"></scales>
<clustering>
<clus scale="   22.069">  2  9  1 -1</clus>
<clus scale="   69.007">  2 10  1 -1</clus>
<clus scale="   91.804">  5  6 -1 -1</clus>
<clus scale="   94.290">  7  8 -1 -1</clus>
<clus scale="  189.329">  2  5  1 -1</clus>
<clus scale="   22.069">  2  5  1 -1</clus>
</clustering>
</event>
<event>
10    2  0.1671105E-006  0.1332671E+03  0.7546771E-02  0.1223428E+00
         21   -1    0    0  501  502  0.00000000000E+00  0.00000000000E+00  0.50192372844E+03  0.50192372844E+03  0.00000000000E+00 0. -1.
          3   -1    0    0  503    0 -0.00000000000E+00 -0.00000000000E+00 -0.98467557725E+02  0.98467557725E+02  0.00000000000E+00 0. -1.
         23    2    1    2    0    0  0.35110621331E+02 -0.77643002976E+02  0.52760833754E+02  0.13390998725E+03  0.88808712778E+02 0.  0.
         23    2    1    2    0    0 -0.25870518116E+02  0.12998547821E+03  0.17514991520E+03  0.23577183077E+03  0.85705047329E+02 0.  0.
        -11    1    3    3    0    0  0.29449025815E+02  0.71804035138E+01 -0.55579326551E+01  0.30817104528E+02  0.00000000000E+00 0.  1.
         11    1    3    3    0    0  0.56615955160E+01 -0.84823406490E+02  0.58318766409E+02  0.10309288272E+03  0.00000000000E+00 0. -1.
        -11    1    4    4    0    0 -0.51549421505E+02  0.44770964704E+02  0.66325734442E+02  0.95188682034E+02  0.00000000000E+00 0.  1.
         11    1    4    4    0    0  0.25678903389E+02  0.85214513506E+02  0.10882418075E+03  0.14058314873E+03  0.00000000000E+00 0. -1.
         21    1    1    2  503  502  0.17616500621E+02 -0.94728634360E+02  0.13673694094E+03  0.16727476283E+03  0.00000000000E+00 0. -1.
          3    1    1    2  501    0 -0.26856603836E+02  0.42386159127E+02  0.38808480828E+02  0.63434705322E+02  0.00000000000E+00 0. -1.
<scales pt_clust_5="13000.00000" pt_clust_6="13000.00000" pt_clust_7="13000.00000" pt_clust_8="13000.00000" pt_clust_9="80.89073" pt_clust_10="50.17834"></scales>
<clustering>
<clus scale="   50.178">  1 10  2 -1</clus>
<clus scale="   80.891">  1  9  2 -1</clus>
<clus scale="   85.705">  7  8 -1 -1</clus>
<clus scale="   88.809">  5  6 -1 -1</clus>
<clus scale="  131.219">  1  7  2 -1</clus>
<clus scale="   50.178">  1  5  2 -1</clus>
</clustering>
</event>
<event>
10    2  0.1671105E-006  0.9715918E+02  0.7546771E-02  0.1291703E+00
         21   -1    0    0  501  502  0.00000000000E+00  0.00000000000E+00  0.45655297110E+03  0.45655297110E+03  0.00000000000E+00 0. -1.
          2   -1    0    0  503    0 -0.00000000000E+00 -0.00000000000E+00 -0.73518104140E+02  0.73518104140E+02  0.00000000000E+00 0. -1.
         23    2    1    2    0    0 -0.96972096644E+01 -0.39447983650E+01  0.18337580367E+02  0.87219420560E+02  0.84624837724E+02 0.  0.
         23    2    1    2    0    0 -0.10707694761E+02  0.58581303304E+02  0.58920301560E+02  0.12604145927E+03  0.94172308536E+02 0.  0.
        -11    1    3    3    0    0  0.36566649802E+02 -0.11367205604E+02  0.10566790466E+02  0.39723926062E+02  0.00000000000E+00 0.  1.
         11    1    3    3    0    0 -0.46263859467E+02  0.74224072388E+01  0.77707899009E+01  0.47495494499E+02  0.00000000000E+00 0. -1.
        -11    1    4    4    0    0 -0.33975776824E+02  0.58025208559E+02  0.72672139510E+02  0.99007666875E+02  0.00000000000E+00 0. -1.
         11    1    4    4    0    0  0.23268082063E+02  0.55609474495E+00 -0.13751837950E+02  0.27033792395E+02  0.00000000000E+00 0.  1.
         21    1    1    2  503  502  0.24380391861E+02 -0.17672107490E+02  0.50162745801E+02  0.58506477904E+02  0.00000000000E+00 0.  1.
          2    1    1    2  501    0 -0.39754874353E+01 -0.36964397449E+02  0.25561423923E+03  0.25830371750E+03  0.00000000000E+00 0. -1.
<scales pt_clust_5="13000.00000" pt_clust_6="13000.00000" pt_clust_7="13000.00000" pt_clust_8="13000.00000" pt_clust_9="30.11157" pt_clust_10="49.62901"></scales>
<clustering>
<clus scale="   30.112">  1  9  2 -1</clus>
<clus scale="   49.629">  1 10  2 -1</clus>
<clus scale="   84.625">  5  6 -1 -1</clus>
<clus scale="   87.937">  2  5  1 -1</clus>
<clus scale="   94.172">  7  8 -1 -1</clus>
<clus scale="   30.112">  1  5  2 -1</clus>
</clustering>
</event>
<event>
10    2  0.1671105E-006  0.9913021E+02  0.7546771E-02  0.1284054E+00
          1   -1    0    0  503    0 -0.00000000000E+00  0.00000000000E+00  0.34211636099E+03  0.34211636099E+03  0.00000000000E+00 0. -1.
         21   -1    0    0  501  502  0.00000000000E+00 -0.00000000000E+00 -0.82121679883E+02  0.82121679883E+02  0.00000000000E+00 0.  1.
         23    2    1    2    0    0  0.34561766831E+02 -0.15703191226E+02  0.23908595040E+03  0.25891249186E+03  0.91828540349E+02 0.  0.
         23    2    1    2    0    0 -0.95583752318E+01  0.51633928776E+02  0.26596315990E+01  0.10250973927E+03  0.87998567414E+02 0.  0.
        -11    1    4    4    0    0 -0.43939461626E+01 -0.24048018712E+02  0.97551721477E+01  0.26320663945E+02  0.00000000000E+00 0. -1.
         11    1    4    4    0    0 -0.51644290692E+01  0.75681947488E+02 -0.70955405487E+01  0.76189075325E+02  0.00000000000E+00 0.  1.
        -13    1    3    3    0    0  0.24258276211E+02  0.24418136960E+02  0.29680524444E+02  0.45449344424E+02  0.00000000000E+00 0.  1.
         13    1    3    3    0    0  0.10303490619E+02 -0.40121328186E+02  0.20940542595E+03  0.21346314744E+03  0.00000000000E+00 0. -1.
         21    1    1    2  503  502 -0.30923895907E+02 -0.11017634109E+02  0.28878474313E+01  0.32954745670E+02  0.00000000000E+00 0. -1.
          1    1    1    2  501    0  0.59205043082E+01 -0.24913103441E+02  0.15361251676E+02  0.29861064070E+02  0.00000000000E+00 0. -1.
<scales pt_clust_5="13000.00000" pt_clust_6="13000.00000" pt_clust_7="13000.00000" pt_clust_8="13000.00000" pt_clust_9="33.77596" pt_clust_10="25.60693"></scales>
<clustering>
<clus scale="   25.607">  2 10  1 -1</clus>
<clus scale="   33.776">  2  9  1 -1</clus>
<clus scale="   87.999">  5  6 -1 -1</clus>
<clus scale="   91.829">  7  8 -1 -1</clus>
<clus scale="   95.593">  2  5  1 -1</clus>
<clus scale="   25.607">  2  5  1 -1</clus>
</clustering>
</event>
<event>
10    2  0.1671105E-006  0.9987364E+02  0.7546771E-02  0.1281891E+00
          2   -1    0    0  502    0 -0.00000000000E+00  0.00000000000E+00  0.36999933510E+03  0.36999933510E+03  0.00000000000E+00 0. -1.
         21   -1    0    0  503  502  0.00000000000E+00 -0.00000000000E+00 -0.13653864192E+03  0.13653864192E+03  0.00000000000E+00 0. -1.
         23    2    1    2    0    0  0.18359861169E+02 -0.56685949011E+02  0.24216639628E+03  0.26452466570E+03  0.88194976972E+02 0.  0.
         23    2    1    2    0    0 -0.22771642002E+02 -0.19294417864E+01  0.84972217360E+02  0.12653794754E+03  0.90935713661E+02 0.  0.
        -11    1    3    3    0    0 -0.22355776490E+02 -0.60233997147E+02  0.12710887388E+03  0.14242394804E+03  0.00000000000E+00 0.  1.
         11    1    3    3    0    0  0.40715637659E+02  0.35480481354E+01  0.11505752239E+03  0.12210071767E+03  0.00000000000E+00 0. -1.
        -11    1    4    4    0    0  0.86291568627E+01  0.39648604509E+02  0.46841094814E+02  0.61972270824E+02  0.00000000000E+00 0. -1.
         11    1    4    4    0    0 -0.31400798865E+02 -0.41578046295E+02  0.38131122546E+02  0.64565676715E+02  0.00000000000E+00 0.  1.
         21    1    1    2  503  501  0.12322384448E+02  0.25744394636E+02 -0.65553473737E+02  0.71497363117E+02  0.00000000000E+00 0. -1.
          2    1    1    2  501    0 -0.79106036155E+01  0.32870996162E+02 -0.28124446722E+02  0.43978000655E+02  0.00000000000E+00 0. -1.
<scales pt_clust_5="13000.00000" pt_clust_6="13000.00000" pt_clust_7="13000.00000" pt_clust_8="13000.00000" pt_clust_9="28.54146" pt_clust_10="46.53756"></scales>
<clustering>
<clus scale="   28.541">  2  9  1 -1</clus>
<clus scale="   46.538">  2 10  1 -1</clus>
<clus scale="   88.195">  5  6 -1 -1</clus>
<clus scale="   90.936">  7  8 -1 -1</clus>
<clus scale="   97.385">  1  5  2 -1</clus>
<clus scale="   28.541">  2  5  1 -1</clus>
</clustering>
</event>
<event>
10    2  0.1671105E-006  0.1268613E+03  0.7546771E-02  0.1232533E+00
         -3   -1    0    0    0  501 -0.00000000000E+00  0.00000000000E+00  0.34236896227E+02  0.34236896227E+02  0.00000000000E+00 0.  1.
         21   -1    0    0  501  502  0.00000000000E+00 -0.00000000000E+00 -0.10637001297E+04  0.10637001297E+04  0.00000000000E+00 0. -1.
         23    2    1    2    0    0  0.36597816332E+02  0.10223189170E+03 -0.23657710139E+03  0.27630651046E+03  0.92659608121E+02 0.  0.
         23    2    1    2    0    0 -0.13724873587E+02 -0.62586806662E+02 -0.25617795460E+03  0.27944995012E+03  0.91431119851E+02 0.  0.
        -11    1    3    3    0    0  0.37974501025E+02  0.48695724342E+02 -0.20508320048E+03  0.21417855966E+03  0.00000000000E+00 0. -1.
         11    1    3    3    0    0 -0.13766846928E+01  0.53536167358E+02 -0.31493900914E+02  0.62127950803E+02  0.00000000000E+00 0.  1.
        -11    1    4    4    0    0 -0.43226628204E+02 -0.66048291696E+02 -0.15414049724E+03  0.17317682036E+03  0.00000000000E+00 0.  1.
         11    1    4    4    0    0  0.29501754617E+02  0.34614850344E+01 -0.10203745736E+03  0.10627312976E+03  0.00000000000E+00 0. -1.
         21    1    1    2  503  502  0.21252324912E+02 -0.17152329909E+02 -0.19138533774E+03  0.19332410930E+03  0.00000000000E+00 0. -1.
         -3    1    1    2    0  503 -0.44125267657E+02 -0.22492755130E+02 -0.34532283977E+03  0.34885645608E+03  0.00000000000E+00 0.  1.
<scales pt_clust_5="13000.00000" pt_clust_6="13000.00000" pt_clust_7="13000.00000" pt_clust_8="13000.00000" pt_clust_9="27.31051" pt_clust_10="46.16901"></scales>
<clustering>
<clus scale="   27.311">  2  9  1 -1</clus>
<clus scale="   46.169">  2 10  1 -1</clus>
<clus scale="   91.431">  7  8 -1 -1</clus>
<clus scale="   92.660">  5  6 -1 -1</clus>
<clus scale="  125.967">  2  7  1 -1</clus>
<clus scale="   27.311">  2  5  1 -1</clus>
</clustering>
</event>
<event>
10    2  0.1671105E-006  0.1468760E+03  0.7546771E-02  0.1223593E+00
         -1   -1    0    0    0  501 -0.00000000000E+00  0.00000000000E+00  0.83363322072E+02  0.83363322072E+02  0.00000000000E+00 0.  1.
         21   -1    0    0  501  502  0.00000000000E+00 -0.00000000000E+00 -0.10863470732E+04  0.10863470732E+04  0.00000000000E+00 0.  1.
         23    2    1    2    0    0 -0.61685414169E+00  0.43583549019E+02 -0.29447124746E+02  0.10496095738E+03  0.90828206877E+02 0.  0.
         23    2    1    2    0    0  0.10947215325E+03  0.45479854361E+02 -0.11056501644E+03  0.18566296152E+03  0.90518191167E+02 0.  0.
        -13    1    3    3    0    0  0.14166394938E+02  0.57513104845E+02  0.10491331341E+02  0.60154068922E+02  0.00000000000E+00 0.  1.
         13    1    3    3    0    0 -0.14783249080E+02 -0.13929555826E+02 -0.39938456086E+02  0.44806888460E+02  0.00000000000E+00 0. -1.
        -13    1    4    4    0    0  0.41737346240E+02 -0.20415338168E+02 -0.67175325673E+02  0.81678127323E+02  0.00000000000E+00 0. -1.
         13    1    4    4    0    0  0.67734807012E+02  0.65895192529E+02 -0.43389690762E+02  0.10398483420E+03  0.00000000000E+00 0.  1.
         21    1    1    2  503  502 -0.24996238091E+02 -0.78882914704E+02 -0.39961274242E+03  0.40809027194E+03  0.00000000000E+00 0.  1.
         -1    1    1    2    0  503 -0.83859061020E+02 -0.10180488676E+02 -0.46335886757E+03  0.47099620446E+03  0.00000000000E+00 0.  1.
<scales pt_clust_5="13000.00000" pt_clust_6="13000.00000" pt_clust_7="13000.00000" pt_clust_8="13000.00000" pt_clust_9="82.74857" pt_clust_10="115.66765"></scales>
<clustering>
<clus scale="   82.749">  2  9  1 -1</clus>
<clus scale="   90.518">  7  8 -1 -1</clus>
<clus scale="   90.828">  5  6 -1 -1</clus>
<clus scale="   97.683">  1  5  2 -1</clus>
<clus scale="  115.668">  2 10  1 -1</clus>
<clus scale="   82.749">  2  5  1 -1</clus>
</clustering>
</event>
<event>
10    2  0.1671105E-006  0.1074934E+03  0.7546771E-02  0.1267355E+00
         21   -1    0    0  501  502  0.00000000000E+00  0.00000000000E+00  0.24508718399E+03  0.24508718399E+03  0.00000000000E+00 0.  1.
          4   -1    0    0  503    0 -0.00000000000E+00 -0.00000000000E+00 -0.21300952354E+03  0.21300952354E+03  0.00000000000E+00 0. -1.
         23    2    1    2    0    0 -0.32080609362E+02 -0.38357104504E+02 -0.14945330668E+03  0.18369760238E+03  0.94382653496E+02 0.  0.
         23    2    1    2    0    0  0.18072782242E+02  0.58217672337E+02  0.27537222147E+02  0.11174764494E+03  0.89517119683E+02 0.  0.
        -11    1    3    3    0    0 -0.96352254833E+01 -0.68091215635E+02 -0.85982800909E+02  0.11010128641E+03  0.00000000000E+00 0. -1.
         11    1    3    3    0    0 -0.22445383878E+02  0.29734111131E+02 -0.63470505771E+02  0.73596315974E+02  0.00000000000E+00 0.  1.
        -11    1    4    4    0    0  0.22019443332E+02  0.79366984722E+02  0.34261872700E+02  0.89206782643E+02  0.00000000000E+00 0.  1.
         11    1    4    4    0    0 -0.39466610896E+01 -0.21149312386E+02 -0.67246505533E+01  0.22540862299E+02  0.00000000000E+00 0. -1.
         21    1    1    2  503  502  0.17360928592E+02  0.10924800865E+02  0.76419567720E+02  0.79124607083E+02  0.00000000000E+00 0.  1.
          4    1    1    2  501    0 -0.33531014724E+01 -0.30785368697E+02  0.77574177264E+02  0.83526853128E+02  0.00000000000E+00 0. -1.
<scales pt_clust_5="13000.00000" pt_clust_6="13000.00000" pt_clust_7="13000.00000" pt_clust_8="13000.00000" pt_clust_9="20.51227" pt_clust_10="26.01189"></scales>
<clustering>
<clus scale="   20.512">  1  9  2 -1</clus>
<clus scale="   26.012">  1 10  2 -1</clus>
<clus scale="   89.517">  7  8 -1 -1</clus>
<clus scale="   94.383">  5  6 -1 -1</clus>
<clus scale="  103.248">  1  7  2 -1</clus>
<clus scale="   20.512">  1  5  2 -1</clus>
</clustering>
</event>
<event>
10    2  0.1671105E-006  0.2369674E+03  0.7546771E-02  0.1121970E+00
         21   -1    0    0  503  502  0.00000000000E+00  0.00000000000E+00  0.12984388282E+04  0.12984388282E+04  0.00000000000E+00 0.  1.
         -1   -1    0    0    0  501 -0.00000000000E+00 -0.00000000000E+00 -0.52401726363E+03  0.52401726363E+03  0.00000000000E+00 0.  1.
         23    2    1    2    0    0  0.14398042146E+03 -0.17912517417E+03 -0.41004452340E+03  0.47893009026E+03  0.91767806972E+02 0.  0.
         23    2    1    2    0    0  0.87537198739E+02  0.20585938365E+03  0.23713189611E+03  0.33924252847E+03  0.93878165560E+02 0.  0.
        -11    1    3    3    0    0  0.39431765543E+02 -0.89889628461E+02 -0.10173698805E+03  0.14136981352E+03  0.00000000000E+00 0. -1.
         11    1    3    3    0    0  0.10454865592E+03 -0.89235545707E+02 -0.30830753535E+03  0.33756027673E+03  0.00000000000E+00 0.  1.
        -13    1    4    4    0    0  0.97230296946E+02  0.16208188881E+03  0.15017342174E+03  0.24140490037E+03  0.00000000000E+00 0.  1.
         13    1    4    4    0    0 -0.96930982068E+01  0.43777494835E+02  0.86958474371E+02  0.97837628097E+02  0.00000000000E+00 0. -1.
         21    1    1    2  503  501  0.36711810530E+02 -0.14834271791E+02  0.33637916404E+02  0.51955000452E+02  0.00000000000E+00 0.  1.
         -1    1    1    2    0  502 -0.26822943073E+03 -0.11899937690E+02  0.91369627548E+03  0.95232847267E+03  0.00000000000E+00 0.  1.
<scales pt_clust_5="13000.00000" pt_clust_6="13000.00000" pt_clust_7="13000.00000" pt_clust_8="13000.00000" pt_clust_9="39.59561" pt_clust_10="242.03841"></scales>
<clustering>
<clus scale="   39.596">  1  9  2 -1</clus>
<clus scale="   91.768">  5  6 -1 -1</clus>
<clus scale="   93.878">  7  8 -1 -1</clus>
<clus scale="  242.038">  1 10  2 -1</clus>
<clus scale="  236.139">  2  5  1 -1</clus>
<clus scale="   39.596">  1  5  2 -1</clus>
</clustering>
</event>
<event>
10    2  0.1671105E-006  0.2125246E+03  0.7546771E-02  0.1162624E+00
          2   -1    0    0  502    0 -0.00000000000E+00  0.00000000000E+00  0.14223048080E+04  0.14223048080E+04  0.00000000000E+00 0. -1.
         21   -1    0    0  503  502  0.00000000000E+00 -0.00000000000E+00 -0.66545675681E+02  0.66545675681E+02  0.00000000000E+00 0.  1.
         23    2    1    2    0    0  0.15762289780E+02  0.81524064584E+02  0.47037761466E+03  0.48625342388E+03  0.91064092654E+02 0.  0.
         23    2    1    2    0    0 -0.19594733186E+03 -0.65007734597E+01  0.23253082068E+03  0.31742778188E+03  0.90841605116E+02 0.  0.
        -11    1    4    4    0    0 -0.15959653936E+03  0.28528686469E+02  0.15111878198E+03  0.22163444587E+03  0.00000000000E+00 0.  1.
         11    1    4    4    0    0 -0.36350792504E+02 -0.35029459929E+02  0.81412038697E+02  0.95793336007E+02  0.00000000000E+00 0. -1.
        -11    1    3    3    0    0  0.37201100223E+02  0.91949189439E+02  0.38991941903E+03  0.40233782899E+03  0.00000000000E+00 0.  1.
         11    1    3    3    0    0 -0.21438810443E+02 -0.10425124855E+02  0.80458195632E+02  0.83915594891E+02  0.00000000000E+00 0. -1.
         21    1    1    2  503  501  0.66475107251E+02  0.66518876321E+01  0.24567854396E+03  0.25459994983E+03  0.00000000000E+00 0.  1.
          2    1    1    2  501    0  0.11370993483E+03 -0.81675178757E+02  0.40717215300E+03  0.43056932808E+03  0.00000000000E+00 0. -1.
<scales pt_clust_5="13000.00000" pt_clust_6="13000.00000" pt_clust_7="13000.00000" pt_clust_8="13000.00000" pt_clust_9="49.56239" pt_clust_10="205.09101"></scales>
<clustering>
<clus scale="   49.562">  9 10 -1 -1</clus>
<clus scale="   90.842">  5  6 -1 -1</clus>
<clus scale="   91.064">  7  8 -1 -1</clus>
<clus scale="  123.237">  1  7  2 -1</clus>
<clus scale="  205.091">  2  9  1 -1</clus>
<clus scale="  205.091">  2  5  1 -1</clus>
</clustering>
</event>
<event>
10    2  0.1671105E-006  0.1261698E+03  0.7546771E-02  0.1233662E+00
         21   -1    0    0  501  502  0.00000000000E+00  0.00000000000E+00  0.48232081937E+03  0.48232081937E+03  0.00000000000E+00 0. -1.
         -1   -1    0    0    0  501 -0.00000000000E+00 -0.00000000000E+00 -0.10043825807E+03  0.10043825807E+03  0.00000000000E+00 0.  1.
         23    2    1    2    0    0  0.78891943677E+02  0.35377176915E+02 -0.17198910990E+02  0.12745423437E+03  0.92050507312E+02 0.  0.
         23    2    1    2    0    0 -0.62475130681E+02 -0.65934873096E+02  0.13049827949E+03  0.18299781151E+03  0.90597177798E+02 0.  0.
        -13    1    3    3    0    0  0.98495133123E+02  0.20259693833E+02 -0.73964288078E+01  0.10082883319E+03  0.00000000000E+00 0.  1.
         13    1    3    3    0    0 -0.19603189446E+02  0.15117483082E+02 -0.98024821822E+01  0.26625401182E+02  0.00000000000E+00 0. -1.
        -13    1    4    4    0    0 -0.49476312529E+02 -0.87840248749E+02  0.11600562302E+03  0.15369163729E+03  0.00000000000E+00 0. -1.
         13    1    4    4    0    0 -0.12998818152E+02  0.21905375653E+02  0.14492656470E+02  0.29306174219E+02  0.00000000000E+00 0.  1.
         21    1    1    2  503  502  0.50361886101E+01  0.20450601918E+02  0.11714725528E+03  0.11902550035E+03  0.00000000000E+00 0.  1.
         -1    1    1    2    0  503 -0.21453001605E+02  0.10107094263E+02  0.15143593752E+03  0.15328153120E+03  0.00000000000E+00 0.  1.
<scales pt_clust_5="13000.00000" pt_clust_6="13000.00000" pt_clust_7="13000.00000" pt_clust_8="13000.00000" pt_clust_9="21.06158" pt_clust_10="26.88002"></scales>
<clustering>
<clus scale="   21.062">  1  9  2 -1</clus>
<clus scale="   26.880">  1 10  2 -1</clus>
<clus scale="   90.597">  7  8 -1 -1</clus>
<clus scale="   92.051">  5  6 -1 -1</clus>
<clus scale="  125.113">  1  7  2 -1</clus>
<clus scale="   21.062">  1  5  2 -1</clus>
</clustering>
</event>
<event>
10    2  0.1671105E-006  0.9428551E+02  0.7546771E-02  0.1292804E+00
         21   -1    0    0  501  502  0.00000000000E+00  0.00000000000E+00  0.18384405629E+03  0.18384405629E+03  0.00000000000E+00 0. -1.
          1   -1    0    0  503    0 -0.00000000000E+00 -0.00000000000E+00 -0.29978111386E+03  0.29978111386E+03  0.00000000000E+00 0. -1.
         23    2    1    2    0    0  0.12366717868E+02 -0.29764706280E+02 -0.24531777378E+03  0.26328514257E+03  0.89996570578E+02 0.  0.
         23    2    1    2    0    0 -0.24143426157E+02 -0.10486378343E+02  0.21213476041E+02  0.96119315204E+02  0.89978008603E+02 0.  0.
        -11    1    4    4    0    0 -0.22940708303E+02 -0.35866989264E+02 -0.20517127961E+02  0.47261713427E+02  0.00000000000E+00 0. -1.
         11    1    4    4    0    0 -0.12027178544E+01  0.25380610921E+02  0.41730604002E+02  0.48857601777E+02  0.00000000000E+00 0.  1.
        -11    1    3    3    0    0 -0.22246700220E+02 -0.11069955797E+01 -0.11271166795E+02  0.24963579687E+02  0.00000000000E+00 0.  1.
         11    1    3    3    0    0  0.34613418088E+02 -0.28657710700E+02 -0.23404660699E+03  0.23832156289E+03  0.00000000000E+00 0. -1.
         21    1    1    2  503  502 -0.11676324032E+02  0.34833306371E+02  0.59543626668E+02  0.69965271760E+02  0.00000000000E+00 0. -1.
          1    1    1    2  501    0  0.23453032322E+02  0.54177782516E+01  0.48623613499E+02  0.54255440611E+02  0.00000000000E+00 0. -1.
<scales pt_clust_5="13000.00000" pt_clust_6="13000.00000" pt_clust_7="13000.00000" pt_clust_8="13000.00000" pt_clust_9="37.48352" pt_clust_10="24.07067"></scales>
<clustering>
<clus scale="   24.071">  1 10  2 -1</clus>
<clus scale="   37.484">  1  9  2 -1</clus>
<clus scale="   89.978">  5  6 -1 -1</clus>
<clus scale="   89.997">  7  8 -1 -1</clus>
<clus scale="   94.268">  1  5  2 -1</clus>
<clus scale="   24.071">  1  5  2 -1</clus>
</clustering>
</event>
<event>
10    2  0.1671105E-006  0.1425920E+03  0.7546771E-02  0.1230434E+00
         21   -1    0    0  503  502  0.00000000000E+00  0.00000000000E+00  0.38718576580E+03  0.38718576580E+03  0.00000000000E+00 0.  1.
         -1   -1    0    0    0  501 -0.00000000000E+00 -0.00000000000E+00 -0.62179469548E+03  0.62179469548E+03  0.00000000000E+00 0.  1.
         23    2    1    2    0    0 -0.78074658734E+02  0.75392187825E+02 -0.54835320092E+03  0.56643963937E+03  0.91558712121E+02 0.  0.
         23    2    1    2    0    0  0.27321819244E+01  0.37878778233E+02  0.24928180053E+03  0.26786242926E+03  0.90369233034E+02 0.  0.
        -11    1    3    3    0    0 -0.97235053828E+02  0.61894246000E+02 -0.49363370362E+03  0.50691201083E+03  0.00000000000E+00 0.  1.
         11    1    3    3    0    0  0.19160395094E+02  0.13497941826E+02 -0.54719497301E+02  0.59527628531E+02  0.00000000000E+00 0. -1.
        -13    1    4    4    0    0 -0.26146337964E+02  0.50541113380E+02  0.97942225591E+02  0.11327274467E+03  0.00000000000E+00 0.  1.
         13    1    4    4    0    0  0.28878519889E+02 -0.12662335146E+02  0.15133957493E+03  0.15458968460E+03  0.00000000000E+00 0. -1.
         21    1    1    2  503  501  0.80936103773E+02 -0.87445811781E+02  0.80473138370E+02  0.14378229686E+03  0.00000000000E+00 0.  1.
         -1    1    1    2    0  502 -0.55936269635E+01 -0.25825154278E+02 -0.16010667650E+02  0.30896095784E+02  0.00000000000E+00 0.  1.
<scales pt_clust_5="13000.00000" pt_clust_6="13000.00000" pt_clust_7="13000.00000" pt_clust_8="13000.00000" pt_clust_9="109.31367" pt_clust_10="26.42400"></scales>
<clustering>
<clus scale="   26.424">  1 10  2 -1</clus>
<clus scale="   90.369">  7  8 -1 -1</clus>
<clus scale="   91.559">  5  6 -1 -1</clus>
<clus scale="   92.626">  1  7  2 -1</clus>
<clus scale="  109.314">  1  9  2 -1</clus>
<clus scale="   26.424">  1  5  2 -1</clus>
</clustering>
</event>
<event>
10    2  0.1671105E-006  0.1115086E+03  0.7546771E-02  0.1262253E+00
         21   -1    0    0  501  502  0.00000000000E+00  0.00000000000E+00  0.10969734747E+03  0.10969734747E+03  0.00000000000E+00 0. -1.
          1   -1    0    0  503    0 -0.00000000000E+00 -0.00000000000E+00 -0.27178880471E+03  0.27178880471E+03  0.00000000000E+00 0. -1.
         23    2    1    2    0    0  0.40504280187E+02  0.10373342489E+02 -0.95723558844E+02  0.13889922161E+03  0.91552122308E+02 0.  0.
         23    2    1    2    0    0 -0.91436723707E+02  0.11084759246E+02 -0.46862029944E+02  0.13063363887E+03  0.79909645371E+02 0.  0.
        -11    1    3    3    0    0 -0.18478967916E+02 -0.14760494380E+02 -0.62209209486E+02  0.66553213254E+02  0.00000000000E+00 0.  1.
         11    1    3    3    0    0  0.58983248104E+02  0.25133836868E+02 -0.33514349358E+02  0.72346008359E+02  0.00000000000E+00 0. -1.
        -13    1    4    4    0    0  0.85976797909E+00 -0.22567103846E+02 -0.21134830510E+01  0.22682155708E+02  0.00000000000E+00 0.  1.
         13    1    4    4    0    0 -0.92296491686E+02  0.33651863092E+02 -0.44748546893E+02  0.10795148316E+03  0.00000000000E+00 0. -1.
         21    1    1    2  503  502  0.15646709223E+02  0.29187392018E+02 -0.35132270199E+02  0.48280428454E+02  0.00000000000E+00 0.  1.
          1    1    1    2  501    0  0.35285734296E+02 -0.50645493753E+02  0.15626401751E+02  0.63672863247E+02  0.00000000000E+00 0. -1.
<scales pt_clust_5="13000.00000" pt_clust_6="13000.00000" pt_clust_7="13000.00000" pt_clust_8="13000.00000" pt_clust_9="33.11681" pt_clust_10="60.23797"></scales>
<clustering>
<clus scale="   33.117">  2  9  1 -1</clus>
<clus scale="   60.238">  1 10  2 -1</clus>
<clus scale="   79.910">  7  8 -1 -1</clus>
<clus scale="   91.552">  5  6 -1 -1</clus>
<clus scale="  102.166">  1  7  2 -1</clus>
<clus scale="   60.238">  1  5  2 -1</clus>
</clustering>
</event>
<event>
10    2  0.1671105E-006  0.1051164E+03  0.7546771E-02  0.1272237E+00
         21   -1    0    0  503  502  0.00000000000E+00  0.00000000000E+00  0.64654745549E+02  0.64654745549E+02  0.00000000000E+00 0.  1.
         -1   -1    0    0    0  501 -0.00000000000E+00 -0.00000000000E+00 -0.63849821049E+03  0.63849821049E+03  0.00000000000E+00 0.  1.
         23    2    1    2    0    0 -0.24206786828E+02 -0.56786396427E+02 -0.44959849062E+03  0.46275927975E+03  0.90535544841E+02 0.  0.
         23    2    1    2    0    0  0.36560729292E+02  0.15615314498E+02 -0.10419049115E+03  0.14027100058E+03  0.85086839080E+02 0.  0.
        -11    1    3    3    0    0  0.25058045662E+02 -0.47467105682E+02 -0.30569091814E+03  0.31036747447E+03  0.00000000000E+00 0.  1.
         11    1    3    3    0    0 -0.49264832490E+02 -0.93192907456E+01 -0.14390757248E+03  0.15239180528E+03  0.00000000000E+00 0. -1.
        -13    1    4    4    0    0 -0.24114222770E+02  0.13672342613E+01 -0.76044377470E+01  0.25321780008E+02  0.00000000000E+00 0. -1.
         13    1    4    4    0    0  0.60674952062E+02  0.14248080237E+02 -0.96586053402E+02  0.11494922057E+03  0.00000000000E+00 0.  1.
         21    1    1    2  503  501 -0.27169190483E+02 -0.19562293134E+02 -0.16964986274E+02  0.37532106035E+02  0.00000000000E+00 0.  1.
         -1    1    1    2    0  502  0.14815248019E+02  0.60733375064E+02 -0.30894968937E+01  0.62590569669E+02  0.00000000000E+00 0.  1.
<scales pt_clust_5="13000.00000" pt_clust_6="13000.00000" pt_clust_7="13000.00000" pt_clust_8="13000.00000" pt_clust_9="33.47907" pt_clust_10="50.02941"></scales>
<clustering>
<clus scale="   33.479">  1  9  2 -1</clus>
<clus scale="   50.029">  1 10  2 -1</clus>
<clus scale="   85.087">  7  8 -1 -1</clus>
<clus scale="   90.536">  5  6 -1 -1</clus>
<clus scale="  100.462">  1  7  2 -1</clus>
<clus scale="   33.479">  1  5  2 -1</clus>
</clustering>
</event>
<event>
10    2  0.1671105E-006  0.1902489E+03  0.7546771E-02  0.1158620E+00
         21   -1    0    0  501  502  0.00000000000E+00  0.00000000000E+00  0.65603028976E+02  0.65603028976E+02  0.00000000000E+00 0.  1.
          2   -1    0    0  503    0 -0.00000000000E+00 -0.00000000000E+00 -0.12746576664E+04  0.12746576664E+04  0.00000000000E+00 0. -1.
         23    2    1    2    0    0  0.11899082601E+03  0.91759580935E+02 -0.57300816624E+03  0.59962751021E+03  0.92930915514E+02 0.  0.
         23    2    1    2    0    0 -0.60803978614E+02 -0.19801344772E+03 -0.32458070420E+03  0.39528887005E+03  0.89410334718E+02 0.  0.
        -11    1    4    4    0    0 -0.44889450545E+02 -0.26465264140E+02 -0.58961953100E+02  0.78689166279E+02  0.00000000000E+00 0. -1.
         11    1    4    4    0    0 -0.15914528069E+02 -0.17154818358E+03 -0.26561875110E+03  0.31659970377E+03  0.00000000000E+00 0.  1.
        -11    1    3    3    0    0  0.76867398589E+02  0.12211491997E+02 -0.17434810892E+03  0.19093187421E+03  0.00000000000E+00 0.  1.
         11    1    3    3    0    0  0.42123427423E+02  0.79548088939E+02 -0.39866005732E+03  0.40869563601E+03  0.00000000000E+00 0. -1.
         21    1    1    2  503  502  0.15512674119E+02  0.15540266426E+02 -0.11221695056E+03  0.11434503458E+03  0.00000000000E+00 0.  1.
          2    1    1    2  501    0 -0.73699521517E+02  0.90713600356E+02 -0.19924881642E+03  0.23099928053E+03  0.00000000000E+00 0. -1.
<scales pt_clust_5="13000.00000" pt_clust_6="13000.00000" pt_clust_7="13000.00000" pt_clust_8="13000.00000" pt_clust_9="21.95775" pt_clust_10="117.37046"></scales>
<clustering>
<clus scale="   21.958">  2  9  1 -1</clus>
<clus scale="   89.410">  5  6 -1 -1</clus>
<clus scale="   92.931">  7  8 -1 -1</clus>
<clus scale="  117.370">  1 10  2 -1</clus>
<clus scale="  188.554">  1  5  2 -1</clus>
<clus scale="  117.370">  1  5  2 -1</clus>
</clustering>
</event>
<event>
10    2  0.1671105E-006  0.2164037E+03  0.7546771E-02  0.1136625E+00
          2   -1    0    0  502    0 -0.00000000000E+00  0.00000000000E+00  0.74071769701E+03  0.74071769701E+03  0.00000000000E+00 0. -1.
         21   -1    0    0  503  502  0.00000000000E+00 -0.00000000000E+00 -0.12363798606E+03  0.12363798606E+03  0.00000000000E+00 0.  1.
         23    2    1    2    0    0 -0.24245992222E+03  0.27946097022E+00  0.32978063301E+03  0.41981818632E+03  0.93301402292E+02 0.  0.
         23    2    1    2    0    0  0.12923246951E+03  0.42508752838E+02  0.49867109052E+02  0.17212307163E+03  0.92906393646E+02 0.  0.
        -11    1    4    4    0    0  0.41128305413E+02  0.26393249717E+02 -0.25450125767E+02  0.55098548423E+02  0.00000000000E+00 0.  1.
         11    1    4    4    0    0  0.88104164096E+02  0.16115503121E+02  0.75317234820E+02  0.11702452321E+03  0.00000000000E+00 0. -1.
        -13    1    3    3    0    0 -0.46333835588E+02  0.49885668484E+01  0.13724402137E+03  0.14494009632E+03  0.00000000000E+00 0. -1.
         13    1    3    3    0    0 -0.19612608664E+03 -0.47091058782E+01  0.19253661164E+03  0.27487808999E+03  0.00000000000E+00 0.  1.
         21    1    1    2  503  501  0.17289337358E+02 -0.26024789885E+02  0.30276599686E+02  0.43507279430E+02  0.00000000000E+00 0.  1.
          2    1    1    2  501    0  0.95938115357E+02 -0.16763423923E+02  0.20715536920E+03  0.22890714569E+03  0.00000000000E+00 0. -1.
<scales pt_clust_5="13000.00000" pt_clust_6="13000.00000" pt_clust_7="13000.00000" pt_clust_8="13000.00000" pt_clust_9="31.24437" pt_clust_10="99.41319"></scales>
<clustering>
<clus scale="   31.244">  2  9  1 -1</clus>
<clus scale="   92.906">  5  6 -1 -1</clus>
<clus scale="   93.301">  7  8 -1 -1</clus>
<clus scale="   99.413">  2 10  1 -1</clus>
<clus scale="  216.234">  2  5  1 -1</clus>
<clus scale="   31.244">  2  5  1 -1</clus>
</clustering>
</event>
<event>
10    2  0.1671105E-006  0.1726019E+03  0.7546771E-02  0.1175437E+00
         -1   -1    0    0    0  501 -0.00000000000E+00  0.00000000000E+00  0.26510402923E+03  0.26510402923E+03  0.00000000000E+00 0.  1.
         21   -1    0    0  501  502  0.00000000000E+00 -0.00000000000E+00 -0.19239592198E+03  0.19239592198E+03  0.00000000000E+00 0. -1.
         23    2    1    2    0    0 -0.91851068645E+02  0.10614586333E+03  0.83141142633E+02  0.18761240832E+03  0.92641259931E+02 0.  0.
         23    2    1    2    0    0  0.90471019512E+02 -0.12880464722E+03 -0.37658244550E+02  0.18549078703E+03  0.90625858186E+02 0.  0.
        -13    1    4    4    0    0  0.56692413280E+02 -0.15606023269E+02 -0.32640971178E+02  0.67253332149E+02  0.00000000000E+00 0.  1.
         13    1    4    4    0    0  0.33778606232E+02 -0.11319862395E+03 -0.50172733720E+01  0.11823745488E+03  0.00000000000E+00 0. -1.
        -13    1    3    3    0    0 -0.84022316734E+02  0.85695120385E+02  0.10292252767E+03  0.15810265675E+03  0.00000000000E+00 0.  1.
         13    1    3    3    0    0 -0.78287519107E+01  0.20450742948E+02 -0.19781385041E+02  0.29509751570E+02  0.00000000000E+00 0. -1.
         21    1    1    2  503  502 -0.25291597300E+02 -0.21130420990E+01 -0.14335897094E+02  0.29148718435E+02  0.00000000000E+00 0. -1.
         -1    1    1    2    0  503  0.26671646433E+02  0.24771825988E+02  0.41561106265E+02  0.55248037434E+02  0.00000000000E+00 0.  1.
<scales pt_clust_5="13000.00000" pt_clust_6="13000.00000" pt_clust_7="13000.00000" pt_clust_8="13000.00000" pt_clust_9="25.37971" pt_clust_10="35.60557"></scales>
<clustering>
<clus scale="   25.380">  2  9  1 -1</clus>
<clus scale="   35.606">  2 10  1 -1</clus>
<clus scale="   90.626">  5  6 -1 -1</clus>
<clus scale="   92.641">  7  8 -1 -1</clus>
<clus scale="  171.529">  2  5  1 -1</clus>
<clus scale="   25.380">  2  5  1 -1</clus>
</clustering>
</event>
<event>
10    2  0.1671105E-006  0.2071950E+03  0.7546771E-02  0.1143986E+00
         21   -1    0    0  503  502  0.00000000000E+00  0.00000000000E+00  0.43512320820E+03  0.43512320820E+03  0.00000000000E+00 0. -1.
          2   -1    0    0  502    0 -0.00000000000E+00 -0.00000000000E+00 -0.46204249479E+03  0.46204249479E+03  0.00000000000E+00 0. -1.
         23    2    1    2    0    0  0.17133815686E+03 -0.24385403772E+02 -0.26698859297E+03  0.33116687563E+03  0.91854117084E+02 0.  0.
         23    2    1    2    0    0 -0.20263092697E+03  0.13999018670E+03 -0.30593050065E+02  0.26532367574E+03  0.93830556107E+02 0.  0.
        -11    1    3    3    0    0  0.79831814793E+02  0.23632072314E+02 -0.70229346634E+02  0.10892086404E+03  0.00000000000E+00 0. -1.
         11    1    3    3    0    0  0.91506342067E+02 -0.48017476085E+02 -0.19675924634E+03  0.22224601159E+03  0.00000000000E+00 0.  1.
        -13    1    4    4    0    0 -0.14991744970E+03  0.56650757186E+02  0.53843415886E+01  0.16035442354E+03  0.00000000000E+00 0.  1.
         13    1    4    4    0    0 -0.52713477268E+02  0.83339429512E+02 -0.35977391653E+02  0.10496925220E+03  0.00000000000E+00 0. -1.
         21    1    1    2  503  501  0.17784356477E+02 -0.74033122530E+02  0.22468610324E+03  0.23723623576E+03  0.00000000000E+00 0. -1.
          2    1    1    2  501    0  0.13508413630E+02 -0.41571660397E+02  0.45976253205E+02  0.63438915862E+02  0.00000000000E+00 0. -1.
<scales pt_clust_5="13000.00000" pt_clust_6="13000.00000" pt_clust_7="13000.00000" pt_clust_8="13000.00000" pt_clust_9="40.12000" pt_clust_10="130.94822"></scales>
<clustering>
<clus scale="   40.120">  9 10 -1 -1</clus>
<clus scale="   91.854">  5  6 -1 -1</clus>
<clus scale="   93.831">  7  8 -1 -1</clus>
<clus scale="  130.948">  1  9  2 -1</clus>
<clus scale="  206.307">  2  5  1 -1</clus>
<clus scale="  130.948">  1  5  2 -1</clus>
</clustering>
</event>
<event>
10    2  0.1671105E-006  0.1454208E+03  0.7546771E-02  0.1225212E+00
         21   -1    0    0  501  502  0.00000000000E+00  0.00000000000E+00  0.17428170288E+03  0.17428170288E+03  0.00000000000E+00 0. -1.
          1   -1    0    0  503    0 -0.00000000000E+00 -0.00000000000E+00 -0.33524582382E+03  0.33524582382E+03  0.00000000000E+00 0. -1.
         23    2    1    2    0    0 -0.20748122405E+00 -0.24555876936E+02 -0.18219649356E+03  0.20645758521E+03  0.93947528365E+02 0.  0.
         23    2    1    2    0    0  0.63124090937E+02 -0.31875304290E+02 -0.96902581731E+01  0.12940349486E+03  0.10793830413E+03 0.  0.
        -11    1    3    3    0    0 -0.27474262599E+02 -0.15524910682E+02 -0.11853680146E+02  0.33710053249E+02  0.00000000000E+00 0.  1.
         11    1    3    3    0    0  0.27266781375E+02 -0.90309662546E+01 -0.17034281341E+03  0.17274753196E+03  0.00000000000E+00 0. -1.
        -11    1    4    4    0    0  0.83796767459E+02 -0.50537899121E+02  0.48671066547E+01  0.97977886338E+02  0.00000000000E+00 0. -1.
         11    1    4    4    0    0 -0.20672676522E+02  0.18662594830E+02 -0.14557364828E+02  0.31425608524E+02  0.00000000000E+00 0.  1.
         21    1    1    2  503  502  0.39060891435E+02 -0.58467339929E+01  0.36866298231E+02  0.54028339631E+02  0.00000000000E+00 0. -1.
          1    1    1    2  501    0 -0.10197750115E+03  0.62277915219E+02 -0.59436674372E+01  0.11963810700E+03  0.00000000000E+00 0. -1.
<scales pt_clust_5="13000.00000" pt_clust_6="13000.00000" pt_clust_7="13000.00000" pt_clust_8="13000.00000" pt_clust_9="39.49604" pt_clust_10="97.45015"></scales>
<clustering>
<clus scale="   39.496">  1  9  2 -1</clus>
<clus scale="   93.948">  5  6 -1 -1</clus>
<clus scale="   97.306">  2  5  1 -1</clus>
<clus scale="   97.450">  1 10  2 -1</clus>
<clus scale="  107.938">  7  8 -1 -1</clus>
<clus scale="   39.496">  1  5  2 -1</clus>
</clustering>
</event>
<event>
10    2  0.1671105E-006  0.9828481E+02  0.7546771E-02  0.1288951E+00
         21   -1    0    0  501  502  0.00000000000E+00  0.00000000000E+00  0.10766221024E+03  0.10766221024E+03  0.00000000000E+00 0.  1.
          1   -1    0    0  503    0 -0.00000000000E+00 -0.00000000000E+00 -0.30520013452E+03  0.30520013452E+03  0.00000000000E+00 0. -1.
         23    2    1    2    0    0  0.31572665589E+02 -0.17605303356E+02 -0.19380988571E+03  0.21711140242E+03  0.90930244369E+02 0.  0.
         23    2    1    2    0    0 -0.12150104331E+02  0.49197825283E+02 -0.53608636965E+02  0.10977140341E+03  0.81288523190E+02 0.  0.
        -11    1    3    3    0    0  0.99789462494E+01  0.33168022012E+02 -0.36101600255E+02  0.50030216803E+02  0.00000000000E+00 0.  1.
         11    1    3    3    0    0  0.21593719339E+02 -0.50773325369E+02 -0.15770828546E+03  0.16708118562E+03  0.00000000000E+00 0. -1.
        -13    1    4    4    0    0  0.16146472070E+02  0.15756542381E+02 -0.61277517822E+02  0.65298632287E+02  0.00000000000E+00 0. -1.
         13    1    4    4    0    0 -0.28296576401E+02  0.33441282901E+02  0.76688808568E+01  0.44472771127E+02  0.00000000000E+00 0.  1.
         21    1    1    2  503  502 -0.39134120904E+02 -0.16161648155E+02  0.19501653403E+02  0.46615370593E+02  0.00000000000E+00 0.  1.
          1    1    1    2  501    0  0.19711559647E+02 -0.15430873772E+02  0.30378944995E+02  0.39364168327E+02  0.00000000000E+00 0. -1.
<scales pt_clust_5="13000.00000" pt_clust_6="13000.00000" pt_clust_7="13000.00000" pt_clust_8="13000.00000" pt_clust_9="38.04978" pt_clust_10="25.03313"></scales>
<clustering>
<clus scale="   25.033">  1 10  2 -1</clus>
<clus scale="   38.050">  1  9  2 -1</clus>
<clus scale="   81.289">  7  8 -1 -1</clus>
<clus scale="   89.439">  1  7  2 -1</clus>
<clus scale="   90.930">  5  6 -1 -1</clus>
<clus scale="   25.033">  1  5  2 -1</clus>
</clustering>
</event>
<event>
10    2  0.1671105E-006  0.2495307E+03  0.7546771E-02  0.1128649E+00
         21   -1    0    0  501  502  0.00000000000E+00  0.00000000000E+00  0.13843117371E+04  0.13843117371E+04  0.00000000000E+00 0.  1.
         -1   -1    0    0    0  501 -0.00000000000E+00 -0.00000000000E+00 -0.94699649908E+02  0.94699649908E+02  0.00000000000E+00 0.  1.
         23    2    1    2    0    0 -0.13181460147E+03 -0.59315426162E+02  0.33108262345E+03  0.37281939107E+03  0.92115068616E+02 0.  0.
         23    2    1    2    0    0  0.23793282367E+03  0.22481242205E+03  0.49247988572E+03  0.59851786576E+03  0.92382596324E+02 0.  0.
        -11    1    3    3    0    0 -0.37820236025E+02  0.70584782118E+01  0.17339663577E+03  0.17761358524E+03  0.00000000000E+00 0. -1.
         11    1    3    3    0    0 -0.93994365440E+02 -0.66373904373E+02  0.15768598768E+03  0.19520580582E+03  0.00000000000E+00 0.  1.
        -11    1    4    4    0    0  0.46663949788E+02  0.14394926112E+02  0.35825517611E+02  0.60565714887E+02  0.00000000000E+00 0. -1.
         11    1    4    4    0    0  0.19126887388E+03  0.21041749594E+03  0.45665436811E+03  0.53795215087E+03  0.00000000000E+00 0.  1.
         21    1    1    2  503  502 -0.58157635839E+02 -0.59458362697E+02  0.16179908931E+03  0.18192457998E+03  0.00000000000E+00 0.  1.
         -1    1    1    2    0  503 -0.47960586361E+02 -0.10603863319E+03  0.30425048874E+03  0.32574955023E+03  0.00000000000E+00 0.  1.
<scales pt_clust_5="13000.00000" pt_clust_6="13000.00000" pt_clust_7="13000.00000" pt_clust_8="13000.00000" pt_clust_9="36.65923" pt_clust_10="235.82092"></scales>
<clustering>
<clus scale="   36.659">  9 10 -1 -1</clus>
<clus scale="   92.115">  5  6 -1 -1</clus>
<clus scale="   92.383">  7  8 -1 -1</clus>
<clus scale="  171.402">  2  5  1 -1</clus>
<clus scale="  235.821">  1  9  2 -1</clus>
<clus scale="  235.821">  1  5  2 -1</clus>
</clustering>
</event>
<event>
10    2  0.1671105E-006  0.9489812E+02  0.7546771E-02  0.1291505E+00
          2   -1    0    0  503    0 -0.00000000000E+00  0.00000000000E+00  0.70386319025E+03  0.70386319025E+03  0.00000000000E+00 0. -1.
         21   -1    0    0  501  502  0.00000000000E+00 -0.00000000000E+00 -0.27836514745E+02  0.27836514745E+02  0.00000000000E+00 0.  1.
         23    2    1    2    0    0  0.84649915143E+01  0.16945038646E+02  0.33276514863E+03  0.34560609897E+03  0.91390049162E+02 0.  0.
         23    2    1    2    0    0 -0.45068552956E+02  0.81877369885E+01  0.29639550044E+03  0.31358265384E+03  0.91572783111E+02 0.  0.
        -13    1    3    3    0    0 -0.39029972080E+02 -0.74453206329E+01  0.13070938012E+03  0.13661520256E+03  0.00000000000E+00 0.  1.
         13    1    3    3    0    0  0.47494963594E+02  0.24390359279E+02  0.20205576851E+03  0.20899089640E+03  0.00000000000E+00 0. -1.
        -13    1    4    4    0    0 -0.24093406598E+02 -0.41288767998E+02  0.15977113878E+03  0.16676951578E+03  0.00000000000E+00 0. -1.
         13    1    4    4    0    0 -0.20975146358E+02  0.49476504986E+02  0.13662436166E+03  0.14681313807E+03  0.00000000000E+00 0.  1.
         21    1    1    2  503  502  0.24297059638E+02  0.31153599135E+01  0.21765797186E+02  0.32768925854E+02  0.00000000000E+00 0. -1.
          2    1    1    2  501    0  0.12306501803E+02 -0.28248135548E+02  0.25100229251E+02  0.39742026333E+02  0.00000000000E+00 0. -1.
<scales pt_clust_5="13000.00000" pt_clust_6="13000.00000" pt_clust_7="13000.00000" pt_clust_8="13000.00000" pt_clust_9="24.49597" pt_clust_10="33.94412"></scales>
<clustering>
<clus scale="   24.496">  2  9  1 -1</clus>
<clus scale="   33.944">  2 10  1 -1</clus>
<clus scale="   91.390">  5  6 -1 -1</clus>
<clus scale="   91.573">  7  8 -1 -1</clus>
<clus scale="   94.722">  1  5  2 -1</clus>
<clus scale="   24.496">  2  5  1 -1</clus>
</clustering>
</event>
<event>
10    2  0.1671105E-006  0.2985423E+03  0.7546771E-02  0.1086022E+00
          1   -1    0    0  503    0 -0.00000000000E+00  0.00000000000E+00  0.18329703217E+04  0.18329703217E+04  0.00000000000E+00 0. -1.
         21   -1    0    0  501  502  0.00000000000E+00 -0.00000000000E+00 -0.17400879664E+03  0.17400879664E+03  0.00000000000E+00 0. -1.
         23    2    1    2    0    0  0.18495629788E+03 -0.23770885013E+03  0.13210307685E+04  0.13580727839E+04  0.92331280304E+02 0.  0.
         23    2    1    2    0    0 -0.16829411408E+03  0.18522498072E+03  0.44774743873E+03  0.52095545622E+03  0.91025359989E+02 0.  0.
        -11    1    3    3    0    0  0.15849151212E+03 -0.19221102658E+03  0.12075325063E+04  0.12329636621E+04  0.00000000000E+00 0. -1.
         11    1    3    3    0    0  0.26464785761E+02 -0.45497823554E+02  0.11349826220E+03  0.12510912180E+03  0.00000000000E+00 0.  1.
        -13    1    4    4    0    0 -0.48804978497E+02  0.64449954210E+02  0.23607745890E+03  0.24953614794E+03  0.00000000000E+00 0. -1.
         13    1    4    4    0    0 -0.11948913559E+03  0.12077502651E+03  0.21166997982E+03  0.27141930829E+03  0.00000000000E+00 0.  1.
         21    1    1    2  503  502 -0.58129953227E+01  0.31016410976E+02 -0.26424169354E+02  0.41158782665E+02  0.00000000000E+00 0. -1.
          1    1    1    2  501    0 -0.10849188473E+02  0.21467458434E+02 -0.83392512830E+02  0.86792095597E+02  0.00000000000E+00 0. -1.
<scales pt_clust_5="13000.00000" pt_clust_6="13000.00000" pt_clust_7="13000.00000" pt_clust_8="13000.00000" pt_clust_9="40.41525" pt_clust_10="24.05320"></scales>
<clustering>
<clus scale="   24.053">  2 10  1 -1</clus>
<clus scale="   40.415">  2  9  1 -1</clus>
<clus scale="   91.025">  7  8 -1 -1</clus>
<clus scale="   92.331">  5  6 -1 -1</clus>
<clus scale="  298.141">  2  7  1 -1</clus>
<clus scale="   24.053">  2  5  1 -1</clus>
</clustering>
</event>
<event>
10    2  0.1671105E-006  0.1323833E+03  0.7546771E-02  0.1235346E+00
         21   -1    0    0  501  502  0.00000000000E+00  0.00000000000E+00  0.51817280401E+02  0.51817280401E+02  0.00000000000E+00 0. -1.
          2   -1    0    0  503    0 -0.00000000000E+00 -0.00000000000E+00 -0.79344450696E+03  0.79344450696E+03  0.00000000000E+00 0. -1.
         23    2    1    2    0    0 -0.65365795400E+02 -0.40929465297E+01 -0.33732660500E+03  0.35484367411E+03  0.88517541715E+02 0.  0.
         23    2    1    2    0    0 -0.24310453842E+02 -0.70385921048E+02 -0.26536679127E+03  0.29034424135E+03  0.91296596466E+02 0.  0.
        -13    1    4    4    0    0 -0.52904637670E+02 -0.55103528277E+02 -0.12677674049E+03  0.14801230167E+03  0.00000000000E+00 0.  1.
         13    1    4    4    0    0  0.28594183828E+02 -0.15282392771E+02 -0.13859005078E+03  0.14233193968E+03  0.00000000000E+00 0. -1.
        -13    1    3    3    0    0 -0.84130211010E+02 -0.18489322182E+02 -0.25289842005E+03  0.26716541375E+03  0.00000000000E+00 0. -1.
         13    1    3    3    0    0  0.18764415610E+02  0.14396375652E+02 -0.84428184948E+02  0.87678260354E+02  0.00000000000E+00 0.  1.
         21    1    1    2  503  502  0.20533570837E+02 -0.40541760435E+01 -0.74060870493E+02  0.76961525536E+02  0.00000000000E+00 0. -1.
          2    1    1    2  501    0  0.69142678404E+02  0.78533043622E+02 -0.64872959797E+02  0.12311234638E+03  0.00000000000E+00 0. -1.
<scales pt_clust_5="13000.00000" pt_clust_6="13000.00000" pt_clust_7="13000.00000" pt_clust_8="13000.00000" pt_clust_9="20.92998" pt_clust_10="95.86586"></scales>
<clustering>
<clus scale="   20.930">  2  9  1 -1</clus>
<clus scale="   88.518">  7  8 -1 -1</clus>
<clus scale="   91.297">  5  6 -1 -1</clus>
<clus scale="  104.635">  2  7  1 -1</clus>
<clus scale="   95.866">  1 10  2 -1</clus>
<clus scale="   95.866">  1  5  2 -1</clus>
</clustering>
</event>
<event>
10    2  0.1671105E-006  0.9760509E+02  0.7546771E-02  0.1287333E+00
         21   -1    0    0  503  502  0.00000000000E+00  0.00000000000E+00  0.14452132842E+03  0.14452132842E+03  0.00000000000E+00 0. -1.
         -1   -1    0    0    0  501 -0.00000000000E+00 -0.00000000000E+00 -0.23359154414E+03  0.23359154414E+03  0.00000000000E+00 0.  1.
         23    2    1    2    0    0  0.25761949438E+02 -0.35808059227E+02 -0.71866102330E+02  0.12482206788E+03  0.92032151023E+02 0.  0.
         23    2    1    2    0    0  0.64919702178E+02 -0.11567617941E+02 -0.39788988168E+02  0.12274245979E+03  0.95572853568E+02 0.  0.
        -13    1    3    3    0    0 -0.16444183778E+01 -0.55776434725E+02 -0.13643111898E+02  0.57444314642E+02  0.00000000000E+00 0. -1.
         13    1    3    3    0    0  0.27406367816E+02  0.19968375498E+02 -0.58222990431E+02  0.67377753240E+02  0.00000000000E+00 0.  1.
        -13    1    4    4    0    0 -0.16373478544E+02  0.19480919422E+02 -0.22612249437E+02  0.34042779642E+02  0.00000000000E+00 0.  1.
         13    1    4    4    0    0  0.81293180722E+02 -0.31048537362E+02 -0.17176738731E+02  0.88699680144E+02  0.00000000000E+00 0. -1.
         21    1    1    2  503  501 -0.77331757779E+02  0.16122169239E+02 -0.14425993699E+02  0.80300899100E+02  0.00000000000E+00 0.  1.
         -1    1    1    2    0  502 -0.13349893838E+02  0.31253507929E+02  0.37010868475E+02  0.50247445792E+02  0.00000000000E+00 0.  1.
<scales pt_clust_5="13000.00000" pt_clust_6="13000.00000" pt_clust_7="13000.00000" pt_clust_8="13000.00000" pt_clust_9="85.82700" pt_clust_10="33.98531"></scales>
<clustering>
<clus scale="   33.985">  1 10  2 -1</clus>
<clus scale="   85.827">  1  9  2 -1</clus>
<clus scale="   92.032">  5  6 -1 -1</clus>
<clus scale="   94.141">  2  5  1 -1</clus>
<clus scale="   95.573">  7  8 -1 -1</clus>
<clus scale="   33.985">  1  5  2 -1</clus>
</clustering>
</event>
<event>
10    2  0.1671105E-006  0.1275786E+03  0.7546771E-02  0.1236788E+00
         21   -1    0    0  501  502  0.00000000000E+00  0.00000000000E+00  0.27450099288E+03  0.27450099288E+03  0.00000000000E+00 0.  1.
         -1   -1    0    0    0  501 -0.00000000000E+00 -0.00000000000E+00 -0.14638696992E+03  0.14638696992E+03  0.00000000000E+00 0.  1.
         23    2    1    2    0    0 -0.59677825962E+02  0.34262557481E+02 -0.68621609561E+02  0.14495658330E+03  0.10755519507E+03 0.  0.
         23    2    1    2    0    0  0.26513701550E+02 -0.81420182311E+02  0.16441720101E+03  0.20625795937E+03  0.90427359578E+02 0.  0.
        -11    1    3    3    0    0  0.82724590202E+00 -0.24908143165E+02  0.12364778571E+02  0.27820634084E+02  0.00000000000E+00 0. -1.
         11    1    3    3    0    0 -0.60505071864E+02  0.59170700647E+02 -0.80986388132E+02  0.11713594922E+03  0.00000000000E+00 0.  1.
        -13    1    4    4    0    0 -0.32970677930E+02 -0.39719936781E+02  0.61666809937E+02  0.80420982516E+02  0.00000000000E+00 0.  1.
         13    1    4    4    0    0  0.59484379480E+02 -0.41700245530E+02  0.10275039107E+03  0.12583697686E+03  0.00000000000E+00 0. -1.
         21    1    1    2  503  502  0.10565648986E+02  0.24715984179E+02  0.25609164486E+02  0.37126030196E+02  0.00000000000E+00 0.  1.
         -1    1    1    2    0  503  0.22598475426E+02  0.22441640651E+02  0.67092670270E+01  0.32547389921E+02  0.00000000000E+00 0.  1.
<scales pt_clust_5="13000.00000" pt_clust_6="13000.00000" pt_clust_7="13000.00000" pt_clust_8="13000.00000" pt_clust_9="20.25709" pt_clust_10="61.72442"></scales>
<clustering>
<clus scale="   20.257">  9 10 -1 -1</clus>
<clus scale="   61.724">  1  9  2 -1</clus>
<clus scale="   90.427">  7  8 -1 -1</clus>
<clus scale="  107.555">  5  6 -1 -1</clus>
<clus scale="  113.513">  1  7  2 -1</clus>
<clus scale="   61.724">  1  5  2 -1</clus>
</clustering>
</event>
<event>
10    2  0.1671105E-006  0.1003815E+03  0.7546771E-02  0.1280313E+00
         -1   -1    0    0    0  501 -0.00000000000E+00  0.00000000000E+00  0.39732905057E+03  0.39732905057E+03  0.00000000000E+00 0.  1.
         21   -1    0    0  503  502  0.00000000000E+00 -0.00000000000E+00 -0.51102969170E+02  0.51102969170E+02  0.00000000000E+00 0. -1.
         23    2    1    2    0    0 -0.31000737967E+02 -0.11163766201E+02  0.12549152223E+03  0.15874659846E+03  0.91469584782E+02 0.  0.
         23    2    1    2    0    0  0.37456045218E+02  0.21315610626E+02  0.11248623938E+03  0.15226881698E+03  0.93141440808E+02 0.  0.
        -11    1    3    3    0    0 -0.56237680902E+02  0.56820363609E+01  0.43512298409E+02  0.71332197522E+02  0.00000000000E+00 0. -1.
         11    1    3    3    0    0  0.25236942936E+02 -0.16845802562E+02  0.81979223822E+02  0.87414400937E+02  0.00000000000E+00 0.  1.
        -13    1    4    4    0    0  0.22932360698E+02  0.58217961275E+02  0.75292307064E+02  0.97898701142E+02  0.00000000000E+00 0.  1.
         13    1    4    4    0    0  0.14523684520E+02 -0.36902350649E+02  0.37193932315E+02  0.54370115840E+02  0.00000000000E+00 0. -1.
         21    1    1    2  503  501 -0.92377859531E+01 -0.44158203880E+02  0.36727102216E+02  0.58173565271E+02  0.00000000000E+00 0. -1.
         -1    1    1    2    0  502  0.27824787016E+01  0.34006359455E+02  0.71521217577E+02  0.79243039030E+02  0.00000000000E+00 0.  1.
<scales pt_clust_5="13000.00000" pt_clust_6="13000.00000" pt_clust_7="13000.00000" pt_clust_8="13000.00000" pt_clust_9="37.44179" pt_clust_10="34.12002"></scales>
<clustering>
<clus scale="   34.120">  2 10  1 -1</clus>
<clus scale="   37.442">  2  9  1 -1</clus>
<clus scale="   91.470">  5  6 -1 -1</clus>
<clus scale="   93.141">  7  8 -1 -1</clus>
<clus scale="   98.832">  1  5  2 -1</clus>
<clus scale="   34.120">  2  5  1 -1</clus>
</clustering>
</event>
<event>
10    2  0.1671105E-006  0.1495316E+03  0.7546771E-02  0.1202447E+00
          2   -1    0    0  503    0 -0.00000000000E+00  0.00000000000E+00  0.39092463128E+03  0.39092463128E+03  0.00000000000E+00 0. -1.
         21   -1    0    0  501  502  0.00000000000E+00 -0.00000000000E+00 -0.28256069684E+03  0.28256069684E+03  0.00000000000E+00 0. -1.
         23    2    1    2    0    0 -0.27293901060E+02  0.12034640195E+03  0.32248783464E+03  0.35739137730E+03  0.92206179730E+02 0.  0.
         23    2    1    2    0    0 -0.12623866323E+02 -0.78974361758E+02 -0.10650058621E+03  0.15788479448E+03  0.84787508791E+02 0.  0.
        -13    1    3    3    0    0 -0.26202543204E+02  0.71964883630E+02  0.28788781572E+03  0.29790084287E+03  0.00000000000E+00 0. -1.
         13    1    3    3    0    0 -0.10913578560E+01  0.48381518317E+02  0.34600018918E+02  0.59490534422E+02  0.00000000000E+00 0.  1.
        -13    1    4    4    0    0  0.30366640369E+02 -0.54112997929E+02 -0.36283762296E+02  0.71880879227E+02  0.00000000000E+00 0.  1.
         13    1    4    4    0    0 -0.42990506692E+02 -0.24861363829E+02 -0.70216823918E+02  0.86003915249E+02  0.00000000000E+00 0. -1.
         21    1    1    2  503  502 -0.22201758519E+02  0.15919215632E+02 -0.10001623543E+02  0.29092472930E+02  0.00000000000E+00 0. -1.
          2    1    1    2  501    0  0.62119525902E+02 -0.57291255821E+02 -0.97621690443E+02  0.12911668342E+03  0.00000000000E+00 0. -1.
<scales pt_clust_5="13000.00000" pt_clust_6="13000.00000" pt_clust_7="13000.00000" pt_clust_8="13000.00000" pt_clust_9="27.31921" pt_clust_10="72.83269"></scales>
<clustering>
<clus scale="   27.319">  2  9  1 -1</clus>
<clus scale="   72.833">  2 10  1 -1</clus>
<clus scale="   84.788">  7  8 -1 -1</clus>
<clus scale="   92.206">  5  6 -1 -1</clus>
<clus scale="  145.075">  2  7  1 -1</clus>
<clus scale="   27.319">  2  5  1 -1</clus>
</clustering>
</event>
<event>
10    2  0.1671105E-006  0.1238965E+03  0.7546771E-02  0.1238143E+00
         21   -1    0    0  503  502  0.00000000000E+00  0.00000000000E+00  0.38486398000E+02  0.38486398000E+02  0.00000000000E+00 0.  1.
         -2   -1    0    0    0  501 -0.00000000000E+00 -0.00000000000E+00 -0.83248158837E+03  0.83248158837E+03  0.00000000000E+00 0.  1.
         23    2    1    2    0    0 -0.37928924377E+02 -0.53037583755E+02 -0.27645158404E+03  0.29814187402E+03  0.90617383163E+02 0.  0.
         23    2    1    2    0    0  0.16469030474E+02  0.11861393109E+03 -0.31684935123E+03  0.34947014533E+03  0.85996380660E+02 0.  0.
        -11    1    3    3    0    0  0.23736195260E+02  0.33886487135E+01 -0.33368026583E+02  0.41089111740E+02  0.00000000000E+00 0. -1.
         11    1    3    3    0    0 -0.61665119636E+02 -0.56426232468E+02 -0.24308355746E+03  0.25705276228E+03  0.00000000000E+00 0.  1.
        -13    1    4    4    0    0 -0.26918484927E+02  0.65958059267E+02 -0.21812284836E+03  0.22946164688E+03  0.00000000000E+00 0.  1.
         13    1    4    4    0    0  0.43387515401E+02  0.52655871826E+02 -0.98726502870E+02  0.12000849845E+03  0.00000000000E+00 0. -1.
         21    1    1    2  503  501  0.43356940111E+02 -0.26996780203E+02 -0.81579549771E+02  0.96249017335E+02  0.00000000000E+00 0.  1.
         -2    1    1    2    0  502 -0.21897046208E+02 -0.38579567136E+02 -0.11911470532E+03  0.12710694968E+03  0.00000000000E+00 0.  1.
<scales pt_clust_5="13000.00000" pt_clust_6="13000.00000" pt_clust_7="13000.00000" pt_clust_8="13000.00000" pt_clust_9="52.31475" pt_clust_10="44.36063"></scales>
<clustering>
<clus scale="   44.361">  1 10  2 -1</clus>
<clus scale="   52.315">  1  9  2 -1</clus>
<clus scale="   85.996">  7  8 -1 -1</clus>
<clus scale="   90.617">  5  6 -1 -1</clus>
<clus scale="  120.558">  1  7  2 -1</clus>
<clus scale="   44.361">  1  5  2 -1</clus>
</clustering>
</event>
<event>
10    2  0.1671105E-006  0.1643461E+03  0.7546771E-02  0.1185828E+00
         21   -1    0    0  503  502  0.00000000000E+00  0.00000000000E+00  0.71177601087E+02  0.71177601087E+02  0.00000000000E+00 0. -1.
          2   -1    0    0  502    0 -0.00000000000E+00 -0.00000000000E+00 -0.73709894390E+03  0.73709894390E+03  0.00000000000E+00 0. -1.
         23    2    1    2    0    0  0.86347111123E+02 -0.55161263258E+02 -0.28826831372E+03  0.31997259313E+03  0.93729670318E+02 0.  0.
         23    2    1    2    0    0 -0.12148723630E+03  0.12743649592E+03 -0.30658058338E+03  0.36881880758E+03  0.10505450798E+03 0.  0.
        -11    1    4    4    0    0  0.17939006374E+02  0.26556488652E+02 -0.36540712431E+02  0.48603278739E+02  0.00000000000E+00 0.  1.
         11    1    4    4    0    0 -0.13942624267E+03  0.10088000726E+03 -0.27003987095E+03  0.32021552884E+03  0.00000000000E+00 0. -1.
        -11    1    3    3    0    0  0.41604397865E+02 -0.63671584667E+02 -0.24723344933E+03  0.25866846557E+03  0.00000000000E+00 0.  1.
         11    1    3    3    0    0  0.44742713257E+02  0.85103214091E+01 -0.41034864392E+02  0.61304127559E+02  0.00000000000E+00 0. -1.
         21    1    1    2  503  501  0.22375229165E+02 -0.98294193455E+00 -0.91399765455E+01  0.24190002610E+02  0.00000000000E+00 0.  1.
          2    1    1    2  501    0  0.12764896010E+02 -0.71292290722E+02 -0.61932469165E+02  0.95295141657E+02  0.00000000000E+00 0. -1.
<scales pt_clust_5="13000.00000" pt_clust_6="13000.00000" pt_clust_7="13000.00000" pt_clust_8="13000.00000" pt_clust_9="22.39681" pt_clust_10="73.93522"></scales>
<clustering>
<clus scale="   22.397">  1  9  2 -1</clus>
<clus scale="   73.935">  1 10  2 -1</clus>
<clus scale="   93.730">  7  8 -1 -1</clus>
<clus scale="  105.055">  5  6 -1 -1</clus>
<clus scale="  157.348">  2  7  1 -1</clus>
<clus scale="   22.397">  1  5  2 -1</clus>
</clustering>
</event>
<event>
10    2  0.1671105E-006  0.1063104E+03  0.7546771E-02  0.1267832E+00
          1   -1    0    0  503    0 -0.00000000000E+00  0.00000000000E+00  0.72497771611E+02  0.72497771611E+02  0.00000000000E+00 0. -1.
         21   -1    0    0  501  502  0.00000000000E+00 -0.00000000000E+00 -0.74444749570E+03  0.74444749570E+03  0.00000000000E+00 0. -1.
         23    2    1    2    0    0  0.16484464979E+02  0.27128986797E+02 -0.14324354477E+02  0.97811195275E+02  0.91400893211E+02 0.  0.
         23    2    1    2    0    0 -0.90524090619E+02 -0.48966900639E+02 -0.54799669519E+03  0.56491395474E+03  0.90747065965E+02 0.  0.
        -11    1    4    4    0    0  0.17115158671E+02 -0.11559492229E+02 -0.51054144402E+02  0.55073370857E+02  0.00000000000E+00 0.  1.
         11    1    4    4    0    0 -0.10763924929E+03 -0.37407408411E+02 -0.49694255079E+03  0.50984058388E+03  0.00000000000E+00 0. -1.
        -11    1    3    3    0    0 -0.17861360819E+02  0.17649068497E+02 -0.44515986902E+02  0.51109597131E+02  0.00000000000E+00 0. -1.
         11    1    3    3    0    0  0.34345825798E+02  0.94799183000E+01  0.30191632425E+02  0.46701598144E+02  0.00000000000E+00 0.  1.
         21    1    1    2  503  502  0.42347626614E+02 -0.26645521178E+02 -0.58315492855E+02  0.76837503770E+02  0.00000000000E+00 0. -1.
          1    1    1    2  501    0  0.31691999026E+02  0.48483435020E+02 -0.51313181570E+02  0.77382613529E+02  0.00000000000E+00 0. -1.
<scales pt_clust_5="13000.00000" pt_clust_6="13000.00000" pt_clust_7="13000.00000" pt_clust_8="13000.00000" pt_clust_9="50.03304" pt_clust_10="59.00924"></scales>
<clustering>
<clus scale="   50.033">  1  9  2 -1</clus>
<clus scale="   59.009">  2 10  1 -1</clus>
<clus scale="   90.747">  5  6 -1 -1</clus>
<clus scale="   91.401">  7  8 -1 -1</clus>
<clus scale="  105.749">  2  5  1 -1</clus>
<clus scale="   59.009">  2  5  1 -1</clus>
</clustering>
</event>
<event>
10    2  0.1671105E-006  0.1415925E+03  0.7546771E-02  0.1211432E+00
          1   -1    0    0  503    0 -0.00000000000E+00  0.00000000000E+00  0.13120933990E+04  0.13120933990E+04  0.00000000000E+00 0. -1.
         21   -1    0    0  501  502  0.00000000000E+00 -0.00000000000E+00 -0.60276136996E+02  0.60276136996E+02  0.00000000000E+00 0. -1.
         23    2    1    2    0    0 -0.51549497589E+02 -0.51588452635E+02  0.43716158077E+03  0.45217194730E+03  0.89613074253E+02 0.  0.
         23    2    1    2    0    0  0.14939729878E+03  0.90562809872E+02  0.71071927853E+03  0.73747488328E+03  0.90698044010E+02 0.  0.
        -11    1    4    4    0    0  0.10474176827E+03  0.73840050590E+02  0.63638983731E+03  0.64916501455E+03  0.00000000000E+00 0. -1.
         11    1    4    4    0    0  0.44655530507E+02  0.16722759282E+02  0.74329441222E+02  0.88309868731E+02  0.00000000000E+00 0.  1.
        -11    1    3    3    0    0 -0.25127359885E+02 -0.69362687196E+02  0.37650294677E+03  0.38366265849E+03  0.00000000000E+00 0.  1.
         11    1    3    3    0    0 -0.26422137704E+02  0.17774234561E+02  0.60658633997E+02  0.68509288812E+02  0.00000000000E+00 0. -1.
         21    1    1    2  503  502 -0.49398006869E+02 -0.20648339253E+02  0.11754590924E+03  0.12916484729E+03  0.00000000000E+00 0. -1.
          1    1    1    2  501    0 -0.48449794319E+02 -0.18326017985E+02 -0.13609506488E+02  0.53557858168E+02  0.00000000000E+00 0. -1.
<scales pt_clust_5="13000.00000" pt_clust_6="13000.00000" pt_clust_7="13000.00000" pt_clust_8="13000.00000" pt_clust_9="64.80834" pt_clust_10="51.79986"></scales>
<clustering>
<clus scale="   51.800">  2 10  1 -1</clus>
<clus scale="   64.808">  2  9  1 -1</clus>
<clus scale="   89.613">  7  8 -1 -1</clus>
<clus scale="   90.698">  5  6 -1 -1</clus>
<clus scale="  140.900">  1  7  2 -1</clus>
<clus scale="   51.800">  2  5  1 -1</clus>
</clustering>
</event>
<event>
10    2  0.1671105E-006  0.2145893E+03  0.7546771E-02  0.1147999E+00
         -1   -1    0    0    0  501 -0.00000000000E+00  0.00000000000E+00  0.73873248424E+03  0.73873248424E+03  0.00000000000E+00 0.  1.
         21   -1    0    0  501  502  0.00000000000E+00 -0.00000000000E+00 -0.18214563811E+03  0.18214563811E+03  0.00000000000E+00 0.  1.
         23    2    1    2    0    0  0.13629267940E+03 -0.40822284067E+02  0.31456122531E+03  0.35696531417E+03  0.90737631226E+02 0.  0.
         23    2    1    2    0    0 -0.12947112027E+03 -0.15670031027E+03  0.27506435965E+03  0.35624690113E+03  0.99667920577E+02 0.  0.
        -11    1    4    4    0    0 -0.51098758438E+02 -0.34938705840E+02  0.23949187029E+02  0.66372884818E+02  0.00000000000E+00 0. -1.
         11    1    4    4    0    0 -0.78372361829E+02 -0.12176160443E+03  0.25111517262E+03  0.28987401631E+03  0.00000000000E+00 0.  1.
        -13    1    3    3    0    0  0.12467523479E+03 -0.65477117069E+02  0.27445384547E+03  0.30847379196E+03  0.00000000000E+00 0.  1.
         13    1    3    3    0    0  0.11617444619E+02  0.24654833002E+02  0.40107379834E+02  0.48491522218E+02  0.00000000000E+00 0. -1.
         21    1    1    2  503  502  0.82634409186E+01  0.13012589450E+03 -0.44261549513E+02  0.13769574300E+03  0.00000000000E+00 0.  1.
         -1    1    1    2    0  503 -0.15085000057E+02  0.67396699841E+02  0.11222810685E+02  0.69970164041E+02  0.00000000000E+00 0.  1.
<scales pt_clust_5="13000.00000" pt_clust_6="13000.00000" pt_clust_7="13000.00000" pt_clust_8="13000.00000" pt_clust_9="39.67548" pt_clust_10="197.70371"></scales>
<clustering>
<clus scale="   39.675">  9 10 -1 -1</clus>
<clus scale="   90.738">  7  8 -1 -1</clus>
<clus scale="   99.668">  5  6 -1 -1</clus>
<clus scale="  168.747">  1  7  2 -1</clus>
<clus scale="  197.704">  2  9  1 -1</clus>
<clus scale="  197.704">  2  5  1 -1</clus>
</clustering>
</event>
<event>
10    2  0.1671105E-006  0.2305957E+03  0.7546771E-02  0.1153632E+00
         -1   -1    0    0    0  501 -0.00000000000E+00  0.00000000000E+00  0.45159140797E+03  0.45159140797E+03  0.00000000000E+00 0.  1.
         21   -1    0    0  501  502  0.00000000000E+00 -0.00000000000E+00 -0.24417317301E+03  0.24417317301E+03  0.00000000000E+00 0.  1.
         23    2    1    2    0    0 -0.63033497164E+02  0.27460652975E+02  0.14938560069E+03  0.19100291080E+03  0.97153203829E+02 0.  0.
         23    2    1    2    0    0 -0.16392249701E+03 -0.26146917227E+02  0.15135967997E+03  0.23982554306E+03  0.83977926137E+02 0.  0.
        -11    1    3    3    0    0 -0.32084392086E+00 -0.24343619422E+02  0.81487859551E+02  0.85046963506E+02  0.00000000000E+00 0. -1.
         11    1    3    3    0    0 -0.62712653243E+02  0.51804272397E+02  0.67897741142E+02  0.10595594730E+03  0.00000000000E+00 0.  1.
        -13    1    4    4    0    0 -0.40153594465E+02 -0.45339636260E+02  0.43976746242E+02  0.74846162057E+02  0.00000000000E+00 0. -1.
         13    1    4    4    0    0 -0.12376890254E+03  0.19192719033E+02  0.10738293373E+03  0.16497938101E+03  0.00000000000E+00 0.  1.
         21    1    1    2  503  502  0.11391185836E+03  0.49250297380E+02 -0.48114952875E+02  0.13310353849E+03  0.00000000000E+00 0.  1.
         -1    1    1    2    0  503  0.11304413581E+03 -0.50564033128E+02 -0.45212092830E+02  0.13183258863E+03  0.00000000000E+00 0.  1.
<scales pt_clust_5="13000.00000" pt_clust_6="13000.00000" pt_clust_7="13000.00000" pt_clust_8="13000.00000" pt_clust_9="99.74539" pt_clust_10="99.74539"></scales>
<clustering>
<clus scale="   83.978">  7  8 -1 -1</clus>
<clus scale="   97.153">  5  6 -1 -1</clus>
<clus scale="   99.745">  9 10 -1 -1</clus>
<clus scale="  119.021">  1  5  2 -1</clus>
<clus scale="  224.179">  1  7  2 -1</clus>
<clus scale="  230.596">  2  5  1 -1</clus>
</clustering>
</event>
<event>
10    2  0.1671105E-006  0.1232026E+03  0.7546771E-02  0.1238397E+00
         -3   -1    0    0    0  501 -0.00000000000E+00  0.00000000000E+00  0.45786506758E+03  0.45786506758E+03  0.00000000000E+00 0.  1.
         21   -1    0    0  503  502  0.00000000000E+00 -0.00000000000E+00 -0.89882780603E+02  0.89882780603E+02  0.00000000000E+00 0. -1.
         23    2    1    2    0    0  0.49122198994E+02  0.19173976782E+02  0.13992704926E+03  0.17501331505E+03  0.90936513635E+02 0.  0.
         23    2    1    2    0    0 -0.98730512762E+02 -0.79125170620E+02  0.22759096135E+03  0.27527127518E+03  0.89264340453E+02 0.  0.
        -11    1    4    4    0    0 -0.32497193500E+02 -0.81857705016E+02  0.14049517596E+03  0.16581811096E+03  0.00000000000E+00 0.  1.
         11    1    4    4    0    0 -0.66233319262E+02  0.27325343951E+01  0.87095785388E+02  0.10945316422E+03  0.00000000000E+00 0. -1.
        -11    1    3    3    0    0  0.69216252849E+02 -0.97381719770E+01  0.94311631327E+02  0.11738997170E+03  0.00000000000E+00 0.  1.
         11    1    3    3    0    0 -0.20094053856E+02  0.28912148759E+02  0.45615417932E+02  0.57623343355E+02  0.00000000000E+00 0. -1.
         21    1    1    2  503  501  0.55466359288E+01  0.27974129811E+02  0.24833654252E+02  0.37815704308E+02  0.00000000000E+00 0.  1.
         -3    1    1    2    0  502  0.44061677840E+02  0.31977064027E+02 -0.24369377876E+02  0.59647553646E+02  0.00000000000E+00 0.  1.
<scales pt_clust_5="13000.00000" pt_clust_6="13000.00000" pt_clust_7="13000.00000" pt_clust_8="13000.00000" pt_clust_9="28.51872" pt_clust_10="65.71009"></scales>
<clustering>
<clus scale="   28.519">  2  9  1 -1</clus>
<clus scale="   65.710">  2 10  1 -1</clus>
<clus scale="   89.264">  5  6 -1 -1</clus>
<clus scale="   90.937">  7  8 -1 -1</clus>
<clus scale="  121.974">  2  5  1 -1</clus>
<clus scale="   28.519">  2  5  1 -1</clus>
</clustering>
</event>
<event>
10    2  0.1671105E-006  0.1219018E+03  0.7546771E-02  0.1240165E+00
         21   -1    0    0  503  502  0.00000000000E+00  0.00000000000E+00  0.16155092031E+03  0.16155092031E+03  0.00000000000E+00 0. -1.
         -3   -1    0    0    0  501 -0.00000000000E+00 -0.00000000000E+00 -0.42233163889E+03  0.42233163889E+03  0.00000000000E+00 0.  1.
         23    2    1    2    0    0 -0.40370468159E+02 -0.64129301292E+02 -0.19069115835E+03  0.22497722080E+03  0.92245813041E+02 0.  0.
         23    2    1    2    0    0  0.10017981013E+02  0.88903057445E+02 -0.16271654920E+03  0.20708923806E+03  0.91679679157E+02 0.  0.
        -11    1    3    3    0    0  0.65906260412E+01  0.20949160394E+02 -0.29854747083E+02  0.37062239493E+02  0.00000000000E+00 0.  1.
         11    1    3    3    0    0 -0.46961094200E+02 -0.85078461686E+02 -0.16083641127E+03  0.18791498131E+03  0.00000000000E+00 0. -1.
        -13    1    4    4    0    0  0.15781424972E+02  0.29141497344E+02 -0.13840094691E+03  0.14231339483E+03  0.00000000000E+00 0.  1.
         13    1    4    4    0    0 -0.57634439588E+01  0.59761560100E+02 -0.24315602290E+02  0.64775843234E+02  0.00000000000E+00 0. -1.
         21    1    1    2  503  501  0.60828206460E+02 -0.40613047659E+02  0.27409573611E+02  0.78107458458E+02  0.00000000000E+00 0. -1.
         -3    1    1    2    0  502 -0.30475719313E+02  0.15839291506E+02  0.65217415356E+02  0.73708641886E+02  0.00000000000E+00 0.  1.
<scales pt_clust_5="13000.00000" pt_clust_6="13000.00000" pt_clust_7="13000.00000" pt_clust_8="13000.00000" pt_clust_9="53.62348" pt_clust_10="34.34607"></scales>
<clustering>
<clus scale="   34.346">  1 10  2 -1</clus>
<clus scale="   53.623">  1  9  2 -1</clus>
<clus scale="   91.680">  7  8 -1 -1</clus>
<clus scale="   92.246">  5  6 -1 -1</clus>
<clus scale="  121.474">  1  7  2 -1</clus>
<clus scale="   34.346">  1  5  2 -1</clus>
</clustering>
</event>
<event>
10    2  0.1671105E-006  0.2299749E+03  0.7546771E-02  0.1144933E+00
         21   -1    0    0  501  502  0.00000000000E+00  0.00000000000E+00  0.15151558504E+03  0.15151558504E+03  0.00000000000E+00 0. -1.
          1   -1    0    0  503    0 -0.00000000000E+00 -0.00000000000E+00 -0.12903281476E+04  0.12903281476E+04  0.00000000000E+00 0. -1.
         23    2    1    2    0    0 -0.79763147377E+01 -0.13095776786E+03 -0.42746913173E+03  0.45628887453E+03  0.90863193220E+02 0.  0.
         23    2    1    2    0    0 -0.21129057289E+03  0.17567553478E+01 -0.56697775018E+03  0.61155177705E+03  0.88797603749E+02 0.  0.
        -11    1    4    4    0    0 -0.69209449278E+02  0.42527898650E+02 -0.21182108242E+03  0.22686282417E+03  0.00000000000E+00 0.  1.
         11    1    4    4    0    0 -0.14208112361E+03 -0.40771143302E+02 -0.35515666776E+03  0.38468895288E+03  0.00000000000E+00 0. -1.
        -11    1    3    3    0    0 -0.46847229210E+02 -0.96125198811E+02 -0.30317058786E+03  0.32147647204E+03  0.00000000000E+00 0. -1.
         11    1    3    3    0    0  0.38870914472E+02 -0.34832569052E+02 -0.12429854386E+03  0.13481240249E+03  0.00000000000E+00 0.  1.
         21    1    1    2  503  502  0.19377373069E+03  0.47658277215E+02 -0.19137840304E+03  0.27648736543E+03  0.00000000000E+00 0.  1.
          1    1    1    2  501    0  0.25493156940E+02  0.81542735300E+02  0.47012722378E+02  0.97515715638E+02  0.00000000000E+00 0. -1.
<scales pt_clust_5="13000.00000" pt_clust_6="13000.00000" pt_clust_7="13000.00000" pt_clust_8="13000.00000" pt_clust_9="212.14010" pt_clust_10="85.43488"></scales>
<clustering>
<clus scale="   85.435">  1 10  2 -1</clus>
<clus scale="   88.798">  5  6 -1 -1</clus>
<clus scale="   90.863">  7  8 -1 -1</clus>
<clus scale="  147.492">  2  7  1 -1</clus>
<clus scale="  212.140">  1  9  2 -1</clus>
<clus scale="   85.435">  1  5  2 -1</clus>
</clustering>
</event>
<event>
10    2  0.1671105E-006  0.1462048E+03  0.7546771E-02  0.1213624E+00
         21   -1    0    0  501  502  0.00000000000E+00  0.00000000000E+00  0.21097814620E+03  0.21097814620E+03  0.00000000000E+00 0. -1.
         -1   -1    0    0    0  501 -0.00000000000E+00 -0.00000000000E+00 -0.25972000780E+03  0.25972000780E+03  0.00000000000E+00 0.  1.
         23    2    1    2    0    0 -0.58478494670E+02 -0.68708256623E+02 -0.17319964169E+02  0.12853580082E+03  0.89893893380E+02 0.  0.
         23    2    1    2    0    0 -0.24995386188E+02 -0.92985816175E+02  0.28966792914E+02  0.13729451668E+03  0.93485709490E+02 0.  0.
        -11    1    4    4    0    0  0.18535097990E+02 -0.23082672278E+02 -0.25075536602E+02  0.38796161574E+02  0.00000000000E+00 0.  1.
         11    1    4    4    0    0 -0.43530484178E+02 -0.69903143897E+02  0.54042329516E+02  0.98498355108E+02  0.00000000000E+00 0. -1.
        -13    1    3    3    0    0  0.23485132732E+02 -0.12786849740E+02 -0.11599202386E+02  0.29147838371E+02  0.00000000000E+00 0.  1.
         13    1    3    3    0    0 -0.81963627402E+02 -0.55921406884E+02 -0.57207617832E+01  0.99387962451E+02  0.00000000000E+00 0. -1.
         21    1    1    2  503  502  0.28858967674E+02  0.10218265788E+02  0.51045911480E+01  0.31037232829E+02  0.00000000000E+00 0.  1.
         -1    1    1    2    0  503  0.54614913185E+02  0.15147580701E+03 -0.65493281497E+02  0.17383060367E+03  0.00000000000E+00 0.  1.
<scales pt_clust_5="13000.00000" pt_clust_6="13000.00000" pt_clust_7="13000.00000" pt_clust_8="13000.00000" pt_clust_9="30.61459" pt_clust_10="112.41120"></scales>
<clustering>
<clus scale="   30.615">  1  9  2 -1</clus>
<clus scale="   89.894">  7  8 -1 -1</clus>
<clus scale="   93.486">  5  6 -1 -1</clus>
<clus scale="  122.154">  2  7  1 -1</clus>
<clus scale="  112.411">  1 10  2 -1</clus>
<clus scale="   30.615">  1  5  2 -1</clus>
</clustering>
</event>
<event>
10    2  0.1671105E-006  0.1470057E+03  0.7546771E-02  0.1204302E+00
         -2   -1    0    0    0  501 -0.00000000000E+00  0.00000000000E+00  0.29263234821E+03  0.29263234821E+03  0.00000000000E+00 0.  1.
         21   -1    0    0  503  502  0.00000000000E+00 -0.00000000000E+00 -0.15239601026E+03  0.15239601026E+03  0.00000000000E+00 0. -1.
         23    2    1    2    0    0 -0.82455963128E+01  0.10455401498E+03  0.10530789307E+03  0.17425699690E+03  0.90973714438E+02 0.  0.
         23    2    1    2    0    0  0.86664324298E+02 -0.12578972777E+03  0.19322280702E+02  0.17857749738E+03  0.90458892985E+02 0.  0.
        -11    1    4    4    0    0  0.23614324419E+02 -0.80797388191E+02  0.46895487645E+02  0.96358917687E+02  0.00000000000E+00 0.  1.
         11    1    4    4    0    0  0.63049999879E+02 -0.44992339580E+02 -0.27573206943E+02  0.82218579693E+02  0.00000000000E+00 0. -1.
        -13    1    3    3    0    0 -0.31417629947E+02  0.39090876014E+02  0.90176790361E+02  0.10318438631E+03  0.00000000000E+00 0.  1.
         13    1    3    3    0    0  0.23172033635E+02  0.65463138970E+02  0.15131102707E+02  0.71072610588E+02  0.00000000000E+00 0. -1.
         21    1    1    2  503  501 -0.69888120601E+02  0.24073955296E+01  0.90751815063E+01  0.70515983108E+02  0.00000000000E+00 0. -1.
         -2    1    1    2    0  502 -0.85306073848E+01  0.18828317258E+02  0.65309826744E+01  0.21677881073E+02  0.00000000000E+00 0.  1.
<scales pt_clust_5="13000.00000" pt_clust_6="13000.00000" pt_clust_7="13000.00000" pt_clust_8="13000.00000" pt_clust_9="71.98287" pt_clust_10="20.67067"></scales>
<clustering>
<clus scale="   20.671">  2 10  1 -1</clus>
<clus scale="   71.983">  2  9  1 -1</clus>
<clus scale="   90.459">  5  6 -1 -1</clus>
<clus scale="   90.974">  7  8 -1 -1</clus>
<clus scale="  146.688">  2  5  1 -1</clus>
<clus scale="   20.671">  2  5  1 -1</clus>
</clustering>
</event>
<event>
10    2  0.1671105E-006  0.1492970E+03  0.7546771E-02  0.1223406E+00
         21   -1    0    0  503  502  0.00000000000E+00  0.00000000000E+00  0.29533821881E+03  0.29533821881E+03  0.00000000000E+00 0. -1.
          2   -1    0    0  502    0 -0.00000000000E+00 -0.00000000000E+00 -0.20053544501E+03  0.20053544501E+03  0.00000000000E+00 0. -1.
         23    2    1    2    0    0 -0.12256702250E+02  0.10425728569E+02 -0.69687261850E+02  0.11651027344E+03  0.91975033495E+02 0.  0.
         23    2    1    2    0    0 -0.12454881288E+02 -0.12042962985E+03 -0.23371898287E+02  0.15652845061E+03  0.96418309501E+02 0.  0.
        -11    1    3    3    0    0  0.18672377349E+02 -0.31446774109E+02 -0.11282784547E+02  0.38273469987E+02  0.00000000000E+00 0.  1.
         11    1    3    3    0    0 -0.30929079599E+02  0.41872502678E+02 -0.58404477304E+02  0.78236803452E+02  0.00000000000E+00 0. -1.
        -13    1    4    4    0    0 -0.47826725981E+02 -0.91878406038E+02  0.36517133937E+01  0.10364541584E+03  0.00000000000E+00 0. -1.
         13    1    4    4    0    0  0.35371844693E+02 -0.28551223814E+02 -0.27023611680E+02  0.52883034770E+02  0.00000000000E+00 0.  1.
         21    1    1    2  503  501 -0.60992942153E+01  0.59629896832E+02  0.81329017171E+02  0.10103135662E+03  0.00000000000E+00 0. -1.
          2    1    1    2  501    0  0.30810877753E+02  0.50374004452E+02  0.10653291677E+03  0.12180358315E+03  0.00000000000E+00 0. -1.
<scales pt_clust_5="13000.00000" pt_clust_6="13000.00000" pt_clust_7="13000.00000" pt_clust_8="13000.00000" pt_clust_9="40.33879" pt_clust_10="121.01612"></scales>
<clustering>
<clus scale="   40.339">  9 10 -1 -1</clus>
<clus scale="   91.975">  5  6 -1 -1</clus>
<clus scale="   93.372">  2  5  1 -1</clus>
<clus scale="   96.418">  7  8 -1 -1</clus>
<clus scale="  121.016">  1  9  2 -1</clus>
<clus scale="  121.016">  1  5  2 -1</clus>
</clustering>
</event>
<event>
10    2  0.1671105E-006  0.1098040E+03  0.7546771E-02  0.1262641E+00
         21   -1    0    0  503  502  0.00000000000E+00  0.00000000000E+00  0.42540858198E+03  0.42540858198E+03  0.00000000000E+00 0.  1.
         -4   -1    0    0    0  501 -0.00000000000E+00 -0.00000000000E+00 -0.97808693803E+02  0.97808693803E+02  0.00000000000E+00 0.  1.
         23    2    1    2    0    0  0.23792022999E+02  0.15053037633E+02 -0.33942435394E+02  0.10361178717E+03  0.93758515450E+02 0.  0.
         23    2    1    2    0    0 -0.44203520023E+02 -0.10797433967E+02  0.32137343664E+03  0.33669188738E+03  0.89498633992E+02 0.  0.
        -11    1    4    4    0    0 -0.68921760946E+02  0.73364843074E+01  0.23671568354E+03  0.24665430864E+03  0.00000000000E+00 0.  1.
         11    1    4    4    0    0  0.24718240923E+02 -0.18133918275E+02  0.84657753092E+02  0.90037578738E+02  0.00000000000E+00 0. -1.
        -13    1    3    3    0    0  0.16968964006E+02  0.54662450528E+02 -0.24882875977E+02  0.62410630137E+02  0.00000000000E+00 0.  1.
         13    1    3    3    0    0  0.68230589938E+01 -0.39609412895E+02 -0.90595594170E+01  0.41201157031E+02  0.00000000000E+00 0. -1.
         21    1    1    2  503  501  0.45127141728E+02 -0.11690185046E+02  0.23678203108E+02  0.52285530019E+02  0.00000000000E+00 0.  1.
         -4    1    1    2    0  502 -0.24715644705E+02  0.74345813795E+01  0.16490683822E+02  0.30628071215E+02  0.00000000000E+00 0.  1.
<scales pt_clust_5="13000.00000" pt_clust_6="13000.00000" pt_clust_7="13000.00000" pt_clust_8="13000.00000" pt_clust_9="44.17919" pt_clust_10="25.80963"></scales>
<clustering>
<clus scale="   25.810">  1 10  2 -1</clus>
<clus scale="   44.179">  2  9  1 -1</clus>
<clus scale="   89.499">  5  6 -1 -1</clus>
<clus scale="   93.759">  7  8 -1 -1</clus>
<clus scale="  106.190">  1  5  2 -1</clus>
<clus scale="   25.810">  1  5  2 -1</clus>
</clustering>
</event>
<event>
10    2  0.1671105E-006  0.3143204E+03  0.7546771E-02  0.1078710E+00
          1   -1    0    0  503    0 -0.00000000000E+00  0.00000000000E+00  0.10348750599E+04  0.10348750599E+04  0.00000000000E+00 0. -1.
         21   -1    0    0  501  502  0.00000000000E+00 -0.00000000000E+00 -0.22999061738E+03  0.22999061738E+03  0.00000000000E+00 0. -1.
         23    2    1    2    0    0 -0.76473361153E+02 -0.28238153247E+03  0.66838877120E+03  0.73595935721E+03  0.96463055866E+02 0.  0.
         23    2    1    2    0    0  0.54865443563E+02  0.24794842859E+03 -0.10880660466E+01  0.26756863338E+03  0.84280184751E+02 0.  0.
        -11    1    4    4    0    0  0.42327425848E+02  0.37236024478E+02  0.28482709967E+01  0.56446834681E+02  0.00000000000E+00 0. -1.
         11    1    4    4    0    0  0.12538017715E+02  0.21071240412E+03 -0.39363370433E+01  0.21112179870E+03  0.00000000000E+00 0.  1.
        -13    1    3    3    0    0 -0.21163426758E+02 -0.17371474029E+01  0.60902575461E+02  0.64498310141E+02  0.00000000000E+00 0.  1.
         13    1    3    3    0    0 -0.55309934395E+02 -0.28064438507E+03  0.60748619574E+03  0.67146104706E+03  0.00000000000E+00 0. -1.
         21    1    1    2  503  502 -0.12909107785E+02 -0.23615153997E+02  0.17972767334E+03  0.18173155237E+03  0.00000000000E+00 0. -1.
          1    1    1    2  501    0  0.34517025375E+02  0.58048257877E+02 -0.42143935978E+02  0.79606134330E+02  0.00000000000E+00 0. -1.
<scales pt_clust_5="13000.00000" pt_clust_6="13000.00000" pt_clust_7="13000.00000" pt_clust_8="13000.00000" pt_clust_9="26.91320" pt_clust_10="66.94556"></scales>
<clustering>
<clus scale="   26.913">  1  9  2 -1</clus>
<clus scale="   66.946">  2 10  1 -1</clus>
<clus scale="   84.280">  5  6 -1 -1</clus>
<clus scale="   96.463">  7  8 -1 -1</clus>
<clus scale="  310.798">  2  5  1 -1</clus>
<clus scale="   66.946">  2  5  1 -1</clus>
</clustering>
</event>
<event>
10    2  0.1709968E-006  0.2342776E+03  0.7546771E-02  0.1154298E+00
         21   -1    0    0  501  502  0.00000000000E+00  0.00000000000E+00  0.24832074025E+03  0.24832074025E+03  0.00000000000E+00 0.  1.
          2   -1    0    0  503    0 -0.00000000000E+00 -0.00000000000E+00 -0.74281602685E+03  0.74281602685E+03  0.00000000000E+00 0. -1.
         23    2    1    2    0    0  0.68592127981E+02 -0.30180500755E+02 -0.84333707630E+02  0.13587442907E+03  0.75722807572E+02 0.  0.
         23    2    1    2    0    0  0.14632665960E+03 -0.95259667551E+01 -0.42203326560E+03  0.45652924637E+03  0.93833044085E+02 0.  0.
        -11    1    3    3    0    0  0.21812459317E+01 -0.38465290577E+02 -0.21731582666E+02  0.44233449992E+02  0.00000000000E+00 0.  1.
         11    1    3    3    0    0  0.66410882049E+02  0.82847898229E+01 -0.62602124964E+02  0.91640979082E+02  0.00000000000E+00 0. -1.
        -11    1    4    4    0    0  0.67415549067E+02 -0.50329752452E+02 -0.17948730732E+03  0.19822621856E+03  0.00000000000E+00 0.  1.
         11    1    4    4    0    0  0.78911110534E+02  0.40803785697E+02 -0.24254595828E+03  0.25830302780E+03  0.00000000000E+00 0. -1.
         21    1    1    2  503  502 -0.29379108616E+03  0.10944923996E+02  0.62680637189E+02  0.30060248826E+03  0.00000000000E+00 0.  1.
          2    1    1    2  501    0  0.78872298575E+02  0.28761543514E+02 -0.50808950558E+02  0.98130603405E+02  0.00000000000E+00 0. -1.
<scales pt_clust_5="13000.00000" pt_clust_6="13000.00000" pt_clust_7="13000.00000" pt_clust_8="13000.00000" pt_clust_9="214.66567" pt_clust_10="83.95280"></scales>
<clustering>
<clus scale="   75.723">  5  6 -1 -1</clus>
<clus scale="   83.953">  1 10  2 -1</clus>
<clus scale="   93.833">  7  8 -1 -1</clus>
<clus scale="  111.734">  2  5  1 -1</clus>
<clus scale="  214.666">  1  9  2 -1</clus>
<clus scale="   83.953">  1  5  2 -1</clus>
</clustering>
</event>
<event>
10    2  0.1671105E-006  0.1632543E+03  0.7546771E-02  0.1204834E+00
          2   -1    0    0  503    0 -0.00000000000E+00  0.00000000000E+00  0.44402557869E+03  0.44402557869E+03  0.00000000000E+00 0. -1.
         21   -1    0    0  501  502  0.00000000000E+00 -0.00000000000E+00 -0.20182280690E+03  0.20182280690E+03  0.00000000000E+00 0. -1.
         23    2    1    2    0    0  0.25225327189E+02 -0.60629776791E+02  0.87560905812E+02  0.14171266553E+03  0.90018222485E+02 0.  0.
         23    2    1    2    0    0 -0.11314592314E+03  0.12073648960E+03  0.19899404173E+03  0.27452826844E+03  0.91585160823E+02 0.  0.
        -11    1    4    4    0    0  0.95175955921E+00  0.51024760592E+02  0.30594485515E+02  0.59501719166E+02  0.00000000000E+00 0.  1.
         11    1    4    4    0    0 -0.11409768270E+03  0.69711729012E+02  0.16839955622E+03  0.21502654927E+03  0.00000000000E+00 0. -1.
        -13    1    3    3    0    0  0.46226052821E+02 -0.11942745547E+02  0.11697226317E+02  0.49155897246E+02  0.00000000000E+00 0. -1.
         13    1    3    3    0    0 -0.21000725632E+02 -0.48687031244E+02  0.75863679495E+02  0.92556768283E+02  0.00000000000E+00 0.  1.
         21    1    1    2  503  502 -0.96067516944E+00  0.36087784853E+02  0.54602325117E+02  0.65457352685E+02  0.00000000000E+00 0. -1.
          2    1    1    2  501    0  0.88881271118E+02 -0.96194497665E+02 -0.98954500868E+02  0.16415009893E+03  0.00000000000E+00 0. -1.
<scales pt_clust_5="13000.00000" pt_clust_6="13000.00000" pt_clust_7="13000.00000" pt_clust_8="13000.00000" pt_clust_9="36.10057" pt_clust_10="135.14480"></scales>
<clustering>
<clus scale="   36.101">  1  9  2 -1</clus>
<clus scale="   90.018">  7  8 -1 -1</clus>
<clus scale="   91.585">  5  6 -1 -1</clus>
<clus scale="  105.881">  1  7  2 -1</clus>
<clus scale="  135.145">  2 10  1 -1</clus>
<clus scale="  135.145">  2  5  1 -1</clus>
</clustering>
</event>
<event>
10    2  0.1671105E-006  0.9461815E+02  0.7546771E-02  0.1292594E+00
         21   -1    0    0  503  502  0.00000000000E+00  0.00000000000E+00  0.14437849985E+03  0.14437849985E+03  0.00000000000E+00 0. -1.
          1   -1    0    0  502    0 -0.00000000000E+00 -0.00000000000E+00 -0.62359992967E+03  0.62359992967E+03  0.00000000000E+00 0. -1.
         23    2    1    2    0    0  0.12250524077E+02  0.50307956458E+02 -0.40479085791E+03  0.41826956532E+03  0.91721452277E+02 0.  0.
         23    2    1    2    0    0 -0.33451948213E+01  0.26951077614E+02 -0.18701185995E+03  0.20961929019E+03  0.90715269630E+02 0.  0.
        -11    1    4    4    0    0  0.34649862755E+02  0.10826420373E+02 -0.14950236236E+03  0.15384661425E+03  0.00000000000E+00 0.  1.
         11    1    4    4    0    0 -0.37995057576E+02  0.16124657241E+02 -0.37509497598E+02  0.55772675939E+02  0.00000000000E+00 0. -1.
        -13    1    3    3    0    0  0.33995561301E+02  0.63185217528E+02 -0.35770852674E+03  0.36483346887E+03  0.00000000000E+00 0. -1.
         13    1    3    3    0    0 -0.21745037224E+02 -0.12877261070E+02 -0.47082331166E+02  0.53436096457E+02  0.00000000000E+00 0.  1.
         21    1    1    2  503  501 -0.13983499247E+01 -0.50080904485E+02  0.93397230860E+02  0.10598629680E+03  0.00000000000E+00 0. -1.
          1    1    1    2  501    0 -0.75069793310E+01 -0.27178129588E+02  0.19184057176E+02  0.34103277208E+02  0.00000000000E+00 0. -1.
<scales pt_clust_5="13000.00000" pt_clust_6="13000.00000" pt_clust_7="13000.00000" pt_clust_8="13000.00000" pt_clust_9="22.53421" pt_clust_10="83.36991"></scales>
<clustering>
<clus scale="   22.534">  9 10 -1 -1</clus>
<clus scale="   83.370">  1  9  2 -1</clus>
<clus scale="   90.715">  5  6 -1 -1</clus>
<clus scale="   91.721">  7  8 -1 -1</clus>
<clus scale="   93.643">  1  5  2 -1</clus>
<clus scale="   83.370">  1  5  2 -1</clus>
</clustering>
</event>
<event>
10    2  0.1671105E-006  0.1042411E+03  0.7546771E-02  0.1271775E+00
         21   -1    0    0  501  502  0.00000000000E+00  0.00000000000E+00  0.85187015583E+03  0.85187015583E+03  0.00000000000E+00 0. -1.
          1   -1    0    0  503    0 -0.00000000000E+00 -0.00000000000E+00 -0.85111432937E+02  0.85111432937E+02  0.00000000000E+00 0. -1.
         23    2    1    2    0    0  0.57888130384E+02 -0.14166618996E+01 -0.71348175914E+01  0.10650082695E+03  0.89098136623E+02 0.  0.
         23    2    1    2    0    0 -0.14536589497E+02 -0.89960598342E+02  0.34931531972E+03  0.37192431340E+03  0.89455467240E+02 0.  0.
        -11    1    3    3    0    0 -0.59075253738E+01  0.32430440963E+02  0.47707997633E+01  0.33307550007E+02  0.00000000000E+00 0. -1.
         11    1    3    3    0    0  0.63795655758E+02 -0.33847102862E+02 -0.11905617355E+02  0.73193276948E+02  0.00000000000E+00 0.  1.
        -11    1    4    4    0    0  0.23021892250E+02 -0.69245863928E+02  0.28796530379E+03  0.29706735495E+03  0.00000000000E+00 0.  1.
         11    1    4    4    0    0 -0.37558481747E+02 -0.20714734414E+02  0.61350015936E+02  0.74856958450E+02  0.00000000000E+00 0. -1.
         21    1    1    2  503  502 -0.86249104626E+02  0.40803017090E+02  0.16461701759E+03  0.19026969473E+03  0.00000000000E+00 0. -1.
          1    1    1    2  501    0  0.42897563739E+02  0.50574243152E+02  0.25996120317E+03  0.26828675368E+03  0.00000000000E+00 0. -1.
<scales pt_clust_5="13000.00000" pt_clust_6="13000.00000" pt_clust_7="13000.00000" pt_clust_8="13000.00000" pt_clust_9="92.28565" pt_clust_10="66.31708"></scales>
<clustering>
<clus scale="   66.317">  1 10  2 -1</clus>
<clus scale="   89.098">  5  6 -1 -1</clus>
<clus scale="   89.455">  7  8 -1 -1</clus>
<clus scale="   92.286">  1  9  2 -1</clus>
<clus scale="  103.935">  2  5  1 -1</clus>
<clus scale="   66.317">  1  5  2 -1</clus>
</clustering>
</event>
<event>
10    2  0.1671105E-006  0.9419202E+02  0.7546771E-02  0.1301333E+00
         21   -1    0    0  501  502  0.00000000000E+00  0.00000000000E+00  0.72253787920E+02  0.72253787920E+02  0.00000000000E+00 0. -1.
          1   -1    0    0  503    0 -0.00000000000E+00 -0.00000000000E+00 -0.27658613575E+03  0.27658613575E+03  0.00000000000E+00 0. -1.
         23    2    1    2    0    0  0.69051859540E+01  0.20123571450E+02 -0.11841335973E+03  0.14405342540E+03  0.79227683843E+02 0.  0.
         23    2    1    2    0    0 -0.32534439793E+02  0.28901697603E+02 -0.52948083272E+02  0.11545059417E+03  0.92906093855E+02 0.  0.
        -11    1    4    4    0    0 -0.60458547875E+01  0.26203485716E+02  0.22738880186E+02  0.35216923431E+02  0.00000000000E+00 0. -1.
         11    1    4    4    0    0 -0.26488585005E+02  0.26982118865E+01 -0.75686963459E+02  0.80233670741E+02  0.00000000000E+00 0.  1.
        -11    1    3    3    0    0  0.16415778553E+02 -0.22938047257E+02 -0.15719839172E+02  0.32291564549E+02  0.00000000000E+00 0.  1.
         11    1    3    3    0    0 -0.95105925986E+01  0.43061618707E+02 -0.10269352055E+03  0.11176186085E+03  0.00000000000E+00 0. -1.
         21    1    1    2  503  502  0.40727536445E+02 -0.33339452545E+02 -0.40379608209E+02  0.66338255027E+02  0.00000000000E+00 0. -1.
          1    1    1    2  501    0 -0.15098282606E+02 -0.15685816509E+02  0.74087033747E+01  0.22997649073E+02  0.00000000000E+00 0. -1.
<scales pt_clust_5="13000.00000" pt_clust_6="13000.00000" pt_clust_7="13000.00000" pt_clust_8="13000.00000" pt_clust_9="52.46849" pt_clust_10="21.77161"></scales>
<clustering>
<clus scale="   21.772">  1 10  2 -1</clus>
<clus scale="   52.468">  1  9  2 -1</clus>
<clus scale="   79.228">  7  8 -1 -1</clus>
<clus scale="   80.732">  2  7  1 -1</clus>
<clus scale="   92.906">  5  6 -1 -1</clus>
<clus scale="   21.772">  1  5  2 -1</clus>
</clustering>
</event>
<event>
10    2  0.1671105E-006  0.1486409E+03  0.7546771E-02  0.1215286E+00
         -4   -1    0    0    0  501 -0.00000000000E+00  0.00000000000E+00  0.31138278854E+03  0.31138278854E+03  0.00000000000E+00 0.  1.
         21   -1    0    0  501  502  0.00000000000E+00 -0.00000000000E+00 -0.13745398558E+03  0.13745398558E+03  0.00000000000E+00 0. -1.
         23    2    1    2    0    0 -0.61778673254E+02 -0.27701951552E+02  0.90182563604E+02  0.14396741861E+03  0.89497040470E+02 0.  0.
         23    2    1    2    0    0  0.76441558978E+02 -0.93042540643E+02  0.94118311228E+02  0.17806836846E+03  0.91377573997E+02 0.  0.
        -11    1    4    4    0    0 -0.10887501162E+02 -0.48565826815E+02  0.14614644693E+02  0.51872584814E+02  0.00000000000E+00 0.  1.
         11    1    4    4    0    0  0.87329060139E+02 -0.44476713828E+02  0.79503666535E+02  0.12619578365E+03  0.00000000000E+00 0. -1.
        -13    1    3    3    0    0 -0.69141070436E+02 -0.47912551874E+02  0.88943987809E+02  0.12242194744E+03  0.00000000000E+00 0.  1.
         13    1    3    3    0    0  0.73623971820E+01  0.20210600322E+02  0.12385757950E+01  0.21545471163E+02  0.00000000000E+00 0. -1.
         21    1    1    2  503  502 -0.20741298684E+02  0.38689031502E+02 -0.23605886601E+00  0.43898728381E+02  0.00000000000E+00 0. -1.
         -4    1    1    2    0  503  0.60784129611E+01  0.82055460692E+02 -0.10136013013E+02  0.82902258674E+02  0.00000000000E+00 0.  1.
<scales pt_clust_5="13000.00000" pt_clust_6="13000.00000" pt_clust_7="13000.00000" pt_clust_8="13000.00000" pt_clust_9="25.05554" pt_clust_10="122.15122"></scales>
<clustering>
<clus scale="   25.056">  9 10 -1 -1</clus>
<clus scale="   89.497">  7  8 -1 -1</clus>
<clus scale="   91.378">  5  6 -1 -1</clus>
<clus scale="  112.222">  1  7  2 -1</clus>
<clus scale="  122.151">  2  9  1 -1</clus>
<clus scale="  122.151">  2  5  1 -1</clus>
</clustering>
</event>
<event>
10    2  0.1671105E-006  0.2117493E+03  0.7546771E-02  0.1157959E+00
          2   -1    0    0  502    0 -0.00000000000E+00  0.00000000000E+00  0.45876451596E+03  0.45876451596E+03  0.00000000000E+00 0. -1.
         21   -1    0    0  503  502  0.00000000000E+00 -0.00000000000E+00 -0.10255553773E+04  0.10255553773E+04  0.00000000000E+00 0. -1.
         23    2    1    2    0    0  0.10081818521E+02 -0.96329262267E+02 -0.18655604395E+03  0.23257539126E+03  0.99534844403E+02 0.  0.
         23    2    1    2    0    0 -0.17229119106E+03 -0.65412360259E+01  0.40083071057E+03  0.44586916622E+03  0.91689762596E+02 0.  0.
        -11    1    4    4    0    0 -0.63937516894E+02 -0.39383998087E+02  0.22054807676E+03  0.23298188670E+03  0.00000000000E+00 0. -1.
         11    1    4    4    0    0 -0.10835367416E+03  0.32842762061E+02  0.18028263382E+03  0.21288727952E+03  0.00000000000E+00 0.  1.
        -13    1    3    3    0    0 -0.30926327368E+02 -0.89070873127E+02 -0.14994173641E+03  0.17712307157E+03  0.00000000000E+00 0.  1.
         13    1    3    3    0    0  0.41008145889E+02 -0.72583891410E+01 -0.36614307538E+02  0.55452319687E+02  0.00000000000E+00 0. -1.
         21    1    1    2  503  501  0.31234631335E+02 -0.61802081265E+00 -0.13876553426E+03  0.14223873468E+03  0.00000000000E+00 0.  1.
          2    1    1    2  501    0  0.13097474120E+03  0.10348851911E+03 -0.64229999366E+03  0.66363660106E+03  0.00000000000E+00 0. -1.
<scales pt_clust_5="13000.00000" pt_clust_6="13000.00000" pt_clust_7="13000.00000" pt_clust_8="13000.00000" pt_clust_9="21.53296" pt_clust_10="197.25165"></scales>
<clustering>
<clus scale="   21.533">  9 10 -1 -1</clus>
<clus scale="   91.690">  5  6 -1 -1</clus>
<clus scale="   99.535">  7  8 -1 -1</clus>
<clus scale="  138.882">  1  7  2 -1</clus>
<clus scale="  197.252">  2  9  1 -1</clus>
<clus scale="  197.252">  2  5  1 -1</clus>
</clustering>
</event>
<event>
10    2  0.1671105E-006  0.1807947E+03  0.7546771E-02  0.1190709E+00
          1   -1    0    0  503    0 -0.00000000000E+00  0.00000000000E+00  0.39982308296E+03  0.39982308296E+03  0.00000000000E+00 0. -1.
         21   -1    0    0  501  502  0.00000000000E+00 -0.00000000000E+00 -0.81065791954E+03  0.81065791954E+03  0.00000000000E+00 0. -1.
         23    2    1    2    0    0 -0.53908699157E+02 -0.13821256470E+02  0.47319458693E+02  0.11706346805E+03  0.91474310087E+02 0.  0.
         23    2    1    2    0    0 -0.10817293255E+03  0.26193334482E+02  0.28417877243E+03  0.31813871732E+03  0.89817563140E+02 0.  0.
        -11    1    3    3    0    0 -0.92705373554E+01 -0.39287897137E+02  0.51577077913E+02  0.65495623445E+02  0.00000000000E+00 0.  1.
         11    1    3    3    0    0 -0.44638161801E+02  0.25466640667E+02 -0.42576192207E+01  0.51567844606E+02  0.00000000000E+00 0. -1.
        -13    1    4    4    0    0 -0.54273495857E+01  0.38875359912E+02  0.70077445140E+02  0.80321840424E+02  0.00000000000E+00 0.  1.
         13    1    4    4    0    0 -0.10274558296E+03 -0.12682025430E+02  0.21410132729E+03  0.23781687689E+03  0.00000000000E+00 0. -1.
         21    1    1    2  503  502  0.39320899368E+02  0.19486463215E+02 -0.33554985395E+02  0.55243030516E+02  0.00000000000E+00 0.  1.
          1    1    1    2  501    0  0.12276073234E+03 -0.31858541227E+02 -0.70877808230E+03  0.72003578661E+03  0.00000000000E+00 0. -1.
<scales pt_clust_5="13000.00000" pt_clust_6="13000.00000" pt_clust_7="13000.00000" pt_clust_8="13000.00000" pt_clust_9="43.88457" pt_clust_10="156.90608"></scales>
<clustering>
<clus scale="   43.885">  2  9  1 -1</clus>
<clus scale="   89.818">  7  8 -1 -1</clus>
<clus scale="   91.474">  5  6 -1 -1</clus>
<clus scale="  106.072">  1  5  2 -1</clus>
<clus scale="  156.906">  2 10  1 -1</clus>
<clus scale="   43.885">  2  5  1 -1</clus>
</clustering>
</event>
<event>
10    2  0.1671105E-006  0.1685716E+03  0.7546771E-02  0.1179414E+00
          1   -1    0    0  503    0 -0.00000000000E+00  0.00000000000E+00  0.34155729840E+03  0.34155729840E+03  0.00000000000E+00 0. -1.
         21   -1    0    0  501  502  0.00000000000E+00 -0.00000000000E+00 -0.25341650748E+03  0.25341650748E+03  0.00000000000E+00 0. -1.
         23    2    1    2    0    0  0.13339654709E+02  0.12554853269E+03  0.17634386770E+03  0.23557240930E+03  0.91960969450E+02 0.  0.
         23    2    1    2    0    0  0.19591853509E+01 -0.21513510977E+03 -0.48338226259E+02  0.23873227936E+03  0.91485317012E+02 0.  0.
        -13    1    4    4    0    0 -0.22038784007E+02 -0.86489809050E+02 -0.59694281220E+02  0.10737598559E+03  0.00000000000E+00 0.  1.
         13    1    4    4    0    0  0.23997969357E+02 -0.12864530072E+03  0.11356054961E+02  0.13135629378E+03  0.00000000000E+00 0. -1.
        -13    1    3    3    0    0  0.46785609280E+02  0.10498566853E+03  0.14676499682E+03  0.18641579366E+03  0.00000000000E+00 0. -1.
         13    1    3    3    0    0 -0.33445954571E+02  0.20562864164E+02  0.29578870873E+02  0.49156615647E+02  0.00000000000E+00 0.  1.
         21    1    1    2  503  502  0.23420080484E+02  0.58842607852E+02 -0.30722842271E+02  0.70390664906E+02  0.00000000000E+00 0. -1.
          1    1    1    2  501    0 -0.38718920544E+02  0.30743969227E+02 -0.91420082521E+01  0.50278452311E+02  0.00000000000E+00 0. -1.
<scales pt_clust_5="13000.00000" pt_clust_6="13000.00000" pt_clust_7="13000.00000" pt_clust_8="13000.00000" pt_clust_9="67.40629" pt_clust_10="49.44033"></scales>
<clustering>
<clus scale="   49.440">  2 10  1 -1</clus>
<clus scale="   67.406">  2  9  1 -1</clus>
<clus scale="   91.485">  5  6 -1 -1</clus>
<clus scale="   91.961">  7  8 -1 -1</clus>
<clus scale="  168.313">  2  5  1 -1</clus>
<clus scale="   49.440">  2  5  1 -1</clus>
</clustering>
</event>
<event>
10    2  0.2999354E-006  0.1224637E+03  0.7546771E-02  0.1240461E+00
         21   -1    0    0  503  502  0.00000000000E+00  0.00000000000E+00  0.28419757191E+03  0.28419757191E+03  0.00000000000E+00 0. -1.
         -3   -1    0    0    0  501 -0.00000000000E+00 -0.00000000000E+00 -0.79678392204E+03  0.79678392204E+03  0.00000000000E+00 0.  1.
         23    2    1    2    0    0  0.15585426936E+02 -0.58764857811E+02 -0.48198180201E+03  0.49513452575E+03  0.95684518471E+02 0.  0.
         23    2    1    2    0    0  0.29342764001E+02  0.14693794508E+03 -0.26036681779E+03  0.31398053521E+03  0.91329837296E+02 0.  0.
        -11    1    3    3    0    0  0.52188210975E+02 -0.44740762650E+02 -0.37385348451E+03  0.38012073488E+03  0.00000000000E+00 0. -1.
         11    1    3    3    0    0 -0.36602784040E+02 -0.14024095161E+02 -0.10812831751E+03  0.11501379087E+03  0.00000000000E+00 0.  1.
        -13    1    4    4    0    0  0.27282694629E+02  0.11084420265E+03 -0.25232377709E+03  0.27694416617E+03  0.00000000000E+00 0.  1.
         13    1    4    4    0    0  0.20600693720E+01  0.36093742429E+02 -0.80430407009E+01  0.37036369045E+02  0.00000000000E+00 0. -1.
         21    1    1    2  503  501 -0.69580594105E+02 -0.92213521231E+02  0.21125386756E+03  0.24077580678E+03  0.00000000000E+00 0. -1.
         -3    1    1    2    0  502  0.24652403168E+02  0.40404339599E+01  0.18508402120E+02  0.31090626201E+02  0.00000000000E+00 0.  1.
<scales pt_clust_5="13000.00000" pt_clust_6="13000.00000" pt_clust_7="13000.00000" pt_clust_8="13000.00000" pt_clust_9="100.89673" pt_clust_10="24.98131"></scales>
<clustering>
<clus scale="   24.981">  1 10  2 -1</clus>
<clus scale="   91.330">  7  8 -1 -1</clus>
<clus scale="   95.685">  5  6 -1 -1</clus>
<clus scale="  100.897">  1  9  2 -1</clus>
<clus scale="  119.092">  1  7  2 -1</clus>
<clus scale="   24.981">  1  5  2 -1</clus>
</clustering>
</event>
<event>
10    2  0.1671105E-006  0.9387895E+02  0.7546771E-02  0.1294954E+00
          1   -1    0    0  503    0 -0.00000000000E+00  0.00000000000E+00  0.98626484916E+03  0.98626484916E+03  0.00000000000E+00 0. -1.
         21   -1    0    0  501  502  0.00000000000E+00 -0.00000000000E+00 -0.27672031302E+02  0.27672031302E+02  0.00000000000E+00 0.  1.
         23    2    1    2    0    0 -0.97065391290E+01 -0.22904741619E+02  0.42376983598E+03  0.43470562857E+03  0.93644356652E+02 0.  0.
         23    2    1    2    0    0 -0.36098370314E+02 -0.41597088636E+02  0.27933636456E+03  0.29905918921E+03  0.91510567494E+02 0.  0.
        -13    1    3    3    0    0  0.37533919635E+02 -0.30858838123E+02  0.19374535009E+03  0.19974564750E+03  0.00000000000E+00 0.  1.
         13    1    3    3    0    0 -0.47240458764E+02  0.79540965047E+01  0.23002448589E+03  0.23495998107E+03  0.00000000000E+00 0. -1.
        -13    1    4    4    0    0 -0.13254764036E+02  0.20291948789E+02  0.19880808397E+02  0.31348022232E+02  0.00000000000E+00 0. -1.
         13    1    4    4    0    0 -0.22843606279E+02 -0.61889037425E+02  0.25945555616E+03  0.26771116697E+03  0.00000000000E+00 0.  1.
         21    1    1    2  503  502  0.21306675309E+02  0.81238688946E+02  0.16862103658E+03  0.18837927957E+03  0.00000000000E+00 0.  1.
          1    1    1    2  501    0  0.24498234134E+02 -0.16736858692E+02  0.86865580738E+02  0.91792783113E+02  0.00000000000E+00 0. -1.
<scales pt_clust_5="13000.00000" pt_clust_6="13000.00000" pt_clust_7="13000.00000" pt_clust_8="13000.00000" pt_clust_9="80.82269" pt_clust_10="29.66963"></scales>
<clustering>
<clus scale="   29.670">  2 10  1 -1</clus>
<clus scale="   80.823">  2  9  1 -1</clus>
<clus scale="   91.511">  7  8 -1 -1</clus>
<clus scale="   91.751">  2  7  1 -1</clus>
<clus scale="   93.644">  5  6 -1 -1</clus>
<clus scale="   29.670">  2  5  1 -1</clus>
</clustering>
</event>
<event>
10    2  0.1671105E-006  0.1452162E+03  0.7546771E-02  0.1207783E+00
          2   -1    0    0  503    0 -0.00000000000E+00  0.00000000000E+00  0.62922660762E+02  0.62922660762E+02  0.00000000000E+00 0. -1.
         21   -1    0    0  501  502  0.00000000000E+00 -0.00000000000E+00 -0.63618222870E+03  0.63618222870E+03  0.00000000000E+00 0.  1.
         23    2    1    2    0    0  0.54767938736E+02  0.67357982990E+02 -0.12690781213E+03  0.18192938178E+03  0.97242388848E+02 0.  0.
         23    2    1    2    0    0 -0.12251236654E+03 -0.90156196269E+02 -0.28014566730E+03  0.33155073402E+03  0.91142057477E+02 0.  0.
        -11    1    3    3    0    0  0.51121624010E+02 -0.87035745470E+01 -0.68735628336E+02  0.86103189570E+02  0.00000000000E+00 0.  1.
         11    1    3    3    0    0  0.36463147257E+01  0.76061557537E+02 -0.58172183798E+02  0.95826192212E+02  0.00000000000E+00 0. -1.
        -13    1    4    4    0    0 -0.66332623969E+02 -0.12491410425E+02 -0.55768595514E+02  0.87556773482E+02  0.00000000000E+00 0. -1.
         13    1    4    4    0    0 -0.56179742570E+02 -0.77664785844E+02 -0.22437707178E+03  0.24399396054E+03  0.00000000000E+00 0.  1.
         21    1    1    2  503  502  0.32662842605E+02 -0.10478849077E+02 -0.69169006011E+02  0.77207635358E+02  0.00000000000E+00 0. -1.
          2    1    1    2  501    0  0.35081585198E+02  0.33277062356E+02 -0.97037082492E+02  0.10841713830E+03  0.00000000000E+00 0. -1.
<scales pt_clust_5="13000.00000" pt_clust_6="13000.00000" pt_clust_7="13000.00000" pt_clust_8="13000.00000" pt_clust_9="34.30259" pt_clust_10="51.65428"></scales>
<clustering>
<clus scale="   34.303">  2  9  1 -1</clus>
<clus scale="   51.654">  2 10  1 -1</clus>
<clus scale="   91.142">  7  8 -1 -1</clus>
<clus scale="   97.242">  5  6 -1 -1</clus>
<clus scale="  141.204">  2  7  1 -1</clus>
<clus scale="   34.303">  2  5  1 -1</clus>
</clustering>
</event>
<event>
10    2  0.2675943E-006  0.1129263E+03  0.7546771E-02  0.1255482E+00
          2   -1    0    0  503    0 -0.00000000000E+00  0.00000000000E+00  0.73391779284E+03  0.73391779284E+03  0.00000000000E+00 0. -1.
         21   -1    0    0  501  502  0.00000000000E+00 -0.00000000000E+00 -0.27608620322E+03  0.27608620322E+03  0.00000000000E+00 0. -1.
         23    2    1    2    0    0 -0.63757304980E+02 -0.10283892473E+03  0.54403353343E+03  0.56470745415E+03  0.91001015915E+02 0.  0.
         23    2    1    2    0    0  0.22829152223E+02  0.17444056865E+02  0.11398773333E+03  0.14825927237E+03  0.90344580263E+02 0.  0.
        -13    1    3    3    0    0  0.11211116593E+02 -0.53343996485E+02  0.12865869757E+03  0.13972949423E+03  0.00000000000E+00 0.  1.
         13    1    3    3    0    0 -0.74968421573E+02 -0.49494928244E+02  0.41537483585E+03  0.42497795992E+03  0.00000000000E+00 0. -1.
        -13    1    4    4    0    0 -0.22294932731E+02 -0.17112775036E+02  0.10145699266E+02  0.29880533939E+02  0.00000000000E+00 0. -1.
         13    1    4    4    0    0  0.45124084954E+02  0.34556831901E+02  0.10384203407E+03  0.11837873843E+03  0.00000000000E+00 0.  1.
         21    1    1    2  503  502  0.45930659648E+02  0.11302921655E+02  0.29429210889E+02  0.55708706565E+02  0.00000000000E+00 0.  1.
          2    1    1    2  501    0 -0.50025068909E+01  0.74091946208E+02 -0.22961888803E+03  0.24132856298E+03  0.00000000000E+00 0. -1.
<scales pt_clust_5="13000.00000" pt_clust_6="13000.00000" pt_clust_7="13000.00000" pt_clust_8="13000.00000" pt_clust_9="47.30097" pt_clust_10="74.33098"></scales>
<clustering>
<clus scale="   47.301">  1  9  2 -1</clus>
<clus scale="   74.331">  2 10  1 -1</clus>
<clus scale="   90.345">  7  8 -1 -1</clus>
<clus scale="   91.001">  5  6 -1 -1</clus>
<clus scale="  112.398">  2  7  1 -1</clus>
<clus scale="   74.331">  2  5  1 -1</clus>
</clustering>
</event>
<event>
10    2  0.1671105E-006  0.1752552E+03  0.7546771E-02  0.1188410E+00
         21   -1    0    0  503  502  0.00000000000E+00  0.00000000000E+00  0.77361827287E+03  0.77361827287E+03  0.00000000000E+00 0. -1.
          1   -1    0    0  502    0 -0.00000000000E+00 -0.00000000000E+00 -0.30618329940E+03  0.30618329940E+03  0.00000000000E+00 0. -1.
         23    2    1    2    0    0 -0.87910119726E+00  0.82606039348E+02  0.18789540814E+03  0.22431500806E+03  0.90487611789E+02 0.  0.
         23    2    1    2    0    0  0.99926271168E+02 -0.19067238707E+03 -0.22785867319E+03  0.32682023215E+03  0.92469834724E+02 0.  0.
        -13    1    4    4    0    0 -0.72921220144E+01 -0.60276336492E+02 -0.91499977731E+02  0.10981191970E+03  0.00000000000E+00 0.  1.
         13    1    4    4    0    0  0.10721839318E+03 -0.13039605058E+03 -0.13635869546E+03  0.21700831244E+03  0.00000000000E+00 0. -1.
        -13    1    3    3    0    0 -0.31539143859E+02 -0.22011188357E+01  0.60053739402E+02  0.67867622145E+02  0.00000000000E+00 0. -1.
         13    1    3    3    0    0  0.30660042662E+02  0.84807158184E+02  0.12784166874E+03  0.15644738592E+03  0.00000000000E+00 0.  1.
         21    1    1    2  503  501 -0.49526405638E+02  0.47121600637E+02  0.27455541556E+03  0.28293813160E+03  0.00000000000E+00 0. -1.
          1    1    1    2  501    0 -0.49520764333E+02  0.60944747086E+02  0.23284282295E+03  0.24572820045E+03  0.00000000000E+00 0. -1.
<scales pt_clust_5="13000.00000" pt_clust_6="13000.00000" pt_clust_7="13000.00000" pt_clust_8="13000.00000" pt_clust_9="21.81056" pt_clust_10="150.69886"></scales>
<clustering>
<clus scale="   21.811">  9 10 -1 -1</clus>
<clus scale="   90.488">  7  8 -1 -1</clus>
<clus scale="   92.470">  5  6 -1 -1</clus>
<clus scale="  122.526">  2  7  1 -1</clus>
<clus scale="  150.699">  1  9  2 -1</clus>
<clus scale="  150.699">  1  5  2 -1</clus>
</clustering>
</event>
<event>
10    2  0.1671105E-006  0.1215690E+03  0.7546771E-02  0.1241600E+00
         -2   -1    0    0    0  501 -0.00000000000E+00  0.00000000000E+00  0.45014131983E+03  0.45014131983E+03  0.00000000000E+00 0.  1.
         21   -1    0    0  503  502  0.00000000000E+00 -0.00000000000E+00 -0.14250919714E+03  0.14250919714E+03  0.00000000000E+00 0.  1.
         23    2    1    2    0    0  0.55058292247E+02 -0.46412734869E+02  0.31799668037E+03  0.33824497130E+03  0.90012301256E+02 0.  0.
         23    2    1    2    0    0 -0.52570491957E+02  0.99793750148E+02  0.56225032260E+02  0.15688575487E+03  0.93431454215E+02 0.  0.
        -11    1    3    3    0    0  0.35134166000E+02  0.20950953283E+02  0.16329481351E+03  0.16834057201E+03  0.00000000000E+00 0.  1.
         11    1    3    3    0    0  0.19924126247E+02 -0.67363688151E+02  0.15470186686E+03  0.16990439929E+03  0.00000000000E+00 0. -1.
        -13    1    4    4    0    0 -0.66612020393E+02  0.81569883524E+02  0.73235451241E+02  0.12827407563E+03  0.00000000000E+00 0.  1.
         13    1    4    4    0    0  0.14041528436E+02  0.18223866623E+02 -0.17010418981E+02  0.28611679249E+02  0.00000000000E+00 0. -1.
         21    1    1    2  503  501  0.80409635334E+01 -0.22843865290E+02 -0.80307256194E+00  0.24231058612E+02  0.00000000000E+00 0.  1.
         -2    1    1    2    0  502 -0.10528763824E+02 -0.30537149989E+02 -0.65786517377E+02  0.73288732188E+02  0.00000000000E+00 0.  1.
<scales pt_clust_5="13000.00000" pt_clust_6="13000.00000" pt_clust_7="13000.00000" pt_clust_8="13000.00000" pt_clust_9="24.21775" pt_clust_10="43.20829"></scales>
<clustering>
<clus scale="   24.218">  2  9  1 -1</clus>
<clus scale="   43.208">  2 10  1 -1</clus>
<clus scale="   90.012">  5  6 -1 -1</clus>
<clus scale="   93.431">  7  8 -1 -1</clus>
<clus scale="  118.961">  1  5  2 -1</clus>
<clus scale="   24.218">  2  5  1 -1</clus>
</clustering>
</event>
<event>
10    2  0.1671105E-006  0.1543040E+03  0.7546771E-02  0.1197595E+00
         21   -1    0    0  503  502  0.00000000000E+00  0.00000000000E+00  0.10578711654E+03  0.10578711654E+03  0.00000000000E+00 0. -1.
          2   -1    0    0  502    0 -0.00000000000E+00 -0.00000000000E+00 -0.52724174137E+03  0.52724174137E+03  0.00000000000E+00 0. -1.
         23    2    1    2    0    0  0.13688088046E+03  0.11449708786E+02 -0.21414746455E+03  0.26986788052E+03  0.90011472023E+02 0.  0.
         23    2    1    2    0    0 -0.63202437960E+02 -0.10349362294E+03 -0.17406340570E+03  0.23536114688E+03  0.10193783450E+03 0.  0.
        -11    1    3    3    0    0  0.41413537879E+02  0.32089541799E+02 -0.27407902628E+02  0.59127091413E+02  0.00000000000E+00 0.  1.
         11    1    3    3    0    0  0.95467342582E+02 -0.20639833012E+02 -0.18673956192E+03  0.21074078910E+03  0.00000000000E+00 0. -1.
        -13    1    4    4    0    0  0.21593849304E+02 -0.38405175288E+01 -0.67287611465E+01  0.22941667969E+02  0.00000000000E+00 0.  1.
         13    1    4    4    0    0 -0.84796287264E+02 -0.99653105413E+02 -0.16733464455E+03  0.21241947891E+03  0.00000000000E+00 0. -1.
         21    1    1    2  503  501 -0.14933956266E+02  0.37275483707E+02 -0.24428529593E+02  0.47002529650E+02  0.00000000000E+00 0.  1.
          2    1    1    2  501    0 -0.58744486235E+02  0.54768430448E+02 -0.88152249896E+01  0.80797300873E+02  0.00000000000E+00 0. -1.
<scales pt_clust_5="13000.00000" pt_clust_6="13000.00000" pt_clust_7="13000.00000" pt_clust_8="13000.00000" pt_clust_9="25.75847" pt_clust_10="123.40036"></scales>
<clustering>
<clus scale="   25.758">  9 10 -1 -1</clus>
<clus scale="   90.011">  5  6 -1 -1</clus>
<clus scale="  101.938">  7  8 -1 -1</clus>
<clus scale="  123.400">  1  9  2 -1</clus>
<clus scale="  146.699">  2  5  1 -1</clus>
<clus scale="  123.400">  1  5  2 -1</clus>
</clustering>
</event>
<event>
10    2  0.1671105E-006  0.1403654E+03  0.7546771E-02  0.1220924E+00
         21   -1    0    0  501  502  0.00000000000E+00  0.00000000000E+00  0.13179439408E+03  0.13179439408E+03  0.00000000000E+00 0.  1.
          1   -1    0    0  503    0 -0.00000000000E+00 -0.00000000000E+00 -0.44085456224E+03  0.44085456224E+03  0.00000000000E+00 0. -1.
         23    2    1    2    0    0  0.40832535455E+02  0.39781537130E+02 -0.95432573136E+02  0.13958687712E+03  0.84423063197E+02 0.  0.
         23    2    1    2    0    0  0.29701625212E+02 -0.10822861885E+00 -0.34786391724E+02  0.12261168260E+03  0.11375998157E+03 0.  0.
        -11    1    4    4    0    0  0.67572763343E+02  0.24401798834E+02 -0.27445965038E+02  0.76907783280E+02  0.00000000000E+00 0.  1.
         11    1    4    4    0    0 -0.37871138131E+02 -0.24510027452E+02 -0.73404266859E+01  0.45703899319E+02  0.00000000000E+00 0. -1.
        -13    1    3    3    0    0 -0.10441566868E+02 -0.18618092367E+02 -0.84862239837E+01  0.22971192384E+02  0.00000000000E+00 0. -1.
         13    1    3    3    0    0  0.51274102323E+02  0.58399629498E+02 -0.86946349152E+02  0.11661568473E+03  0.00000000000E+00 0.  1.
         21    1    1    2  503  502  0.58253211361E+02  0.29614022179E+02 -0.14687245057E+03  0.16075429599E+03  0.00000000000E+00 0. -1.
          1    1    1    2  501    0 -0.12878737203E+03 -0.69287330691E+02 -0.31968752733E+02  0.14969610062E+03  0.00000000000E+00 0. -1.
<scales pt_clust_5="13000.00000" pt_clust_6="13000.00000" pt_clust_7="13000.00000" pt_clust_8="13000.00000" pt_clust_9="65.34850" pt_clust_10="82.22598"></scales>
<clustering>
<clus scale="   65.349">  2  9  1 -1</clus>
<clus scale="   84.423">  7  8 -1 -1</clus>
<clus scale="  113.760">  5  6 -1 -1</clus>
<clus scale="  118.342">  2  7  1 -1</clus>
<clus scale="   82.226">  1 10  2 -1</clus>
<clus scale="   82.226">  1  5  2 -1</clus>
</clustering>
</event>
<event>
10    2  0.1671105E-006  0.1024381E+03  0.7546771E-02  0.1276769E+00
         -3   -1    0    0    0  501 -0.00000000000E+00  0.00000000000E+00  0.21228072967E+03  0.21228072967E+03  0.00000000000E+00 0.  1.
         21   -1    0    0  501  502  0.00000000000E+00 -0.00000000000E+00 -0.10643335929E+03  0.10643335929E+03  0.00000000000E+00 0. -1.
         23    2    1    2    0    0 -0.30701301935E+02  0.21877252245E+02  0.64561395877E+02  0.11452761729E+03  0.86759536531E+02 0.  0.
         23    2    1    2    0    0  0.63440907109E+02 -0.70249729153E+01  0.85909593592E+02  0.13990915429E+03  0.90111121641E+02 0.  0.
        -11    1    3    3    0    0  0.24324439840E+02 -0.76614664948E+01  0.11543076965E+01  0.25528589241E+02  0.00000000000E+00 0. -1.
         11    1    3    3    0    0 -0.55025741775E+02  0.29538718740E+02  0.63407088181E+02  0.88999028052E+02  0.00000000000E+00 0.  1.
        -11    1    4    4    0    0 -0.19872092577E+02 -0.14124932065E+02  0.80999392375E+01  0.25690908604E+02  0.00000000000E+00 0.  1.
         11    1    4    4    0    0  0.83312999686E+02  0.70999591501E+01  0.77809654354E+02  0.11421824568E+03  0.00000000000E+00 0. -1.
         21    1    1    2  503  502 -0.84215452331E+01 -0.19729384915E+02 -0.21347194760E+02  0.30263406572E+02  0.00000000000E+00 0. -1.
         -3    1    1    2    0  503 -0.24318059941E+02  0.48771055843E+01 -0.23276424334E+02  0.34013910801E+02  0.00000000000E+00 0.  1.
<scales pt_clust_5="13000.00000" pt_clust_6="13000.00000" pt_clust_7="13000.00000" pt_clust_8="13000.00000" pt_clust_9="21.45160" pt_clust_10="27.39314"></scales>
<clustering>
<clus scale="   21.452">  2  9  1 -1</clus>
<clus scale="   27.393">  2 10  1 -1</clus>
<clus scale="   86.760">  5  6 -1 -1</clus>
<clus scale="   90.111">  7  8 -1 -1</clus>
<clus scale="   99.503">  1  5  2 -1</clus>
<clus scale="   21.452">  2  5  1 -1</clus>
</clustering>
</event>
<event>
10    2  0.1671105E-006  0.1011240E+03  0.7546771E-02  0.1290539E+00
         -2   -1    0    0    0  501 -0.00000000000E+00  0.00000000000E+00  0.29766793469E+03  0.29766793469E+03  0.00000000000E+00 0.  1.
         21   -1    0    0  503  502  0.00000000000E+00 -0.00000000000E+00 -0.19310364880E+03  0.19310364880E+03  0.00000000000E+00 0.  1.
         23    2    1    2    0    0  0.33794065847E+01 -0.19331962900E+02  0.16540593277E+03  0.19163192502E+03  0.94755089126E+02 0.  0.
         23    2    1    2    0    0 -0.51309576085E+02  0.43436689575E+02  0.86049823738E+02  0.13049882433E+03  0.71455947175E+02 0.  0.
        -11    1    4    4    0    0 -0.19937296492E+02  0.48073816404E+02  0.17396321842E+02  0.54874580897E+02  0.00000000000E+00 0.  1.
         11    1    4    4    0    0 -0.31372279593E+02 -0.46371268288E+01  0.68653501896E+02  0.75624243432E+02  0.00000000000E+00 0. -1.
        -13    1    3    3    0    0 -0.14181919819E+02 -0.44920600932E+02  0.14952493964E+03  0.15676955958E+03  0.00000000000E+00 0. -1.
         13    1    3    3    0    0  0.17561326404E+02  0.25588638032E+02  0.15880993128E+02  0.34862365441E+02  0.00000000000E+00 0.  1.
         21    1    1    2  503  501  0.24051159286E+02 -0.13434723717E+02 -0.10054085875E+02  0.29326348343E+02  0.00000000000E+00 0.  1.
         -2    1    1    2    0  502  0.23879010215E+02 -0.10670002958E+02 -0.13683738474E+03  0.13931448580E+03  0.00000000000E+00 0.  1.
<scales pt_clust_5="13000.00000" pt_clust_6="13000.00000" pt_clust_7="13000.00000" pt_clust_8="13000.00000" pt_clust_9="36.87996" pt_clust_10="26.15447"></scales>
<clustering>
<clus scale="   26.154">  2 10  1 -1</clus>
<clus scale="   36.880">  2  9  1 -1</clus>
<clus scale="   71.456">  5  6 -1 -1</clus>
<clus scale="   79.709">  2  5  1 -1</clus>
<clus scale="   94.755">  7  8 -1 -1</clus>
<clus scale="   26.154">  2  5  1 -1</clus>
</clustering>
</event>
<event>
10    2  0.1671105E-006  0.1268546E+03  0.7546771E-02  0.1232841E+00
         21   -1    0    0  501  502  0.00000000000E+00  0.00000000000E+00  0.35149567968E+03  0.35149567968E+03  0.00000000000E+00 0. -1.
          1   -1    0    0  503    0 -0.00000000000E+00 -0.00000000000E+00 -0.28900703884E+03  0.28900703884E+03  0.00000000000E+00 0. -1.
         23    2    1    2    0    0  0.61183691396E+02 -0.58751392828E+02 -0.22941024609E+03  0.26087127267E+03  0.90717085710E+02 0.  0.
         23    2    1    2    0    0 -0.89995104820E+02  0.50335230731E+02  0.11842938382E+03  0.18250214625E+03  0.92998710140E+02 0.  0.
        -11    1    4    4    0    0 -0.66768578952E+02 -0.15684027515E+02  0.64473699956E+02  0.94132299666E+02  0.00000000000E+00 0. -1.
         11    1    4    4    0    0 -0.23226525868E+02  0.66019258246E+02  0.53955683866E+02  0.88369846581E+02  0.00000000000E+00 0.  1.
        -13    1    3    3    0    0  0.69574275190E+02 -0.13437437450E+02 -0.93214664696E+02  0.11709021397E+03  0.00000000000E+00 0.  1.
         13    1    3    3    0    0 -0.83905837940E+01 -0.45313955378E+02 -0.13619558139E+03  0.14378105870E+03  0.00000000000E+00 0. -1.
         21    1    1    2  503  502  0.40014773162E+02 -0.22438565015E+02  0.14977938807E+03  0.15664780995E+03  0.00000000000E+00 0. -1.
          1    1    1    2  501    0 -0.11203359738E+02  0.30854727112E+02  0.23690115033E+02  0.40481489657E+02  0.00000000000E+00 0. -1.
<scales pt_clust_5="13000.00000" pt_clust_6="13000.00000" pt_clust_7="13000.00000" pt_clust_8="13000.00000" pt_clust_9="35.47290" pt_clust_10="32.82574"></scales>
<clustering>
<clus scale="   32.826">  1 10  2 -1</clus>
<clus scale="   35.473">  1  9  2 -1</clus>
<clus scale="   90.717">  7  8 -1 -1</clus>
<clus scale="   92.999">  5  6 -1 -1</clus>
<clus scale="  125.192">  2  7  1 -1</clus>
<clus scale="   32.826">  1  5  2 -1</clus>
</clustering>
</event>
<event>
10    2  0.1671105E-006  0.1634441E+03  0.7546771E-02  0.1187377E+00
         21   -1    0    0  503  502  0.00000000000E+00  0.00000000000E+00  0.14600465365E+04  0.14600465365E+04  0.00000000000E+00 0. -1.
          1   -1    0    0  502    0 -0.00000000000E+00 -0.00000000000E+00 -0.35173762258E+02  0.35173762258E+02  0.00000000000E+00 0. -1.
         23    2    1    2    0    0  0.21912849468E+02  0.12692855254E+03  0.45837876879E+03  0.48466467449E+03  0.90541264654E+02 0.  0.
         23    2    1    2    0    0 -0.11757917994E+03 -0.83364732111E+02  0.60505567300E+03  0.63078663066E+03  0.10499935183E+03 0.  0.
        -11    1    3    3    0    0 -0.54331209446E+01  0.39271337055E+02  0.39964154738E+02  0.56292898142E+02  0.00000000000E+00 0.  1.
         11    1    3    3    0    0  0.27345970412E+02  0.87657215482E+02  0.41841461405E+03  0.42837177635E+03  0.00000000000E+00 0. -1.
        -13    1    4    4    0    0 -0.18906919331E+02 -0.43882643025E+02  0.66748572880E+02  0.82088549378E+02  0.00000000000E+00 0.  1.
         13    1    4    4    0    0 -0.98672260611E+02 -0.39482089085E+02  0.53830710012E+03  0.54869808129E+03  0.00000000000E+00 0. -1.
         21    1    1    2  503  501  0.62999234615E+02 -0.11487299137E+02  0.14452834447E+03  0.15808005554E+03  0.00000000000E+00 0. -1.
          1    1    1    2  501    0  0.32667095859E+02 -0.32076521289E+02  0.21690998794E+03  0.22168893801E+03  0.00000000000E+00 0. -1.
<scales pt_clust_5="13000.00000" pt_clust_6="13000.00000" pt_clust_7="13000.00000" pt_clust_8="13000.00000" pt_clust_9="42.58814" pt_clust_10="116.56258"></scales>
<clustering>
<clus scale="   42.588">  9 10 -1 -1</clus>
<clus scale="   90.541">  5  6 -1 -1</clus>
<clus scale="  104.999">  7  8 -1 -1</clus>
<clus scale="  116.563">  1  9  2 -1</clus>
<clus scale="  154.554">  2  5  1 -1</clus>
<clus scale="  116.563">  1  5  2 -1</clus>
</clustering>
</event>
<event>
10    2  0.1671105E-006  0.1194145E+03  0.7546771E-02  0.1246338E+00
         21   -1    0    0  501  502  0.00000000000E+00  0.00000000000E+00  0.17579264389E+03  0.17579264389E+03  0.00000000000E+00 0. -1.
          2   -1    0    0  503    0 -0.00000000000E+00 -0.00000000000E+00 -0.35360120298E+03  0.35360120298E+03  0.00000000000E+00 0. -1.
         23    2    1    2    0    0  0.70531981871E+02 -0.14003497103E+02 -0.29167647534E+03  0.31390842624E+03  0.91063029817E+02 0.  0.
         23    2    1    2    0    0 -0.44212612818E+02 -0.39332851020E+02  0.79561240597E+02  0.13917984413E+03  0.97668877877E+02 0.  0.
        -11    1    4    4    0    0 -0.14606513072E+02 -0.54901950327E+02  0.87941219994E+02  0.10469590511E+03  0.00000000000E+00 0. -1.
         11    1    4    4    0    0 -0.29606099747E+02  0.15569099307E+02 -0.83799793968E+01  0.34483939017E+02  0.00000000000E+00 0.  1.
        -13    1    3    3    0    0  0.26630313807E+02 -0.41011093147E+02 -0.64401116692E+02  0.80861531062E+02  0.00000000000E+00 0.  1.
         13    1    3    3    0    0  0.43901668065E+02  0.27007596044E+02 -0.22727535865E+03  0.23304689518E+03  0.00000000000E+00 0. -1.
         21    1    1    2  503  502 -0.24653932348E+02  0.20763638091E+02  0.28807796087E+02  0.43230014601E+02  0.00000000000E+00 0. -1.
          2    1    1    2  501    0 -0.16654367048E+01  0.32572710031E+02  0.54988795735E+01  0.33075561896E+02  0.00000000000E+00 0. -1.
<scales pt_clust_5="13000.00000" pt_clust_6="13000.00000" pt_clust_7="13000.00000" pt_clust_8="13000.00000" pt_clust_9="32.23267" pt_clust_10="35.79833"></scales>
<clustering>
<clus scale="   32.233">  1  9  2 -1</clus>
<clus scale="   35.798">  1 10  2 -1</clus>
<clus scale="   91.063">  7  8 -1 -1</clus>
<clus scale="   97.669">  5  6 -1 -1</clus>
<clus scale="  114.075">  2  7  1 -1</clus>
<clus scale="   32.233">  1  5  2 -1</clus>
</clustering>
</event>
<event>
10    2  0.1671105E-006  0.1621712E+03  0.7546771E-02  0.1186699E+00
         21   -1    0    0  503  502  0.00000000000E+00  0.00000000000E+00  0.17775713322E+03  0.17775713322E+03  0.00000000000E+00 0. -1.
         -2   -1    0    0    0  501 -0.00000000000E+00 -0.00000000000E+00 -0.26054160335E+03  0.26054160335E+03  0.00000000000E+00 0.  1.
         23    2    1    2    0    0 -0.47842554962E+01 -0.10310916489E+03 -0.58769130615E+02  0.14997832758E+03  0.91571278493E+02 0.  0.
         23    2    1    2    0    0  0.47674581761E+02  0.15836435829E+03 -0.98107103860E+01  0.19061339097E+03  0.94260697297E+02 0.  0.
        -11    1    4    4    0    0  0.58757018375E+02  0.80849074430E+02 -0.38664422069E+02  0.10716294872E+03  0.00000000000E+00 0.  1.
         11    1    4    4    0    0 -0.11082436614E+02  0.77515283865E+02  0.28853711683E+02  0.83450442251E+02  0.00000000000E+00 0. -1.
        -13    1    3    3    0    0 -0.44686619904E+02 -0.80531049425E+02 -0.40901759396E+02  0.10077250539E+03  0.00000000000E+00 0.  1.
         13    1    3    3    0    0  0.39902364408E+02 -0.22578115463E+02 -0.17867371219E+02  0.49205822191E+02  0.00000000000E+00 0. -1.
         21    1    1    2  503  501 -0.49553014052E+02 -0.27339940693E+02 -0.30924336052E+02  0.64492543127E+02  0.00000000000E+00 0. -1.
         -2    1    1    2    0  502  0.66626877878E+01 -0.27915252714E+02  0.16719706932E+02  0.33214474895E+02  0.00000000000E+00 0.  1.
<scales pt_clust_5="13000.00000" pt_clust_6="13000.00000" pt_clust_7="13000.00000" pt_clust_8="13000.00000" pt_clust_9="57.51568" pt_clust_10="28.69935"></scales>
<clustering>
<clus scale="   28.699">  1 10  2 -1</clus>
<clus scale="   57.516">  2  9  1 -1</clus>
<clus scale="   91.571">  7  8 -1 -1</clus>
<clus scale="   94.261">  5  6 -1 -1</clus>
<clus scale="  160.623">  2  7  1 -1</clus>
<clus scale="   28.699">  1  5  2 -1</clus>
</clustering>
</event>
<event>
10    2  0.1671105E-006  0.1614285E+03  0.7546771E-02  0.1189865E+00
         -3   -1    0    0    0  501 -0.00000000000E+00  0.00000000000E+00  0.31205357924E+03  0.31205357924E+03  0.00000000000E+00 0.  1.
         21   -1    0    0  501  502  0.00000000000E+00 -0.00000000000E+00 -0.25719125689E+03  0.25719125689E+03  0.00000000000E+00 0.  1.
         23    2    1    2    0    0  0.49479756089E+02  0.67732786641E+02  0.60908673800E+02  0.13803931674E+03  0.91153769941E+02 0.  0.
         23    2    1    2    0    0 -0.13864405851E+03 -0.10925738453E+03  0.14282993343E+03  0.25075934714E+03  0.10639788185E+03 0.  0.
        -11    1    4    4    0    0 -0.14260987381E+03 -0.80748223079E+02  0.14880596779E+03  0.22136184786E+03  0.00000000000E+00 0.  1.
         11    1    4    4    0    0  0.39658152968E+01 -0.28509161450E+02 -0.59760343600E+01  0.29397499285E+02  0.00000000000E+00 0. -1.
        -13    1    3    3    0    0  0.94462456387E+01  0.81115527656E+02  0.40096932671E+02  0.90976504622E+02  0.00000000000E+00 0.  1.
         13    1    3    3    0    0  0.40033510451E+02 -0.13382741015E+02  0.20811741128E+02  0.47062812123E+02  0.00000000000E+00 0. -1.
         21    1    1    2  503  502  0.48719224349E+02  0.31265095557E+02 -0.66951793667E+02  0.88507692866E+02  0.00000000000E+00 0.  1.
         -3    1    1    2    0  503  0.40445078073E+02  0.10259502331E+02 -0.81924491211E+02  0.91938479368E+02  0.00000000000E+00 0.  1.
<scales pt_clust_5="13000.00000" pt_clust_6="13000.00000" pt_clust_7="13000.00000" pt_clust_8="13000.00000" pt_clust_9="22.81438" pt_clust_10="101.96408"></scales>
<clustering>
<clus scale="   22.814">  9 10 -1 -1</clus>
<clus scale="   91.154">  7  8 -1 -1</clus>
<clus scale="  101.964">  2  9  1 -1</clus>
<clus scale="  106.398">  5  6 -1 -1</clus>
<clus scale="  151.815">  1  7  2 -1</clus>
<clus scale="  101.964">  2  5  1 -1</clus>
</clustering>
</event>
<event>
10    2  0.1936120E-006  0.1318072E+03  0.7546771E-02  0.1225127E+00
          2   -1    0    0  503    0 -0.00000000000E+00  0.00000000000E+00  0.43845906612E+03  0.43845906612E+03  0.00000000000E+00 0. -1.
         21   -1    0    0  501  502  0.00000000000E+00 -0.00000000000E+00 -0.23465754328E+03  0.23465754328E+03  0.00000000000E+00 0. -1.
         23    2    1    2    0    0  0.89375918389E+02  0.69309102215E+02  0.35071491605E+03  0.38033177017E+03  0.94124899073E+02 0.  0.
         23    2    1    2    0    0 -0.22650518585E+02 -0.95798987516E+01  0.89793511707E+01  0.98898894203E+02  0.95370551403E+02 0.  0.
        -11    1    3    3    0    0  0.10604615033E+03  0.40227419209E+02  0.26205230813E+03  0.28554411823E+03  0.00000000000E+00 0.  1.
         11    1    3    3    0    0 -0.16670231936E+02  0.29081683005E+02  0.88662607916E+02  0.94787651947E+02  0.00000000000E+00 0. -1.
        -13    1    4    4    0    0  0.29674175185E+02  0.20540992827E+02 -0.62633238546E+01  0.36629472899E+02  0.00000000000E+00 0. -1.
         13    1    4    4    0    0 -0.52324693770E+02 -0.30120891578E+02  0.15242675025E+02  0.62269421304E+02  0.00000000000E+00 0.  1.
         21    1    1    2  503  502 -0.18939562819E+02  0.14534452321E+02 -0.17044570958E+02  0.29333849785E+02  0.00000000000E+00 0.  1.
          2    1    1    2  501    0 -0.47785836985E+02 -0.74263655784E+02 -0.13884817342E+03  0.16455209524E+03  0.00000000000E+00 0. -1.
<scales pt_clust_5="13000.00000" pt_clust_6="13000.00000" pt_clust_7="13000.00000" pt_clust_8="13000.00000" pt_clust_9="23.87378" pt_clust_10="88.55369"></scales>
<clustering>
<clus scale="   23.874">  2  9  1 -1</clus>
<clus scale="   88.554">  2 10  1 -1</clus>
<clus scale="   94.125">  5  6 -1 -1</clus>
<clus scale="   95.371">  7  8 -1 -1</clus>
<clus scale="  130.909">  1  5  2 -1</clus>
<clus scale="   23.874">  2  5  1 -1</clus>
</clustering>
</event>
<event>
10    2  0.1671105E-006  0.1750153E+03  0.7546771E-02  0.1190551E+00
         -1   -1    0    0    0  501 -0.00000000000E+00  0.00000000000E+00  0.22257883064E+03  0.22257883064E+03  0.00000000000E+00 0.  1.
         21   -1    0    0  501  502  0.00000000000E+00 -0.00000000000E+00 -0.12207250611E+04  0.12207250611E+04  0.00000000000E+00 0.  1.
         23    2    1    2    0    0  0.57369514803E+02 -0.39517914903E+02  0.29864523930E+02  0.12108030796E+03  0.94422583948E+02 0.  0.
         23    2    1    2    0    0 -0.49794561282E+02  0.18444456367E+03  0.60480596990E+02  0.22203099059E+03  0.95606290436E+02 0.  0.
        -13    1    4    4    0    0 -0.33173917790E+02  0.90625680322E+02  0.79302940892E+02  0.12490988427E+03  0.00000000000E+00 0.  1.
         13    1    4    4    0    0 -0.16620643492E+02  0.93818883343E+02 -0.18822343902E+02  0.97121106315E+02  0.00000000000E+00 0. -1.
        -13    1    3    3    0    0  0.24156832363E+02  0.14421833661E+02 -0.24727817110E+02  0.37456732038E+02  0.00000000000E+00 0.  1.
         13    1    3    3    0    0  0.33212682440E+02 -0.53939748563E+02  0.54592341040E+02  0.83623575923E+02  0.00000000000E+00 0. -1.
         21    1    1    2  503  502  0.27756728392E+02 -0.45803325275E+02 -0.30510827641E+03  0.30977320883E+03  0.00000000000E+00 0.  1.
         -1    1    1    2    0  503 -0.35331681913E+02 -0.99123323487E+02 -0.78338307498E+03  0.79041938436E+03  0.00000000000E+00 0.  1.
<scales pt_clust_5="13000.00000" pt_clust_6="13000.00000" pt_clust_7="13000.00000" pt_clust_8="13000.00000" pt_clust_9="48.11752" pt_clust_10="161.36600"></scales>
<clustering>
<clus scale="   48.118">  9 10 -1 -1</clus>
<clus scale="   94.423">  7  8 -1 -1</clus>
<clus scale="   95.606">  5  6 -1 -1</clus>
<clus scale="  117.339">  1  7  2 -1</clus>
<clus scale="  161.366">  2  9  1 -1</clus>
<clus scale="  161.366">  2  5  1 -1</clus>
</clustering>
</event>
<event>
10    2  0.1671105E-006  0.9174016E+02  0.7546771E-02  0.1298906E+00
         21   -1    0    0  501  502  0.00000000000E+00  0.00000000000E+00  0.21456331334E+03  0.21456331334E+03  0.00000000000E+00 0. -1.
          3   -1    0    0  503    0 -0.00000000000E+00 -0.00000000000E+00 -0.10377697050E+03  0.10377697050E+03  0.00000000000E+00 0. -1.
         23    2    1    2    0    0 -0.29948542214E+01  0.42839338179E+01 -0.38607833360E+02  0.99289564994E+02  0.91326511371E+02 0.  0.
         23    2    1    2    0    0 -0.58878807746E+01  0.24555243929E+00  0.51302706329E+02  0.10523106571E+03  0.91689051028E+02 0.  0.
        -11    1    4    4    0    0 -0.12608086382E+02 -0.43925748499E+02  0.16465702065E+02  0.48575246453E+02  0.00000000000E+00 0.  1.
         11    1    4    4    0    0  0.67202056076E+01  0.44171300939E+02  0.34837004264E+02  0.56655819261E+02  0.00000000000E+00 0. -1.
        -13    1    3    3    0    0  0.13507808047E+02 -0.28719623560E+02  0.14279491062E+02  0.34802033284E+02  0.00000000000E+00 0. -1.
         13    1    3    3    0    0 -0.16502662269E+02  0.33003557378E+02 -0.52887324422E+02  0.64487531710E+02  0.00000000000E+00 0.  1.
         21    1    1    2  503  502 -0.18668470027E+02  0.93996935294E+01  0.16647764423E+02  0.26721041744E+02  0.00000000000E+00 0. -1.
          3    1    1    2  501    0  0.27551205023E+02 -0.13929179787E+02  0.81443705449E+02  0.87098611384E+02  0.00000000000E+00 0. -1.
<scales pt_clust_5="13000.00000" pt_clust_6="13000.00000" pt_clust_7="13000.00000" pt_clust_8="13000.00000" pt_clust_9="20.90134" pt_clust_10="21.74014"></scales>
<clustering>
<clus scale="   20.901">  1  9  2 -1</clus>
<clus scale="   21.740">  1 10  2 -1</clus>
<clus scale="   91.327">  7  8 -1 -1</clus>
<clus scale="   91.378">  2  7  1 -1</clus>
<clus scale="   91.689">  5  6 -1 -1</clus>
<clus scale="   20.901">  1  5  2 -1</clus>
</clustering>
</event>
<event>
10    2  0.1671105E-006  0.2509133E+03  0.7546771E-02  0.1112778E+00
         -1   -1    0    0    0  501 -0.00000000000E+00  0.00000000000E+00  0.71200547527E+03  0.71200547527E+03  0.00000000000E+00 0.  1.
         21   -1    0    0  503  502  0.00000000000E+00 -0.00000000000E+00 -0.30384687867E+03  0.30384687867E+03  0.00000000000E+00 0. -1.
         23    2    1    2    0    0  0.20787060886E+03  0.13336990822E+03  0.51355417734E+03  0.57676745846E+03  0.89022950018E+02 0.  0.
         23    2    1    2    0    0 -0.17437158132E+03 -0.36954317222E-01 -0.17414815921E+03  0.26172773443E+03  0.88138390479E+02 0.  0.
        -11    1    3    3    0    0  0.93241600409E+02  0.18793980882E+02  0.24858927107E+03  0.26616505303E+03  0.00000000000E+00 0. -1.
         11    1    3    3    0    0  0.11462900845E+03  0.11457592734E+03  0.26496490628E+03  0.31060240543E+03  0.00000000000E+00 0.  1.
        -13    1    4    4    0    0 -0.39399655563E+02  0.33290627741E+02 -0.74768415413E+02  0.90834545726E+02  0.00000000000E+00 0.  1.
         13    1    4    4    0    0 -0.13497192576E+03 -0.33327582058E+02 -0.99379743797E+02  0.17089318871E+03  0.00000000000E+00 0. -1.
         21    1    1    2  503  501 -0.31544119103E+02 -0.42277157886E+01  0.17165949505E+01  0.31872428979E+02  0.00000000000E+00 0.  1.
         -1    1    1    2    0  502 -0.19549084313E+01 -0.12910523812E+03  0.67035983513E+02  0.14548473206E+03  0.00000000000E+00 0.  1.
<scales pt_clust_5="13000.00000" pt_clust_6="13000.00000" pt_clust_7="13000.00000" pt_clust_8="13000.00000" pt_clust_9="31.82617" pt_clust_10="129.82959"></scales>
<clustering>
<clus scale="   31.826">  2  9  1 -1</clus>
<clus scale="   88.138">  7  8 -1 -1</clus>
<clus scale="   89.023">  5  6 -1 -1</clus>
<clus scale="  129.830">  2 10  1 -1</clus>
<clus scale="  250.601">  2  7  1 -1</clus>
<clus scale="   31.826">  2  5  1 -1</clus>
</clustering>
</event>
<event>
10    2  0.1671105E-006  0.1025598E+03  0.7546771E-02  0.1275765E+00
          3   -1    0    0  503    0 -0.00000000000E+00  0.00000000000E+00  0.52040736616E+02  0.52040736616E+02  0.00000000000E+00 0. -1.
         21   -1    0    0  501  502  0.00000000000E+00 -0.00000000000E+00 -0.10192964963E+04  0.10192964963E+04  0.00000000000E+00 0. -1.
         23    2    1    2    0    0  0.16764470917E+02  0.46290684084E+02 -0.75160927468E+02  0.12859662686E+03  0.92000285341E+02 0.  0.
         23    2    1    2    0    0  0.84557571655E+02 -0.33356132916E+02 -0.18238586277E+03  0.22290921355E+03  0.90339913766E+02 0.  0.
        -11    1    4    4    0    0  0.62101102605E+02 -0.64606400596E+02 -0.13069880356E+03  0.15846990627E+03  0.00000000000E+00 0.  1.
         11    1    4    4    0    0  0.22456469050E+02  0.31250267679E+02 -0.51687059212E+02  0.64439307276E+02  0.00000000000E+00 0. -1.
        -11    1    3    3    0    0 -0.27754103650E+02  0.41327915580E+02 -0.12076526597E+02  0.51226256649E+02  0.00000000000E+00 0. -1.
         11    1    3    3    0    0  0.44518574567E+02  0.49627685035E+01 -0.63084400871E+02  0.77370370207E+02  0.00000000000E+00 0.  1.
         21    1    1    2  503  502 -0.50547133001E+02 -0.35635277261E+02 -0.29530089218E+03  0.30170764419E+03  0.00000000000E+00 0. -1.
          3    1    1    2  501    0 -0.50774909572E+02  0.22700726094E+02 -0.41440807728E+03  0.41812374833E+03  0.00000000000E+00 0. -1.
<scales pt_clust_5="13000.00000" pt_clust_6="13000.00000" pt_clust_7="13000.00000" pt_clust_8="13000.00000" pt_clust_9="79.51665" pt_clust_10="55.61847"></scales>
<clustering>
<clus scale="   55.618">  2 10  1 -1</clus>
<clus scale="   79.517">  2  9  1 -1</clus>
<clus scale="   90.340">  5  6 -1 -1</clus>
<clus scale="   92.000">  7  8 -1 -1</clus>
<clus scale="  101.073">  2  5  1 -1</clus>
<clus scale="   55.618">  2  5  1 -1</clus>
</clustering>
</event>
<event>
10    2  0.1671105E-006  0.1321856E+03  0.7546771E-02  0.1234470E+00
         21   -1    0    0  503  502  0.00000000000E+00  0.00000000000E+00  0.88692269495E+03  0.88692269495E+03  0.00000000000E+00 0.  1.
          3   -1    0    0  502    0 -0.00000000000E+00 -0.00000000000E+00 -0.50751191705E+02  0.50751191705E+02  0.00000000000E+00 0. -1.
         23    2    1    2    0    0  0.37275458325E+02 -0.36164198047E+02  0.70118241677E+02  0.14592955641E+03  0.11696819484E+03 0.  0.
         23    2    1    2    0    0 -0.84299189558E+02  0.61431070607E+02  0.46115530898E+03  0.48083674540E+03  0.87519294614E+02 0.  0.
        -11    1    4    4    0    0 -0.39210234250E+02  0.54532230491E+02  0.39381868184E+03  0.39950514490E+03  0.00000000000E+00 0.  1.
         11    1    4    4    0    0 -0.45088955308E+02  0.68988401162E+01  0.67336627135E+02  0.81331600498E+02  0.00000000000E+00 0. -1.
        -11    1    3    3    0    0 -0.41670150059E+02 -0.30332226062E+01  0.29645323005E+02  0.51229357027E+02  0.00000000000E+00 0.  1.
         11    1    3    3    0    0  0.78945608384E+02 -0.33130975441E+02  0.40472918673E+02  0.94700199380E+02  0.00000000000E+00 0. -1.
         21    1    1    2  503  501  0.21563900998E+02 -0.10580114562E+02  0.66507380153E+02  0.70711896207E+02  0.00000000000E+00 0. -1.
          3    1    1    2  501    0  0.25459830235E+02 -0.14686757999E+02  0.23839057244E+03  0.24019568865E+03  0.00000000000E+00 0. -1.
<scales pt_clust_5="13000.00000" pt_clust_6="13000.00000" pt_clust_7="13000.00000" pt_clust_8="13000.00000" pt_clust_9="24.01959" pt_clust_10="36.40335"></scales>
<clustering>
<clus scale="   24.020">  1  9  2 -1</clus>
<clus scale="   36.403">  1 10  2 -1</clus>
<clus scale="   87.519">  5  6 -1 -1</clus>
<clus scale="  107.010">  1  5  2 -1</clus>
<clus scale="  116.968">  7  8 -1 -1</clus>
<clus scale="   24.020">  1  5  2 -1</clus>
</clustering>
</event>
<event>
10    2  0.1671105E-006  0.1337127E+03  0.7546771E-02  0.1222486E+00
         21   -1    0    0  501  502  0.00000000000E+00  0.00000000000E+00  0.53095501814E+03  0.53095501814E+03  0.00000000000E+00 0.  1.
         -1   -1    0    0    0  501 -0.00000000000E+00 -0.00000000000E+00 -0.10648595852E+03  0.10648595852E+03  0.00000000000E+00 0.  1.
         23    2    1    2    0    0 -0.63719215864E+02  0.54958678715E+02  0.10823369860E+01  0.12350668489E+03  0.90399861295E+02 0.  0.
         23    2    1    2    0    0  0.11794843244E+03 -0.12151057101E+03  0.32619721948E+03  0.37891604892E+03  0.92174261879E+02 0.  0.
        -11    1    3    3    0    0 -0.71171873836E+02  0.19393478829E+02 -0.25970124156E+02  0.78204795219E+02  0.00000000000E+00 0.  1.
         11    1    3    3    0    0  0.74526579720E+01  0.35565199885E+02  0.27052461142E+02  0.45301889669E+02  0.00000000000E+00 0. -1.
        -11    1    4    4    0    0  0.51569705967E+02 -0.76529482762E+02  0.87731177228E+02  0.12733010549E+03  0.00000000000E+00 0.  1.
         11    1    4    4    0    0  0.66378726475E+02 -0.44981088252E+02  0.23846604225E+03  0.25158594344E+03  0.00000000000E+00 0. -1.
         21    1    1    2  503  502 -0.14458748686E+02  0.19160121947E+02  0.55350401508E+02  0.60331025465E+02  0.00000000000E+00 0.  1.
         -1    1    1    2    0  503 -0.39770467891E+02  0.47391770353E+02  0.41839101654E+02  0.74687217384E+02  0.00000000000E+00 0.  1.
<scales pt_clust_5="13000.00000" pt_clust_6="13000.00000" pt_clust_7="13000.00000" pt_clust_8="13000.00000" pt_clust_9="23.42357" pt_clust_10="93.72367"></scales>
<clustering>
<clus scale="   23.424">  9 10 -1 -1</clus>
<clus scale="   90.400">  5  6 -1 -1</clus>
<clus scale="   92.174">  7  8 -1 -1</clus>
<clus scale="   93.724">  1  9  2 -1</clus>
<clus scale="  132.496">  2  5  1 -1</clus>
<clus scale="   93.724">  1  5  2 -1</clus>
</clustering>
</event>
<event>
10    2  0.1671105E-006  0.1470654E+03  0.7546771E-02  0.1205727E+00
          3   -1    0    0  503    0 -0.00000000000E+00  0.00000000000E+00  0.48730279370E+02  0.48730279370E+02  0.00000000000E+00 0. -1.
         21   -1    0    0  501  502  0.00000000000E+00 -0.00000000000E+00 -0.13069817826E+04  0.13069817826E+04  0.00000000000E+00 0. -1.
         23    2    1    2    0    0  0.11402808283E+02  0.65898089903E+02 -0.10909143097E+03  0.15778571076E+03  0.92319055023E+02 0.  0.
         23    2    1    2    0    0  0.73424497727E+02 -0.15598874179E+03 -0.70663454557E+03  0.73418005639E+03  0.99821489539E+02 0.  0.
        -13    1    4    4    0    0 -0.22010723024E+02 -0.96248753892E+01 -0.10307759226E+03  0.10583997440E+03  0.00000000000E+00 0.  1.
         13    1    4    4    0    0  0.95435220751E+02 -0.14636386641E+03 -0.60355695331E+03  0.62834008199E+03  0.00000000000E+00 0. -1.
        -13    1    3    3    0    0  0.19081933359E+02  0.28724053390E+02 -0.11437525004E+03  0.11946082724E+03  0.00000000000E+00 0.  1.
         13    1    3    3    0    0 -0.76791250753E+01  0.37174036513E+02  0.52838190739E+01  0.38324883517E+02  0.00000000000E+00 0. -1.
         21    1    1    2  503  502 -0.45439998089E+02  0.38208707496E+02 -0.11097671293E+03  0.12585916561E+03  0.00000000000E+00 0.  1.
          3    1    1    2  501    0 -0.39387307921E+02  0.51881944395E+02 -0.33154881379E+03  0.33788712924E+03  0.00000000000E+00 0. -1.
<scales pt_clust_5="13000.00000" pt_clust_6="13000.00000" pt_clust_7="13000.00000" pt_clust_8="13000.00000" pt_clust_9="59.36917" pt_clust_10="69.59109"></scales>
<clustering>
<clus scale="   59.369">  1  9  2 -1</clus>
<clus scale="   69.591">  2 10  1 -1</clus>
<clus scale="   92.319">  7  8 -1 -1</clus>
<clus scale="   99.821">  5  6 -1 -1</clus>
<clus scale="  142.080">  1  7  2 -1</clus>
<clus scale="   69.591">  2  5  1 -1</clus>
</clustering>
</event>
<event>
10    2  0.1671105E-006  0.1055421E+03  0.7546771E-02  0.1269154E+00
          1   -1    0    0  503    0 -0.00000000000E+00  0.00000000000E+00  0.43771890710E+03  0.43771890710E+03  0.00000000000E+00 0. -1.
         21   -1    0    0  501  502  0.00000000000E+00 -0.00000000000E+00 -0.49195238696E+02  0.49195238696E+02  0.00000000000E+00 0.  1.
         23    2    1    2    0    0  0.29406781873E+02 -0.32183721694E+02  0.12779034425E+03  0.16331538098E+03  0.91874865009E+02 0.  0.
         23    2    1    2    0    0 -0.33852675938E+02  0.43393332969E+02  0.75788755728E+02  0.13103922151E+03  0.91642550514E+02 0.  0.
        -13    1    4    4    0    0  0.56787283530E+01  0.27757167158E+02 -0.14068866371E+02  0.31632914588E+02  0.00000000000E+00 0.  1.
         13    1    4    4    0    0 -0.39531404291E+02  0.15636165811E+02  0.89857622099E+02  0.99406306922E+02  0.00000000000E+00 0. -1.
        -13    1    3    3    0    0  0.52025313585E+02 -0.16882484460E+02  0.31264292994E+02  0.63000853579E+02  0.00000000000E+00 0.  1.
         13    1    3    3    0    0 -0.22618531712E+02 -0.15301237233E+02  0.96526051255E+02  0.10031452741E+03  0.00000000000E+00 0. -1.
         21    1    1    2  503  502  0.92028499220E+01 -0.31210519576E+02  0.12595134952E+03  0.13008663046E+03  0.00000000000E+00 0. -1.
          1    1    1    2  501    0 -0.47569558572E+01  0.20000908301E+02  0.58993218910E+02  0.62472912844E+02  0.00000000000E+00 0. -1.
<scales pt_clust_5="13000.00000" pt_clust_6="13000.00000" pt_clust_7="13000.00000" pt_clust_8="13000.00000" pt_clust_9="31.64459" pt_clust_10="20.55883"></scales>
<clustering>
<clus scale="   20.559">  2 10  1 -1</clus>
<clus scale="   31.645">  1  9  2 -1</clus>
<clus scale="   91.643">  5  6 -1 -1</clus>
<clus scale="   91.875">  7  8 -1 -1</clus>
<clus scale="  105.340">  2  5  1 -1</clus>
<clus scale="   20.559">  2  5  1 -1</clus>
</clustering>
</event>
<event>
10    2  0.1671105E-006  0.1357400E+03  0.7546771E-02  0.1230149E+00
          2   -1    0    0  503    0 -0.00000000000E+00  0.00000000000E+00  0.48931514213E+03  0.48931514213E+03  0.00000000000E+00 0. -1.
         21   -1    0    0  501  502  0.00000000000E+00 -0.00000000000E+00 -0.11694515624E+03  0.11694515624E+03  0.00000000000E+00 0.  1.
         23    2    1    2    0    0 -0.33174978873E+02  0.32667477585E+02  0.92789933408E+02  0.13888777814E+03  0.92261041933E+02 0.  0.
         23    2    1    2    0    0 -0.83137664364E+02  0.60198337064E+01  0.20016777865E+03  0.23556462112E+03  0.92062160947E+02 0.  0.
        -11    1    4    4    0    0 -0.51861968396E+02  0.41483760205E+02  0.67374137488E+02  0.94603596808E+02  0.00000000000E+00 0.  1.
         11    1    4    4    0    0 -0.31275695968E+02 -0.35463926499E+02  0.13279364117E+03  0.14096102431E+03  0.00000000000E+00 0. -1.
        -13    1    3    3    0    0 -0.82713368061E+01 -0.23088790587E+02 -0.35941765384E+01  0.24787605135E+02  0.00000000000E+00 0.  1.
         13    1    3    3    0    0 -0.24903642067E+02  0.55756268172E+02  0.96384109946E+02  0.11410017300E+03  0.00000000000E+00 0. -1.
         21    1    1    2  503  502  0.49809426636E+02  0.66573371470E+02 -0.17829310499E+01  0.83163523337E+02  0.00000000000E+00 0.  1.
          2    1    1    2  501    0  0.66503216601E+02 -0.10526068276E+03  0.81195204880E+02  0.14864437577E+03  0.00000000000E+00 0. -1.
<scales pt_clust_5="13000.00000" pt_clust_6="13000.00000" pt_clust_7="13000.00000" pt_clust_8="13000.00000" pt_clust_9="83.14441" pt_clust_10="99.74926"></scales>
<clustering>
<clus scale="   83.144">  2  9  1 -1</clus>
<clus scale="   92.062">  5  6 -1 -1</clus>
<clus scale="   92.261">  7  8 -1 -1</clus>
<clus scale="  108.006">  1  7  2 -1</clus>
<clus scale="   99.749">  2 10  1 -1</clus>
<clus scale="   83.144">  2  5  1 -1</clus>
</clustering>
</event>
<event>
10    2  0.1671105E-006  0.1298456E+03  0.7546771E-02  0.1227813E+00
         21   -1    0    0  501  502  0.00000000000E+00  0.00000000000E+00  0.13937148237E+03  0.13937148237E+03  0.00000000000E+00 0. -1.
          1   -1    0    0  503    0 -0.00000000000E+00 -0.00000000000E+00 -0.95813897550E+03  0.95813897550E+03  0.00000000000E+00 0. -1.
         23    2    1    2    0    0 -0.64321549222E+02 -0.28268150363E+02 -0.43076875965E+03  0.44594766730E+03  0.91494522579E+02 0.  0.
         23    2    1    2    0    0  0.11570018853E+03  0.50982642200E+02 -0.49789017721E+03  0.52169195034E+03  0.91006038547E+02 0.  0.
        -11    1    4    4    0    0  0.88094958007E+02  0.70803420582E+02 -0.44251511858E+03  0.45672034788E+03  0.00000000000E+00 0. -1.
         11    1    4    4    0    0  0.27605230526E+02 -0.19820778382E+02 -0.55375058631E+02  0.64971602462E+02  0.00000000000E+00 0.  1.
        -13    1    3    3    0    0  0.17827325804E+01 -0.46070626766E+02 -0.14831398235E+03  0.15531489995E+03  0.00000000000E+00 0.  1.
         13    1    3    3    0    0 -0.66104281802E+02  0.17802476403E+02 -0.28245477730E+03  0.29063276735E+03  0.00000000000E+00 0. -1.
         21    1    1    2  503  502 -0.36488648834E+02  0.55235819015E+01  0.52062158505E+02  0.63815357077E+02  0.00000000000E+00 0.  1.
          1    1    1    2  501    0 -0.14889990477E+02 -0.28238073739E+02  0.57829285226E+02  0.66055483153E+02  0.00000000000E+00 0. -1.
<scales pt_clust_5="13000.00000" pt_clust_6="13000.00000" pt_clust_7="13000.00000" pt_clust_8="13000.00000" pt_clust_9="50.12216" pt_clust_10="31.92336"></scales>
<clustering>
<clus scale="   31.923">  1 10  2 -1</clus>
<clus scale="   50.122">  1  9  2 -1</clus>
<clus scale="   91.006">  5  6 -1 -1</clus>
<clus scale="   91.495">  7  8 -1 -1</clus>
<clus scale="  129.502">  1  5  2 -1</clus>
<clus scale="   31.923">  1  5  2 -1</clus>
</clustering>
</event>
<event>
10    2  0.1671105E-006  0.1853313E+03  0.7546771E-02  0.1163708E+00
         21   -1    0    0  503  502  0.00000000000E+00  0.00000000000E+00  0.34060073212E+03  0.34060073212E+03  0.00000000000E+00 0. -1.
          1   -1    0    0  502    0 -0.00000000000E+00 -0.00000000000E+00 -0.21297665727E+03  0.21297665727E+03  0.00000000000E+00 0. -1.
         23    2    1    2    0    0 -0.10423046944E+03  0.10417272613E+03 -0.68138599188E+02  0.18405025561E+03  0.86693023132E+02 0.  0.
         23    2    1    2    0    0  0.10661238074E+03 -0.18001760500E+03  0.16332351301E+03  0.28189787909E+03  0.94970029454E+02 0.  0.
        -13    1    4    4    0    0  0.72059465330E+02 -0.17226832646E+03  0.10656862189E+03  0.21500189306E+03  0.00000000000E+00 0. -1.
         13    1    4    4    0    0  0.34552915412E+02 -0.77492785370E+01  0.56754891115E+02  0.66895986029E+02  0.00000000000E+00 0.  1.
        -13    1    3    3    0    0 -0.20651103702E+02  0.35742798348E+02  0.18830204622E+02  0.45371712817E+02  0.00000000000E+00 0.  1.
         13    1    3    3    0    0 -0.83579365740E+02  0.68429927782E+02 -0.86968803810E+02  0.13867854279E+03  0.00000000000E+00 0. -1.
         21    1    1    2  503  501  0.11728911330E+02  0.22606023184E+02  0.44683884353E+01  0.25856645962E+02  0.00000000000E+00 0. -1.
          1    1    1    2  501    0 -0.14110822631E+02  0.53238855685E+02  0.27970772600E+02  0.61772608734E+02  0.00000000000E+00 0. -1.
<scales pt_clust_5="13000.00000" pt_clust_6="13000.00000" pt_clust_7="13000.00000" pt_clust_8="13000.00000" pt_clust_9="20.03943" pt_clust_10="81.40385"></scales>
<clustering>
<clus scale="   20.039">  9 10 -1 -1</clus>
<clus scale="   81.404">  1  9  2 -1</clus>
<clus scale="   86.693">  7  8 -1 -1</clus>
<clus scale="   94.970">  5  6 -1 -1</clus>
<clus scale="  181.229">  2  7  1 -1</clus>
<clus scale="   81.404">  1  5  2 -1</clus>
</clustering>
</event>
<event>
10    2  0.1671105E-006  0.1167433E+03  0.7546771E-02  0.1253549E+00
          1   -1    0    0  503    0 -0.00000000000E+00  0.00000000000E+00  0.65768249228E+03  0.65768249228E+03  0.00000000000E+00 0. -1.
         21   -1    0    0  501  502  0.00000000000E+00 -0.00000000000E+00 -0.38131457432E+03  0.38131457432E+03  0.00000000000E+00 0. -1.
         23    2    1    2    0    0 -0.34697652705E+02 -0.44906152931E+02  0.36529375691E+03  0.37784706097E+03  0.78156144806E+02 0.  0.
         23    2    1    2    0    0  0.81075301515E+02  0.92051756949E+02  0.24176648539E+03  0.28646446980E+03  0.92542576814E+02 0.  0.
        -11    1    4    4    0    0  0.29500690136E+01  0.71519855131E+02  0.95154064668E+02  0.11907177923E+03  0.00000000000E+00 0.  1.
         11    1    4    4    0    0  0.78125232502E+02  0.20531901818E+02  0.14661242072E+03  0.16739269057E+03  0.00000000000E+00 0. -1.
        -13    1    3    3    0    0 -0.56698381613E+02 -0.38836153369E+02  0.31791053820E+03  0.32525384485E+03  0.00000000000E+00 0.  1.
         13    1    3    3    0    0  0.22000728908E+02 -0.60699995617E+01  0.47383218707E+02  0.52593216124E+02  0.00000000000E+00 0. -1.
         21    1    1    2  503  502  0.36761070108E+02  0.98759017082E+01 -0.11219671058E+02  0.39683633008E+02  0.00000000000E+00 0.  1.
          1    1    1    2  501    0 -0.83138718919E+02 -0.57021505726E+02 -0.31947265329E+03  0.33500190283E+03  0.00000000000E+00 0. -1.
<scales pt_clust_5="13000.00000" pt_clust_6="13000.00000" pt_clust_7="13000.00000" pt_clust_8="13000.00000" pt_clust_9="38.06455" pt_clust_10="68.79069"></scales>
<clustering>
<clus scale="   38.065">  2  9  1 -1</clus>
<clus scale="   68.791">  2 10  1 -1</clus>
<clus scale="   78.156">  7  8 -1 -1</clus>
<clus scale="   92.543">  5  6 -1 -1</clus>
<clus scale="  105.704">  1  7  2 -1</clus>
<clus scale="   38.065">  2  5  1 -1</clus>
</clustering>
</event>
<event>
10    2  0.1671105E-006  0.1366102E+03  0.7546771E-02  0.1218694E+00
         21   -1    0    0  501  502  0.00000000000E+00  0.00000000000E+00  0.36237560601E+03  0.36237560601E+03  0.00000000000E+00 0. -1.
          2   -1    0    0  503    0 -0.00000000000E+00 -0.00000000000E+00 -0.31253081685E+03  0.31253081685E+03  0.00000000000E+00 0. -1.
         23    2    1    2    0    0 -0.34114980455E+02  0.11556488602E+03 -0.23297230139E+03  0.27729066916E+03  0.89971924581E+02 0.  0.
         23    2    1    2    0    0 -0.99281658910E+01 -0.46793733256E+02  0.17766346345E+02  0.10613042769E+03  0.93058060737E+02 0.  0.
        -13    1    3    3    0    0 -0.51716490989E+02  0.86267431426E+02 -0.21778605073E+03  0.23989045221E+03  0.00000000000E+00 0. -1.
         13    1    3    3    0    0  0.17601510534E+02  0.29297454598E+02 -0.15186250657E+02  0.37400216952E+02  0.00000000000E+00 0.  1.
        -13    1    4    4    0    0 -0.86675480711E+01  0.28241735097E+02  0.64210514990E+01  0.30231637290E+02  0.00000000000E+00 0.  1.
         13    1    4    4    0    0 -0.12606178199E+01 -0.75035468354E+02  0.11345294846E+02  0.75898790395E+02  0.00000000000E+00 0. -1.
         21    1    1    2  503  502  0.16460384697E+02  0.21129246289E+02  0.48646774742E+02  0.55532855193E+02  0.00000000000E+00 0. -1.
          2    1    1    2  501    0  0.27582761649E+02 -0.89900399057E+02  0.21640396946E+03  0.23595247083E+03  0.00000000000E+00 0. -1.
<scales pt_clust_5="13000.00000" pt_clust_6="13000.00000" pt_clust_7="13000.00000" pt_clust_8="13000.00000" pt_clust_9="26.78412" pt_clust_10="84.36062"></scales>
<clustering>
<clus scale="   26.784">  1  9  2 -1</clus>
<clus scale="   84.361">  1 10  2 -1</clus>
<clus scale="   89.972">  5  6 -1 -1</clus>
<clus scale="   93.058">  7  8 -1 -1</clus>
<clus scale="  134.527">  2  5  1 -1</clus>
<clus scale="   26.784">  1  5  2 -1</clus>
</clustering>
</event>
<event>
10    2  0.1671105E-006  0.9737450E+02  0.7546771E-02  0.1287313E+00
          1   -1    0    0  503    0 -0.00000000000E+00  0.00000000000E+00  0.43734156382E+03  0.43734156382E+03  0.00000000000E+00 0. -1.
         21   -1    0    0  501  502  0.00000000000E+00 -0.00000000000E+00 -0.87498356603E+02  0.87498356603E+02  0.00000000000E+00 0. -1.
         23    2    1    2    0    0  0.11040967707E+02  0.29195140567E+02  0.21524009699E+03  0.23580477548E+03  0.91111654501E+02 0.  0.
         23    2    1    2    0    0  0.62468815031E+02  0.46041710361E+01  0.14105470385E+03  0.18057474661E+03  0.93740377603E+02 0.  0.
        -13    1    4    4    0    0 -0.23570845212E+00  0.38507156907E+02  0.70198036205E+02  0.80066353599E+02  0.00000000000E+00 0.  1.
         13    1    4    4    0    0  0.62704523483E+02 -0.33902985870E+02  0.70856667642E+02  0.10050839301E+03  0.00000000000E+00 0. -1.
        -13    1    3    3    0    0 -0.32889460749E+02  0.18211019634E+02  0.16009514860E+03  0.16445003640E+03  0.00000000000E+00 0.  1.
         13    1    3    3    0    0  0.43930428456E+02  0.10984120933E+02  0.55144948388E+02  0.71354739084E+02  0.00000000000E+00 0. -1.
         21    1    1    2  503  502 -0.24172378935E+02 -0.99201858685E+01  0.32143238630E+02  0.41423444819E+02  0.00000000000E+00 0. -1.
          1    1    1    2  501    0 -0.49337403802E+02 -0.23879125735E+02 -0.38594832253E+02  0.67036953514E+02  0.00000000000E+00 0. -1.
<scales pt_clust_5="13000.00000" pt_clust_6="13000.00000" pt_clust_7="13000.00000" pt_clust_8="13000.00000" pt_clust_9="26.12880" pt_clust_10="55.73827"></scales>
<clustering>
<clus scale="   26.129">  1  9  2 -1</clus>
<clus scale="   55.738">  2 10  1 -1</clus>
<clus scale="   91.112">  7  8 -1 -1</clus>
<clus scale="   93.740">  5  6 -1 -1</clus>
<clus scale="   94.847">  1  7  2 -1</clus>
<clus scale="   55.738">  2  5  1 -1</clus>
</clustering>
</event>
<event>
10    2  0.1671105E-006  0.9818732E+02  0.7546771E-02  0.1284316E+00
          1   -1    0    0  503    0 -0.00000000000E+00  0.00000000000E+00  0.47613845689E+03  0.47613845689E+03  0.00000000000E+00 0. -1.
         21   -1    0    0  501  502  0.00000000000E+00 -0.00000000000E+00 -0.12889097870E+03  0.12889097870E+03  0.00000000000E+00 0. -1.
         23    2    1    2    0    0 -0.24275439177E+02 -0.11843267076E+02  0.30552833454E+03  0.31979653170E+03  0.90513526936E+02 0.  0.
         23    2    1    2    0    0  0.65468318832E+02  0.37152811259E+02  0.10569331997E+03  0.15839434901E+03  0.90836445094E+02 0.  0.
        -13    1    4    4    0    0 -0.32010521290E+01  0.24891252021E+02 -0.68250591010E+01  0.26007741033E+02  0.00000000000E+00 0.  1.
         13    1    4    4    0    0  0.68669370961E+02  0.12261559238E+02  0.11251837907E+03  0.13238660798E+03  0.00000000000E+00 0. -1.
        -13    1    3    3    0    0 -0.14613191844E+01 -0.48972513592E+02  0.19308211688E+03  0.19920127108E+03  0.00000000000E+00 0. -1.
         13    1    3    3    0    0 -0.22814119993E+02  0.37129246516E+02  0.11244621766E+03  0.12059526062E+03  0.00000000000E+00 0.  1.
         21    1    1    2  503  502 -0.61353625309E+02 -0.34434958292E+02 -0.13381592639E+02  0.71617740209E+02  0.00000000000E+00 0.  1.
          1    1    1    2  501    0  0.20160745654E+02  0.91254141087E+01 -0.50592583689E+02  0.55220814665E+02  0.00000000000E+00 0. -1.
<scales pt_clust_5="13000.00000" pt_clust_6="13000.00000" pt_clust_7="13000.00000" pt_clust_8="13000.00000" pt_clust_9="58.03479" pt_clust_10="22.12982"></scales>
<clustering>
<clus scale="   22.130">  2 10  1 -1</clus>
<clus scale="   58.035">  2  9  1 -1</clus>
<clus scale="   90.514">  7  8 -1 -1</clus>
<clus scale="   90.836">  5  6 -1 -1</clus>
<clus scale="   97.889">  1  7  2 -1</clus>
<clus scale="   22.130">  2  5  1 -1</clus>
</clustering>
</event>
<event>
10    2  0.1671105E-006  0.1641019E+03  0.7546771E-02  0.1206436E+00
         21   -1    0    0  501  502  0.00000000000E+00  0.00000000000E+00  0.59683501873E+03  0.59683501873E+03  0.00000000000E+00 0.  1.
         -1   -1    0    0    0  501 -0.00000000000E+00 -0.00000000000E+00 -0.75786149795E+02  0.75786149795E+02  0.00000000000E+00 0.  1.
         23    2    1    2    0    0 -0.45848267683E+02 -0.22066933294E+01  0.10078280770E+03  0.14248216294E+03  0.89649647424E+02 0.  0.
         23    2    1    2    0    0 -0.73817571745E+02 -0.92251101441E+02  0.15540641018E+03  0.21566476829E+03  0.91656098216E+02 0.  0.
        -11    1    3    3    0    0  0.26924199383E+02  0.43661958557E+01  0.22110877701E+02  0.35112207156E+02  0.00000000000E+00 0. -1.
         11    1    3    3    0    0 -0.72772467067E+02 -0.65728891852E+01  0.78671930001E+02  0.10736995579E+03  0.00000000000E+00 0.  1.
        -11    1    4    4    0    0 -0.78244325631E+02 -0.55941902884E+02  0.59700227030E+02  0.11320683769E+03  0.00000000000E+00 0.  1.
         11    1    4    4    0    0  0.44267538856E+01 -0.36309198557E+02  0.95706183149E+02  0.10245793060E+03  0.00000000000E+00 0. -1.
         21    1    1    2  503  502  0.62523152017E+02  0.37355953075E+02  0.60348330925E+02  0.94586113219E+02  0.00000000000E+00 0. -1.
         -1    1    1    2    0  503  0.57142687411E+02  0.57101841695E+02  0.20451132013E+03  0.21988812408E+03  0.00000000000E+00 0.  1.
<scales pt_clust_5="13000.00000" pt_clust_6="13000.00000" pt_clust_7="13000.00000" pt_clust_8="13000.00000" pt_clust_9="70.42597" pt_clust_10="155.01551"></scales>
<clustering>
<clus scale="   70.426">  9 10 -1 -1</clus>
<clus scale="   89.650">  5  6 -1 -1</clus>
<clus scale="   91.656">  7  8 -1 -1</clus>
<clus scale="  100.717">  2  5  1 -1</clus>
<clus scale="  155.016">  1  9  2 -1</clus>
<clus scale="  155.016">  1  5  2 -1</clus>
</clustering>
</event>
<event>
10    2  0.1671105E-006  0.2931863E+03  0.7546771E-02  0.1088771E+00
         21   -1    0    0  503  502  0.00000000000E+00  0.00000000000E+00  0.16502246350E+03  0.16502246350E+03  0.00000000000E+00 0. -1.
          2   -1    0    0  502    0 -0.00000000000E+00 -0.00000000000E+00 -0.10279748478E+04  0.10279748478E+04  0.00000000000E+00 0. -1.
         23    2    1    2    0    0 -0.23184098020E+03 -0.10383415638E+03 -0.40809988979E+03  0.48896661853E+03  0.89504535399E+02 0.  0.
         23    2    1    2    0    0  0.21715887295E+03  0.26584223780E+03 -0.36643444852E+03  0.51034396897E+03  0.91360221665E+02 0.  0.
        -11    1    4    4    0    0  0.38661573332E+02  0.80365919207E+01 -0.24844079984E+02  0.46653321130E+02  0.00000000000E+00 0.  1.
         11    1    4    4    0    0  0.17849729962E+03  0.25780564588E+03 -0.34159036854E+03  0.46369064784E+03  0.00000000000E+00 0. -1.
        -13    1    3    3    0    0 -0.20843770199E+03 -0.55692954921E+02 -0.33102585829E+03  0.39512795357E+03  0.00000000000E+00 0. -1.
         13    1    3    3    0    0 -0.23403278209E+02 -0.48141201456E+02 -0.77074031501E+02  0.93838664954E+02  0.00000000000E+00 0.  1.
         21    1    1    2  503  501  0.89804025497E+01 -0.12549199145E+03 -0.92987629625E+02  0.15644675392E+03  0.00000000000E+00 0. -1.
          2    1    1    2  501    0  0.57017047008E+01 -0.36516089969E+02  0.45695836304E+01  0.37239969894E+02  0.00000000000E+00 0. -1.
<scales pt_clust_5="13000.00000" pt_clust_6="13000.00000" pt_clust_7="13000.00000" pt_clust_8="13000.00000" pt_clust_9="30.82521" pt_clust_10="172.32758"></scales>
<clustering>
<clus scale="   30.825">  9 10 -1 -1</clus>
<clus scale="   89.505">  7  8 -1 -1</clus>
<clus scale="   91.360">  5  6 -1 -1</clus>
<clus scale="  172.328">  1  9  2 -1</clus>
<clus scale="  292.613">  2  7  1 -1</clus>
<clus scale="  172.328">  1  5  2 -1</clus>
</clustering>
</event>
<event>
10    2  0.1671105E-006  0.2082941E+03  0.7546771E-02  0.1175845E+00
         21   -1    0    0  503  502  0.00000000000E+00  0.00000000000E+00  0.61604032093E+03  0.61604032093E+03  0.00000000000E+00 0. -1.
          1   -1    0    0  502    0 -0.00000000000E+00 -0.00000000000E+00 -0.31512043519E+03  0.31512043519E+03  0.00000000000E+00 0. -1.
         23    2    1    2    0    0 -0.39766499402E+01  0.13093577921E+02 -0.23767819195E+03  0.25659607110E+03  0.95725468126E+02 0.  0.
         23    2    1    2    0    0  0.72710564483E+02 -0.17420448250E+03  0.37426650232E+03  0.43077340983E+03  0.99278839373E+02 0.  0.
        -13    1    4    4    0    0  0.29843590373E+02 -0.13594036982E+03  0.33028926496E+03  0.35841515395E+03  0.00000000000E+00 0.  1.
         13    1    4    4    0    0  0.42866974110E+02 -0.38264112680E+02  0.43977237367E+02  0.72358255887E+02  0.00000000000E+00 0. -1.
        -13    1    3    3    0    0  0.39519002325E+02  0.30424845610E+02 -0.12362183097E+03  0.13330333780E+03  0.00000000000E+00 0. -1.
         13    1    3    3    0    0 -0.43495652265E+02 -0.17331267688E+02 -0.11405636098E+03  0.12329273330E+03  0.00000000000E+00 0.  1.
         21    1    1    2  503  501 -0.17689232896E+02  0.91905571813E+02  0.94648541331E+02  0.13310856271E+03  0.00000000000E+00 0. -1.
          1    1    1    2  501    0 -0.51044681647E+02  0.69205332768E+02  0.69683034042E+02  0.11068271248E+03  0.00000000000E+00 0. -1.
<scales pt_clust_5="13000.00000" pt_clust_6="13000.00000" pt_clust_7="13000.00000" pt_clust_8="13000.00000" pt_clust_9="40.07877" pt_clust_10="187.82548"></scales>
<clustering>
<clus scale="   40.079">  9 10 -1 -1</clus>
<clus scale="   95.725">  7  8 -1 -1</clus>
<clus scale="   96.699">  2  7  1 -1</clus>
<clus scale="   99.279">  5  6 -1 -1</clus>
<clus scale="  187.825">  1  9  2 -1</clus>
<clus scale="  187.825">  1  5  2 -1</clus>
</clustering>
</event>
<event>
10    2  0.1671105E-006  0.1795473E+03  0.7546771E-02  0.1187343E+00
          3   -1    0    0  502    0 -0.00000000000E+00  0.00000000000E+00  0.20415830845E+03  0.20415830845E+03  0.00000000000E+00 0. -1.
         21   -1    0    0  503  502  0.00000000000E+00 -0.00000000000E+00 -0.27250059615E+03  0.27250059615E+03  0.00000000000E+00 0. -1.
         23    2    1    2    0    0 -0.22548384645E+02 -0.68098444565E+02 -0.27229019274E+02  0.11981054946E+03  0.92018044260E+02 0.  0.
         23    2    1    2    0    0  0.18296792597E+01  0.17735924718E+03 -0.96273454305E+02  0.22476060214E+03  0.98939880667E+02 0.  0.
        -13    1    3    3    0    0 -0.41444857762E+02 -0.93515757025E+01 -0.38196545437E+02  0.57132340109E+02  0.00000000000E+00 0.  1.
         13    1    3    3    0    0  0.18896473118E+02 -0.58746868863E+02  0.10967526162E+02  0.62678209352E+02  0.00000000000E+00 0. -1.
        -13    1    4    4    0    0  0.17341478711E+02  0.14063216645E+02 -0.49325111138E+02  0.54143028500E+02  0.00000000000E+00 0.  1.
         13    1    4    4    0    0 -0.15511799451E+02  0.16329603053E+03 -0.46948343166E+02  0.17061757364E+03  0.00000000000E+00 0. -1.
         21    1    1    2  503  501  0.16410452333E+02 -0.21253678550E+02 -0.22125866561E+01  0.26942853178E+02  0.00000000000E+00 0. -1.
          3    1    1    2  501    0  0.43082530517E+01 -0.88007124063E+02  0.57372772528E+02  0.10514489982E+03  0.00000000000E+00 0. -1.
<scales pt_clust_5="13000.00000" pt_clust_6="13000.00000" pt_clust_7="13000.00000" pt_clust_8="13000.00000" pt_clust_9="24.91725" pt_clust_10="156.47848"></scales>
<clustering>
<clus scale="   24.917">  9 10 -1 -1</clus>
<clus scale="   92.018">  5  6 -1 -1</clus>
<clus scale="   98.940">  7  8 -1 -1</clus>
<clus scale="  116.675">  1  5  2 -1</clus>
<clus scale="  156.478">  2  9  1 -1</clus>
<clus scale="  156.478">  2  5  1 -1</clus>
</clustering>
</event>
<event>
10    2  0.1671105E-006  0.1155674E+03  0.7546771E-02  0.1251549E+00
         -3   -1    0    0    0  501 -0.00000000000E+00  0.00000000000E+00  0.49181778222E+03  0.49181778222E+03  0.00000000000E+00 0.  1.
         21   -1    0    0  503  502  0.00000000000E+00 -0.00000000000E+00 -0.73539216740E+02  0.73539216740E+02  0.00000000000E+00 0.  1.
         23    2    1    2    0    0 -0.46726978764E+01 -0.69948891592E+02  0.22380947665E+03  0.25244597811E+03  0.93400259535E+02 0.  0.
         23    2    1    2    0    0  0.12855438771E+02  0.40319669954E+02 -0.78137762072E+01  0.10038027278E+03  0.90687408016E+02 0.  0.
        -13    1    3    3    0    0  0.32619315664E+02 -0.67406973359E+02  0.17938707754E+03  0.19438992618E+03  0.00000000000E+00 0. -1.
         13    1    3    3    0    0 -0.37292013540E+02 -0.25419182328E+01  0.44422399113E+02  0.58056051926E+02  0.00000000000E+00 0.  1.
        -13    1    4    4    0    0  0.31336052464E+02  0.23671206644E+02  0.33856255060E+02  0.51850942274E+02  0.00000000000E+00 0. -1.
         13    1    4    4    0    0 -0.18480613693E+02  0.16648463310E+02 -0.41670031268E+02  0.48529330501E+02  0.00000000000E+00 0.  1.
         21    1    1    2  503  501 -0.19765294380E+02 -0.94457505812E+01  0.44935234627E+02  0.49990642894E+02  0.00000000000E+00 0.  1.
         -3    1    1    2    0  502  0.11582553486E+02  0.39074972218E+02  0.15734763041E+03  0.16254010519E+03  0.00000000000E+00 0.  1.
<scales pt_clust_5="13000.00000" pt_clust_6="13000.00000" pt_clust_7="13000.00000" pt_clust_8="13000.00000" pt_clust_9="21.90637" pt_clust_10="35.95374"></scales>
<clustering>
<clus scale="   21.906">  1  9  2 -1</clus>
<clus scale="   35.954">  2 10  1 -1</clus>
<clus scale="   90.687">  7  8 -1 -1</clus>
<clus scale="   93.400">  5  6 -1 -1</clus>
<clus scale="  113.386">  2  7  1 -1</clus>
<clus scale="   35.954">  2  5  1 -1</clus>
</clustering>
</event>
<event>
10    2  0.1671105E-006  0.1004036E+03  0.7546771E-02  0.1280495E+00
         21   -1    0    0  503  502  0.00000000000E+00  0.00000000000E+00  0.39889500257E+03  0.39889500257E+03  0.00000000000E+00 0.  1.
         -1   -1    0    0    0  501 -0.00000000000E+00 -0.00000000000E+00 -0.20425535494E+03  0.20425535494E+03  0.00000000000E+00 0.  1.
         23    2    1    2    0    0  0.15233188380E+02  0.38127645788E+02 -0.15083156130E+03  0.18035108781E+03  0.89947693629E+02 0.  0.
         23    2    1    2    0    0 -0.21037822393E+02 -0.15520143219E+02  0.22721823918E+03  0.24656757244E+03  0.92108494449E+02 0.  0.
        -13    1    3    3    0    0 -0.19774144965E+02 -0.21672240021E+02 -0.50813793765E+02  0.58674904631E+02  0.00000000000E+00 0.  1.
         13    1    3    3    0    0  0.35007333345E+02  0.59799885810E+02 -0.10001776753E+03  0.12167618318E+03  0.00000000000E+00 0. -1.
        -13    1    4    4    0    0  0.13029371253E+01 -0.45445373924E+02  0.60276951654E+02  0.75500268588E+02  0.00000000000E+00 0.  1.
         13    1    4    4    0    0 -0.22340759518E+02  0.29925230705E+02  0.16694128752E+03  0.17106730386E+03  0.00000000000E+00 0. -1.
         21    1    1    2  503  501  0.13759664316E+02 -0.68714870073E+02  0.29770807356E+02  0.76140414380E+02  0.00000000000E+00 0.  1.
         -1    1    1    2    0  502 -0.79550303029E+01  0.46107367504E+02  0.88482162396E+02  0.10009128288E+03  0.00000000000E+00 0.  1.
<scales pt_clust_5="13000.00000" pt_clust_6="13000.00000" pt_clust_7="13000.00000" pt_clust_8="13000.00000" pt_clust_9="61.94815" pt_clust_10="46.78859"></scales>
<clustering>
<clus scale="   46.789">  1 10  2 -1</clus>
<clus scale="   61.948">  1  9  2 -1</clus>
<clus scale="   89.948">  5  6 -1 -1</clus>
<clus scale="   92.108">  7  8 -1 -1</clus>
<clus scale="   98.425">  2  5  1 -1</clus>
<clus scale="   46.789">  1  5  2 -1</clus>
</clustering>
</event>
<event>
10    2  0.1671105E-006  0.3276451E+03  0.7546771E-02  0.1119029E+00
         21   -1    0    0  503  502  0.00000000000E+00  0.00000000000E+00  0.25456067369E+03  0.25456067369E+03  0.00000000000E+00 0. -1.
          2   -1    0    0  502    0 -0.00000000000E+00 -0.00000000000E+00 -0.10988057350E+04  0.10988057350E+04  0.00000000000E+00 0. -1.
         23    2    1    2    0    0  0.27056309969E+02 -0.74266135765E+01 -0.31520001736E+02  0.10118205179E+03  0.91962484721E+02 0.  0.
         23    2    1    2    0    0  0.23060377205E+03  0.25839385031E+03 -0.75712987798E+03  0.83770871305E+03  0.92545957395E+02 0.  0.
        -11    1    3    3    0    0  0.50819764897E+02  0.24136150735E+02 -0.14077372224E+02  0.57994609105E+02  0.00000000000E+00 0.  1.
         11    1    3    3    0    0 -0.23763454928E+02 -0.31562764311E+02 -0.17442629512E+02  0.43187442682E+02  0.00000000000E+00 0. -1.
        -13    1    4    4    0    0  0.78040766944E+01  0.24897924393E+02 -0.12794136890E+03  0.13057489854E+03  0.00000000000E+00 0.  1.
         13    1    4    4    0    0  0.22279969535E+03  0.23349592592E+03 -0.62918850908E+03  0.70713381452E+03  0.00000000000E+00 0. -1.
         21    1    1    2  503  501 -0.11345478868E+03 -0.34890234559E+02  0.56603564934E+02  0.13150392050E+03  0.00000000000E+00 0. -1.
          2    1    1    2  501    0 -0.14420529333E+03 -0.21607700217E+03 -0.11219874652E+03  0.28297172335E+03  0.00000000000E+00 0. -1.
<scales pt_clust_5="13000.00000" pt_clust_6="13000.00000" pt_clust_7="13000.00000" pt_clust_8="13000.00000" pt_clust_9="117.84082" pt_clust_10="314.30328"></scales>
<clustering>
<clus scale="   91.962">  5  6 -1 -1</clus>
<clus scale="   92.546">  7  8 -1 -1</clus>
<clus scale="   96.147">  2  5  1 -1</clus>
<clus scale="  117.841">  1  9  2 -1</clus>
<clus scale="  314.303">  1 10  2 -1</clus>
<clus scale="  117.841">  1  5  2 -1</clus>
</clustering>
</event>
<event>
10    2  0.1671105E-006  0.1201172E+03  0.7546771E-02  0.1242996E+00
         21   -1    0    0  501  502  0.00000000000E+00  0.00000000000E+00  0.19366916337E+03  0.19366916337E+03  0.00000000000E+00 0.  1.
          4   -1    0    0  503    0 -0.00000000000E+00 -0.00000000000E+00 -0.34573753530E+03  0.34573753530E+03  0.00000000000E+00 0. -1.
         23    2    1    2    0    0  0.32926238177E+02  0.72669168099E+02 -0.21197838152E+03  0.24421648689E+03  0.91334074051E+02 0.  0.
         23    2    1    2    0    0 -0.12432994270E+03 -0.73629249478E+02  0.46579318031E+02  0.17702296451E+03  0.91040079445E+02 0.  0.
        -11    1    3    3    0    0 -0.29881289525E+02  0.41208218157E+02 -0.94534920367E+02  0.10736787171E+03  0.00000000000E+00 0.  1.
         11    1    3    3    0    0  0.62807527702E+02  0.31460949942E+02 -0.11744346115E+03  0.13684861517E+03  0.00000000000E+00 0. -1.
        -13    1    4    4    0    0 -0.48228389789E+02 -0.80216214315E+02  0.17108720041E+02  0.95148972260E+02  0.00000000000E+00 0.  1.
         13    1    4    4    0    0 -0.76101552911E+02  0.65869648362E+01  0.29470597989E+02  0.81873992251E+02  0.00000000000E+00 0. -1.
         21    1    1    2  503  502  0.62099173476E+01 -0.23833892205E+02 -0.97448575134E+01  0.26487350548E+02  0.00000000000E+00 0. -1.
          4    1    1    2  501    0  0.85193787176E+02  0.24793973584E+02  0.23075549074E+02  0.91679896731E+02  0.00000000000E+00 0. -1.
<scales pt_clust_5="13000.00000" pt_clust_6="13000.00000" pt_clust_7="13000.00000" pt_clust_8="13000.00000" pt_clust_9="24.62961" pt_clust_10="88.69280"></scales>
<clustering>
<clus scale="   24.630">  2  9  1 -1</clus>
<clus scale="   88.693">  1 10  2 -1</clus>
<clus scale="   91.040">  7  8 -1 -1</clus>
<clus scale="   91.334">  5  6 -1 -1</clus>
<clus scale="  119.894">  1  7  2 -1</clus>
<clus scale="   88.693">  1  5  2 -1</clus>
</clustering>
</event>
<event>
10    2  0.1671105E-006  0.1147255E+03  0.7546771E-02  0.1253926E+00
         21   -1    0    0  501  502  0.00000000000E+00  0.00000000000E+00  0.43150366773E+02  0.43150366773E+02  0.00000000000E+00 0.  1.
         -4   -1    0    0    0  501 -0.00000000000E+00 -0.00000000000E+00 -0.85561195506E+03  0.85561195506E+03  0.00000000000E+00 0.  1.
         23    2    1    2    0    0  0.98680994092E+02  0.79711068465E+01 -0.44394655947E+03  0.46334075703E+03  0.88287214939E+02 0.  0.
         23    2    1    2    0    0 -0.15584087339E+02  0.61460067176E+02 -0.23738943028E+03  0.26288652996E+03  0.93463267612E+02 0.  0.
        -11    1    4    4    0    0 -0.42306471309E+02  0.52009524918E+02 -0.21916205407E+03  0.22918733417E+03  0.00000000000E+00 0.  1.
         11    1    4    4    0    0  0.26722383970E+02  0.94505422577E+01 -0.18227376205E+02  0.33699195796E+02  0.00000000000E+00 0. -1.
        -11    1    3    3    0    0  0.65202926374E+02  0.39388419946E+02 -0.35678960781E+03  0.36483104785E+03  0.00000000000E+00 0. -1.
         11    1    3    3    0    0  0.33478067718E+02 -0.31417313099E+02 -0.87156951664E+02  0.98509709185E+02  0.00000000000E+00 0.  1.
         21    1    1    2  503  502 -0.29784376691E+02 -0.40754247954E+02 -0.71864583071E+02  0.87821046004E+02  0.00000000000E+00 0.  1.
         -4    1    1    2    0  503 -0.53312530062E+02 -0.28676926068E+02 -0.59261015468E+02  0.84713988837E+02  0.00000000000E+00 0.  1.
<scales pt_clust_5="13000.00000" pt_clust_6="13000.00000" pt_clust_7="13000.00000" pt_clust_8="13000.00000" pt_clust_9="26.60136" pt_clust_10="112.13570"></scales>
<clustering>
<clus scale="   26.601">  9 10 -1 -1</clus>
<clus scale="   88.287">  7  8 -1 -1</clus>
<clus scale="   93.463">  5  6 -1 -1</clus>
<clus scale="  112.136">  1  9  2 -1</clus>
<clus scale="  110.549">  2  7  1 -1</clus>
<clus scale="  112.136">  1  5  2 -1</clus>
</clustering>
</event>
<event>
10    2  0.1671105E-006  0.1829468E+03  0.7546771E-02  0.1178378E+00
         21   -1    0    0  503  502  0.00000000000E+00  0.00000000000E+00  0.60087034085E+02  0.60087034085E+02  0.00000000000E+00 0. -1.
          2   -1    0    0  502    0 -0.00000000000E+00 -0.00000000000E+00 -0.10356330496E+04  0.10356330496E+04  0.00000000000E+00 0. -1.
         23    2    1    2    0    0 -0.33461669872E+02  0.92683264958E+02 -0.28280777638E+03  0.31328258052E+03  0.91955782427E+02 0.  0.
         23    2    1    2    0    0 -0.66602265237E+02 -0.17397174673E+03 -0.50532389764E+03  0.55113036116E+03  0.11700599586E+03 0.  0.
        -13    1    4    4    0    0 -0.16004091108E+02 -0.14948469587E+03 -0.43986828685E+03  0.46485042218E+03  0.00000000000E+00 0. -1.
         13    1    4    4    0    0 -0.50598174129E+02 -0.24487050863E+02 -0.65455610799E+02  0.86279938979E+02  0.00000000000E+00 0.  1.
        -13    1    3    3    0    0  0.10149315227E+02  0.88704547711E+02 -0.16514819841E+03  0.18773767023E+03  0.00000000000E+00 0. -1.
         13    1    3    3    0    0 -0.43610985098E+02  0.39787172470E+01 -0.11765957797E+03  0.12554491029E+03  0.00000000000E+00 0.  1.
         21    1    1    2  503  501  0.28468531198E+02  0.27548419513E+02 -0.28117347887E+02  0.48579398292E+02  0.00000000000E+00 0.  1.
          2    1    1    2  501    0  0.71595403910E+02  0.53740062259E+02 -0.15929699364E+03  0.18272774375E+03  0.00000000000E+00 0. -1.
<scales pt_clust_5="13000.00000" pt_clust_6="13000.00000" pt_clust_7="13000.00000" pt_clust_8="13000.00000" pt_clust_9="27.89401" pt_clust_10="146.75622"></scales>
<clustering>
<clus scale="   27.894">  9 10 -1 -1</clus>
<clus scale="   91.956">  7  8 -1 -1</clus>
<clus scale="  117.006">  5  6 -1 -1</clus>
<clus scale="  134.780">  2  7  1 -1</clus>
<clus scale="  146.756">  1  9  2 -1</clus>
<clus scale="  146.756">  1  5  2 -1</clus>
</clustering>
</event>
<event>
10    2  0.1671105E-006  0.1369228E+03  0.7546771E-02  0.1238537E+00
          3   -1    0    0  503    0 -0.00000000000E+00  0.00000000000E+00  0.99559057948E+02  0.99559057948E+02  0.00000000000E+00 0. -1.
         21   -1    0    0  501  502  0.00000000000E+00 -0.00000000000E+00 -0.63233504695E+03  0.63233504695E+03  0.00000000000E+00 0. -1.
         23    2    1    2    0    0 -0.13753368848E+02  0.70036996666E+01  0.72991922900E+01  0.89751126574E+02  0.88112312133E+02 0.  0.
         23    2    1    2    0    0 -0.52880968000E+02 -0.96245182895E+02 -0.13635090393E+03  0.19794841904E+03  0.92371400275E+02 0.  0.
        -11    1    4    4    0    0 -0.35288895030E+02 -0.19266661325E+02 -0.10597272327E+03  0.11334340929E+03  0.00000000000E+00 0.  1.
         11    1    4    4    0    0 -0.17592072970E+02 -0.76978521570E+02 -0.30378180661E+02  0.84605009750E+02  0.00000000000E+00 0. -1.
        -13    1    3    3    0    0  0.25910782270E+02 -0.78042340739E+01 -0.24733207010E+02  0.36660690614E+02  0.00000000000E+00 0. -1.
         13    1    3    3    0    0 -0.39664151118E+02  0.14807933740E+02  0.32032399300E+02  0.53090435960E+02  0.00000000000E+00 0.  1.
         21    1    1    2  503  502  0.39813432049E+02 -0.68516423967E+01 -0.15359204764E+02  0.43219897571E+02  0.00000000000E+00 0. -1.
          3    1    1    2  501    0  0.26820904799E+02  0.96093125625E+02 -0.38836507260E+03  0.40097466172E+03  0.00000000000E+00 0. -1.
<scales pt_clust_5="13000.00000" pt_clust_6="13000.00000" pt_clust_7="13000.00000" pt_clust_8="13000.00000" pt_clust_9="40.39869" pt_clust_10="101.07108"></scales>
<clustering>
<clus scale="   40.399">  1  9  2 -1</clus>
<clus scale="   88.112">  7  8 -1 -1</clus>
<clus scale="   88.606">  1  7  2 -1</clus>
<clus scale="   92.371">  5  6 -1 -1</clus>
<clus scale="  101.071">  2 10  1 -1</clus>
<clus scale="  101.071">  2  5  1 -1</clus>
</clustering>
</event>
<event>
10    2  0.1671105E-006  0.1995548E+03  0.7546771E-02  0.1150142E+00
          1   -1    0    0  503    0 -0.00000000000E+00  0.00000000000E+00  0.76642845465E+03  0.76642845465E+03  0.00000000000E+00 0. -1.
         21   -1    0    0  501  502  0.00000000000E+00 -0.00000000000E+00 -0.16565929362E+03  0.16565929362E+03  0.00000000000E+00 0.  1.
         23    2    1    2    0    0 -0.75114642730E+02  0.17740144258E+03  0.39828513567E+03  0.45210601716E+03  0.93033972675E+02 0.  0.
         23    2    1    2    0    0  0.92788637735E+02 -0.13270218932E+03  0.28671911555E+03  0.34209871237E+03  0.92758155658E+02 0.  0.
        -11    1    3    3    0    0 -0.85768110326E+02  0.90165548309E+02  0.26018823866E+03  0.28841621728E+03  0.00000000000E+00 0. -1.
         11    1    3    3    0    0  0.10653467596E+02  0.87235894271E+02  0.13809689701E+03  0.16368979988E+03  0.00000000000E+00 0.  1.
        -11    1    4    4    0    0  0.10946667930E+03 -0.11047950961E+03  0.21641728106E+03  0.26650537604E+03  0.00000000000E+00 0.  1.
         11    1    4    4    0    0 -0.16678041566E+02 -0.22222679719E+02  0.70301834491E+02  0.75593336327E+02  0.00000000000E+00 0. -1.
         21    1    1    2  503  502 -0.37159499527E+01 -0.23536006738E+02  0.19690068246E+02  0.30910365329E+02  0.00000000000E+00 0.  1.
          1    1    1    2  501    0 -0.13958045052E+02 -0.21163246517E+02 -0.10392515843E+03  0.10697265342E+03  0.00000000000E+00 0. -1.
<scales pt_clust_5="13000.00000" pt_clust_6="13000.00000" pt_clust_7="13000.00000" pt_clust_8="13000.00000" pt_clust_9="23.82754" pt_clust_10="40.17285"></scales>
<clustering>
<clus scale="   23.828">  2  9  1 -1</clus>
<clus scale="   40.173">  2 10  1 -1</clus>
<clus scale="   92.758">  7  8 -1 -1</clus>
<clus scale="   93.034">  5  6 -1 -1</clus>
<clus scale="  199.426">  2  7  1 -1</clus>
<clus scale="   23.828">  2  5  1 -1</clus>
</clustering>
</event>
<event>
10    2  0.1671105E-006  0.1902208E+03  0.7546771E-02  0.1158323E+00
         21   -1    0    0  501  502  0.00000000000E+00  0.00000000000E+00  0.68018585215E+02  0.68018585215E+02  0.00000000000E+00 0. -1.
          1   -1    0    0  503    0 -0.00000000000E+00 -0.00000000000E+00 -0.11724174760E+04  0.11724174760E+04  0.00000000000E+00 0. -1.
         23    2    1    2    0    0  0.43692274711E+02  0.14879200131E+03 -0.36649861736E+03  0.40818412445E+03  0.90801808362E+02 0.  0.
         23    2    1    2    0    0 -0.17022917401E+03 -0.10786912719E+03 -0.55589348308E+03  0.59831246343E+03  0.91359285650E+02 0.  0.
        -11    1    4    4    0    0 -0.38259628205E+02  0.63723112304E+01 -0.17621991340E+03  0.18043797654E+03  0.00000000000E+00 0.  1.
         11    1    4    4    0    0 -0.13196954581E+03 -0.11424143842E+03 -0.37967356969E+03  0.41787448689E+03  0.00000000000E+00 0. -1.
        -13    1    3    3    0    0  0.47020199311E+02  0.20538244271E+02 -0.11080249685E+03  0.12210615025E+03  0.00000000000E+00 0.  1.
         13    1    3    3    0    0 -0.33279246004E+01  0.12825375704E+03 -0.25569612051E+03  0.28607797420E+03  0.00000000000E+00 0. -1.
         21    1    1    2  503  502  0.86308630811E+02 -0.40785430862E+02 -0.16423010373E+03  0.18995830620E+03  0.00000000000E+00 0. -1.
          1    1    1    2  501    0  0.40228268489E+02 -0.13744325744E+00 -0.17776686621E+02  0.43981167145E+02  0.00000000000E+00 0. -1.
<scales pt_clust_5="13000.00000" pt_clust_6="13000.00000" pt_clust_7="13000.00000" pt_clust_8="13000.00000" pt_clust_9="104.07068" pt_clust_10="40.22850"></scales>
<clustering>
<clus scale="   40.229">  1 10  2 -1</clus>
<clus scale="   90.802">  7  8 -1 -1</clus>
<clus scale="   91.359">  5  6 -1 -1</clus>
<clus scale="  104.071">  1  9  2 -1</clus>
<clus scale="  189.954">  2  7  1 -1</clus>
<clus scale="   40.229">  1  5  2 -1</clus>
</clustering>
</event>
<event>
10    2  0.1671105E-006  0.1576413E+03  0.7546771E-02  0.1201781E+00
         21   -1    0    0  501  502  0.00000000000E+00  0.00000000000E+00  0.30635264873E+03  0.30635264873E+03  0.00000000000E+00 0.  1.
         -2   -1    0    0    0  501 -0.00000000000E+00 -0.00000000000E+00 -0.19452955490E+03  0.19452955490E+03  0.00000000000E+00 0.  1.
         23    2    1    2    0    0  0.61327180775E+02  0.62287135213E+02  0.13708127760E+03  0.18593095232E+03  0.90212704471E+02 0.  0.
         23    2    1    2    0    0  0.50585121073E+02 -0.12881755668E+03  0.25729308769E+02  0.16821078894E+03  0.92087213031E+02 0.  0.
        -11    1    3    3    0    0  0.36803881084E+02  0.81614233551E+02  0.76435105649E+02  0.11771887766E+03  0.00000000000E+00 0.  1.
         11    1    3    3    0    0  0.24523299691E+02 -0.19327098338E+02  0.60646171953E+02  0.68212074668E+02  0.00000000000E+00 0. -1.
        -11    1    4    4    0    0  0.77227347396E+02 -0.10412524470E+03  0.16125607339E+02  0.13063753282E+03  0.00000000000E+00 0.  1.
         11    1    4    4    0    0 -0.26642226323E+02 -0.24692311985E+02  0.96037014297E+01  0.37573256124E+02  0.00000000000E+00 0. -1.
         21    1    1    2  503  502 -0.72258890326E+02  0.24010225880E+02 -0.12883212320E+02  0.77225742714E+02  0.00000000000E+00 0.  1.
         -2    1    1    2    0  503 -0.39653411522E+02  0.42520195587E+02 -0.38104280221E+02  0.69514719659E+02  0.00000000000E+00 0.  1.
<scales pt_clust_5="13000.00000" pt_clust_6="13000.00000" pt_clust_7="13000.00000" pt_clust_8="13000.00000" pt_clust_9="38.90608" pt_clust_10="135.47374"></scales>
<clustering>
<clus scale="   38.906">  9 10 -1 -1</clus>
<clus scale="   90.213">  5  6 -1 -1</clus>
<clus scale="   92.087">  7  8 -1 -1</clus>
<clus scale="  125.615">  2  5  1 -1</clus>
<clus scale="  135.474">  1  9  2 -1</clus>
<clus scale="  135.474">  1  5  2 -1</clus>
</clustering>
</event>
<event>
10    2  0.1671105E-006  0.1083482E+03  0.7546771E-02  0.1264510E+00
          1   -1    0    0  503    0 -0.00000000000E+00  0.00000000000E+00  0.53253331444E+03  0.53253331444E+03  0.00000000000E+00 0. -1.
         21   -1    0    0  501  502  0.00000000000E+00 -0.00000000000E+00 -0.20816098171E+03  0.20816098171E+03  0.00000000000E+00 0. -1.
         23    2    1    2    0    0  0.53653890425E+02  0.29782547842E+02  0.43711447339E+03  0.45066730611E+03  0.90918743059E+02 0.  0.
         23    2    1    2    0    0 -0.36112076942E+02  0.45163450449E+01  0.53831230950E+02  0.11345478167E+03  0.93003798764E+02 0.  0.
        -11    1    4    4    0    0 -0.38217355718E+02 -0.39960606004E+02  0.31603680515E+02  0.63688373605E+02  0.00000000000E+00 0. -1.
         11    1    4    4    0    0  0.21052787767E+01  0.44476951049E+02  0.22227550435E+02  0.49766408065E+02  0.00000000000E+00 0.  1.
        -13    1    3    3    0    0 -0.17895452729E+02 -0.12505595599E+02  0.47359667316E+02  0.52149546862E+02  0.00000000000E+00 0. -1.
         13    1    3    3    0    0  0.71549343154E+02  0.42288143440E+02  0.38975480607E+03  0.39851775925E+03  0.00000000000E+00 0.  1.
         21    1    1    2  503  502 -0.30737761621E+02 -0.12843064113E+02 -0.99194697485E+02  0.10463910500E+03  0.00000000000E+00 0. -1.
          1    1    1    2  501    0  0.13195948138E+02 -0.21455828774E+02 -0.67378674122E+02  0.71933103381E+02  0.00000000000E+00 0. -1.
<scales pt_clust_5="13000.00000" pt_clust_6="13000.00000" pt_clust_7="13000.00000" pt_clust_8="13000.00000" pt_clust_9="35.52323" pt_clust_10="25.18900"></scales>
<clustering>
<clus scale="   25.189">  2 10  1 -1</clus>
<clus scale="   35.523">  2  9  1 -1</clus>
<clus scale="   90.919">  7  8 -1 -1</clus>
<clus scale="   93.004">  5  6 -1 -1</clus>
<clus scale="  106.564">  1  7  2 -1</clus>
<clus scale="   25.189">  2  5  1 -1</clus>
</clustering>
</event>
<event>
10    2  0.1671105E-006  0.9436993E+02  0.7546771E-02  0.1292647E+00
          2   -1    0    0  503    0 -0.00000000000E+00  0.00000000000E+00  0.36363890598E+03  0.36363890598E+03  0.00000000000E+00 0. -1.
         21   -1    0    0  501  502  0.00000000000E+00 -0.00000000000E+00 -0.46609512462E+02  0.46609512462E+02  0.00000000000E+00 0.  1.
         23    2    1    2    0    0 -0.17238334601E+02 -0.25473402303E+02  0.16016525310E+03  0.18736722303E+03  0.92236183569E+02 0.  0.
         23    2    1    2    0    0 -0.11675573092E+02  0.81784959804E+01  0.74852676279E+02  0.11957611432E+03  0.92153769137E+02 0.  0.
        -11    1    4    4    0    0  0.38163391756E+02  0.14614484601E+02  0.21100760303E+02  0.45992061444E+02  0.00000000000E+00 0.  1.
         11    1    4    4    0    0 -0.49838964848E+02 -0.64359886202E+01  0.53751915976E+02  0.73584052876E+02  0.00000000000E+00 0. -1.
        -11    1    3    3    0    0 -0.13164753250E+02 -0.57466754268E+02  0.13192541292E+03  0.14449931885E+03  0.00000000000E+00 0. -1.
         11    1    3    3    0    0 -0.40735813508E+01  0.31993351966E+02  0.28239840179E+02  0.42867904175E+02  0.00000000000E+00 0.  1.
         21    1    1    2  503  502 -0.82212912530E+01  0.23623383621E+02  0.29457864385E+02  0.38644788234E+02  0.00000000000E+00 0. -1.
          2    1    1    2  501    0  0.37135198946E+02 -0.63284772984E+01  0.52553599754E+02  0.64660292861E+02  0.00000000000E+00 0. -1.
<scales pt_clust_5="13000.00000" pt_clust_6="13000.00000" pt_clust_7="13000.00000" pt_clust_8="13000.00000" pt_clust_9="25.01307" pt_clust_10="36.06955"></scales>
<clustering>
<clus scale="   25.013">  2  9  1 -1</clus>
<clus scale="   36.070">  2 10  1 -1</clus>
<clus scale="   92.154">  5  6 -1 -1</clus>
<clus scale="   92.236">  7  8 -1 -1</clus>
<clus scale="   94.289">  2  5  1 -1</clus>
<clus scale="   25.013">  2  5  1 -1</clus>
</clustering>
</event>
<event>
10    2  0.1671105E-006  0.1273637E+03  0.7546771E-02  0.1244671E+00
         21   -1    0    0  501  502  0.00000000000E+00  0.00000000000E+00  0.45613583658E+03  0.45613583658E+03  0.00000000000E+00 0. -1.
         -2   -1    0    0    0  501 -0.00000000000E+00 -0.00000000000E+00 -0.74876338564E+02  0.74876338564E+02  0.00000000000E+00 0.  1.
         23    2    1    2    0    0 -0.59666157798E+01  0.31236555219E+02  0.25469816914E+03  0.27262551927E+03  0.91881410026E+02 0.  0.
         23    2    1    2    0    0 -0.34072988836E+02  0.59584042998E+02  0.59775198892E+02  0.13135588040E+03  0.94710433238E+02 0.  0.
        -13    1    3    3    0    0  0.28925954484E+02 -0.61674316367E+01  0.17796250577E+03  0.18040344097E+03  0.00000000000E+00 0.  1.
         13    1    3    3    0    0 -0.34892570263E+02  0.37403986856E+02  0.76735663372E+02  0.92222078297E+02  0.00000000000E+00 0. -1.
        -13    1    4    4    0    0 -0.72949761640E+01 -0.20543041852E+02 -0.78191631198E+01  0.23159718428E+02  0.00000000000E+00 0.  1.
         13    1    4    4    0    0 -0.26778012672E+02  0.80127084849E+02  0.67594362011E+02  0.10819616197E+03  0.00000000000E+00 0. -1.
         21    1    1    2  503  502 -0.81437488029E+01 -0.22274046628E+02  0.20265868665E+02  0.31195500164E+02  0.00000000000E+00 0. -1.
         -2    1    1    2    0  503  0.48183353418E+02 -0.68546551589E+02  0.46520261323E+02  0.95835275316E+02  0.00000000000E+00 0.  1.
<scales pt_clust_5="13000.00000" pt_clust_6="13000.00000" pt_clust_7="13000.00000" pt_clust_8="13000.00000" pt_clust_9="22.72744" pt_clust_10="95.26979"></scales>
<clustering>
<clus scale="   22.727">  9 10 -1 -1</clus>
<clus scale="   91.881">  5  6 -1 -1</clus>
<clus scale="   94.710">  7  8 -1 -1</clus>
<clus scale="   97.229">  2  5  1 -1</clus>
<clus scale="   95.270">  1  9  2 -1</clus>
<clus scale="   95.270">  1  5  2 -1</clus>
</clustering>
</event>
<event>
10    2  0.1671105E-006  0.1062322E+03  0.7546771E-02  0.1268956E+00
         21   -1    0    0  503  502  0.00000000000E+00  0.00000000000E+00  0.13967081176E+03  0.13967081176E+03  0.00000000000E+00 0. -1.
         -1   -1    0    0    0  501 -0.00000000000E+00 -0.00000000000E+00 -0.25223621589E+03  0.25223621589E+03  0.00000000000E+00 0.  1.
         23    2    1    2    0    0  0.17453147279E+02  0.47752163002E+02 -0.17100547205E+03  0.19941414128E+03  0.89096839727E+02 0.  0.
         23    2    1    2    0    0  0.23425686350E+02 -0.75644010592E+02  0.40222834458E+02  0.12790272673E+03  0.92035058397E+02 0.  0.
        -13    1    3    3    0    0 -0.27273591309E+02  0.24341729875E+01 -0.15701416771E+02  0.31564354415E+02  0.00000000000E+00 0.  1.
         13    1    3    3    0    0  0.44726738588E+02  0.45317990014E+02 -0.15530405528E+03  0.16784978687E+03  0.00000000000E+00 0. -1.
        -13    1    4    4    0    0  0.21977700774E+02  0.16270746155E+02 -0.52511997314E+00  0.27350178477E+02  0.00000000000E+00 0.  1.
         13    1    4    4    0    0  0.14479855762E+01 -0.91914756747E+02  0.40747954431E+02  0.10055254825E+03  0.00000000000E+00 0. -1.
         21    1    1    2  503  501 -0.50823803640E+01  0.21142773239E+02  0.17894922915E+02  0.28161600035E+02  0.00000000000E+00 0.  1.
         -1    1    1    2    0  502 -0.35796453265E+02  0.67490743510E+01  0.32231055461E+00  0.36428559607E+02  0.00000000000E+00 0.  1.
<scales pt_clust_5="13000.00000" pt_clust_6="13000.00000" pt_clust_7="13000.00000" pt_clust_8="13000.00000" pt_clust_9="21.74506" pt_clust_10="37.95987"></scales>
<clustering>
<clus scale="   21.745">  1  9  2 -1</clus>
<clus scale="   37.960">  1 10  2 -1</clus>
<clus scale="   89.097">  5  6 -1 -1</clus>
<clus scale="   92.035">  7  8 -1 -1</clus>
<clus scale="  103.697">  2  5  1 -1</clus>
<clus scale="   21.745">  1  5  2 -1</clus>
</clustering>
</event>
<event>
10    2  0.1671105E-006  0.1875334E+03  0.7546771E-02  0.1161754E+00
         21   -1    0    0  501  502  0.00000000000E+00  0.00000000000E+00  0.33653381147E+03  0.33653381147E+03  0.00000000000E+00 0.  1.
         -1   -1    0    0    0  501 -0.00000000000E+00 -0.00000000000E+00 -0.25362587999E+03  0.25362587999E+03  0.00000000000E+00 0.  1.
         23    2    1    2    0    0  0.18889456136E+03 -0.94593548190E+01 -0.85190741305E+02  0.22693204780E+03  0.92032913731E+02 0.  0.
         23    2    1    2    0    0 -0.13208826522E+03 -0.54491463939E+02 -0.65961117732E+01  0.16509749446E+03  0.82444190423E+02 0.  0.
        -11    1    3    3    0    0  0.16864860931E+03 -0.38735265194E+02 -0.59305870754E+02  0.18292063989E+03  0.00000000000E+00 0.  1.
         11    1    3    3    0    0  0.20245952048E+02  0.29275910375E+02 -0.25884870551E+02  0.44011407908E+02  0.00000000000E+00 0. -1.
        -13    1    4    4    0    0 -0.82332406180E+02 -0.57637279270E+02  0.28100975481E+02  0.10435682005E+03  0.00000000000E+00 0.  1.
         13    1    4    4    0    0 -0.49755859044E+02  0.31458153310E+01 -0.34697087254E+02  0.60740674406E+02  0.00000000000E+00 0. -1.
         21    1    1    2  503  502 -0.26691294831E+02  0.15930359672E+02  0.32104077851E+02  0.44686389356E+02  0.00000000000E+00 0. -1.
         -1    1    1    2    0  503 -0.30115001305E+02  0.48020459085E+02  0.14259070671E+03  0.15344375984E+03  0.00000000000E+00 0.  1.
<scales pt_clust_5="13000.00000" pt_clust_6="13000.00000" pt_clust_7="13000.00000" pt_clust_8="13000.00000" pt_clust_9="27.91150" pt_clust_10="93.47346"></scales>
<clustering>
<clus scale="   27.912">  9 10 -1 -1</clus>
<clus scale="   82.444">  7  8 -1 -1</clus>
<clus scale="   92.033">  5  6 -1 -1</clus>
<clus scale="   93.473">  1  9  2 -1</clus>
<clus scale="  183.018">  1  7  2 -1</clus>
<clus scale="   93.473">  1  5  2 -1</clus>
</clustering>
</event>
<event>
10    2  0.1671105E-006  0.1663975E+03  0.7546771E-02  0.1181783E+00
         21   -1    0    0  501  502  0.00000000000E+00  0.00000000000E+00  0.73477107518E+02  0.73477107518E+02  0.00000000000E+00 0. -1.
          1   -1    0    0  503    0 -0.00000000000E+00 -0.00000000000E+00 -0.10850337955E+04  0.10850337955E+04  0.00000000000E+00 0. -1.
         23    2    1    2    0    0 -0.97486538605E+02  0.10500959464E+03 -0.54459290270E+03  0.57069737448E+03  0.92646766758E+02 0.  0.
         23    2    1    2    0    0  0.58601592664E+02 -0.12120780438E+03 -0.44794781428E+03  0.47699165186E+03  0.93478944751E+02 0.  0.
        -11    1    4    4    0    0  0.34409380867E+02  0.55515071324E+01 -0.94942906568E+02  0.10113842114E+03  0.00000000000E+00 0.  1.
         11    1    4    4    0    0  0.24192211797E+02 -0.12675931152E+03 -0.35300490772E+03  0.37585323072E+03  0.00000000000E+00 0. -1.
        -13    1    3    3    0    0 -0.33276765081E+02  0.48269067109E+02 -0.85460983601E+02  0.10363795469E+03  0.00000000000E+00 0.  1.
         13    1    3    3    0    0 -0.64209773524E+02  0.56740527529E+02 -0.45913191910E+03  0.46705941979E+03  0.00000000000E+00 0. -1.
         21    1    1    2  503  502 -0.12254426517E+01 -0.36867653616E+02 -0.24173086885E+02  0.44102876577E+02  0.00000000000E+00 0.  1.
          1    1    1    2  501    0  0.40110388593E+02  0.53065863361E+02  0.51571159129E+01  0.66719000082E+02  0.00000000000E+00 0. -1.
<scales pt_clust_5="13000.00000" pt_clust_6="13000.00000" pt_clust_7="13000.00000" pt_clust_8="13000.00000" pt_clust_9="36.88801" pt_clust_10="50.90017"></scales>
<clustering>
<clus scale="   36.888">  1  9  2 -1</clus>
<clus scale="   50.900">  1 10  2 -1</clus>
<clus scale="   92.647">  7  8 -1 -1</clus>
<clus scale="   93.479">  5  6 -1 -1</clus>
<clus scale="  165.931">  2  7  1 -1</clus>
<clus scale="   36.888">  1  5  2 -1</clus>
</clustering>
</event>
<event>
10    2  0.1671105E-006  0.1936471E+03  0.7546771E-02  0.1182421E+00
         21   -1    0    0  503  502  0.00000000000E+00  0.00000000000E+00  0.94895545553E+03  0.94895545553E+03  0.00000000000E+00 0. -1.
          1   -1    0    0  502    0 -0.00000000000E+00 -0.00000000000E+00 -0.14030065871E+03  0.14030065871E+03  0.00000000000E+00 0. -1.
         23    2    1    2    0    0  0.12375759685E+02  0.42707186979E+02 -0.25405538824E+02  0.10570527684E+03  0.92472162842E+02 0.  0.
         23    2    1    2    0    0  0.18291366259E+03 -0.88206304516E+02  0.59763896813E+03  0.63761770135E+03  0.90256505206E+02 0.  0.
        -11    1    4    4    0    0 -0.10720888909E+01 -0.27609039158E+02  0.95301057785E+02  0.99225500919E+02  0.00000000000E+00 0.  1.
         11    1    4    4    0    0  0.18398575148E+03 -0.60597265358E+02  0.50233791034E+03  0.53839220043E+03  0.00000000000E+00 0. -1.
        -13    1    3    3    0    0 -0.22086880070E+02  0.46352716426E+02  0.14008537014E+02  0.53222586376E+02  0.00000000000E+00 0. -1.
         13    1    3    3    0    0  0.34462639754E+02 -0.36455294467E+01 -0.39414075838E+02  0.52482690460E+02  0.00000000000E+00 0.  1.
         21    1    1    2  503  501 -0.22898787096E+02  0.62148875491E+02  0.12057186000E+03  0.13756602269E+03  0.00000000000E+00 0. -1.
          1    1    1    2  501    0 -0.17239063518E+03 -0.16649757954E+02  0.11584950752E+03  0.20836711336E+03  0.00000000000E+00 0. -1.
<scales pt_clust_5="13000.00000" pt_clust_6="13000.00000" pt_clust_7="13000.00000" pt_clust_8="13000.00000" pt_clust_9="66.23320" pt_clust_10="171.32717"></scales>
<clustering>
<clus scale="   66.233">  1  9  2 -1</clus>
<clus scale="   90.257">  5  6 -1 -1</clus>
<clus scale="   92.472">  7  8 -1 -1</clus>
<clus scale="  103.783">  2  7  1 -1</clus>
<clus scale="  171.327">  1 10  2 -1</clus>
<clus scale="   66.233">  1  5  2 -1</clus>
</clustering>
</event>
<event>
10    2  0.1671105E-006  0.1098454E+03  0.7546771E-02  0.1261616E+00
         21   -1    0    0  501  502  0.00000000000E+00  0.00000000000E+00  0.44409385242E+02  0.44409385242E+02  0.00000000000E+00 0.  1.
          2   -1    0    0  503    0 -0.00000000000E+00 -0.00000000000E+00 -0.57348507912E+03  0.57348507912E+03  0.00000000000E+00 0. -1.
         23    2    1    2    0    0 -0.55606261287E+02  0.14415028610E+02 -0.13245803567E+03  0.17067122971E+03  0.91014768540E+02 0.  0.
         23    2    1    2    0    0  0.64605302091E+02  0.42452552805E+02 -0.15614647668E+03  0.19567175249E+03  0.89048572394E+02 0.  0.
        -11    1    3    3    0    0 -0.37119477086E+02  0.49599285538E+02 -0.10647516723E+03  0.12318646817E+03  0.00000000000E+00 0. -1.
         11    1    3    3    0    0 -0.18486784200E+02 -0.35184256927E+02 -0.25982868447E+02  0.47484761538E+02  0.00000000000E+00 0.  1.
        -13    1    4    4    0    0  0.40547954584E+02  0.23202839678E+02 -0.15804240713E+03  0.16480264210E+03  0.00000000000E+00 0. -1.
         13    1    4    4    0    0  0.24057347507E+02  0.19249713128E+02  0.18959304465E+01  0.30869110399E+02  0.00000000000E+00 0.  1.
         21    1    1    2  503  502  0.14445570638E+02 -0.45308646516E+02 -0.16248110104E+03  0.16929753736E+03  0.00000000000E+00 0.  1.
          2    1    1    2  501    0 -0.23444611442E+02 -0.11558934899E+02 -0.77990080485E+02  0.82253944803E+02  0.00000000000E+00 0. -1.
<scales pt_clust_5="13000.00000" pt_clust_6="13000.00000" pt_clust_7="13000.00000" pt_clust_8="13000.00000" pt_clust_9="47.91476" pt_clust_10="26.13923"></scales>
<clustering>
<clus scale="   26.139">  1 10  2 -1</clus>
<clus scale="   47.915">  2  9  1 -1</clus>
<clus scale="   89.049">  7  8 -1 -1</clus>
<clus scale="   91.015">  5  6 -1 -1</clus>
<clus scale="  108.222">  1  7  2 -1</clus>
<clus scale="   26.139">  1  5  2 -1</clus>
</clustering>
</event>
<event>
10    2  0.1671105E-006  0.9137502E+02  0.7546771E-02  0.1301429E+00
          1   -1    0    0  503    0 -0.00000000000E+00  0.00000000000E+00  0.24149790913E+03  0.24149790913E+03  0.00000000000E+00 0. -1.
         21   -1    0    0  501  502  0.00000000000E+00 -0.00000000000E+00 -0.10740988355E+03  0.10740988355E+03  0.00000000000E+00 0. -1.
         23    2    1    2    0    0  0.11698695534E+02  0.26187348265E+02  0.95905394218E+02  0.13548310987E+03  0.91297271234E+02 0.  0.
         23    2    1    2    0    0  0.17280390094E+02  0.55526469617E+02  0.46337870145E+02  0.11535725565E+03  0.88194656938E+02 0.  0.
        -11    1    4    4    0    0  0.39843646925E+02  0.56101952712E+01  0.45271191476E+02  0.60567906262E+02  0.00000000000E+00 0.  1.
         11    1    4    4    0    0 -0.22563256831E+02  0.49916274345E+02  0.10666786691E+01  0.54789349391E+02  0.00000000000E+00 0. -1.
        -13    1    3    3    0    0  0.34934985482E+02  0.27154442936E+02  0.10221923847E+03  0.11138487193E+03  0.00000000000E+00 0.  1.
         13    1    3    3    0    0 -0.23236289948E+02 -0.96709467155E+00 -0.63138442526E+01  0.24098237942E+02  0.00000000000E+00 0. -1.
         21    1    1    2  503  502  0.11439434936E+02 -0.24367166646E+02  0.27774326566E+01  0.27061663182E+02  0.00000000000E+00 0. -1.
          1    1    1    2  501    0 -0.40418520563E+02 -0.57346651236E+02 -0.10932671440E+02  0.71005763972E+02  0.00000000000E+00 0. -1.
<scales pt_clust_5="13000.00000" pt_clust_6="13000.00000" pt_clust_7="13000.00000" pt_clust_8="13000.00000" pt_clust_9="26.91876" pt_clust_10="76.55386"></scales>
<clustering>
<clus scale="   26.919">  2  9  1 -1</clus>
<clus scale="   76.554">  2 10  1 -1</clus>
<clus scale="   88.195">  5  6 -1 -1</clus>
<clus scale="   88.275">  2  5  1 -1</clus>
<clus scale="   91.297">  7  8 -1 -1</clus>
<clus scale="   26.919">  2  5  1 -1</clus>
</clustering>
</event>
<event>
10    2  0.1671105E-006  0.1159572E+03  0.7546771E-02  0.1258450E+00
         -1   -1    0    0    0  501 -0.00000000000E+00  0.00000000000E+00  0.65326130542E+02  0.65326130542E+02  0.00000000000E+00 0.  1.
         21   -1    0    0  501  502  0.00000000000E+00 -0.00000000000E+00 -0.53290318737E+03  0.53290318737E+03  0.00000000000E+00 0. -1.
         23    2    1    2    0    0  0.35517699726E+02 -0.43133533626E+01 -0.47614356109E+02  0.10886524002E+03  0.91128489315E+02 0.  0.
         23    2    1    2    0    0  0.34829548052E+02 -0.56732893873E+02 -0.35102533037E+03  0.36855733733E+03  0.90465516487E+02 0.  0.
        -11    1    4    4    0    0  0.26275944615E+02  0.50408488495E+01 -0.24987763000E+02  0.36609066121E+02  0.00000000000E+00 0.  1.
         11    1    4    4    0    0  0.85536034372E+01 -0.61773742722E+02 -0.32603756737E+03  0.33194827121E+03  0.00000000000E+00 0. -1.
        -11    1    3    3    0    0  0.60349359133E+01 -0.40098837796E+02  0.24549995386E+01  0.40624675590E+02  0.00000000000E+00 0. -1.
         11    1    3    3    0    0  0.29482763812E+02  0.35785484433E+02 -0.50069355647E+02  0.68240564425E+02  0.00000000000E+00 0.  1.
         21    1    1    2  503  502 -0.39532834849E+02  0.54907606666E+02 -0.44189691024E+02  0.80811008494E+02  0.00000000000E+00 0.  1.
         -1    1    1    2    0  503 -0.30814412929E+02  0.61386405693E+01 -0.24747679324E+02  0.39995732074E+02  0.00000000000E+00 0.  1.
<scales pt_clust_5="13000.00000" pt_clust_6="13000.00000" pt_clust_7="13000.00000" pt_clust_8="13000.00000" pt_clust_9="23.27493" pt_clust_10="80.17848"></scales>
<clustering>
<clus scale="   23.275">  9 10 -1 -1</clus>
<clus scale="   90.466">  5  6 -1 -1</clus>
<clus scale="   91.128">  7  8 -1 -1</clus>
<clus scale="   97.901">  1  7  2 -1</clus>
<clus scale="   80.178">  2  9  1 -1</clus>
<clus scale="   80.178">  2  5  1 -1</clus>
</clustering>
</event>
<event>
10    2  0.1671105E-006  0.1285674E+03  0.7546771E-02  0.1234107E+00
          2   -1    0    0  503    0 -0.00000000000E+00  0.00000000000E+00  0.13905404136E+03  0.13905404136E+03  0.00000000000E+00 0. -1.
         21   -1    0    0  501  502  0.00000000000E+00 -0.00000000000E+00 -0.25504121722E+03  0.25504121722E+03  0.00000000000E+00 0.  1.
         23    2    1    2    0    0  0.67221655773E+02 -0.34975146533E+02 -0.14238527054E+02  0.12112232934E+03  0.93412371412E+02 0.  0.
         23    2    1    2    0    0 -0.77336277917E+02  0.65301337329E+02 -0.55795881214E+00  0.12716254299E+03  0.76972959422E+02 0.  0.
        -11    1    4    4    0    0 -0.70580038813E+01  0.53320134401E+02  0.11112973614E+02  0.54921310380E+02  0.00000000000E+00 0. -1.
         11    1    4    4    0    0 -0.70278274035E+02  0.11981202927E+02 -0.11670932426E+02  0.72241232608E+02  0.00000000000E+00 0.  1.
        -13    1    3    3    0    0  0.24106204905E+02 -0.63789065417E+02 -0.43503539376E+01  0.68330663403E+02  0.00000000000E+00 0. -1.
         13    1    3    3    0    0  0.43115450869E+02  0.28813918884E+02 -0.98881731169E+01  0.52791665939E+02  0.00000000000E+00 0.  1.
         21    1    1    2  503  502 -0.34255351758E+02  0.12681457749E+02 -0.14386378148E+02  0.39258328682E+02  0.00000000000E+00 0.  1.
          2    1    1    2  501    0  0.44369973902E+02 -0.43007648545E+02 -0.86804311842E+02  0.10655205757E+03  0.00000000000E+00 0. -1.
<scales pt_clust_5="13000.00000" pt_clust_6="13000.00000" pt_clust_7="13000.00000" pt_clust_8="13000.00000" pt_clust_9="36.52737" pt_clust_10="48.04139"></scales>
<clustering>
<clus scale="   36.527">  2  9  1 -1</clus>
<clus scale="   48.041">  2 10  1 -1</clus>
<clus scale="   76.973">  5  6 -1 -1</clus>
<clus scale="   93.412">  7  8 -1 -1</clus>
<clus scale="  117.169">  2  5  1 -1</clus>
<clus scale="   36.527">  2  5  1 -1</clus>
</clustering>
</event>
<event>
10    2  0.1671105E-006  0.1402143E+03  0.7546771E-02  0.1214084E+00
         21   -1    0    0  501  502  0.00000000000E+00  0.00000000000E+00  0.45177094919E+03  0.45177094919E+03  0.00000000000E+00 0. -1.
          3   -1    0    0  503    0 -0.00000000000E+00 -0.00000000000E+00 -0.21541340162E+03  0.21541340162E+03  0.00000000000E+00 0. -1.
         23    2    1    2    0    0 -0.70502074141E+00 -0.10211811764E+03 -0.14611772136E+03  0.19928322527E+03  0.89077541351E+02 0.  0.
         23    2    1    2    0    0  0.12985841302E+02  0.11797515163E+03  0.13780961816E+03  0.20460901563E+03  0.93736812113E+02 0.  0.
        -11    1    4    4    0    0 -0.51126443750E+01  0.96930953741E+02  0.14631013882E+03  0.17558019720E+03  0.00000000000E+00 0.  1.
         11    1    4    4    0    0  0.18098485677E+02  0.21044197886E+02 -0.85005206583E+01  0.29028818438E+02  0.00000000000E+00 0. -1.
        -13    1    3    3    0    0  0.39577084957E+02 -0.47993733980E+02 -0.41441270214E+02  0.74747060357E+02  0.00000000000E+00 0. -1.
         13    1    3    3    0    0 -0.40282105698E+02 -0.54124383656E+02 -0.10467645115E+03  0.12453616491E+03  0.00000000000E+00 0.  1.
         21    1    1    2  503  502  0.13038947287E+02 -0.29301665826E+02  0.22244368042E+02  0.39030932299E+02  0.00000000000E+00 0.  1.
          3    1    1    2  501    0 -0.25319767848E+02  0.13444631836E+02  0.22242128273E+03  0.22426117760E+03  0.00000000000E+00 0. -1.
<scales pt_clust_5="13000.00000" pt_clust_6="13000.00000" pt_clust_7="13000.00000" pt_clust_8="13000.00000" pt_clust_9="29.14020" pt_clust_10="28.66790"></scales>
<clustering>
<clus scale="   28.668">  1 10  2 -1</clus>
<clus scale="   29.140">  1  9  2 -1</clus>
<clus scale="   89.078">  7  8 -1 -1</clus>
<clus scale="   93.737">  5  6 -1 -1</clus>
<clus scale="  137.143">  2  7  1 -1</clus>
<clus scale="   28.668">  1  5  2 -1</clus>
</clustering>
</event>
<event>
10    2  0.1671105E-006  0.1717193E+03  0.7546771E-02  0.1194754E+00
          1   -1    0    0  503    0 -0.00000000000E+00  0.00000000000E+00  0.50519716203E+03  0.50519716203E+03  0.00000000000E+00 0. -1.
         21   -1    0    0  501  502  0.00000000000E+00 -0.00000000000E+00 -0.23255254441E+03  0.23255254441E+03  0.00000000000E+00 0.  1.
         23    2    1    2    0    0 -0.13202250980E+03 -0.59287430768E+02  0.37508452063E+03  0.41356987409E+03  0.96988146699E+02 0.  0.
         23    2    1    2    0    0  0.49793543698E+02 -0.40441789606E+02 -0.68681289598E+01  0.10771622937E+03  0.86259373601E+02 0.  0.
        -13    1    3    3    0    0 -0.13509970680E+02  0.24548590988E+02  0.45570560115E+02  0.53496061318E+02  0.00000000000E+00 0. -1.
         13    1    3    3    0    0 -0.11851253912E+03 -0.83836021756E+02  0.32951396051E+03  0.36007381277E+03  0.00000000000E+00 0.  1.
        -13    1    4    4    0    0 -0.17512929516E+02 -0.24517703896E+02 -0.21508169614E+02  0.37019209402E+02  0.00000000000E+00 0.  1.
         13    1    4    4    0    0  0.67306473215E+02 -0.15924085709E+02  0.14640040654E+02  0.70697019970E+02  0.00000000000E+00 0. -1.
         21    1    1    2  503  502  0.72523943143E+02  0.13297285047E+03 -0.50579404713E+02  0.15968649747E+03  0.00000000000E+00 0. -1.
          1    1    1    2  501    0  0.97050229571E+01 -0.33243630100E+02 -0.44992369335E+02  0.56777105519E+02  0.00000000000E+00 0. -1.
<scales pt_clust_5="13000.00000" pt_clust_6="13000.00000" pt_clust_7="13000.00000" pt_clust_8="13000.00000" pt_clust_9="141.70678" pt_clust_10="34.63129"></scales>
<clustering>
<clus scale="   34.631">  2 10  1 -1</clus>
<clus scale="   86.259">  7  8 -1 -1</clus>
<clus scale="   96.988">  5  6 -1 -1</clus>
<clus scale="  113.259">  2  7  1 -1</clus>
<clus scale="  141.707">  2  9  1 -1</clus>
<clus scale="   34.631">  2  5  1 -1</clus>
</clustering>
</event>
<event>
10    2  0.1671105E-006  0.1228777E+03  0.7546771E-02  0.1240308E+00
          2   -1    0    0  503    0 -0.00000000000E+00  0.00000000000E+00  0.53915730844E+02  0.53915730844E+02  0.00000000000E+00 0. -1.
         21   -1    0    0  501  502  0.00000000000E+00 -0.00000000000E+00 -0.10293835662E+04  0.10293835662E+04  0.00000000000E+00 0.  1.
         23    2    1    2    0    0 -0.27516640010E+02  0.68798145725E+02 -0.91992830919E+02  0.14938434868E+03  0.91447538832E+02 0.  0.
         23    2    1    2    0    0  0.20747688213E+02 -0.10591820484E+03 -0.40400369601E+03  0.42675178964E+03  0.85140888488E+02 0.  0.
        -13    1    3    3    0    0 -0.17274461020E+01  0.45325628222E+02 -0.10322272172E+03  0.11274895531E+03  0.00000000000E+00 0.  1.
         13    1    3    3    0    0 -0.25789193908E+02  0.23472517503E+02  0.11229890801E+02  0.36635393375E+02  0.00000000000E+00 0. -1.
        -13    1    4    4    0    0  0.21862238805E+02 -0.62199291544E+01 -0.20871481231E+02  0.30858770763E+02  0.00000000000E+00 0. -1.
         13    1    4    4    0    0 -0.11145505917E+01 -0.99698275687E+02 -0.38313221478E+03  0.39589301888E+03  0.00000000000E+00 0.  1.
         21    1    1    2  503  502 -0.53825576163E+02 -0.32563135857E+02 -0.11399819088E+03  0.13020421648E+03  0.00000000000E+00 0.  1.
          2    1    1    2  501    0  0.60594527960E+02  0.69683194973E+02 -0.36547311759E+03  0.37695894228E+03  0.00000000000E+00 0. -1.
<scales pt_clust_5="13000.00000" pt_clust_6="13000.00000" pt_clust_7="13000.00000" pt_clust_8="13000.00000" pt_clust_9="62.90907" pt_clust_10="84.87069"></scales>
<clustering>
<clus scale="   62.909">  1  9  2 -1</clus>
<clus scale="   84.871">  2 10  1 -1</clus>
<clus scale="   85.141">  7  8 -1 -1</clus>
<clus scale="   91.448">  5  6 -1 -1</clus>
<clus scale="  118.259">  2  7  1 -1</clus>
<clus scale="   84.871">  2  5  1 -1</clus>
</clustering>
</event>
<event>
10    2  0.1671105E-006  0.1251399E+03  0.7546771E-02  0.1235117E+00
         21   -1    0    0  503  502  0.00000000000E+00  0.00000000000E+00  0.25340387339E+03  0.25340387339E+03  0.00000000000E+00 0.  1.
          1   -1    0    0  502    0 -0.00000000000E+00 -0.00000000000E+00 -0.18692045136E+03  0.18692045136E+03  0.00000000000E+00 0. -1.
         23    2    1    2    0    0  0.82815188186E+02  0.45270878956E+02 -0.75121454437E+02  0.15134881893E+03  0.91408009489E+02 0.  0.
         23    2    1    2    0    0 -0.76278902824E+02  0.51589036678E+02  0.12333384478E+03  0.17854159807E+03  0.90476324255E+02 0.  0.
        -11    1    4    4    0    0 -0.15030573300E+02  0.15397000544E+02  0.10203557553E+03  0.10427964535E+03  0.00000000000E+00 0. -1.
         11    1    4    4    0    0 -0.61248329524E+02  0.36192036134E+02  0.21298269249E+02  0.74261952722E+02  0.00000000000E+00 0.  1.
        -11    1    3    3    0    0  0.81479538149E+02  0.16730045092E+02 -0.87036669519E+02  0.12039182442E+03  0.00000000000E+00 0. -1.
         11    1    3    3    0    0  0.13356500376E+01  0.28540833864E+02  0.11915215082E+02  0.30956994511E+02  0.00000000000E+00 0.  1.
         21    1    1    2  503  501 -0.18608887167E+02 -0.59328266855E+02 -0.85311288934E+01  0.62760768716E+02  0.00000000000E+00 0.  1.
          1    1    1    2  501    0  0.12072601804E+02 -0.37531648779E+02  0.26802160576E+02  0.47673139040E+02  0.00000000000E+00 0. -1.
<scales pt_clust_5="13000.00000" pt_clust_6="13000.00000" pt_clust_7="13000.00000" pt_clust_8="13000.00000" pt_clust_9="39.31151" pt_clust_10="108.91197"></scales>
<clustering>
<clus scale="   39.312">  9 10 -1 -1</clus>
<clus scale="   90.476">  5  6 -1 -1</clus>
<clus scale="   91.408">  7  8 -1 -1</clus>
<clus scale="  108.912">  1  9  2 -1</clus>
<clus scale="  124.461">  1  5  2 -1</clus>
<clus scale="  108.912">  1  5  2 -1</clus>
</clustering>
</event>
<event>
10    2  0.1671105E-006  0.1300803E+03  0.7546771E-02  0.1238297E+00
          1   -1    0    0  503    0 -0.00000000000E+00  0.00000000000E+00  0.18713864660E+03  0.18713864660E+03  0.00000000000E+00 0. -1.
         21   -1    0    0  501  502  0.00000000000E+00 -0.00000000000E+00 -0.28700064347E+03  0.28700064347E+03  0.00000000000E+00 0. -1.
         23    2    1    2    0    0  0.12671510673E+02 -0.64092966617E+02  0.45074062019E+02  0.11935738559E+03  0.89140556848E+02 0.  0.
         23    2    1    2    0    0 -0.10793861980E+02 -0.84303644204E+02 -0.13142972051E+03  0.18105532530E+03  0.91014545569E+02 0.  0.
        -11    1    3    3    0    0 -0.37110564039E+02 -0.20848316265E+02  0.28934526160E+02  0.51468952374E+02  0.00000000000E+00 0.  1.
         11    1    3    3    0    0  0.49782074711E+02 -0.43244650352E+02  0.16139535859E+02  0.67888433215E+02  0.00000000000E+00 0. -1.
        -13    1    4    4    0    0  0.32038470327E+02 -0.16109067036E+02 -0.73728599987E+02  0.81987023837E+02  0.00000000000E+00 0. -1.
         13    1    4    4    0    0 -0.42832332306E+02 -0.68194577168E+02 -0.57701120522E+02  0.99068301466E+02  0.00000000000E+00 0.  1.
         21    1    1    2  503  502  0.36400183846E+02  0.40304043470E+02  0.13411203568E+02  0.55939696864E+02  0.00000000000E+00 0. -1.
          1    1    1    2  501    0 -0.38277832539E+02  0.10809256735E+03 -0.26917541953E+02  0.11778688231E+03  0.00000000000E+00 0. -1.
<scales pt_clust_5="13000.00000" pt_clust_6="13000.00000" pt_clust_7="13000.00000" pt_clust_8="13000.00000" pt_clust_9="54.30828" pt_clust_10="92.93675"></scales>
<clustering>
<clus scale="   54.308">  1  9  2 -1</clus>
<clus scale="   89.141">  5  6 -1 -1</clus>
<clus scale="   91.015">  7  8 -1 -1</clus>
<clus scale="  103.844">  1  5  2 -1</clus>
<clus scale="   92.937">  2 10  1 -1</clus>
<clus scale="   92.937">  2  5  1 -1</clus>
</clustering>
</event>
<event>
10    2  0.1671105E-006  0.2271042E+03  0.7546771E-02  0.1149357E+00
          2   -1    0    0  502    0 -0.00000000000E+00  0.00000000000E+00  0.36546546239E+03  0.36546546239E+03  0.00000000000E+00 0. -1.
         21   -1    0    0  503  502  0.00000000000E+00 -0.00000000000E+00 -0.30709341701E+03  0.30709341701E+03  0.00000000000E+00 0.  1.
         23    2    1    2    0    0  0.12943562043E+02  0.97141546688E+02  0.15469552032E+03  0.20719662729E+03  0.96931534923E+02 0.  0.
         23    2    1    2    0    0 -0.21194030489E+03 -0.24458770078E+02 -0.19891993703E+02  0.23383705086E+03  0.93633063977E+02 0.  0.
        -11    1    4    4    0    0 -0.18445003794E+03  0.66391947256E+01 -0.38185059077E+02  0.18847809989E+03  0.00000000000E+00 0.  1.
         11    1    4    4    0    0 -0.27490266953E+02 -0.31097964803E+02  0.18293065374E+02  0.45358950967E+02  0.00000000000E+00 0. -1.
        -11    1    3    3    0    0 -0.44230730493E+01  0.20984113141E+02 -0.10934059483E+02  0.24071772604E+02  0.00000000000E+00 0.  1.
         11    1    3    3    0    0  0.17366635092E+02  0.76157433547E+02  0.16562957980E+03  0.18312485469E+03  0.00000000000E+00 0. -1.
         21    1    1    2  503  501  0.12676378681E+03 -0.65584937028E+02 -0.69107365523E+02  0.15857575344E+03  0.00000000000E+00 0.  1.
          2    1    1    2  501    0  0.72232956040E+02 -0.70978395824E+01 -0.73241157193E+01  0.72949447812E+02  0.00000000000E+00 0. -1.
<scales pt_clust_5="13000.00000" pt_clust_6="13000.00000" pt_clust_7="13000.00000" pt_clust_8="13000.00000" pt_clust_9="38.26761" pt_clust_10="213.74947"></scales>
<clustering>
<clus scale="   38.268">  9 10 -1 -1</clus>
<clus scale="   93.633">  5  6 -1 -1</clus>
<clus scale="   96.932">  7  8 -1 -1</clus>
<clus scale="  137.840">  1  7  2 -1</clus>
<clus scale="  213.749">  2  9  1 -1</clus>
<clus scale="  213.749">  2  5  1 -1</clus>
</clustering>
</event>
<event>
10    2  0.1671105E-006  0.1840970E+03  0.7546771E-02  0.1188410E+00
          3   -1    0    0  503    0 -0.00000000000E+00  0.00000000000E+00  0.56448488896E+03  0.56448488896E+03  0.00000000000E+00 0. -1.
         21   -1    0    0  501  502  0.00000000000E+00 -0.00000000000E+00 -0.18864205071E+03  0.18864205071E+03  0.00000000000E+00 0. -1.
         23    2    1    2    0    0  0.55231711291E+02  0.13062135206E+02  0.26590026827E+03  0.28637218244E+03  0.89916143719E+02 0.  0.
         23    2    1    2    0    0 -0.96343925344E+02 -0.14733549756E+03 -0.80953801949E+02  0.21531114291E+03  0.93890731292E+02 0.  0.
        -11    1    4    4    0    0 -0.86171800134E+02 -0.50507588209E+02 -0.57172015134E+02  0.11508794428E+03  0.00000000000E+00 0.  1.
         11    1    4    4    0    0 -0.10172125210E+02 -0.96827909346E+02 -0.23781786815E+02  0.10022319863E+03  0.00000000000E+00 0. -1.
        -13    1    3    3    0    0 -0.19952993335E+02 -0.13439522845E+02  0.91604959939E+02  0.94711199986E+02  0.00000000000E+00 0.  1.
         13    1    3    3    0    0  0.75184704626E+02  0.26501658051E+02  0.17429530833E+03  0.19166098245E+03  0.00000000000E+00 0. -1.
         21    1    1    2  503  502 -0.99115642839E+01  0.21104818432E+02  0.85421223422E+02  0.88546247117E+02  0.00000000000E+00 0. -1.
          3    1    1    2  501    0  0.51023778337E+02  0.11316854392E+03  0.10547514851E+03  0.16289736720E+03  0.00000000000E+00 0. -1.
<scales pt_clust_5="13000.00000" pt_clust_6="13000.00000" pt_clust_7="13000.00000" pt_clust_8="13000.00000" pt_clust_9="23.31636" pt_clust_10="158.35482"></scales>
<clustering>
<clus scale="   23.316">  1  9  2 -1</clus>
<clus scale="   89.916">  7  8 -1 -1</clus>
<clus scale="   93.891">  5  6 -1 -1</clus>
<clus scale="  105.705">  1  7  2 -1</clus>
<clus scale="  158.355">  2 10  1 -1</clus>
<clus scale="  158.355">  2  5  1 -1</clus>
</clustering>
</event>
<event>
10    2  0.1671105E-006  0.1883452E+03  0.7546771E-02  0.1160142E+00
         -1   -1    0    0    0  501 -0.00000000000E+00  0.00000000000E+00  0.46118471401E+03  0.46118471401E+03  0.00000000000E+00 0.  1.
         21   -1    0    0  503  502  0.00000000000E+00 -0.00000000000E+00 -0.51287738025E+03  0.51287738025E+03  0.00000000000E+00 0.  1.
         23    2    1    2    0    0  0.14291292605E+03  0.34723401465E+02  0.22480009986E+03  0.28340964215E+03  0.90311246957E+02 0.  0.
         23    2    1    2    0    0 -0.22768498311E+03 -0.16512783309E+03 -0.38065708504E+03  0.48214053389E+03  0.91934896702E+02 0.  0.
        -11    1    4    4    0    0 -0.18755607560E+03 -0.94354326028E+02 -0.23364817919E+03  0.31412018714E+03  0.00000000000E+00 0.  1.
         11    1    4    4    0    0 -0.40128907514E+02 -0.70773507067E+02 -0.14700890585E+03  0.16802034674E+03  0.00000000000E+00 0. -1.
        -13    1    3    3    0    0  0.48365452355E+02 -0.30597913984E+02  0.65430913799E+02  0.86929015882E+02  0.00000000000E+00 0.  1.
         13    1    3    3    0    0  0.94547473692E+02  0.65321315449E+02  0.15936918606E+03  0.19648062627E+03  0.00000000000E+00 0. -1.
         21    1    1    2  503  501 -0.19610209954E+01  0.42625755865E+02  0.67362823372E+02  0.79740520685E+02  0.00000000000E+00 0. -1.
         -1    1    1    2    0  502  0.86733078061E+02  0.87778675765E+02  0.36801495559E+02  0.12877139754E+03  0.00000000000E+00 0.  1.
<scales pt_clust_5="13000.00000" pt_clust_6="13000.00000" pt_clust_7="13000.00000" pt_clust_8="13000.00000" pt_clust_9="42.67084" pt_clust_10="129.75490"></scales>
<clustering>
<clus scale="   42.671">  1  9  2 -1</clus>
<clus scale="   90.311">  7  8 -1 -1</clus>
<clus scale="   91.935">  5  6 -1 -1</clus>
<clus scale="  129.755">  2 10  1 -1</clus>
<clus scale="  187.558">  1  7  2 -1</clus>
<clus scale="  129.755">  2  5  1 -1</clus>
</clustering>
</event>
<event>
10    2  0.1671105E-006  0.1211038E+03  0.7546771E-02  0.1242027E+00
         21   -1    0    0  501  502  0.00000000000E+00  0.00000000000E+00  0.16500749740E+03  0.16500749740E+03  0.00000000000E+00 0.  1.
          1   -1    0    0  503    0 -0.00000000000E+00 -0.00000000000E+00 -0.36699246048E+03  0.36699246048E+03  0.00000000000E+00 0. -1.
         23    2    1    2    0    0  0.95495441782E+01  0.77434176696E+02 -0.29947378486E+03  0.32295006682E+03  0.92330668385E+02 0.  0.
         23    2    1    2    0    0 -0.56643916571E+02 -0.73568130946E+02  0.62862764723E+02  0.14375091510E+03  0.89954406392E+02 0.  0.
        -13    1    4    4    0    0 -0.58693914275E+02 -0.49286497779E+02  0.33607987564E+00  0.76643638914E+02  0.00000000000E+00 0. -1.
         13    1    4    4    0    0  0.20499977031E+01 -0.24281633167E+02  0.62526684847E+02  0.67107276191E+02  0.00000000000E+00 0.  1.
        -13    1    3    3    0    0  0.35419635042E+02  0.80363726463E+02 -0.17521222883E+03  0.19599031662E+03  0.00000000000E+00 0. -1.
         13    1    3    3    0    0 -0.25870090863E+02 -0.29295497661E+01 -0.12426155603E+03  0.12695975020E+03  0.00000000000E+00 0.  1.
         21    1    1    2  503  502  0.23324296866E+02  0.22899394601E+01  0.33284866439E+02  0.40708094784E+02  0.00000000000E+00 0.  1.
          1    1    1    2  501    0  0.23770075527E+02 -0.61559852103E+01  0.13411906246E+01  0.24590881171E+02  0.00000000000E+00 0. -1.
<scales pt_clust_5="13000.00000" pt_clust_6="13000.00000" pt_clust_7="13000.00000" pt_clust_8="13000.00000" pt_clust_9="23.43644" pt_clust_10="26.79561"></scales>
<clustering>
<clus scale="   23.436">  1  9  2 -1</clus>
<clus scale="   26.796">  1 10  2 -1</clus>
<clus scale="   89.954">  5  6 -1 -1</clus>
<clus scale="   92.331">  7  8 -1 -1</clus>
<clus scale="  119.302">  1  5  2 -1</clus>
<clus scale="   23.436">  1  5  2 -1</clus>
</clustering>
</event>
<event>
10    2  0.1671105E-006  0.9391469E+02  0.7546771E-02  0.1294928E+00
         21   -1    0    0  501  502  0.00000000000E+00  0.00000000000E+00  0.23035132579E+03  0.23035132579E+03  0.00000000000E+00 0. -1.
          1   -1    0    0  503    0 -0.00000000000E+00 -0.00000000000E+00 -0.50567631215E+03  0.50567631215E+03  0.00000000000E+00 0. -1.
         23    2    1    2    0    0  0.15928795463E+02 -0.10046106925E+02 -0.34364091405E+03  0.35620502879E+03  0.91860186888E+02 0.  0.
         23    2    1    2    0    0  0.49842661970E+01  0.33798815658E+02 -0.12909548641E+03  0.16080501662E+03  0.89584629874E+02 0.  0.
        -13    1    3    3    0    0  0.29837013380E+02 -0.45177413874E+02 -0.16657992798E+03  0.17515741063E+03  0.00000000000E+00 0.  1.
         13    1    3    3    0    0 -0.13908217917E+02  0.35131306948E+02 -0.17706098607E+03  0.18104761816E+03  0.00000000000E+00 0. -1.
        -13    1    4    4    0    0 -0.40381029131E+02  0.21893914889E+02 -0.84009871970E+02  0.95747739457E+02  0.00000000000E+00 0. -1.
         13    1    4    4    0    0  0.45365295328E+02  0.11904900770E+02 -0.45085614438E+02  0.65057277162E+02  0.00000000000E+00 0.  1.
         21    1    1    2  503  502  0.27595808174E+02 -0.11085845444E+02  0.23149961652E+02  0.37687469038E+02  0.00000000000E+00 0. -1.
          1    1    1    2  501    0 -0.48508869835E+02 -0.12666863288E+02  0.17426145244E+03  0.18133012349E+03  0.00000000000E+00 0. -1.
<scales pt_clust_5="13000.00000" pt_clust_6="13000.00000" pt_clust_7="13000.00000" pt_clust_8="13000.00000" pt_clust_9="29.73928" pt_clust_10="32.89190"></scales>
<clustering>
<clus scale="   29.739">  1  9  2 -1</clus>
<clus scale="   32.892">  1 10  2 -1</clus>
<clus scale="   89.585">  7  8 -1 -1</clus>
<clus scale="   91.690">  1  7  2 -1</clus>
<clus scale="   91.860">  5  6 -1 -1</clus>
<clus scale="   29.739">  1  5  2 -1</clus>
</clustering>
</event>
<event>
10    2  0.1671105E-006  0.1008642E+03  0.7546771E-02  0.1281001E+00
          2   -1    0    0  502    0 -0.00000000000E+00  0.00000000000E+00  0.99209932927E+02  0.99209932927E+02  0.00000000000E+00 0.  1.
         21   -1    0    0  503  502  0.00000000000E+00 -0.00000000000E+00 -0.20807948022E+03  0.20807948022E+03  0.00000000000E+00 0. -1.
         23    2    1    2    0    0  0.23072206987E+02  0.37121598603E+02 -0.36044884602E+01  0.10542924292E+03  0.95874882570E+02 0.  0.
         23    2    1    2    0    0 -0.17176758584E+02  0.10874204358E+02 -0.11340786136E+03  0.14676045829E+03  0.90906544003E+02 0.  0.
        -11    1    4    4    0    0  0.34276671706E+02 -0.67234664351E+01 -0.65751608694E+02  0.74453806283E+02  0.00000000000E+00 0.  1.
         11    1    4    4    0    0 -0.51453430290E+02  0.17597670793E+02 -0.47656252664E+02  0.72306652003E+02  0.00000000000E+00 0. -1.
        -11    1    3    3    0    0 -0.30925965105E+02 -0.72650287747E+01 -0.14081126409E+02  0.34748727771E+02  0.00000000000E+00 0. -1.
         11    1    3    3    0    0  0.53998172091E+02  0.44386627378E+02  0.10476637948E+02  0.70680515150E+02  0.00000000000E+00 0.  1.
         21    1    1    2  503  501 -0.14484971740E+02 -0.17166788079E+02  0.42601285807E+01  0.22861795966E+02  0.00000000000E+00 0.  1.
          2    1    1    2  501    0  0.85895233370E+01 -0.30829014882E+02  0.38826739405E+01  0.32237915979E+02  0.00000000000E+00 0.  1.
<scales pt_clust_5="13000.00000" pt_clust_6="13000.00000" pt_clust_7="13000.00000" pt_clust_8="13000.00000" pt_clust_9="21.04969" pt_clust_10="54.49473"></scales>
<clustering>
<clus scale="   21.050">  9 10 -1 -1</clus>
<clus scale="   54.495">  2  9  1 -1</clus>
<clus scale="   90.907">  5  6 -1 -1</clus>
<clus scale="   95.875">  7  8 -1 -1</clus>
<clus scale="   96.154">  2  5  1 -1</clus>
<clus scale="   54.495">  2  5  1 -1</clus>
</clustering>
</event>
<event>
10    2  0.1671105E-006  0.1513264E+03  0.7546771E-02  0.1198913E+00
          4   -1    0    0  503    0 -0.00000000000E+00  0.00000000000E+00  0.97674462171E+02  0.97674462171E+02  0.00000000000E+00 0. -1.
         21   -1    0    0  501  502  0.00000000000E+00 -0.00000000000E+00 -0.44856798866E+03  0.44856798866E+03  0.00000000000E+00 0. -1.
         23    2    1    2    0    0 -0.12584298960E+03  0.57844079348E+02 -0.46196212390E+02  0.17183948549E+03  0.90621869262E+02 0.  0.
         23    2    1    2    0    0  0.68130092170E+02 -0.71846421946E+02 -0.13929538424E+03  0.19359557478E+03  0.90952870749E+02 0.  0.
        -11    1    3    3    0    0 -0.18963915827E+02 -0.19367246612E+02  0.94792979223E+01  0.28715456360E+02  0.00000000000E+00 0. -1.
         11    1    3    3    0    0 -0.10687907377E+03  0.77211325960E+02 -0.55675510312E+02  0.14312402913E+03  0.00000000000E+00 0.  1.
        -11    1    4    4    0    0  0.28788116582E+02  0.16750254496E+02 -0.58865058682E+02  0.67634472095E+02  0.00000000000E+00 0.  1.
         11    1    4    4    0    0  0.39341975588E+02 -0.88596676442E+02 -0.80430325562E+02  0.12596110269E+03  0.00000000000E+00 0. -1.
         21    1    1    2  503  502  0.38915152140E+02  0.21244613992E+02 -0.66840121473E+02  0.80208007881E+02  0.00000000000E+00 0. -1.
          4    1    1    2  501    0  0.18797745290E+02 -0.72422713943E+01 -0.98561808385E+02  0.10059938268E+03  0.00000000000E+00 0. -1.
<scales pt_clust_5="13000.00000" pt_clust_6="13000.00000" pt_clust_7="13000.00000" pt_clust_8="13000.00000" pt_clust_9="47.19253" pt_clust_10="20.14462"></scales>
<clustering>
<clus scale="   20.145">  2 10  1 -1</clus>
<clus scale="   47.193">  2  9  1 -1</clus>
<clus scale="   90.622">  5  6 -1 -1</clus>
<clus scale="   90.953">  7  8 -1 -1</clus>
<clus scale="  151.128">  1  5  2 -1</clus>
<clus scale="   20.145">  2  5  1 -1</clus>
</clustering>
</event>
<event>
10    2  0.1671105E-006  0.9241584E+02  0.7546771E-02  0.1297574E+00
         21   -1    0    0  501  502  0.00000000000E+00  0.00000000000E+00  0.34255647375E+02  0.34255647375E+02  0.00000000000E+00 0. -1.
         -3   -1    0    0    0  501 -0.00000000000E+00 -0.00000000000E+00 -0.55903409796E+03  0.55903409796E+03  0.00000000000E+00 0.  1.
         23    2    1    2    0    0 -0.12027841558E+02  0.37658122390E+01 -0.23353173903E+03  0.25062207107E+03  0.90086064727E+02 0.  0.
         23    2    1    2    0    0  0.14805650503E+02  0.41046645053E+02 -0.12129889908E+03  0.15773462581E+03  0.90899696936E+02 0.  0.
        -11    1    3    3    0    0 -0.24217304261E+02 -0.37702628556E+02 -0.87192875623E+02  0.98033481960E+02  0.00000000000E+00 0.  1.
         11    1    3    3    0    0  0.12189462703E+02  0.41468440795E+02 -0.14633886341E+03  0.15258858911E+03  0.00000000000E+00 0. -1.
        -13    1    4    4    0    0 -0.24439173268E+02  0.50171811614E+02 -0.45953502023E+02  0.72292518416E+02  0.00000000000E+00 0. -1.
         13    1    4    4    0    0  0.39244823771E+02 -0.91251665606E+01 -0.75345397061E+02  0.85442107393E+02  0.00000000000E+00 0.  1.
         21    1    1    2  503  502  0.30836024280E+01 -0.21774954058E+02 -0.11701974936E+02  0.24911713019E+02  0.00000000000E+00 0. -1.
         -3    1    1    2    0  503 -0.58614113724E+01 -0.23037503235E+02 -0.15824583753E+03  0.16002133544E+03  0.00000000000E+00 0.  1.
<scales pt_clust_5="13000.00000" pt_clust_6="13000.00000" pt_clust_7="13000.00000" pt_clust_8="13000.00000" pt_clust_9="21.99221" pt_clust_10="24.42606"></scales>
<clustering>
<clus scale="   21.992">  1  9  2 -1</clus>
<clus scale="   24.426">  1 10  2 -1</clus>
<clus scale="   90.086">  5  6 -1 -1</clus>
<clus scale="   90.900">  7  8 -1 -1</clus>
<clus scale="   91.616">  2  5  1 -1</clus>
<clus scale="   21.992">  1  5  2 -1</clus>
</clustering>
</event>
<event>
10    2  0.1671105E-006  0.1679811E+03  0.7546771E-02  0.1192283E+00
         21   -1    0    0  503  502  0.00000000000E+00  0.00000000000E+00  0.74443620730E+03  0.74443620730E+03  0.00000000000E+00 0.  1.
          3   -1    0    0  502    0 -0.00000000000E+00 -0.00000000000E+00 -0.14117498570E+03  0.14117498570E+03  0.00000000000E+00 0. -1.
         23    2    1    2    0    0 -0.73706492574E+02 -0.45192203662E+02  0.17976545628E+03  0.22052684090E+03  0.94029176155E+02 0.  0.
         23    2    1    2    0    0  0.99510910257E+02 -0.12684523235E+03  0.95469511117E+02  0.20802057094E+03  0.90365901473E+02 0.  0.
        -11    1    4    4    0    0 -0.12066236416E+02 -0.38880045184E+02  0.34686852351E+02  0.53482985152E+02  0.00000000000E+00 0. -1.
         11    1    4    4    0    0  0.11157714667E+03 -0.87965187167E+02  0.60782658766E+02  0.15453758578E+03  0.00000000000E+00 0.  1.
        -11    1    3    3    0    0  0.15723648329E+02  0.12810656082E+02  0.38981051228E+02  0.43941647452E+02  0.00000000000E+00 0. -1.
         11    1    3    3    0    0 -0.89430140903E+02 -0.58002859744E+02  0.14078440505E+03  0.17658519345E+03  0.00000000000E+00 0.  1.
         21    1    1    2  503  501  0.10920734803E+03  0.13073120249E+03  0.22534837191E+03  0.28248678003E+03  0.00000000000E+00 0.  1.
          3    1    1    2  501    0 -0.13501176572E+03  0.41306233519E+02  0.10267788229E+03  0.17457700112E+03  0.00000000000E+00 0. -1.
<scales pt_clust_5="13000.00000" pt_clust_6="13000.00000" pt_clust_7="13000.00000" pt_clust_8="13000.00000" pt_clust_9="151.10559" pt_clust_10="141.60386"></scales>
<clustering>
<clus scale="   90.366">  5  6 -1 -1</clus>
<clus scale="   94.029">  7  8 -1 -1</clus>
<clus scale="  127.736">  2  7  1 -1</clus>
<clus scale="  151.106">  1  9  2 -1</clus>
<clus scale="  141.604">  1 10  2 -1</clus>
<clus scale="  151.106">  1  5  2 -1</clus>
</clustering>
</event>
<event>
10    2  0.1671105E-006  0.1890065E+03  0.7546771E-02  0.1188342E+00
         -1   -1    0    0    0  501 -0.00000000000E+00  0.00000000000E+00  0.66354179303E+03  0.66354179303E+03  0.00000000000E+00 0.  1.
         21   -1    0    0  501  502  0.00000000000E+00 -0.00000000000E+00 -0.10057285024E+03  0.10057285024E+03  0.00000000000E+00 0.  1.
         23    2    1    2    0    0 -0.11262749448E+02  0.32559227867E+02  0.14291069222E+03  0.17318704980E+03  0.91560556036E+02 0.  0.
         23    2    1    2    0    0  0.97652537490E+02  0.11368673215E+03  0.64411897786E+02  0.19609369720E+03  0.10882625769E+03 0.  0.
        -11    1    4    4    0    0 -0.20600157133E+02  0.29503367331E+02  0.30157335677E+02  0.46949760946E+02  0.00000000000E+00 0. -1.
         11    1    4    4    0    0  0.11825269462E+03  0.84183364817E+02  0.34254562110E+02  0.14914393626E+03  0.00000000000E+00 0.  1.
        -13    1    3    3    0    0  0.31417528467E+02  0.43497712468E+02  0.82558004617E+02  0.98462867169E+02  0.00000000000E+00 0.  1.
         13    1    3    3    0    0 -0.42680277914E+02 -0.10938484601E+02  0.60352687605E+02  0.74724182627E+02  0.00000000000E+00 0. -1.
         21    1    1    2  503  502 -0.57472550285E+02 -0.78056894306E+02  0.21627269708E+03  0.23700179807E+03  0.00000000000E+00 0.  1.
         -1    1    1    2    0  503 -0.28917237757E+02 -0.68189065708E+02  0.13937365569E+03  0.15783209820E+03  0.00000000000E+00 0.  1.
<scales pt_clust_5="13000.00000" pt_clust_6="13000.00000" pt_clust_7="13000.00000" pt_clust_8="13000.00000" pt_clust_9="20.65622" pt_clust_10="156.32888"></scales>
<clustering>
<clus scale="   20.656">  9 10 -1 -1</clus>
<clus scale="   91.561">  7  8 -1 -1</clus>
<clus scale="   97.828">  1  7  2 -1</clus>
<clus scale="  108.826">  5  6 -1 -1</clus>
<clus scale="  156.329">  2  9  1 -1</clus>
<clus scale="  156.329">  2  5  1 -1</clus>
</clustering>
</event>
<event>
10    2  0.1671105E-006  0.1998556E+03  0.7546771E-02  0.1179251E+00
         21   -1    0    0  503  502  0.00000000000E+00  0.00000000000E+00  0.58608122570E+02  0.58608122570E+02  0.00000000000E+00 0.  1.
          3   -1    0    0  502    0 -0.00000000000E+00 -0.00000000000E+00 -0.10784365778E+04  0.10784365778E+04  0.00000000000E+00 0. -1.
         23    2    1    2    0    0  0.42060622212E+02 -0.19291502941E+02 -0.14175824370E+03  0.17427411773E+03  0.90193183930E+02 0.  0.
         23    2    1    2    0    0 -0.60521383189E+02 -0.15927990916E+03 -0.41309107807E+03  0.45783006326E+03  0.99655410048E+02 0.  0.
        -13    1    3    3    0    0  0.20035566852E+02 -0.32570512724E+02 -0.93160853762E+01  0.39357993914E+02  0.00000000000E+00 0.  1.
         13    1    3    3    0    0  0.22025055360E+02  0.13279009782E+02 -0.13244215832E+03  0.13491612382E+03  0.00000000000E+00 0. -1.
        -13    1    4    4    0    0 -0.77953650568E+02 -0.73797933590E+02 -0.26555076789E+03  0.28642645996E+03  0.00000000000E+00 0.  1.
         13    1    4    4    0    0  0.17432267379E+02 -0.85481975568E+02 -0.14754031018E+03  0.17140360329E+03  0.00000000000E+00 0. -1.
         21    1    1    2  503  501  0.34571771480E+02  0.53494693494E+02 -0.97835992647E+02  0.11674232768E+03  0.00000000000E+00 0.  1.
          3    1    1    2  501    0 -0.16111010504E+02  0.12507671861E+03 -0.36714314080E+03  0.38819819169E+03  0.00000000000E+00 0. -1.
<scales pt_clust_5="13000.00000" pt_clust_6="13000.00000" pt_clust_7="13000.00000" pt_clust_8="13000.00000" pt_clust_9="57.43228" pt_clust_10="191.15926"></scales>
<clustering>
<clus scale="   57.432">  9 10 -1 -1</clus>
<clus scale="   90.193">  5  6 -1 -1</clus>
<clus scale="   99.655">  7  8 -1 -1</clus>
<clus scale="  101.371">  2  5  1 -1</clus>
<clus scale="  191.159">  1  9  2 -1</clus>
<clus scale="  191.159">  1  5  2 -1</clus>
</clustering>
</event>
<event>
10    2  0.1671105E-006  0.2772561E+03  0.7546771E-02  0.1110913E+00
         21   -1    0    0  503  502  0.00000000000E+00  0.00000000000E+00  0.50678044084E+03  0.50678044084E+03  0.00000000000E+00 0. -1.
          1   -1    0    0  502    0 -0.00000000000E+00 -0.00000000000E+00 -0.29538414182E+03  0.29538414182E+03  0.00000000000E+00 0. -1.
         23    2    1    2    0    0 -0.14239042334E+03 -0.97493696656E+02  0.13361133672E+02  0.19520359884E+03  0.90254482211E+02 0.  0.
         23    2    1    2    0    0  0.33477441616E+03  0.83994097119E+02  0.18940723922E+03  0.40392477109E+03  0.90283998406E+02 0.  0.
        -11    1    3    3    0    0 -0.10901220698E+03 -0.20818845301E+02  0.39752621772E+01  0.11105353798E+03  0.00000000000E+00 0.  1.
         11    1    3    3    0    0 -0.33378216368E+02 -0.76674851355E+02  0.93858714946E+01  0.84150060856E+02  0.00000000000E+00 0. -1.
        -11    1    4    4    0    0  0.20799607276E+03  0.61131621819E+02  0.16586878689E+03  0.27296867208E+03  0.00000000000E+00 0.  1.
         11    1    4    4    0    0  0.12677834340E+03  0.22862475300E+02  0.23538452329E+02  0.13095609902E+03  0.00000000000E+00 0. -1.
         21    1    1    2  503  501 -0.53782213790E+02 -0.37337346845E+01  0.30070336503E+02  0.61730806185E+02  0.00000000000E+00 0.  1.
          1    1    1    2  501    0 -0.13860177902E+03  0.17233334222E+02 -0.21442410376E+02  0.14130540655E+03  0.00000000000E+00 0. -1.
<scales pt_clust_5="13000.00000" pt_clust_6="13000.00000" pt_clust_7="13000.00000" pt_clust_8="13000.00000" pt_clust_9="39.07399" pt_clust_10="269.58335"></scales>
<clustering>
<clus scale="   39.074">  9 10 -1 -1</clus>
<clus scale="   90.254">  5  6 -1 -1</clus>
<clus scale="   90.284">  7  8 -1 -1</clus>
<clus scale="  194.746">  2  5  1 -1</clus>
<clus scale="  269.583">  1  9  2 -1</clus>
<clus scale="  269.583">  1  5  2 -1</clus>
</clustering>
</event>
<event>
10    2  0.1671105E-006  0.2361272E+03  0.7546771E-02  0.1154978E+00
          3   -1    0    0  502    0 -0.00000000000E+00  0.00000000000E+00  0.49297797197E+03  0.49297797197E+03  0.00000000000E+00 0. -1.
         21   -1    0    0  503  502  0.00000000000E+00 -0.00000000000E+00 -0.19298352689E+03  0.19298352689E+03  0.00000000000E+00 0.  1.
         23    2    1    2    0    0  0.15173840559E+02 -0.53205957851E+02  0.11304759967E+03  0.15593029327E+03  0.92050948822E+02 0.  0.
         23    2    1    2    0    0 -0.10633538206E+03  0.20545087249E+03 -0.20974148338E+02  0.25296991393E+03  0.10018277281E+03 0.  0.
        -11    1    3    3    0    0  0.25773092275E+02 -0.74733458239E+01  0.10490719465E+03  0.10828491434E+03  0.00000000000E+00 0. -1.
         11    1    3    3    0    0 -0.10599251717E+02 -0.45732612027E+02  0.81404050228E+01  0.47645378934E+02  0.00000000000E+00 0.  1.
        -11    1    4    4    0    0 -0.43442189945E+02  0.13078237364E+03 -0.56692559843E+02  0.14901442703E+03  0.00000000000E+00 0.  1.
         11    1    4    4    0    0 -0.62893192119E+02  0.74668498848E+02  0.35718411505E+02  0.10395548689E+03  0.00000000000E+00 0. -1.
         21    1    1    2  503  501  0.85574193399E+01 -0.50467109445E+02  0.46825782301E+02  0.69374436571E+02  0.00000000000E+00 0. -1.
          3    1    1    2  501    0  0.82604122165E+02 -0.10177780519E+03  0.16109521144E+03  0.20768685509E+03  0.00000000000E+00 0. -1.
<scales pt_clust_5="13000.00000" pt_clust_6="13000.00000" pt_clust_7="13000.00000" pt_clust_8="13000.00000" pt_clust_9="28.24449" pt_clust_10="218.54610"></scales>
<clustering>
<clus scale="   28.244">  9 10 -1 -1</clus>
<clus scale="   92.051">  5  6 -1 -1</clus>
<clus scale="  100.183">  7  8 -1 -1</clus>
<clus scale="  107.399">  1  5  2 -1</clus>
<clus scale="  218.546">  2  9  1 -1</clus>
<clus scale="  218.546">  2  5  1 -1</clus>
</clustering>
</event>
<event>
10    2  0.1671105E-006  0.1166221E+03  0.7546771E-02  0.1249693E+00
         21   -1    0    0  501  502  0.00000000000E+00  0.00000000000E+00  0.36509145935E+02  0.36509145935E+02  0.00000000000E+00 0.  1.
         -2   -1    0    0    0  501 -0.00000000000E+00 -0.00000000000E+00 -0.15571203656E+04  0.15571203656E+04  0.00000000000E+00 0.  1.
         23    2    1    2    0    0  0.38109497639E+02 -0.79921867128E+02 -0.42917279629E+03  0.44770432510E+03  0.91706242874E+02 0.  0.
         23    2    1    2    0    0  0.86314084897E+02  0.57805835764E+02 -0.35785690439E+03  0.38311022146E+03  0.88995740733E+02 0.  0.
        -11    1    3    3    0    0 -0.24721768355E+02 -0.19559424988E+02 -0.53825860143E+02  0.62377561323E+02  0.00000000000E+00 0. -1.
         11    1    3    3    0    0  0.62831265995E+02 -0.60362442139E+02 -0.37534693615E+03  0.38532676378E+03  0.00000000000E+00 0.  1.
        -13    1    4    4    0    0  0.10400666616E+03  0.39317048051E+02 -0.28898572403E+03  0.30963844330E+03  0.00000000000E+00 0.  1.
         13    1    4    4    0    0 -0.17692581262E+02  0.18488787713E+02 -0.68871180351E+02  0.73471778158E+02  0.00000000000E+00 0. -1.
         21    1    1    2  503  502 -0.60466229442E+02 -0.72195680917E+02 -0.29467673599E+03  0.30935862680E+03  0.00000000000E+00 0.  1.
         -2    1    1    2    0  503 -0.63957353094E+02  0.94311712281E+02 -0.43890478303E+03  0.45345633820E+03  0.00000000000E+00 0.  1.
<scales pt_clust_5="13000.00000" pt_clust_6="13000.00000" pt_clust_7="13000.00000" pt_clust_8="13000.00000" pt_clust_9="94.17208" pt_clust_10="109.86137"></scales>
<clustering>
<clus scale="   88.996">  7  8 -1 -1</clus>
<clus scale="   91.706">  5  6 -1 -1</clus>
<clus scale="   94.172">  1  9  2 -1</clus>
<clus scale="  109.861">  1 10  2 -1</clus>
<clus scale="  114.503">  1  7  2 -1</clus>
<clus scale="   94.172">  1  5  2 -1</clus>
</clustering>
</event>
<event>
10    2  0.1671105E-006  0.1072936E+03  0.7546771E-02  0.1268454E+00
         21   -1    0    0  501  502  0.00000000000E+00  0.00000000000E+00  0.17637539952E+03  0.17637539952E+03  0.00000000000E+00 0. -1.
          2   -1    0    0  503    0 -0.00000000000E+00 -0.00000000000E+00 -0.32782634408E+03  0.32782634408E+03  0.00000000000E+00 0. -1.
         23    2    1    2    0    0  0.31824847175E+02  0.44726516022E+02 -0.24753171319E+03  0.27046052946E+03  0.94147048952E+02 0.  0.
         23    2    1    2    0    0 -0.87769904449E+01 -0.41958612770E+02 -0.23305850357E+02  0.10030943094E+03  0.87642789361E+02 0.  0.
        -11    1    4    4    0    0  0.36523902701E+02 -0.14253691468E+01 -0.54653673122E+01  0.36958048996E+02  0.00000000000E+00 0.  1.
         11    1    4    4    0    0 -0.45300893146E+02 -0.40533243623E+02 -0.17840483045E+02  0.63351381940E+02  0.00000000000E+00 0. -1.
        -13    1    3    3    0    0  0.63233081178E+02  0.43822425079E+02 -0.16200209528E+03  0.17934187010E+03  0.00000000000E+00 0.  1.
         13    1    3    3    0    0 -0.31408234003E+02  0.90409094305E+00 -0.85529617908E+02  0.91118659357E+02  0.00000000000E+00 0. -1.
         21    1    1    2  503  502  0.35662779244E+01  0.20093985558E+02  0.22442265218E+02  0.30333840211E+02  0.00000000000E+00 0. -1.
          2    1    1    2  501    0 -0.26614134655E+02 -0.22861888810E+02  0.96944353766E+02  0.10309794300E+03  0.00000000000E+00 0. -1.
<scales pt_clust_5="13000.00000" pt_clust_6="13000.00000" pt_clust_7="13000.00000" pt_clust_8="13000.00000" pt_clust_9="20.40800" pt_clust_10="26.01745"></scales>
<clustering>
<clus scale="   20.408">  1  9  2 -1</clus>
<clus scale="   26.017">  1 10  2 -1</clus>
<clus scale="   87.643">  5  6 -1 -1</clus>
<clus scale="   94.147">  7  8 -1 -1</clus>
<clus scale="  101.634">  1  5  2 -1</clus>
<clus scale="   20.408">  1  5  2 -1</clus>
</clustering>
</event>
<event>
10    2  0.1671105E-006  0.1150304E+03  0.7546771E-02  0.1251770E+00
         21   -1    0    0  503  502  0.00000000000E+00  0.00000000000E+00  0.28938783760E+03  0.28938783760E+03  0.00000000000E+00 0.  1.
         -4   -1    0    0    0  501 -0.00000000000E+00 -0.00000000000E+00 -0.18267232168E+03  0.18267232168E+03  0.00000000000E+00 0.  1.
         23    2    1    2    0    0  0.42586801647E+02 -0.20301826796E+02 -0.55593067994E+02  0.11702654322E+03  0.91535909689E+02 0.  0.
         23    2    1    2    0    0 -0.12160759204E+03  0.30469692597E+02 -0.59980010336E+01  0.15493442390E+03  0.90839920095E+02 0.  0.
        -11    1    4    4    0    0 -0.12483442793E+03  0.57100168756E+01 -0.19612884535E+02  0.12649467945E+03  0.00000000000E+00 0.  1.
         11    1    4    4    0    0  0.32268358853E+01  0.24759675722E+02  0.13614883501E+02  0.28439744451E+02  0.00000000000E+00 0. -1.
        -13    1    3    3    0    0  0.46262701372E+02 -0.52494843615E+02 -0.43777006095E+02  0.82537097157E+02  0.00000000000E+00 0.  1.
         13    1    3    3    0    0 -0.36758997255E+01  0.32193016819E+02 -0.11816061899E+02  0.34489446060E+02  0.00000000000E+00 0. -1.
         21    1    1    2  503  501  0.46709230881E-01  0.20574087980E+02  0.17055403677E+02  0.26724185161E+02  0.00000000000E+00 0.  1.
         -4    1    1    2    0  502  0.78974081163E+02 -0.30741953781E+02  0.15125118127E+03  0.17337500700E+03  0.00000000000E+00 0.  1.
<scales pt_clust_5="13000.00000" pt_clust_6="13000.00000" pt_clust_7="13000.00000" pt_clust_8="13000.00000" pt_clust_9="20.57414" pt_clust_10="81.08475"></scales>
<clustering>
<clus scale="   20.574">  1  9  2 -1</clus>
<clus scale="   81.085">  1 10  2 -1</clus>
<clus scale="   90.840">  5  6 -1 -1</clus>
<clus scale="   91.536">  7  8 -1 -1</clus>
<clus scale="  114.477">  1  5  2 -1</clus>
<clus scale="   20.574">  1  5  2 -1</clus>
</clustering>
</event>
<event>
10    2  0.6286909E-006  0.9802019E+02  0.7546771E-02  0.1300604E+00
         21   -1    0    0  503  502  0.00000000000E+00  0.00000000000E+00  0.14125481667E+03  0.14125481667E+03  0.00000000000E+00 0.  1.
         -4   -1    0    0    0  501 -0.00000000000E+00 -0.00000000000E+00 -0.45097465117E+03  0.45097465117E+03  0.00000000000E+00 0.  1.
         23    2    1    2    0    0  0.38131899941E+02  0.44028282200E+02 -0.35723876238E+03  0.37325915632E+03  0.91161027868E+02 0.  0.
         23    2    1    2    0    0  0.27820427294E+02  0.25986498736E+01 -0.40581320658E+02  0.80009280143E+02  0.63038973395E+02 0.  0.
        -11    1    3    3    0    0 -0.12020317610E+02  0.16623514264E+02 -0.12951200050E+02  0.24260314191E+02  0.00000000000E+00 0. -1.
         11    1    3    3    0    0  0.50152217551E+02  0.27404767936E+02 -0.34428756233E+03  0.34899884213E+03  0.00000000000E+00 0.  1.
        -11    1    4    4    0    0  0.41654854916E+02 -0.12992829557E+02 -0.39942379880E+02  0.59155171105E+02  0.00000000000E+00 0.  1.
         11    1    4    4    0    0 -0.13834427622E+02  0.15591479430E+02 -0.63894077778E+00  0.20854109038E+02  0.00000000000E+00 0. -1.
         21    1    1    2  503  501 -0.33484607206E+02 -0.27251821670E+02  0.89784808064E-01  0.43172778060E+02  0.00000000000E+00 0. -1.
         -4    1    1    2    0  502 -0.32467720028E+02 -0.19375110404E+02  0.88010463734E+02  0.95788253318E+02  0.00000000000E+00 0.  1.
<scales pt_clust_5="13000.00000" pt_clust_6="13000.00000" pt_clust_7="13000.00000" pt_clust_8="13000.00000" pt_clust_9="59.61761" pt_clust_10="37.80936"></scales>
<clustering>
<clus scale="   37.809">  1 10  2 -1</clus>
<clus scale="   59.618">  1  9  2 -1</clus>
<clus scale="   63.039">  7  8 -1 -1</clus>
<clus scale="   72.605">  1  7  2 -1</clus>
<clus scale="   91.161">  5  6 -1 -1</clus>
<clus scale="   37.809">  1  5  2 -1</clus>
</clustering>
</event>
<event>
10    2  0.1671105E-006  0.1321168E+03  0.7546771E-02  0.1227179E+00
         -1   -1    0    0    0  501 -0.00000000000E+00  0.00000000000E+00  0.10202769687E+03  0.10202769687E+03  0.00000000000E+00 0.  1.
         21   -1    0    0  503  502  0.00000000000E+00 -0.00000000000E+00 -0.61083058062E+03  0.61083058062E+03  0.00000000000E+00 0.  1.
         23    2    1    2    0    0  0.43060768057E+02  0.49132040939E+02 -0.39269810421E+02  0.11884412145E+03  0.91179054616E+02 0.  0.
         23    2    1    2    0    0 -0.13682067000E+03 -0.82089321230E+01 -0.80556717763E+02  0.18849149393E+03  0.10125401820E+03 0.  0.
        -11    1    3    3    0    0  0.26839777668E+02 -0.30020594608E+01 -0.55636089011E+02  0.61844647519E+02  0.00000000000E+00 0.  1.
         11    1    3    3    0    0  0.16220990389E+02  0.52134100400E+02  0.16366278590E+02  0.56999473933E+02  0.00000000000E+00 0. -1.
        -13    1    4    4    0    0 -0.13395590668E+03  0.20909121528E+02 -0.45903015715E+02  0.14313791653E+03  0.00000000000E+00 0.  1.
         13    1    4    4    0    0 -0.28647633199E+01 -0.29118053651E+02 -0.34653702049E+02  0.45353577400E+02  0.00000000000E+00 0. -1.
         21    1    1    2  503  501  0.25155295194E+02  0.73631596500E+01 -0.51643088256E+02  0.57913846021E+02  0.00000000000E+00 0.  1.
         -1    1    1    2    0  502  0.68604606748E+02 -0.48286268466E+02 -0.33733326731E+03  0.34760881609E+03  0.00000000000E+00 0.  1.
<scales pt_clust_5="13000.00000" pt_clust_6="13000.00000" pt_clust_7="13000.00000" pt_clust_8="13000.00000" pt_clust_9="26.21078" pt_clust_10="94.79767"></scales>
<clustering>
<clus scale="   26.211">  2  9  1 -1</clus>
<clus scale="   91.179">  5  6 -1 -1</clus>
<clus scale="   94.798">  2 10  1 -1</clus>
<clus scale="  101.254">  7  8 -1 -1</clus>
<clus scale="  124.564">  1  5  2 -1</clus>
<clus scale="   26.211">  2  5  1 -1</clus>
</clustering>
</event>
<event>
10    2  0.1671105E-006  0.1073659E+03  0.7546771E-02  0.1265559E+00
         -1   -1    0    0    0  501 -0.00000000000E+00  0.00000000000E+00  0.23990751997E+03  0.23990751997E+03  0.00000000000E+00 0.  1.
         21   -1    0    0  503  502  0.00000000000E+00 -0.00000000000E+00 -0.16717262316E+03  0.16717262316E+03  0.00000000000E+00 0.  1.
         23    2    1    2    0    0  0.19392352576E+02 -0.28066548014E+02  0.61600635696E+02  0.11490376101E+03  0.90798907047E+02 0.  0.
         23    2    1    2    0    0  0.25047380768E+02  0.98138136546E+02  0.85809408969E+02  0.16087478757E+03  0.90878916591E+02 0.  0.
        -11    1    3    3    0    0  0.38332407513E+02 -0.42066232673E+02  0.69712817555E+02  0.89993434919E+02  0.00000000000E+00 0.  1.
         11    1    3    3    0    0 -0.18940054937E+02  0.13999684659E+02 -0.81121818589E+01  0.24910326094E+02  0.00000000000E+00 0. -1.
        -11    1    4    4    0    0  0.31370202735E+02  0.68392186636E+02  0.10174264194E+03  0.12654305987E+03  0.00000000000E+00 0.  1.
         11    1    4    4    0    0 -0.63228219670E+01  0.29745949910E+02 -0.15933232975E+02  0.34331727698E+02  0.00000000000E+00 0. -1.
         21    1    1    2  503  501 -0.11733415261E+02 -0.49174813752E+02 -0.40535117781E+01  0.50717514716E+02  0.00000000000E+00 0. -1.
         -1    1    1    2    0  502 -0.32706318083E+02 -0.20896774780E+02 -0.70621636082E+02  0.80584079828E+02  0.00000000000E+00 0.  1.
<scales pt_clust_5="13000.00000" pt_clust_6="13000.00000" pt_clust_7="13000.00000" pt_clust_8="13000.00000" pt_clust_9="59.45373" pt_clust_10="38.81209"></scales>
<clustering>
<clus scale="   38.812">  2 10  1 -1</clus>
<clus scale="   59.454">  2  9  1 -1</clus>
<clus scale="   90.799">  5  6 -1 -1</clus>
<clus scale="   90.879">  7  8 -1 -1</clus>
<clus scale="  107.298">  1  5  2 -1</clus>
<clus scale="   38.812">  2  5  1 -1</clus>
</clustering>
</event>
<event>
10    2  0.1671105E-006  0.1294427E+03  0.7546771E-02  0.1243774E+00
         21   -1    0    0  501  502  0.00000000000E+00  0.00000000000E+00  0.19773032363E+03  0.19773032363E+03  0.00000000000E+00 0.  1.
          1   -1    0    0  503    0 -0.00000000000E+00 -0.00000000000E+00 -0.15704554432E+03  0.15704554432E+03  0.00000000000E+00 0. -1.
         23    2    1    2    0    0  0.16694563561E+02  0.69779834071E+00 -0.82522030922E+02  0.15229335018E+03  0.12690225981E+03 0.  0.
         23    2    1    2    0    0 -0.40473044290E+02 -0.34809204657E+02  0.58515333776E+02  0.12048650212E+03  0.90792096921E+02 0.  0.
        -11    1    4    4    0    0  0.20614606926E+02 -0.38897718759E+02  0.22223573558E+02  0.49314113244E+02  0.00000000000E+00 0.  1.
         11    1    4    4    0    0 -0.61087651215E+02  0.40885141022E+01  0.36291760219E+02  0.71172388876E+02  0.00000000000E+00 0. -1.
        -13    1    3    3    0    0 -0.61948161581E+00  0.60526189820E+02 -0.19267353372E+02  0.63521919978E+02  0.00000000000E+00 0. -1.
         13    1    3    3    0    0  0.17314045177E+02 -0.59828391480E+02 -0.63254677550E+02  0.88771430198E+02  0.00000000000E+00 0.  1.
         21    1    1    2  503  502  0.67243151774E+01  0.19101248597E+02  0.96134714673E+01  0.22416354436E+02  0.00000000000E+00 0. -1.
          1    1    1    2  501    0  0.17054165551E+02  0.15010157719E+02  0.55078004991E+02  0.59579661221E+02  0.00000000000E+00 0. -1.
<scales pt_clust_5="13000.00000" pt_clust_6="13000.00000" pt_clust_7="13000.00000" pt_clust_8="13000.00000" pt_clust_9="20.25029" pt_clust_10="28.46457"></scales>
<clustering>
<clus scale="   20.250">  1  9  2 -1</clus>
<clus scale="   28.465">  1 10  2 -1</clus>
<clus scale="   90.792">  5  6 -1 -1</clus>
<clus scale="   94.310">  1  5  2 -1</clus>
<clus scale="  126.902">  7  8 -1 -1</clus>
<clus scale="   20.250">  1  5  2 -1</clus>
</clustering>
</event>
<event>
10    2  0.1671105E-006  0.2085247E+03  0.7546771E-02  0.1142841E+00
         21   -1    0    0  501  502  0.00000000000E+00  0.00000000000E+00  0.20227195613E+03  0.20227195613E+03  0.00000000000E+00 0. -1.
          1   -1    0    0  503    0 -0.00000000000E+00 -0.00000000000E+00 -0.11952996491E+04  0.11952996491E+04  0.00000000000E+00 0. -1.
         23    2    1    2    0    0  0.13827070476E+03 -0.14670806703E+03 -0.69926365231E+03  0.73346327561E+03  0.91414859297E+02 0.  0.
         23    2    1    2    0    0 -0.85114446241E+02  0.26621260802E+03 -0.19847599027E+03  0.35447470460E+03  0.90255060044E+02 0.  0.
        -11    1    4    4    0    0 -0.24412492960E+02  0.10268418723E+02 -0.28007661834E+01  0.26631832960E+02  0.00000000000E+00 0.  1.
         11    1    4    4    0    0 -0.60701953281E+02  0.25594418930E+03 -0.19567522408E+03  0.32784287164E+03  0.00000000000E+00 0. -1.
        -13    1    3    3    0    0  0.52275699918E+02 -0.25324281214E+02 -0.96667178410E+02  0.11277682121E+03  0.00000000000E+00 0.  1.
         13    1    3    3    0    0  0.85995004845E+02 -0.12138378581E+03 -0.60259647390E+03  0.62068645440E+03  0.00000000000E+00 0. -1.
         21    1    1    2  503  502 -0.22310386067E+01  0.67663938225E+02 -0.93769305588E+02  0.11565495553E+03  0.00000000000E+00 0.  1.
          1    1    1    2  501    0 -0.50925219915E+02 -0.18716847922E+03 -0.15187448183E+01  0.19397866950E+03  0.00000000000E+00 0. -1.
<scales pt_clust_5="13000.00000" pt_clust_6="13000.00000" pt_clust_7="13000.00000" pt_clust_8="13000.00000" pt_clust_9="67.70071" pt_clust_10="188.18175"></scales>
<clustering>
<clus scale="   67.701">  2  9  1 -1</clus>
<clus scale="   90.255">  5  6 -1 -1</clus>
<clus scale="   91.415">  7  8 -1 -1</clus>
<clus scale="  188.182">  1 10  2 -1</clus>
<clus scale="  208.019">  1  5  2 -1</clus>
<clus scale="  188.182">  1  5  2 -1</clus>
</clustering>
</event>
<event>
10    2  0.1671105E-006  0.9185487E+02  0.7546771E-02  0.1299802E+00
         -3   -1    0    0    0  501 -0.00000000000E+00  0.00000000000E+00  0.62809927678E+03  0.62809927678E+03  0.00000000000E+00 0.  1.
         21   -1    0    0  503  502  0.00000000000E+00 -0.00000000000E+00 -0.15019598143E+03  0.15019598143E+03  0.00000000000E+00 0.  1.
         23    2    1    2    0    0  0.18552389189E+02  0.21892072348E+02  0.44046505401E+03  0.45009728011E+03  0.88060455249E+02 0.  0.
         23    2    1    2    0    0  0.10891373260E+02  0.18700829115E+02  0.13504285511E+03  0.16394809117E+03  0.90410513000E+02 0.  0.
        -11    1    4    4    0    0  0.39572860716E+02 -0.14958216306E+02  0.96192856418E+02  0.10508484746E+03  0.00000000000E+00 0.  1.
         11    1    4    4    0    0 -0.28681487456E+02  0.33659045421E+02  0.38849998690E+02  0.58863243705E+02  0.00000000000E+00 0. -1.
        -13    1    3    3    0    0 -0.14701523798E+01 -0.33045324030E+02  0.12777806708E+03  0.13199011029E+03  0.00000000000E+00 0. -1.
         13    1    3    3    0    0  0.20022541569E+02  0.54937396378E+02  0.31268698694E+03  0.31810716982E+03  0.00000000000E+00 0.  1.
         21    1    1    2  503  501  0.37046235946E+02 -0.69866964005E+00  0.30653334448E+01  0.37179402983E+02  0.00000000000E+00 0.  1.
         -3    1    1    2    0  502 -0.66489998395E+02 -0.39894231823E+02 -0.10066994721E+03  0.12707048395E+03  0.00000000000E+00 0.  1.
<scales pt_clust_5="13000.00000" pt_clust_6="13000.00000" pt_clust_7="13000.00000" pt_clust_8="13000.00000" pt_clust_9="37.05282" pt_clust_10="53.39472"></scales>
<clustering>
<clus scale="   37.053">  2  9  1 -1</clus>
<clus scale="   53.395">  2 10  1 -1</clus>
<clus scale="   88.060">  7  8 -1 -1</clus>
<clus scale="   89.543">  1  7  2 -1</clus>
<clus scale="   90.411">  5  6 -1 -1</clus>
<clus scale="   37.053">  2  5  1 -1</clus>
</clustering>
</event>
<event>
10    2  0.1671105E-006  0.2502647E+03  0.7546771E-02  0.1113186E+00
         21   -1    0    0  503  502  0.00000000000E+00  0.00000000000E+00  0.10291982030E+04  0.10291982030E+04  0.00000000000E+00 0. -1.
          2   -1    0    0  502    0 -0.00000000000E+00 -0.00000000000E+00 -0.15913709616E+03  0.15913709616E+03  0.00000000000E+00 0. -1.
         23    2    1    2    0    0 -0.13688213786E+03  0.16894577041E+03  0.58215304657E+02  0.24284894441E+03  0.91143815481E+02 0.  0.
         23    2    1    2    0    0  0.26791879751E+03 -0.14544401331E+03  0.49682258188E+03  0.59010818800E+03  0.91981262302E+02 0.  0.
        -11    1    3    3    0    0 -0.32046989416E+02  0.10283337345E+03  0.46019498533E+01  0.10780950871E+03  0.00000000000E+00 0.  1.
         11    1    3    3    0    0 -0.10483514845E+03  0.66112396961E+02  0.53613354804E+02  0.13503943571E+03  0.00000000000E+00 0. -1.
        -13    1    4    4    0    0  0.58755284602E+02 -0.23692420683E+02  0.18396085254E+03  0.19456389576E+03  0.00000000000E+00 0.  1.
         13    1    4    4    0    0  0.20916351291E+03 -0.12175159263E+03  0.31286172934E+03  0.39554429224E+03  0.00000000000E+00 0. -1.
         21    1    1    2  503  501 -0.15232223809E+02  0.32458373791E+02  0.67088792748E+02  0.76068868690E+02  0.00000000000E+00 0.  1.
          2    1    1    2  501    0 -0.11580443584E+03 -0.55960130888E+02  0.24793442754E+03  0.27930929803E+03  0.00000000000E+00 0. -1.
<scales pt_clust_5="13000.00000" pt_clust_6="13000.00000" pt_clust_7="13000.00000" pt_clust_8="13000.00000" pt_clust_9="35.85480" pt_clust_10="128.88278"></scales>
<clustering>
<clus scale="   35.855">  1  9  2 -1</clus>
<clus scale="   91.144">  5  6 -1 -1</clus>
<clus scale="   91.981">  7  8 -1 -1</clus>
<clus scale="  128.883">  1 10  2 -1</clus>
<clus scale="  249.958">  2  5  1 -1</clus>
<clus scale="   35.855">  1  5  2 -1</clus>
</clustering>
</event>
<event>
10    2  0.1671105E-006  0.1015875E+03  0.7546771E-02  0.1278041E+00
         21   -1    0    0  501  502  0.00000000000E+00  0.00000000000E+00  0.78992813960E+02  0.78992813960E+02  0.00000000000E+00 0.  1.
          2   -1    0    0  503    0 -0.00000000000E+00 -0.00000000000E+00 -0.45711601335E+03  0.45711601335E+03  0.00000000000E+00 0. -1.
         23    2    1    2    0    0  0.19371408291E+02 -0.22484391485E+02 -0.28840806038E+03  0.30392915544E+03  0.91175231895E+02 0.  0.
         23    2    1    2    0    0 -0.82354374755E+02  0.39170798348E+02 -0.87176983221E+02  0.15695388917E+03  0.93370779358E+02 0.  0.
        -11    1    4    4    0    0 -0.55890921745E+02  0.62634869580E+02 -0.28894342826E+02  0.88779530682E+02  0.00000000000E+00 0.  1.
         11    1    4    4    0    0 -0.26463453011E+02 -0.23464071232E+02 -0.58282640395E+02  0.68174358490E+02  0.00000000000E+00 0. -1.
        -13    1    3    3    0    0  0.27103589200E+02  0.28476989535E+02 -0.78616013763E+02  0.87897787802E+02  0.00000000000E+00 0.  1.
         13    1    3    3    0    0 -0.77321809094E+01 -0.50961381021E+02 -0.20979204662E+03  0.21603136764E+03  0.00000000000E+00 0. -1.
         21    1    1    2  503  502  0.34090482048E+02 -0.60918091876E+01  0.17199347519E+02  0.38666376356E+02  0.00000000000E+00 0.  1.
          2    1    1    2  501    0  0.28892484417E+02 -0.10594597675E+02 -0.19737503308E+02  0.36559406348E+02  0.00000000000E+00 0. -1.
<scales pt_clust_5="13000.00000" pt_clust_6="13000.00000" pt_clust_7="13000.00000" pt_clust_8="13000.00000" pt_clust_9="46.67198" pt_clust_10="30.77371"></scales>
<clustering>
<clus scale="   30.774">  1 10  2 -1</clus>
<clus scale="   46.672">  1  9  2 -1</clus>
<clus scale="   91.175">  7  8 -1 -1</clus>
<clus scale="   93.371">  5  6 -1 -1</clus>
<clus scale="   99.573">  2  7  1 -1</clus>
<clus scale="   30.774">  1  5  2 -1</clus>
</clustering>
</event>
<event>
10    2  0.1671105E-006  0.1010087E+03  0.7546771E-02  0.1278512E+00
         -1   -1    0    0    0  501 -0.00000000000E+00  0.00000000000E+00  0.12845082939E+03  0.12845082939E+03  0.00000000000E+00 0.  1.
         21   -1    0    0  503  502  0.00000000000E+00 -0.00000000000E+00 -0.36018253425E+03  0.36018253425E+03  0.00000000000E+00 0. -1.
         23    2    1    2    0    0 -0.70445081332E+01  0.31702574004E+02  0.45613308047E+01  0.99525702111E+02  0.93967448346E+02 0.  0.
         23    2    1    2    0    0  0.78715079382E+02 -0.22845026405E+02 -0.24541322771E+03  0.27550064390E+03  0.94630827438E+02 0.  0.
        -11    1    3    3    0    0 -0.27864887152E+02 -0.24482966716E+02  0.12367620322E+02  0.39100199841E+02  0.00000000000E+00 0.  1.
         11    1    3    3    0    0  0.20820379019E+02  0.56185540720E+02 -0.78062895173E+01  0.60425502269E+02  0.00000000000E+00 0. -1.
        -11    1    4    4    0    0  0.35692073935E+02 -0.22866902050E+02 -0.21571905491E+02  0.47562237728E+02  0.00000000000E+00 0.  1.
         11    1    4    4    0    0  0.43023005446E+02  0.21875644972E-01 -0.22384132222E+03  0.22793840618E+03  0.00000000000E+00 0. -1.
         21    1    1    2  503  501 -0.21054730237E+02 -0.33196205159E+02 -0.26217839644E+02  0.47251082717E+02  0.00000000000E+00 0. -1.
         -1    1    1    2    0  502 -0.50615841012E+02  0.24338657560E+02  0.35338031691E+02  0.66355934904E+02  0.00000000000E+00 0.  1.
<scales pt_clust_5="13000.00000" pt_clust_6="13000.00000" pt_clust_7="13000.00000" pt_clust_8="13000.00000" pt_clust_9="39.31017" pt_clust_10="56.41460"></scales>
<clustering>
<clus scale="   39.310">  2  9  1 -1</clus>
<clus scale="   56.415">  2 10  1 -1</clus>
<clus scale="   93.967">  5  6 -1 -1</clus>
<clus scale="   94.631">  7  8 -1 -1</clus>
<clus scale="  100.388">  1  5  2 -1</clus>
<clus scale="   39.310">  2  5  1 -1</clus>
</clustering>
</event>
<event>
10    2  0.1671105E-006  0.1106103E+03  0.7546771E-02  0.1259673E+00
         -3   -1    0    0    0  501 -0.00000000000E+00  0.00000000000E+00  0.17588722149E+03  0.17588722149E+03  0.00000000000E+00 0.  1.
         21   -1    0    0  501  502  0.00000000000E+00 -0.00000000000E+00 -0.14925942610E+03  0.14925942610E+03  0.00000000000E+00 0. -1.
         23    2    1    2    0    0  0.38179964759E+02 -0.19150474399E+02  0.26238464806E+02  0.10344584229E+03  0.90488313462E+02 0.  0.
         23    2    1    2    0    0 -0.93942864406E+02 -0.56244197236E+01  0.40802147849E+02  0.13638191413E+03  0.89879449055E+02 0.  0.
        -11    1    4    4    0    0 -0.36597061577E+02  0.39559310492E+02  0.32427971890E+02  0.62895606552E+02  0.00000000000E+00 0.  1.
         11    1    4    4    0    0 -0.57345802829E+02 -0.45183730216E+02  0.83741759587E+01  0.73486307577E+02  0.00000000000E+00 0. -1.
        -11    1    3    3    0    0  0.36279726835E+02 -0.53070247209E+02  0.77038789503E+01  0.64745806574E+02  0.00000000000E+00 0. -1.
         11    1    3    3    0    0  0.19002379250E+01  0.33919772810E+02  0.18534585856E+02  0.38700035717E+02  0.00000000000E+00 0.  1.
         21    1    1    2  503  502  0.26567079443E+02 -0.11177754540E+02 -0.15923465558E+02  0.32928842404E+02  0.00000000000E+00 0.  1.
         -3    1    1    2    0  503  0.29195820203E+02  0.35952648663E+02 -0.24489351707E+02  0.52390048771E+02  0.00000000000E+00 0.  1.
<scales pt_clust_5="13000.00000" pt_clust_6="13000.00000" pt_clust_7="13000.00000" pt_clust_8="13000.00000" pt_clust_9="28.82277" pt_clust_10="49.53740"></scales>
<clustering>
<clus scale="   28.823">  2  9  1 -1</clus>
<clus scale="   49.537">  2 10  1 -1</clus>
<clus scale="   89.879">  5  6 -1 -1</clus>
<clus scale="   90.488">  7  8 -1 -1</clus>
<clus scale="  110.113">  2  5  1 -1</clus>
<clus scale="   28.823">  2  5  1 -1</clus>
</clustering>
</event>
<event>
10    2  0.1671105E-006  0.2138700E+03  0.7546771E-02  0.1154996E+00
         21   -1    0    0  503  502  0.00000000000E+00  0.00000000000E+00  0.25377232395E+03  0.25377232395E+03  0.00000000000E+00 0. -1.
          2   -1    0    0  502    0 -0.00000000000E+00 -0.00000000000E+00 -0.70106374318E+03  0.70106374318E+03  0.00000000000E+00 0. -1.
         23    2    1    2    0    0 -0.57147877302E+02  0.95014285421E+02 -0.46631697299E+02  0.15181741959E+03  0.92630553193E+02 0.  0.
         23    2    1    2    0    0  0.38284603561E+02  0.10873017483E+03 -0.52865524193E+03  0.54845155629E+03  0.89636951043E+02 0.  0.
        -11    1    3    3    0    0  0.69269605004E+01  0.68220952961E+02 -0.45616811665E+02  0.82358816839E+02  0.00000000000E+00 0.  1.
         11    1    3    3    0    0 -0.64074837802E+02  0.26793332460E+02 -0.10148856336E+01  0.69458602754E+02  0.00000000000E+00 0. -1.
        -13    1    4    4    0    0  0.30138108001E+02 -0.62223662053E+01 -0.10902150767E+03  0.11328156306E+03  0.00000000000E+00 0.  1.
         13    1    4    4    0    0  0.81464955602E+01  0.11495254104E+03 -0.41963373426E+03  0.43516999323E+03  0.00000000000E+00 0. -1.
         21    1    1    2  503  501 -0.30279140762E+02 -0.72587591752E+02  0.59704821181E+02  0.98744369530E+02  0.00000000000E+00 0.  1.
          2    1    1    2  501    0  0.49142414503E+02 -0.13115686850E+03  0.68290698810E+02  0.15582272171E+03  0.00000000000E+00 0. -1.
<scales pt_clust_5="13000.00000" pt_clust_6="13000.00000" pt_clust_7="13000.00000" pt_clust_8="13000.00000" pt_clust_9="60.66534" pt_clust_10="210.37942"></scales>
<clustering>
<clus scale="   60.665">  9 10 -1 -1</clus>
<clus scale="   89.637">  7  8 -1 -1</clus>
<clus scale="   92.631">  5  6 -1 -1</clus>
<clus scale="  144.478">  2  5  1 -1</clus>
<clus scale="  210.379">  1  9  2 -1</clus>
<clus scale="  210.379">  1  5  2 -1</clus>
</clustering>
</event>
<event>
10    2  0.1671105E-006  0.9044364E+02  0.7546771E-02  0.1309251E+00
         21   -1    0    0  503  502  0.00000000000E+00  0.00000000000E+00  0.14429410280E+03  0.14429410280E+03  0.00000000000E+00 0.  1.
         -2   -1    0    0    0  501 -0.00000000000E+00 -0.00000000000E+00 -0.30184271457E+03  0.30184271457E+03  0.00000000000E+00 0.  1.
         23    2    1    2    0    0 -0.28252998244E+02 -0.93656499310E+01 -0.12725498829E+03  0.15839399067E+03  0.89492328878E+02 0.  0.
         23    2    1    2    0    0 -0.64391571605E+02  0.24313842873E+00 -0.10501627726E+03  0.14570218200E+03  0.77809856325E+02 0.  0.
        -13    1    4    4    0    0 -0.18152197497E+02  0.14510910049E+02  0.65067733582E+01  0.24133107631E+02  0.00000000000E+00 0. -1.
         13    1    4    4    0    0 -0.46239374109E+02 -0.14267771620E+02 -0.11152305062E+03  0.12156907437E+03  0.00000000000E+00 0.  1.
        -13    1    3    3    0    0 -0.38578049409E+02 -0.43584277748E+02 -0.85480843537E+02  0.10341581008E+03  0.00000000000E+00 0.  1.
         13    1    3    3    0    0  0.10325051165E+02  0.34218627817E+02 -0.41774144750E+02  0.54978180589E+02  0.00000000000E+00 0. -1.
         21    1    1    2  503  501  0.49592382041E+02  0.15460320448E+02  0.82834205567E+02  0.97774902080E+02  0.00000000000E+00 0.  1.
         -2    1    1    2    0  502  0.43052187808E+02 -0.63378089455E+01 -0.81115517854E+01  0.44265742619E+02  0.00000000000E+00 0.  1.
<scales pt_clust_5="13000.00000" pt_clust_6="13000.00000" pt_clust_7="13000.00000" pt_clust_8="13000.00000" pt_clust_9="81.13398" pt_clust_10="43.51619"></scales>
<clustering>
<clus scale="   43.516">  1 10  2 -1</clus>
<clus scale="   77.810">  5  6 -1 -1</clus>
<clus scale="   81.134">  1  9  2 -1</clus>
<clus scale="   78.902">  1  5  2 -1</clus>
<clus scale="   89.492">  7  8 -1 -1</clus>
<clus scale="   43.516">  1  5  2 -1</clus>
</clustering>
</event>
<event>
10    2  0.1671105E-006  0.1404513E+03  0.7546771E-02  0.1228747E+00
         21   -1    0    0  503  502  0.00000000000E+00  0.00000000000E+00  0.82200796400E+02  0.82200796400E+02  0.00000000000E+00 0. -1.
          1   -1    0    0  502    0 -0.00000000000E+00 -0.00000000000E+00 -0.45304591724E+03  0.45304591724E+03  0.00000000000E+00 0. -1.
         23    2    1    2    0    0  0.34956585837E+01 -0.41892625201E+02 -0.18028689559E+03  0.20634029911E+03  0.91135847161E+02 0.  0.
         23    2    1    2    0    0 -0.76315080574E+02  0.11423792154E+03 -0.81842396094E+02  0.17608651535E+03  0.73715594345E+02 0.  0.
        -13    1    3    3    0    0 -0.38244821824E+02 -0.12647826697E+02 -0.38700164452E+02  0.55859973551E+02  0.00000000000E+00 0. -1.
         13    1    3    3    0    0  0.41740480408E+02 -0.29244798504E+02 -0.14158673114E+03  0.15048032556E+03  0.00000000000E+00 0.  1.
        -13    1    4    4    0    0 -0.20562665113E+02 -0.37042623902E+01  0.20351951599E+01  0.20992540955E+02  0.00000000000E+00 0.  1.
         13    1    4    4    0    0 -0.55752415461E+02  0.11794218393E+03 -0.83877591254E+02  0.15509397439E+03  0.00000000000E+00 0. -1.
         21    1    1    2  503  501  0.42326517491E+02 -0.19988761268E+02 -0.46905197968E+02  0.66265996230E+02  0.00000000000E+00 0. -1.
          1    1    1    2  501    0  0.30492904498E+02 -0.52356535067E+02 -0.61810631186E+02  0.86553902954E+02  0.00000000000E+00 0. -1.
<scales pt_clust_5="13000.00000" pt_clust_6="13000.00000" pt_clust_7="13000.00000" pt_clust_8="13000.00000" pt_clust_9="27.77117" pt_clust_10="123.65622"></scales>
<clustering>
<clus scale="   27.771">  9 10 -1 -1</clus>
<clus scale="   73.716">  7  8 -1 -1</clus>
<clus scale="   91.136">  5  6 -1 -1</clus>
<clus scale="  100.364">  2  5  1 -1</clus>
<clus scale="  123.656">  1  9  2 -1</clus>
<clus scale="  123.656">  1  5  2 -1</clus>
</clustering>
</event>
<event>
10    2  0.1671105E-006  0.1456917E+03  0.7546771E-02  0.1206907E+00
          4   -1    0    0  503    0 -0.00000000000E+00  0.00000000000E+00  0.64688120859E+03  0.64688120859E+03  0.00000000000E+00 0. -1.
         21   -1    0    0  501  502  0.00000000000E+00 -0.00000000000E+00 -0.19697522114E+03  0.19697522114E+03  0.00000000000E+00 0.  1.
         23    2    1    2    0    0 -0.89661702204E+02  0.31998325549E+02  0.25860651136E+03  0.28915965515E+03  0.87594890078E+02 0.  0.
         23    2    1    2    0    0  0.12383290030E+03 -0.46576811826E+02  0.35043107795E+03  0.38588178785E+03  0.92729861461E+02 0.  0.
        -13    1    3    3    0    0 -0.95507232242E+02  0.51684470569E+02  0.22356238784E+03  0.24854186200E+03  0.00000000000E+00 0.  1.
         13    1    3    3    0    0  0.58455300376E+01 -0.19686145020E+02  0.35044123522E+02  0.40617793153E+02  0.00000000000E+00 0. -1.
        -13    1    4    4    0    0  0.58287828218E+02 -0.60356996498E+02  0.26096203173E+03  0.27411971828E+03  0.00000000000E+00 0. -1.
         13    1    4    4    0    0  0.65545072083E+02  0.13780184672E+02  0.89469046219E+02  0.11176206957E+03  0.00000000000E+00 0.  1.
         21    1    1    2  503  502 -0.17281114412E+02  0.28364227841E+02 -0.77398314302E+02  0.84223900368E+02  0.00000000000E+00 0.  1.
          4    1    1    2  501    0 -0.16890083685E+02 -0.13785741564E+02 -0.81733287552E+02  0.84591086359E+02  0.00000000000E+00 0. -1.
<scales pt_clust_5="13000.00000" pt_clust_6="13000.00000" pt_clust_7="13000.00000" pt_clust_8="13000.00000" pt_clust_9="34.67001" pt_clust_10="21.80187"></scales>
<clustering>
<clus scale="   21.802">  2 10  1 -1</clus>
<clus scale="   34.670">  2  9  1 -1</clus>
<clus scale="   87.595">  5  6 -1 -1</clus>
<clus scale="   92.730">  7  8 -1 -1</clus>
<clus scale="  142.478">  1  5  2 -1</clus>
<clus scale="   21.802">  2  5  1 -1</clus>
</clustering>
</event>
<event>
10    2  0.1671105E-006  0.3969801E+03  0.7546771E-02  0.1092738E+00
         21   -1    0    0  503  502  0.00000000000E+00  0.00000000000E+00  0.37234030708E+03  0.37234030708E+03  0.00000000000E+00 0. -1.
          2   -1    0    0  502    0 -0.00000000000E+00 -0.00000000000E+00 -0.57166527750E+03  0.57166527750E+03  0.00000000000E+00 0. -1.
         23    2    1    2    0    0 -0.54650991769E+02 -0.35393392621E+02 -0.15184727632E+02  0.10723652837E+03  0.83843150706E+02 0.  0.
         23    2    1    2    0    0  0.41560775864E+03 -0.34568957273E+02 -0.18040227672E+03  0.46431641401E+03  0.95498319471E+02 0.  0.
        -13    1    4    4    0    0  0.37766138758E+03 -0.43251781583E+02 -0.18889093466E+03  0.42447452865E+03  0.00000000000E+00 0. -1.
         13    1    4    4    0    0  0.37946371066E+02  0.86828243102E+01  0.84886579449E+01  0.39841885356E+02  0.00000000000E+00 0.  1.
        -13    1    3    3    0    0 -0.35068526866E+02  0.22814215931E+02  0.60159389522E+01  0.42266790114E+02  0.00000000000E+00 0. -1.
         13    1    3    3    0    0 -0.19582464903E+02 -0.58207608552E+02 -0.21200666585E+02  0.64969738252E+02  0.00000000000E+00 0.  1.
         21    1    1    2  503  501 -0.90956950778E+02  0.13875193297E+02 -0.26504691959E+02  0.95750647934E+02  0.00000000000E+00 0.  1.
          2    1    1    2  501    0 -0.26999981610E+03  0.56087156597E+02  0.22766725892E+02  0.27670199427E+03  0.00000000000E+00 0. -1.
<scales pt_clust_5="13000.00000" pt_clust_6="13000.00000" pt_clust_7="13000.00000" pt_clust_8="13000.00000" pt_clust_9="34.28240" pt_clust_10="389.86629"></scales>
<clustering>
<clus scale="   34.282">  9 10 -1 -1</clus>
<clus scale="   83.843">  7  8 -1 -1</clus>
<clus scale="   95.498">  5  6 -1 -1</clus>
<clus scale="  106.156">  2  7  1 -1</clus>
<clus scale="  389.866">  1  9  2 -1</clus>
<clus scale="  389.866">  1  5  2 -1</clus>
</clustering>
</event>
<event>
10    2  0.1671105E-006  0.1595521E+03  0.7546771E-02  0.1190805E+00
         -1   -1    0    0    0  501 -0.00000000000E+00  0.00000000000E+00  0.12705716508E+03  0.12705716508E+03  0.00000000000E+00 0.  1.
         21   -1    0    0  503  502  0.00000000000E+00 -0.00000000000E+00 -0.76017667685E+03  0.76017667685E+03  0.00000000000E+00 0.  1.
         23    2    1    2    0    0 -0.21546959646E+02 -0.96477487232E+02 -0.18363605828E+02  0.14262256961E+03  0.10115235208E+03 0.  0.
         23    2    1    2    0    0  0.35535627267E+02  0.17140628744E+03 -0.11170555649E+03  0.22718686967E+03  0.92156639604E+02 0.  0.
        -11    1    4    4    0    0 -0.79610695914E+01  0.12054923996E+03 -0.35823193155E+02  0.12601110686E+03  0.00000000000E+00 0.  1.
         11    1    4    4    0    0  0.43496696859E+02  0.50857047474E+02 -0.75882363333E+02  0.10117576281E+03  0.00000000000E+00 0. -1.
        -13    1    3    3    0    0  0.35678605912E+02 -0.24207961789E+02 -0.25622068498E+02  0.50154548427E+02  0.00000000000E+00 0. -1.
         13    1    3    3    0    0 -0.57225565558E+02 -0.72269525443E+02  0.72584626701E+01  0.92468021183E+02  0.00000000000E+00 0.  1.
         21    1    1    2  503  501 -0.44546134850E+02 -0.35750216722E+02 -0.14337651607E+03  0.15433490041E+03  0.00000000000E+00 0.  1.
         -1    1    1    2    0  502  0.30557467229E+02 -0.39178583481E+02 -0.35967383339E+03  0.36308950224E+03  0.00000000000E+00 0.  1.
<scales pt_clust_5="13000.00000" pt_clust_6="13000.00000" pt_clust_7="13000.00000" pt_clust_8="13000.00000" pt_clust_9="60.29780" pt_clust_10="49.68622"></scales>
<clustering>
<clus scale="   49.686">  2 10  1 -1</clus>
<clus scale="   60.298">  2  9  1 -1</clus>
<clus scale="   92.157">  5  6 -1 -1</clus>
<clus scale="  101.152">  7  8 -1 -1</clus>
<clus scale="  154.006">  2  5  1 -1</clus>
<clus scale="   49.686">  2  5  1 -1</clus>
</clustering>
</event>
<event>
10    2  0.1671105E-006  0.1191747E+03  0.7546771E-02  0.1252205E+00
         -3   -1    0    0    0  501 -0.00000000000E+00  0.00000000000E+00  0.31086559597E+03  0.31086559597E+03  0.00000000000E+00 0.  1.
         21   -1    0    0  501  502  0.00000000000E+00 -0.00000000000E+00 -0.11140629162E+03  0.11140629162E+03  0.00000000000E+00 0. -1.
         23    2    1    2    0    0 -0.38950256140E+02 -0.32408666200E+02  0.20957750292E+03  0.24038492450E+03  0.10627670535E+03 0.  0.
         23    2    1    2    0    0  0.50379760926E+02  0.40475739683E+02  0.71098155151E+01  0.10832716580E+03  0.86647674865E+02 0.  0.
        -11    1    4    4    0    0  0.16025456694E+02  0.63099357280E+02  0.14076231622E+02  0.66606939939E+02  0.00000000000E+00 0. -1.
         11    1    4    4    0    0  0.34354304232E+02 -0.22623617597E+02 -0.69664161072E+01  0.41720225860E+02  0.00000000000E+00 0.  1.
        -11    1    3    3    0    0 -0.77300584577E+01  0.38431864050E+02  0.55449920996E+02  0.67907699980E+02  0.00000000000E+00 0. -1.
         11    1    3    3    0    0 -0.31220197682E+02 -0.70840530251E+02  0.15412758192E+03  0.17247722452E+03  0.00000000000E+00 0.  1.
         21    1    1    2  503  502  0.25220809806E+02  0.65984669399E+01 -0.21583164404E+02  0.33844674602E+02  0.00000000000E+00 0. -1.
         -3    1    1    2    0  503 -0.36650314592E+02 -0.14665540423E+02  0.43551503238E+01  0.39715122685E+02  0.00000000000E+00 0.  1.
<scales pt_clust_5="13000.00000" pt_clust_6="13000.00000" pt_clust_7="13000.00000" pt_clust_8="13000.00000" pt_clust_9="26.06970" pt_clust_10="34.01809"></scales>
<clustering>
<clus scale="   26.070">  2  9  1 -1</clus>
<clus scale="   34.018">  2 10  1 -1</clus>
<clus scale="   86.648">  5  6 -1 -1</clus>
<clus scale="  102.057">  2  5  1 -1</clus>
<clus scale="  106.277">  7  8 -1 -1</clus>
<clus scale="   26.070">  2  5  1 -1</clus>
</clustering>
</event>
<event>
10    2  0.1671105E-006  0.1357773E+03  0.7546771E-02  0.1219243E+00
         -1   -1    0    0    0  501 -0.00000000000E+00  0.00000000000E+00  0.42160746205E+03  0.42160746205E+03  0.00000000000E+00 0.  1.
         21   -1    0    0  503  502  0.00000000000E+00 -0.00000000000E+00 -0.20180262733E+03  0.20180262733E+03  0.00000000000E+00 0.  1.
         23    2    1    2    0    0  0.11474606802E+03  0.75560738382E+02  0.19131490835E+03  0.25262701765E+03  0.91339644065E+02 0.  0.
         23    2    1    2    0    0 -0.71624365178E+02  0.68572252937E+02 -0.72280127677E+02  0.15326297042E+03  0.91830918996E+02 0.  0.
        -13    1    3    3    0    0  0.92300070875E+02  0.48192694846E+02  0.19064359939E+03  0.21722527686E+03  0.00000000000E+00 0.  1.
         13    1    3    3    0    0  0.22445997149E+02  0.27368043536E+02  0.67130895946E+00  0.35401740786E+02  0.00000000000E+00 0. -1.
        -13    1    4    4    0    0 -0.34654697925E+02 -0.14777361354E+02 -0.43722930635E+02  0.57714930132E+02  0.00000000000E+00 0. -1.
         13    1    4    4    0    0 -0.36969667253E+02  0.83349614291E+02 -0.28557197043E+02  0.95548040284E+02  0.00000000000E+00 0.  1.
         21    1    1    2  503  501 -0.16327949397E+02 -0.43298896185E+02  0.10326246765E+03  0.11315711894E+03  0.00000000000E+00 0.  1.
         -1    1    1    2    0  502 -0.26793753449E+02 -0.10083409513E+03 -0.24924135950E+01  0.10436298238E+03  0.00000000000E+00 0.  1.
<scales pt_clust_5="13000.00000" pt_clust_6="13000.00000" pt_clust_7="13000.00000" pt_clust_8="13000.00000" pt_clust_9="46.27522" pt_clust_10="111.81847"></scales>
<clustering>
<clus scale="   46.275">  1  9  2 -1</clus>
<clus scale="   91.340">  5  6 -1 -1</clus>
<clus scale="   91.831">  7  8 -1 -1</clus>
<clus scale="  111.818">  2 10  1 -1</clus>
<clus scale="  135.446">  1  5  2 -1</clus>
<clus scale="  111.818">  2  5  1 -1</clus>
</clustering>
</event>
<event>
10    2  0.1671105E-006  0.1675558E+03  0.7546771E-02  0.1180863E+00
         21   -1    0    0  501  502  0.00000000000E+00  0.00000000000E+00  0.68677326111E+03  0.68677326111E+03  0.00000000000E+00 0.  1.
          1   -1    0    0  503    0 -0.00000000000E+00 -0.00000000000E+00 -0.67241216846E+02  0.67241216846E+02  0.00000000000E+00 0. -1.
         23    2    1    2    0    0 -0.10965381897E+03  0.97189187424E+02  0.11472524135E+03  0.20830750492E+03  0.93597208484E+02 0.  0.
         23    2    1    2    0    0  0.94431925248E+02 -0.78493194585E+02  0.33041895324E+03  0.36395620638E+03  0.90602789139E+02 0.  0.
        -13    1    4    4    0    0  0.32667629413E+02 -0.83801580858E+02  0.17863673819E+03  0.20000240798E+03  0.00000000000E+00 0.  1.
         13    1    4    4    0    0  0.61764295835E+02  0.53083862737E+01  0.15178221505E+03  0.16395379840E+03  0.00000000000E+00 0. -1.
        -13    1    3    3    0    0 -0.29053278729E+02  0.39875709990E+02  0.95592250577E+02  0.10757343363E+03  0.00000000000E+00 0.  1.
         13    1    3    3    0    0 -0.80600540242E+02  0.57313477434E+02  0.19132990769E+02  0.10073407129E+03  0.00000000000E+00 0. -1.
         21    1    1    2  503  502  0.29528750211E+02 -0.30429471721E+01  0.91597191538E+02  0.96287341401E+02  0.00000000000E+00 0.  1.
          1    1    1    2  501    0 -0.14306856488E+02 -0.15653045667E+02  0.82790658140E+02  0.85463425256E+02  0.00000000000E+00 0. -1.
<scales pt_clust_5="13000.00000" pt_clust_6="13000.00000" pt_clust_7="13000.00000" pt_clust_8="13000.00000" pt_clust_9="27.84375" pt_clust_10="21.20623"></scales>
<clustering>
<clus scale="   21.206">  1 10  2 -1</clus>
<clus scale="   27.844">  1  9  2 -1</clus>
<clus scale="   90.603">  5  6 -1 -1</clus>
<clus scale="   93.597">  7  8 -1 -1</clus>
<clus scale="  165.902">  1  5  2 -1</clus>
<clus scale="   21.206">  1  5  2 -1</clus>
</clustering>
</event>
<event>
10    2  0.1671105E-006  0.1046917E+03  0.7546771E-02  0.1271650E+00
         -1   -1    0    0    0  501 -0.00000000000E+00  0.00000000000E+00  0.99463889737E+03  0.99463889737E+03  0.00000000000E+00 0.  1.
         21   -1    0    0  503  502  0.00000000000E+00 -0.00000000000E+00 -0.20630405979E+02  0.20630405979E+02  0.00000000000E+00 0. -1.
         23    2    1    2    0    0 -0.27778673051E+02 -0.24665176205E+02  0.34421137132E+03  0.35717882046E+03  0.87836302529E+02 0.  0.
         23    2    1    2    0    0  0.66777126156E+02  0.26259065529E+02  0.29445348949E+03  0.31614839091E+03  0.89990135580E+02 0.  0.
        -11    1    3    3    0    0 -0.37677417833E+01 -0.53056348356E+02  0.14324401717E+03  0.15280059043E+03  0.00000000000E+00 0.  1.
         11    1    3    3    0    0 -0.24010931268E+02  0.28391172151E+02  0.20096735415E+03  0.20437823003E+03  0.00000000000E+00 0. -1.
        -13    1    4    4    0    0  0.84465904538E+02  0.18393050712E+01  0.20405677998E+03  0.22085525017E+03  0.00000000000E+00 0.  1.
         13    1    4    4    0    0 -0.17688778382E+02  0.24419760458E+02  0.90396709517E+02  0.95293140744E+02  0.00000000000E+00 0. -1.
         21    1    1    2  503  501 -0.37879017345E+02  0.21398512974E+02  0.23485303334E+03  0.23884862064E+03  0.00000000000E+00 0. -1.
         -1    1    1    2    0  502 -0.11194357605E+01 -0.22992402299E+02  0.10049059723E+03  0.10309347133E+03  0.00000000000E+00 0.  1.
<scales pt_clust_5="13000.00000" pt_clust_6="13000.00000" pt_clust_7="13000.00000" pt_clust_8="13000.00000" pt_clust_9="42.49045" pt_clust_10="23.01965"></scales>
<clustering>
<clus scale="   23.020">  2 10  1 -1</clus>
<clus scale="   42.490">  1  9  2 -1</clus>
<clus scale="   87.836">  5  6 -1 -1</clus>
<clus scale="   89.990">  7  8 -1 -1</clus>
<clus scale="  102.846">  1  5  2 -1</clus>
<clus scale="   23.020">  2  5  1 -1</clus>
</clustering>
</event>
<event>
10    2  0.1671105E-006  0.1212882E+03  0.7546771E-02  0.1241156E+00
          1   -1    0    0  503    0 -0.00000000000E+00  0.00000000000E+00  0.60593198470E+03  0.60593198470E+03  0.00000000000E+00 0. -1.
         21   -1    0    0  501  502  0.00000000000E+00 -0.00000000000E+00 -0.51166474614E+02  0.51166474614E+02  0.00000000000E+00 0. -1.
         23    2    1    2    0    0 -0.32907636514E+02 -0.66231499783E+02  0.39518359115E+03  0.41252920154E+03  0.92416163663E+02 0.  0.
         23    2    1    2    0    0  0.57506774830E+02  0.76441387237E+02  0.11612784877E+03  0.17628468765E+03  0.91871099942E+02 0.  0.
        -11    1    4    4    0    0  0.29047867817E+02  0.38470385909E+02 -0.27524335788E+01  0.48283797565E+02  0.00000000000E+00 0.  1.
         11    1    4    4    0    0  0.28458907014E+02  0.37971001328E+02  0.11888028235E+03  0.12800089008E+03  0.00000000000E+00 0. -1.
        -13    1    3    3    0    0  0.19344999345E+02  0.12297308867E+02  0.10207794047E+03  0.10462006851E+03  0.00000000000E+00 0. -1.
         13    1    3    3    0    0 -0.52252635859E+02 -0.78528808649E+02  0.29310565067E+03  0.30790913302E+03  0.00000000000E+00 0.  1.
         21    1    1    2  503  502 -0.13037523403E+02 -0.28028811647E+02  0.20972662174E+02  0.37355640236E+02  0.00000000000E+00 0. -1.
          1    1    1    2  501    0 -0.11561614914E+02  0.17818924193E+02  0.22481407991E+02  0.30928929889E+02  0.00000000000E+00 0. -1.
<scales pt_clust_5="13000.00000" pt_clust_6="13000.00000" pt_clust_7="13000.00000" pt_clust_8="13000.00000" pt_clust_9="29.11410" pt_clust_10="21.24112"></scales>
<clustering>
<clus scale="   21.241">  2 10  1 -1</clus>
<clus scale="   29.114">  2  9  1 -1</clus>
<clus scale="   91.871">  5  6 -1 -1</clus>
<clus scale="   92.416">  7  8 -1 -1</clus>
<clus scale="  120.873">  2  5  1 -1</clus>
<clus scale="   21.241">  2  5  1 -1</clus>
</clustering>
</event>
<event>
10    2  0.1671105E-006  0.3117164E+03  0.7546771E-02  0.1103735E+00
          2   -1    0    0  503    0 -0.00000000000E+00  0.00000000000E+00  0.14846121692E+04  0.14846121692E+04  0.00000000000E+00 0. -1.
         21   -1    0    0  501  502  0.00000000000E+00 -0.00000000000E+00 -0.17703023244E+03  0.17703023244E+03  0.00000000000E+00 0. -1.
         23    2    1    2    0    0 -0.27430712609E+02 -0.13824481624E+03  0.31680084437E+03  0.35837883456E+03  0.90600998077E+02 0.  0.
         23    2    1    2    0    0  0.11602607440E+03  0.38155963631E+03  0.86069845494E+03  0.95436102261E+03  0.10465813467E+03 0.  0.
        -11    1    3    3    0    0  0.14799422974E+01 -0.13800119328E+03  0.27291846498E+03  0.30582839650E+03  0.00000000000E+00 0.  1.
         11    1    3    3    0    0 -0.28910654906E+02 -0.24362295657E+00  0.43882379386E+02  0.52550438055E+02  0.00000000000E+00 0. -1.
        -11    1    4    4    0    0  0.58303833657E+02  0.61326397330E+02  0.13956807128E+03  0.16321614672E+03  0.00000000000E+00 0.  1.
         11    1    4    4    0    0  0.57722240741E+02  0.32023323898E+03  0.72113038365E+03  0.79114487589E+03  0.00000000000E+00 0. -1.
         21    1    1    2  503  502 -0.11602321106E+02  0.31078843940E+02  0.35593434056E+02  0.48655944586E+02  0.00000000000E+00 0. -1.
          2    1    1    2  501    0 -0.76993040684E+02 -0.27439366401E+03  0.94489203357E+02  0.30024659984E+03  0.00000000000E+00 0. -1.
<scales pt_clust_5="13000.00000" pt_clust_6="13000.00000" pt_clust_7="13000.00000" pt_clust_8="13000.00000" pt_clust_9="33.17391" pt_clust_10="293.62187"></scales>
<clustering>
<clus scale="   33.174">  2  9  1 -1</clus>
<clus scale="   90.601">  5  6 -1 -1</clus>
<clus scale="  104.658">  7  8 -1 -1</clus>
<clus scale="  164.678">  1  5  2 -1</clus>
<clus scale="  293.622">  2 10  1 -1</clus>
<clus scale="   33.174">  2  5  1 -1</clus>
</clustering>
</event>
<event>
10    2  0.1671105E-006  0.1486372E+03  0.7546771E-02  0.1202940E+00
          1   -1    0    0  503    0 -0.00000000000E+00  0.00000000000E+00  0.63744501513E+03  0.63744501513E+03  0.00000000000E+00 0. -1.
         21   -1    0    0  501  502  0.00000000000E+00 -0.00000000000E+00 -0.11240160695E+03  0.11240160695E+03  0.00000000000E+00 0. -1.
         23    2    1    2    0    0  0.13570935608E+03  0.18833006136E+02  0.37247040158E+03  0.40766458200E+03  0.93190664320E+02 0.  0.
         23    2    1    2    0    0 -0.94214045486E+02 -0.59710544657E+01  0.21796432122E+03  0.25371223166E+03  0.89160032028E+02 0.  0.
        -11    1    4    4    0    0 -0.31292999961E+02  0.29274117704E+02  0.29784246150E+02  0.52185506921E+02  0.00000000000E+00 0.  1.
         11    1    4    4    0    0 -0.62921045525E+02 -0.35245172169E+02  0.18818007507E+03  0.20152672474E+03  0.00000000000E+00 0. -1.
        -13    1    3    3    0    0  0.13856249663E+03  0.40031242931E+02  0.32849746099E+03  0.35876544951E+03  0.00000000000E+00 0. -1.
         13    1    3    3    0    0 -0.28531405567E+01 -0.21198236795E+02  0.43972940590E+02  0.48899132491E+02  0.00000000000E+00 0.  1.
         21    1    1    2  503  502 -0.89351971838E+01 -0.18317467701E+02 -0.72920818987E+01  0.21645827083E+02  0.00000000000E+00 0.  1.
          1    1    1    2  501    0 -0.32560113407E+02  0.54555160304E+01 -0.58099232721E+02  0.66823981346E+02  0.00000000000E+00 0. -1.
<scales pt_clust_5="13000.00000" pt_clust_6="13000.00000" pt_clust_7="13000.00000" pt_clust_8="13000.00000" pt_clust_9="20.38056" pt_clust_10="38.76250"></scales>
<clustering>
<clus scale="   20.381">  2  9  1 -1</clus>
<clus scale="   38.762">  2 10  1 -1</clus>
<clus scale="   89.160">  5  6 -1 -1</clus>
<clus scale="   93.191">  7  8 -1 -1</clus>
<clus scale="  146.144">  2  5  1 -1</clus>
<clus scale="   20.381">  2  5  1 -1</clus>
</clustering>
</event>
<event>
10    2  0.1671105E-006  0.1621326E+03  0.7546771E-02  0.1187674E+00
         21   -1    0    0  501  502  0.00000000000E+00  0.00000000000E+00  0.74128114423E+02  0.74128114423E+02  0.00000000000E+00 0. -1.
          1   -1    0    0  503    0 -0.00000000000E+00 -0.00000000000E+00 -0.61579318762E+03  0.61579318762E+03  0.00000000000E+00 0. -1.
         23    2    1    2    0    0 -0.65434346608E+02  0.10055562380E+03 -0.33184625097E+03  0.36577930208E+03  0.96330038713E+02 0.  0.
         23    2    1    2    0    0  0.10354995986E+03 -0.11229750047E+03 -0.19323929144E+03  0.26155022868E+03  0.87941887467E+02 0.  0.
        -11    1    4    4    0    0  0.13161625542E+02 -0.58096781076E+02 -0.28630221986E+02  0.66092011387E+02  0.00000000000E+00 0.  1.
         11    1    4    4    0    0  0.90388334314E+02 -0.54200719393E+02 -0.16460906945E+03  0.19545821730E+03  0.00000000000E+00 0. -1.
        -13    1    3    3    0    0 -0.18428726064E+02 -0.15546526832E+02 -0.26972888087E+02  0.36178020021E+02  0.00000000000E+00 0.  1.
         13    1    3    3    0    0 -0.47005620544E+02  0.11610215063E+03 -0.30487336288E+03  0.32960128206E+03  0.00000000000E+00 0. -1.
         21    1    1    2  503  502 -0.10127894126E+02  0.18628132939E+02 -0.24791710736E+02  0.32622239307E+02  0.00000000000E+00 0.  1.
          1    1    1    2  501    0 -0.27987719122E+02 -0.68862562692E+01  0.82121799419E+01  0.29969531969E+02  0.00000000000E+00 0. -1.
<scales pt_clust_5="13000.00000" pt_clust_6="13000.00000" pt_clust_7="13000.00000" pt_clust_8="13000.00000" pt_clust_9="21.20334" pt_clust_10="30.79539"></scales>
<clustering>
<clus scale="   21.203">  1  9  2 -1</clus>
<clus scale="   30.795">  1 10  2 -1</clus>
<clus scale="   87.942">  5  6 -1 -1</clus>
<clus scale="   96.330">  7  8 -1 -1</clus>
<clus scale="  157.294">  1  5  2 -1</clus>
<clus scale="   21.203">  1  5  2 -1</clus>
</clustering>
</event>
<event>
10    2  0.1671105E-006  0.1874367E+03  0.7546771E-02  0.1183564E+00
         21   -1    0    0  501  502  0.00000000000E+00  0.00000000000E+00  0.32512913893E+03  0.32512913893E+03  0.00000000000E+00 0.  1.
         -1   -1    0    0    0  501 -0.00000000000E+00 -0.00000000000E+00 -0.19808616418E+03  0.19808616418E+03  0.00000000000E+00 0.  1.
         23    2    1    2    0    0 -0.63878983015E+01 -0.65580961528E+02  0.28831744949E+02  0.11522305221E+03  0.90018967356E+02 0.  0.
         23    2    1    2    0    0  0.13941568178E+03 -0.44093991385E+02 -0.42847194718E+02  0.17857625373E+03  0.93126708847E+02 0.  0.
        -11    1    3    3    0    0 -0.35609095575E+02 -0.33048593436E+01 -0.87760291712E+01  0.36823205604E+02  0.00000000000E+00 0. -1.
         11    1    3    3    0    0  0.29221197274E+02 -0.62276102184E+02  0.37607774121E+02  0.78399846605E+02  0.00000000000E+00 0.  1.
        -13    1    4    4    0    0  0.13367386223E+02 -0.41607370543E+02 -0.27349677705E+02  0.51554487375E+02  0.00000000000E+00 0.  1.
         13    1    4    4    0    0  0.12604829555E+03 -0.24866208419E+01 -0.15497517013E+02  0.12702176636E+03  0.00000000000E+00 0. -1.
         21    1    1    2  503  502 -0.10643435221E+03  0.56130123845E+02  0.83789894040E+02  0.14662744790E+03  0.00000000000E+00 0.  1.
         -1    1    1    2    0  503 -0.26593431265E+02  0.53544829068E+02  0.57268530484E+02  0.82788549270E+02  0.00000000000E+00 0.  1.
<scales pt_clust_5="13000.00000" pt_clust_6="13000.00000" pt_clust_7="13000.00000" pt_clust_8="13000.00000" pt_clust_9="38.66704" pt_clust_10="171.66583"></scales>
<clustering>
<clus scale="   38.667">  9 10 -1 -1</clus>
<clus scale="   90.019">  5  6 -1 -1</clus>
<clus scale="   93.127">  7  8 -1 -1</clus>
<clus scale="  111.558">  2  5  1 -1</clus>
<clus scale="  171.666">  1  9  2 -1</clus>
<clus scale="  171.666">  1  5  2 -1</clus>
</clustering>
</event>
<event>
10    2  0.1671105E-006  0.1429213E+03  0.7546771E-02  0.1209452E+00
         21   -1    0    0  501  502  0.00000000000E+00  0.00000000000E+00  0.10450514093E+03  0.10450514093E+03  0.00000000000E+00 0. -1.
          1   -1    0    0  503    0 -0.00000000000E+00 -0.00000000000E+00 -0.70829849850E+03  0.70829849850E+03  0.00000000000E+00 0. -1.
         23    2    1    2    0    0 -0.10017972646E+03  0.51839208749E+02 -0.55054590321E+03  0.56920499582E+03  0.90389460540E+02 0.  0.
         23    2    1    2    0    0  0.84176235013E+02 -0.59376654062E+02 -0.86085381611E+02  0.16183909469E+03  0.90387908788E+02 0.  0.
        -13    1    3    3    0    0 -0.83513111438E+02  0.77148166385E+02 -0.45370837321E+03  0.46773664308E+03  0.00000000000E+00 0.  1.
         13    1    3    3    0    0 -0.16666615025E+02 -0.25308957636E+02 -0.96837529993E+02  0.10146835274E+03  0.00000000000E+00 0. -1.
        -13    1    4    4    0    0  0.42408939440E+02  0.13575621910E+02 -0.46017962747E+01  0.44765971268E+02  0.00000000000E+00 0.  1.
         13    1    4    4    0    0  0.41767295573E+02 -0.72952275972E+02 -0.81483585336E+02  0.11707312342E+03  0.00000000000E+00 0. -1.
         21    1    1    2  503  502  0.19920334831E-02 -0.24057838430E+02 -0.10107028289E+02  0.26094666404E+02  0.00000000000E+00 0.  1.
          1    1    1    2  501    0  0.16001499418E+02  0.31595283742E+02  0.42944955536E+02  0.55664882506E+02  0.00000000000E+00 0. -1.
<scales pt_clust_5="13000.00000" pt_clust_6="13000.00000" pt_clust_7="13000.00000" pt_clust_8="13000.00000" pt_clust_9="24.05784" pt_clust_10="25.07501"></scales>
<clustering>
<clus scale="   24.058">  1  9  2 -1</clus>
<clus scale="   25.075">  1 10  2 -1</clus>
<clus scale="   90.388">  7  8 -1 -1</clus>
<clus scale="   90.389">  5  6 -1 -1</clus>
<clus scale="  142.920">  1  7  2 -1</clus>
<clus scale="   24.058">  1  5  2 -1</clus>
</clustering>
</event>
<event>
10    2  0.1671105E-006  0.3149647E+03  0.7546771E-02  0.1107843E+00
         21   -1    0    0  503  502  0.00000000000E+00  0.00000000000E+00  0.16442720878E+03  0.16442720878E+03  0.00000000000E+00 0. -1.
          1   -1    0    0  502    0 -0.00000000000E+00 -0.00000000000E+00 -0.11321237139E+04  0.11321237139E+04  0.00000000000E+00 0. -1.
         23    2    1    2    0    0  0.11166943670E+03 -0.25352601179E+02 -0.22169171993E+03  0.26416902196E+03  0.86748118109E+02 0.  0.
         23    2    1    2    0    0  0.21802063649E+03  0.42872557806E+01 -0.63799229237E+03  0.68050688239E+03  0.92217532793E+02 0.  0.
        -13    1    3    3    0    0  0.17305820730E+01  0.20565710155E+02 -0.14703933129E+02  0.25340658988E+02  0.00000000000E+00 0.  1.
         13    1    3    3    0    0  0.10993885463E+03 -0.45918311334E+02 -0.20698778681E+03  0.23882836297E+03  0.00000000000E+00 0. -1.
        -13    1    4    4    0    0  0.17532371175E+03  0.16596717878E+02 -0.38139528762E+03  0.42009072873E+03  0.00000000000E+00 0. -1.
         13    1    4    4    0    0  0.42696924747E+02 -0.12309462098E+02 -0.25659700475E+03  0.26041615366E+03  0.00000000000E+00 0.  1.
         21    1    1    2  503  501 -0.80781763887E+02 -0.12171225162E+02 -0.99812393719E+01  0.82301016021E+02  0.00000000000E+00 0. -1.
          1    1    1    2  501    0 -0.24890830931E+03  0.33236570560E+02 -0.98031253415E+02  0.26957400229E+03  0.00000000000E+00 0. -1.
<scales pt_clust_5="13000.00000" pt_clust_6="13000.00000" pt_clust_7="13000.00000" pt_clust_8="13000.00000" pt_clust_9="31.29257" pt_clust_10="306.11885"></scales>
<clustering>
<clus scale="   31.293">  9 10 -1 -1</clus>
<clus scale="   86.748">  5  6 -1 -1</clus>
<clus scale="   92.218">  7  8 -1 -1</clus>
<clus scale="  143.660">  2  5  1 -1</clus>
<clus scale="  306.119">  1  9  2 -1</clus>
<clus scale="  306.119">  1  5  2 -1</clus>
</clustering>
</event>
<event>
10    2  0.1671105E-006  0.1502851E+03  0.7546771E-02  0.1214547E+00
         21   -1    0    0  501  502  0.00000000000E+00  0.00000000000E+00  0.39356760313E+03  0.39356760313E+03  0.00000000000E+00 0. -1.
          4   -1    0    0  503    0 -0.00000000000E+00 -0.00000000000E+00 -0.26511808867E+03  0.26511808867E+03  0.00000000000E+00 0. -1.
         23    2    1    2    0    0 -0.57382437193E+02  0.27719712212E+02 -0.13432214045E+03  0.17315335106E+03  0.88761021977E+02 0.  0.
         23    2    1    2    0    0  0.12159728923E+03  0.81375241117E+02 -0.15025374389E+02  0.17367693349E+03  0.92358457851E+02 0.  0.
        -11    1    4    4    0    0  0.17288552430E+01  0.48156024010E+02 -0.98469412886E+01  0.49182861260E+02  0.00000000000E+00 0.  1.
         11    1    4    4    0    0  0.11986843399E+03  0.33219217106E+02 -0.51784331006E+01  0.12449407223E+03  0.00000000000E+00 0. -1.
        -11    1    3    3    0    0  0.23053842147E+02  0.77498143279E+01 -0.46007996729E+02  0.52041089755E+02  0.00000000000E+00 0. -1.
         11    1    3    3    0    0 -0.80436279340E+02  0.19969897884E+02 -0.88314143725E+02  0.12111226130E+03  0.00000000000E+00 0.  1.
         21    1    1    2  503  502 -0.38708911881E+02 -0.13584052439E+02  0.60130219154E+02  0.72791136790E+02  0.00000000000E+00 0.  1.
          4    1    1    2  501    0 -0.25505940154E+02 -0.95510900891E+02  0.21766681015E+03  0.23906427047E+03  0.00000000000E+00 0. -1.
<scales pt_clust_5="13000.00000" pt_clust_6="13000.00000" pt_clust_7="13000.00000" pt_clust_8="13000.00000" pt_clust_9="41.02324" pt_clust_10="118.55594"></scales>
<clustering>
<clus scale="   41.023">  1  9  2 -1</clus>
<clus scale="   88.761">  7  8 -1 -1</clus>
<clus scale="   92.358">  5  6 -1 -1</clus>
<clus scale="  110.293">  2  7  1 -1</clus>
<clus scale="  118.556">  1 10  2 -1</clus>
<clus scale="   41.023">  1  5  2 -1</clus>
</clustering>
</event>
<event>
10    2  0.1671105E-006  0.1175470E+03  0.7546771E-02  0.1247346E+00
         21   -1    0    0  501  502  0.00000000000E+00  0.00000000000E+00  0.20249709600E+03  0.20249709600E+03  0.00000000000E+00 0. -1.
          2   -1    0    0  503    0 -0.00000000000E+00 -0.00000000000E+00 -0.22165415932E+03  0.22165415932E+03  0.00000000000E+00 0. -1.
         23    2    1    2    0    0  0.10672881427E+03  0.21241378411E+02 -0.12888761040E+03  0.19155355855E+03  0.90766258738E+02 0.  0.
         23    2    1    2    0    0 -0.18361119468E+02  0.18793499544E+01  0.74151249823E+02  0.11830711339E+03  0.90318893725E+02 0.  0.
        -11    1    3    3    0    0  0.34390335460E+02 -0.99559115778E+01 -0.10233984588E+03  0.10842167405E+03  0.00000000000E+00 0.  1.
         11    1    3    3    0    0  0.72338478810E+02  0.31197289989E+02 -0.26547764517E+02  0.83131884498E+02  0.00000000000E+00 0. -1.
        -11    1    4    4    0    0  0.12018374708E+02 -0.38249928614E+02  0.44470018554E+02  0.59875545257E+02  0.00000000000E+00 0. -1.
         11    1    4    4    0    0 -0.30379494176E+02  0.40129278568E+02  0.29681231268E+02  0.58431568132E+02  0.00000000000E+00 0.  1.
         21    1    1    2  503  502 -0.23263306515E+02  0.15923236428E+02 -0.43352850783E+01  0.28522369906E+02  0.00000000000E+00 0.  1.
          2    1    1    2  501    0 -0.65104388287E+02 -0.39043964794E+02  0.39914582337E+02  0.85768213484E+02  0.00000000000E+00 0. -1.
<scales pt_clust_5="13000.00000" pt_clust_6="13000.00000" pt_clust_7="13000.00000" pt_clust_8="13000.00000" pt_clust_9="28.19097" pt_clust_10="77.28142"></scales>
<clustering>
<clus scale="   28.191">  2  9  1 -1</clus>
<clus scale="   77.281">  1 10  2 -1</clus>
<clus scale="   90.319">  7  8 -1 -1</clus>
<clus scale="   90.766">  5  6 -1 -1</clus>
<clus scale="  117.202">  1  7  2 -1</clus>
<clus scale="   77.281">  1  5  2 -1</clus>
</clustering>
</event>
<event>
10    2  0.1671105E-006  0.2968632E+03  0.7546771E-02  0.1086993E+00
          1   -1    0    0  503    0 -0.00000000000E+00  0.00000000000E+00  0.11866526030E+04  0.11866526030E+04  0.00000000000E+00 0. -1.
         21   -1    0    0  501  502  0.00000000000E+00 -0.00000000000E+00 -0.22666091369E+03  0.22666091369E+03  0.00000000000E+00 0. -1.
         23    2    1    2    0    0 -0.29115270219E+03 -0.25421920041E+03  0.80388807379E+03  0.89670761219E+03  0.91930455916E+02 0.  0.
         23    2    1    2    0    0  0.72744470630E+02  0.14641443605E+03  0.13346717106E+01  0.18539845979E+03  0.87417746783E+02 0.  0.
        -11    1    3    3    0    0 -0.26863899594E+03 -0.20649031866E+03  0.63467448289E+03  0.71945594797E+03  0.00000000000E+00 0. -1.
         11    1    3    3    0    0 -0.22513706251E+02 -0.47728881754E+02  0.16921359091E+03  0.17725166422E+03  0.00000000000E+00 0.  1.
        -13    1    4    4    0    0  0.68918101588E+02  0.12106570893E+03  0.34465253166E+02  0.14350771506E+03  0.00000000000E+00 0.  1.
         13    1    4    4    0    0  0.38263690419E+01  0.25348727120E+02 -0.33130581455E+02  0.41890744732E+02  0.00000000000E+00 0. -1.
         21    1    1    2  503  502  0.64478021978E+02  0.27088350821E+02  0.14033934199E+03  0.15680027098E+03  0.00000000000E+00 0.  1.
          1    1    1    2  501    0  0.15393020959E+03  0.80716413541E+02  0.14429601805E+02  0.17440717372E+03  0.00000000000E+00 0. -1.
<scales pt_clust_5="13000.00000" pt_clust_6="13000.00000" pt_clust_7="13000.00000" pt_clust_8="13000.00000" pt_clust_9="69.93707" pt_clust_10="180.14805"></scales>
<clustering>
<clus scale="   69.937">  1  9  2 -1</clus>
<clus scale="   87.418">  7  8 -1 -1</clus>
<clus scale="   91.930">  5  6 -1 -1</clus>
<clus scale="  180.148">  2 10  1 -1</clus>
<clus scale="  295.497">  2  7  1 -1</clus>
<clus scale="  180.148">  2  5  1 -1</clus>
</clustering>
</event>
<event>
10    2  0.1671105E-006  0.1103298E+03  0.7546771E-02  0.1260092E+00
         -3   -1    0    0    0  501 -0.00000000000E+00  0.00000000000E+00  0.22027512253E+03  0.22027512253E+03  0.00000000000E+00 0.  1.
         21   -1    0    0  503  502  0.00000000000E+00 -0.00000000000E+00 -0.21078085187E+03  0.21078085187E+03  0.00000000000E+00 0. -1.
         23    2    1    2    0    0 -0.17535353310E+02 -0.52653243811E+02  0.10748915825E+03  0.15129883315E+03  0.90871145420E+02 0.  0.
         23    2    1    2    0    0  0.19504696920E+01  0.76229649008E+02  0.45530615293E+02  0.12731068198E+03  0.91215180195E+02 0.  0.
        -11    1    3    3    0    0 -0.46006514350E+01  0.20264334904E+02  0.14141003411E-01  0.20780025570E+02  0.00000000000E+00 0. -1.
         11    1    3    3    0    0 -0.12934701875E+02 -0.72917578715E+02  0.10747501725E+03  0.13051880758E+03  0.00000000000E+00 0.  1.
        -13    1    4    4    0    0 -0.20613379747E+02 -0.76857369975E+01  0.32789032293E+02  0.39485473487E+02  0.00000000000E+00 0.  1.
         13    1    4    4    0    0  0.22563849439E+02  0.83915386005E+02  0.12741583000E+02  0.87825208495E+02  0.00000000000E+00 0. -1.
         21    1    1    2  503  501 -0.81831304663E+01 -0.22672242724E+02 -0.99809247515E+02  0.10267852796E+03  0.00000000000E+00 0. -1.
         -3    1    1    2    0  502  0.23768014084E+02 -0.90416247347E+00 -0.43716255368E+02  0.49767931308E+02  0.00000000000E+00 0.  1.
<scales pt_clust_5="13000.00000" pt_clust_6="13000.00000" pt_clust_7="13000.00000" pt_clust_8="13000.00000" pt_clust_9="24.11886" pt_clust_10="23.78521"></scales>
<clustering>
<clus scale="   23.785">  2 10  1 -1</clus>
<clus scale="   24.119">  2  9  1 -1</clus>
<clus scale="   90.871">  5  6 -1 -1</clus>
<clus scale="   91.215">  7  8 -1 -1</clus>
<clus scale="  110.045">  1  5  2 -1</clus>
<clus scale="   23.785">  2  5  1 -1</clus>
</clustering>
</event>
<event>
10    2  0.1671105E-006  0.3067579E+03  0.7546771E-02  0.1081917E+00
          1   -1    0    0  502    0 -0.00000000000E+00  0.00000000000E+00  0.57152860357E+03  0.57152860357E+03  0.00000000000E+00 0. -1.
         21   -1    0    0  503  502  0.00000000000E+00 -0.00000000000E+00 -0.27028040520E+03  0.27028040520E+03  0.00000000000E+00 0.  1.
         23    2    1    2    0    0  0.15844038367E+03 -0.23071899032E+03  0.22145323630E+03  0.36830676646E+03  0.90960049891E+02 0.  0.
         23    2    1    2    0    0 -0.26431873091E+03  0.19182553292E+03  0.10332879812E+03  0.35437140948E+03  0.90779010486E+02 0.  0.
        -11    1    3    3    0    0  0.57325590946E+02 -0.12526265524E+03  0.15628491173E+03  0.20833129820E+03  0.00000000000E+00 0. -1.
         11    1    3    3    0    0  0.10111479272E+03 -0.10545633508E+03  0.65168324573E+02  0.15997546826E+03  0.00000000000E+00 0.  1.
        -11    1    4    4    0    0 -0.60466723904E+02  0.83253429160E+02  0.40469121494E+01  0.10297444180E+03  0.00000000000E+00 0.  1.
         11    1    4    4    0    0 -0.20385200700E+03  0.10857210376E+03  0.99281885969E+02  0.25139696768E+03  0.00000000000E+00 0. -1.
         21    1    1    2  503  501  0.36222526069E+02  0.14946059748E+02 -0.23070440661E+02  0.45471984003E+02  0.00000000000E+00 0.  1.
          1    1    1    2  501    0  0.69655821169E+02  0.23947397648E+02 -0.46339539376E+00  0.73658848838E+02  0.00000000000E+00 0. -1.
<scales pt_clust_5="13000.00000" pt_clust_6="13000.00000" pt_clust_7="13000.00000" pt_clust_8="13000.00000" pt_clust_9="22.06754" pt_clust_10="116.78319"></scales>
<clustering>
<clus scale="   22.068">  9 10 -1 -1</clus>
<clus scale="   90.779">  7  8 -1 -1</clus>
<clus scale="   90.960">  5  6 -1 -1</clus>
<clus scale="  116.783">  2  9  1 -1</clus>
<clus scale="  306.704">  2  7  1 -1</clus>
<clus scale="  116.783">  2  5  1 -1</clus>
</clustering>
</event>
<event>
10    2  0.1671105E-006  0.2498365E+03  0.7546771E-02  0.1113641E+00
          2   -1    0    0  503    0 -0.00000000000E+00  0.00000000000E+00  0.13962175961E+04  0.13962175961E+04  0.00000000000E+00 0. -1.
         21   -1    0    0  501  502  0.00000000000E+00 -0.00000000000E+00 -0.14604097930E+03  0.14604097930E+03  0.00000000000E+00 0. -1.
         23    2    1    2    0    0  0.14428842434E+03  0.18331189922E+03  0.12002816931E+04  0.12263129596E+04  0.93514332141E+02 0.  0.
         23    2    1    2    0    0 -0.16689759655E+03 -0.14397339981E+03 -0.35533660361E+01  0.23792832324E+03  0.89521578412E+02 0.  0.
        -11    1    3    3    0    0  0.14864677047E+03  0.13270772912E+03  0.90315231430E+03  0.92487367060E+03  0.00000000000E+00 0. -1.
         11    1    3    3    0    0 -0.43583461313E+01  0.50604170099E+02  0.29712937882E+03  0.30143928903E+03  0.00000000000E+00 0.  1.
        -13    1    4    4    0    0 -0.17130369516E+03 -0.11835017618E+03 -0.16538786789E+02  0.20886658815E+03  0.00000000000E+00 0. -1.
         13    1    4    4    0    0  0.44060986100E+01 -0.25623223627E+02  0.12985420753E+02  0.29061735085E+02  0.00000000000E+00 0.  1.
         21    1    1    2  503  502  0.21399947331E+02 -0.48337946219E+01  0.16522370864E+02  0.27464742037E+02  0.00000000000E+00 0. -1.
          2    1    1    2  501    0  0.12092248862E+01 -0.34504704791E+02  0.36925918831E+02  0.50552550470E+02  0.00000000000E+00 0. -1.
<scales pt_clust_5="13000.00000" pt_clust_6="13000.00000" pt_clust_7="13000.00000" pt_clust_8="13000.00000" pt_clust_9="21.93908" pt_clust_10="34.81156"></scales>
<clustering>
<clus scale="   21.939">  2  9  1 -1</clus>
<clus scale="   34.812">  2 10  1 -1</clus>
<clus scale="   89.522">  7  8 -1 -1</clus>
<clus scale="   93.514">  5  6 -1 -1</clus>
<clus scale="  248.370">  2  7  1 -1</clus>
<clus scale="   21.939">  2  5  1 -1</clus>
</clustering>
</event>
<event>
10    2  0.1671105E-006  0.1793913E+03  0.7546771E-02  0.1190234E+00
         -1   -1    0    0    0  501 -0.00000000000E+00  0.00000000000E+00  0.30786212038E+03  0.30786212038E+03  0.00000000000E+00 0.  1.
         21   -1    0    0  501  502  0.00000000000E+00 -0.00000000000E+00 -0.90178694338E+03  0.90178694338E+03  0.00000000000E+00 0.  1.
         23    2    1    2    0    0 -0.33460441643E+02 -0.45625857307E+02  0.56518228276E+01  0.10987202238E+03  0.94013819145E+02 0.  0.
         23    2    1    2    0    0 -0.11014615584E+03  0.10369489838E+03  0.20939333512E+03  0.27396765591E+03  0.91257329009E+02 0.  0.
        -11    1    4    4    0    0 -0.72604705845E+02  0.94097410583E+02  0.91864878424E+02  0.15021625038E+03  0.00000000000E+00 0.  1.
         11    1    4    4    0    0 -0.37541449999E+02  0.95974878009E+01  0.11752845669E+03  0.12375140554E+03  0.00000000000E+00 0. -1.
        -13    1    3    3    0    0 -0.50239295279E+02 -0.27698460290E+02  0.38330943466E+02  0.68996034086E+02  0.00000000000E+00 0.  1.
         13    1    3    3    0    0  0.16778853635E+02 -0.17927397017E+02 -0.32679120639E+02  0.40875988292E+02  0.00000000000E+00 0. -1.
         21    1    1    2  503  502  0.61516102346E+02 -0.81134780908E+01 -0.20312786259E+03  0.21239347433E+03  0.00000000000E+00 0.  1.
         -1    1    1    2    0  503  0.82090495141E+02 -0.49955562985E+02 -0.60584211835E+03  0.61341591114E+03  0.00000000000E+00 0.  1.
<scales pt_clust_5="13000.00000" pt_clust_6="13000.00000" pt_clust_7="13000.00000" pt_clust_8="13000.00000" pt_clust_9="47.76813" pt_clust_10="165.49077"></scales>
<clustering>
<clus scale="   47.768">  9 10 -1 -1</clus>
<clus scale="   91.257">  5  6 -1 -1</clus>
<clus scale="   94.014">  7  8 -1 -1</clus>
<clus scale="  109.727">  1  7  2 -1</clus>
<clus scale="  165.491">  2  9  1 -1</clus>
<clus scale="  165.491">  2  5  1 -1</clus>
</clustering>
</event>
<event>
10    2  0.1671105E-006  0.1620256E+03  0.7546771E-02  0.1210306E+00
          1   -1    0    0  503    0 -0.00000000000E+00  0.00000000000E+00  0.75838474211E+03  0.75838474211E+03  0.00000000000E+00 0. -1.
         21   -1    0    0  501  502  0.00000000000E+00 -0.00000000000E+00 -0.65549619733E+02  0.65549619733E+02  0.00000000000E+00 0. -1.
         23    2    1    2    0    0 -0.14451784292E+02  0.29677104218E+02  0.78409848244E+02  0.12460001999E+03  0.91035575990E+02 0.  0.
         23    2    1    2    0    0  0.40155900264E+02  0.12514594369E+03  0.27969318103E+03  0.32209467949E+03  0.90789335793E+02 0.  0.
        -11    1    3    3    0    0  0.16306828342E+00  0.44775496651E+02  0.14245552775E+01  0.44798449184E+02  0.00000000000E+00 0.  1.
         11    1    3    3    0    0 -0.14614852576E+02 -0.15098392433E+02  0.76985292966E+02  0.79801570805E+02  0.00000000000E+00 0. -1.
        -11    1    4    4    0    0  0.29846131663E+02  0.94191066513E+01  0.18823771313E+02  0.36521849786E+02  0.00000000000E+00 0.  1.
         11    1    4    4    0    0  0.10309768601E+02  0.11572683704E+03  0.26086940972E+03  0.28557282970E+03  0.00000000000E+00 0. -1.
         21    1    1    2  503  502 -0.12302486758E+02 -0.17801099834E+02  0.12158214237E+03  0.12349270294E+03  0.00000000000E+00 0.  1.
          1    1    1    2  501    0 -0.13401629215E+02 -0.13702194807E+03  0.21314995074E+03  0.25374695943E+03  0.00000000000E+00 0. -1.
<scales pt_clust_5="13000.00000" pt_clust_6="13000.00000" pt_clust_7="13000.00000" pt_clust_8="13000.00000" pt_clust_9="21.63863" pt_clust_10="134.19978"></scales>
<clustering>
<clus scale="   21.639">  1  9  2 -1</clus>
<clus scale="   90.789">  7  8 -1 -1</clus>
<clus scale="   91.036">  5  6 -1 -1</clus>
<clus scale="   96.318">  1  5  2 -1</clus>
<clus scale="  134.200">  2 10  1 -1</clus>
<clus scale="  134.200">  2  5  1 -1</clus>
</clustering>
</event>
<event>
10    2  0.1671105E-006  0.1511714E+03  0.7546771E-02  0.1199155E+00
         21   -1    0    0  501  502  0.00000000000E+00  0.00000000000E+00  0.94454504291E+02  0.94454504291E+02  0.00000000000E+00 0.  1.
         -2   -1    0    0    0  501 -0.00000000000E+00 -0.00000000000E+00 -0.56892355265E+03  0.56892355265E+03  0.00000000000E+00 0.  1.
         23    2    1    2    0    0 -0.57276141851E+02  0.10970993398E+03 -0.33269451229E+03  0.36665569528E+03  0.91836454259E+02 0.  0.
         23    2    1    2    0    0 -0.14017039829E+02 -0.12656087837E+03 -0.15168594734E+03  0.21804498012E+03  0.91218711878E+02 0.  0.
        -13    1    4    4    0    0  0.34128196038E+02 -0.69207358764E+02 -0.50721416808E+02  0.92342051065E+02  0.00000000000E+00 0. -1.
         13    1    4    4    0    0 -0.48145235867E+02 -0.57353519604E+02 -0.10096453054E+03  0.12570292906E+03  0.00000000000E+00 0.  1.
        -13    1    3    3    0    0 -0.33112795900E+02  0.12146483931E+03 -0.29081729540E+03  0.31689882257E+03  0.00000000000E+00 0.  1.
         13    1    3    3    0    0 -0.24163345951E+02 -0.11754905337E+02 -0.41877216893E+02  0.49756872708E+02  0.00000000000E+00 0. -1.
         21    1    1    2  503  502  0.34433789920E+02 -0.45906577713E+01 -0.65854766641E+00  0.34744693293E+02  0.00000000000E+00 0.  1.
         -2    1    1    2    0  503  0.36859391760E+02  0.21441602162E+02  0.10569958947E+02  0.43932688244E+02  0.00000000000E+00 0.  1.
<scales pt_clust_5="13000.00000" pt_clust_6="13000.00000" pt_clust_7="13000.00000" pt_clust_8="13000.00000" pt_clust_9="24.30642" pt_clust_10="78.05059"></scales>
<clustering>
<clus scale="   24.306">  9 10 -1 -1</clus>
<clus scale="   78.051">  1  9  2 -1</clus>
<clus scale="   91.219">  5  6 -1 -1</clus>
<clus scale="   91.836">  7  8 -1 -1</clus>
<clus scale="  150.797">  1  5  2 -1</clus>
<clus scale="   78.051">  1  5  2 -1</clus>
</clustering>
</event>
<event>
10    2  0.1671105E-006  0.1280823E+03  0.7546771E-02  0.1230754E+00
         21   -1    0    0  503  502  0.00000000000E+00  0.00000000000E+00  0.64861479043E+02  0.64861479043E+02  0.00000000000E+00 0. -1.
          2   -1    0    0  502    0 -0.00000000000E+00 -0.00000000000E+00 -0.83187828219E+03  0.83187828219E+03  0.00000000000E+00 0. -1.
         23    2    1    2    0    0 -0.65704898874E+02 -0.55432155435E+02 -0.43050592726E+03  0.44861782060E+03  0.92372820431E+02 0.  0.
         23    2    1    2    0    0  0.12570884053E+03 -0.32966672208E+02 -0.28534300890E+03  0.32643194382E+03  0.90816667842E+02 0.  0.
        -13    1    4    4    0    0  0.10696475516E+03 -0.11118606843E+02 -0.13128774711E+03  0.16971020832E+03  0.00000000000E+00 0.  1.
         13    1    4    4    0    0  0.18744085365E+02 -0.21848065364E+02 -0.15405526179E+03  0.15672173551E+03  0.00000000000E+00 0. -1.
        -13    1    3    3    0    0 -0.21817208190E+02  0.21105996370E+02 -0.54341679894E+02  0.62245255479E+02  0.00000000000E+00 0.  1.
         13    1    3    3    0    0 -0.43887690684E+02 -0.76538151805E+02 -0.37616424737E+03  0.38637256512E+03  0.00000000000E+00 0. -1.
         21    1    1    2  503  501 -0.34171044071E+02  0.31789357097E+02 -0.12090635459E+02  0.48212103702E+02  0.00000000000E+00 0.  1.
          2    1    1    2  501    0 -0.25832897581E+02  0.56609470546E+02 -0.39077231528E+02  0.73477893116E+02  0.00000000000E+00 0. -1.
<scales pt_clust_5="13000.00000" pt_clust_6="13000.00000" pt_clust_7="13000.00000" pt_clust_8="13000.00000" pt_clust_9="24.11724" pt_clust_10="110.40971"></scales>
<clustering>
<clus scale="   24.117">  9 10 -1 -1</clus>
<clus scale="   90.817">  5  6 -1 -1</clus>
<clus scale="   92.373">  7  8 -1 -1</clus>
<clus scale="  110.410">  1  9  2 -1</clus>
<clus scale="  126.965">  1  5  2 -1</clus>
<clus scale="  110.410">  1  5  2 -1</clus>
</clustering>
</event>
<event>
10    2  0.1671105E-006  0.1877755E+03  0.7546771E-02  0.1160622E+00
         21   -1    0    0  503  502  0.00000000000E+00  0.00000000000E+00  0.81912583256E+03  0.81912583256E+03  0.00000000000E+00 0. -1.
          1   -1    0    0  502    0 -0.00000000000E+00 -0.00000000000E+00 -0.92938661555E+02  0.92938661555E+02  0.00000000000E+00 0. -1.
         23    2    1    2    0    0  0.14526163349E+03  0.13700840810E+02  0.16703943807E+03  0.23994448991E+03  0.91556153075E+02 0.  0.
         23    2    1    2    0    0 -0.18735108531E+03  0.10963727412E+03  0.30741716289E+03  0.38701681163E+03  0.90310239733E+02 0.  0.
        -11    1    3    3    0    0  0.37496472314E+02 -0.17666109480E+02  0.35024346581E+01  0.41597402667E+02  0.00000000000E+00 0.  1.
         11    1    3    3    0    0  0.10776516117E+03  0.31366950290E+02  0.16353700342E+03  0.19834708725E+03  0.00000000000E+00 0. -1.
        -13    1    4    4    0    0 -0.31777236100E+02  0.54670435091E+02  0.47243331850E+02  0.78934033290E+02  0.00000000000E+00 0.  1.
         13    1    4    4    0    0 -0.15557384921E+03  0.54966839031E+02  0.26017383104E+03  0.30808277834E+03  0.00000000000E+00 0. -1.
         21    1    1    2  503  501  0.24723104820E+02 -0.45638048235E+02  0.12615335380E+03  0.13641382640E+03  0.00000000000E+00 0.  1.
          1    1    1    2  501    0  0.17366347007E+02 -0.77700066696E+02  0.12557721624E+03  0.14868936617E+03  0.00000000000E+00 0. -1.
<scales pt_clust_5="13000.00000" pt_clust_6="13000.00000" pt_clust_7="13000.00000" pt_clust_8="13000.00000" pt_clust_9="24.64595" pt_clust_10="133.84898"></scales>
<clustering>
<clus scale="   24.646">  9 10 -1 -1</clus>
<clus scale="   90.310">  7  8 -1 -1</clus>
<clus scale="   91.556">  5  6 -1 -1</clus>
<clus scale="  133.849">  1  9  2 -1</clus>
<clus scale="  187.171">  1  7  2 -1</clus>
<clus scale="  133.849">  1  5  2 -1</clus>
</clustering>
</event>
<event>
10    2  0.1671105E-006  0.1226734E+03  0.7546771E-02  0.1253538E+00
          1   -1    0    0  502    0 -0.00000000000E+00  0.00000000000E+00  0.57495013040E+03  0.57495013040E+03  0.00000000000E+00 0. -1.
         21   -1    0    0  503  502  0.00000000000E+00 -0.00000000000E+00 -0.85386936513E+02  0.85386936513E+02  0.00000000000E+00 0. -1.
         23    2    1    2    0    0 -0.47146213449E+00  0.79411611406E+01  0.40573748167E+03  0.41584427524E+03  0.90775948889E+02 0.  0.
         23    2    1    2    0    0  0.60676361091E+02  0.58696712680E+02  0.87206240183E+02  0.14830192997E+03  0.85215076309E+02 0.  0.
        -11    1    3    3    0    0 -0.32423484287E+02  0.36090514290E+02  0.22090745428E+03  0.22617230359E+03  0.00000000000E+00 0.  1.
         11    1    3    3    0    0  0.31952022153E+02 -0.28149353149E+02  0.18483002739E+03  0.18967197165E+03  0.00000000000E+00 0. -1.
        -11    1    4    4    0    0  0.10264532666E+02  0.67927500000E+02  0.50512505776E+02  0.85270271061E+02  0.00000000000E+00 0.  1.
         11    1    4    4    0    0  0.50411828424E+02 -0.92307873201E+01  0.36693734407E+02  0.63031658905E+02  0.00000000000E+00 0. -1.
         21    1    1    2  503  501 -0.31428947226E+02 -0.11743117483E+02 -0.63210270128E+01  0.34141395907E+02  0.00000000000E+00 0. -1.
          1    1    1    2  501    0 -0.28775951730E+02 -0.54894756337E+02  0.29404990412E+01  0.62049465798E+02  0.00000000000E+00 0. -1.
<scales pt_clust_5="13000.00000" pt_clust_6="13000.00000" pt_clust_7="13000.00000" pt_clust_8="13000.00000" pt_clust_9="25.23107" pt_clust_10="94.67405"></scales>
<clustering>
<clus scale="   25.231">  9 10 -1 -1</clus>
<clus scale="   85.215">  7  8 -1 -1</clus>
<clus scale="   90.776">  5  6 -1 -1</clus>
<clus scale="   91.124">  1  5  2 -1</clus>
<clus scale="   94.674">  2  9  1 -1</clus>
<clus scale="   94.674">  2  5  1 -1</clus>
</clustering>
</event>
<event>
10    2  0.1671105E-006  0.1091275E+03  0.7546771E-02  0.1262961E+00
         -1   -1    0    0    0  501 -0.00000000000E+00  0.00000000000E+00  0.39775902984E+03  0.39775902984E+03  0.00000000000E+00 0.  1.
         21   -1    0    0  503  502  0.00000000000E+00 -0.00000000000E+00 -0.52379907610E+03  0.52379907610E+03  0.00000000000E+00 0.  1.
         23    2    1    2    0    0  0.23443875586E+02 -0.64741583059E+02  0.26966420436E+03  0.29171663766E+03  0.87399803759E+02 0.  0.
         23    2    1    2    0    0 -0.48329180987E+02  0.29265718299E+02  0.73126969832E+02  0.12857106001E+03  0.89391116745E+02 0.  0.
        -11    1    3    3    0    0  0.53816909665E+02 -0.58644378852E+02  0.20797203770E+03  0.22268316371E+03  0.00000000000E+00 0. -1.
         11    1    3    3    0    0 -0.30373034079E+02 -0.60972042076E+01  0.61692166662E+02  0.69033473951E+02  0.00000000000E+00 0.  1.
        -11    1    4    4    0    0  0.19948459561E+02  0.96870667212E+01 -0.52583447606E+01  0.22791017752E+02  0.00000000000E+00 0.  1.
         11    1    4    4    0    0 -0.68277640549E+02  0.19578651578E+02  0.78385314593E+02  0.10578004226E+03  0.00000000000E+00 0. -1.
         21    1    1    2  503  501 -0.89765439476E+01 -0.46143958613E+02 -0.35199877737E+02  0.58727120229E+02  0.00000000000E+00 0.  1.
         -1    1    1    2    0  502  0.33861849349E+02  0.81619823373E+02 -0.43363134271E+03  0.44254328804E+03  0.00000000000E+00 0.  1.
<scales pt_clust_5="13000.00000" pt_clust_6="13000.00000" pt_clust_7="13000.00000" pt_clust_8="13000.00000" pt_clust_9="47.00897" pt_clust_10="46.84828"></scales>
<clustering>
<clus scale="   47.009">  2  9  1 -1</clus>
<clus scale="   46.848">  2 10  1 -1</clus>
<clus scale="   87.400">  5  6 -1 -1</clus>
<clus scale="   89.391">  7  8 -1 -1</clus>
<clus scale="  107.502">  1  5  2 -1</clus>
<clus scale="   47.009">  2  5  1 -1</clus>
</clustering>
</event>
<event>
10    2  0.1671105E-006  0.1875747E+03  0.7546771E-02  0.1162189E+00
          2   -1    0    0  502    0 -0.00000000000E+00  0.00000000000E+00  0.12445617776E+04  0.12445617776E+04  0.00000000000E+00 0. -1.
         21   -1    0    0  503  502  0.00000000000E+00 -0.00000000000E+00 -0.11066666677E+03  0.11066666677E+03  0.00000000000E+00 0. -1.
         23    2    1    2    0    0 -0.14433096325E+03  0.78617801762E+02  0.98738250763E+03  0.10063463885E+04  0.10390693707E+03 0.  0.
         23    2    1    2    0    0  0.14430774748E+03  0.29806453824E+02  0.12368969140E+03  0.21309192953E+03  0.91629034683E+02 0.  0.
        -13    1    4    4    0    0  0.26190746023E+02  0.37044850221E+02  0.69354733335E+02  0.82875540065E+02  0.00000000000E+00 0.  1.
         13    1    4    4    0    0  0.11811700146E+03 -0.72383963974E+01  0.54334958069E+02  0.13021638946E+03  0.00000000000E+00 0. -1.
        -13    1    3    3    0    0 -0.11549524893E+02  0.59098599074E+02  0.29918716177E+03  0.30518681771E+03  0.00000000000E+00 0.  1.
         13    1    3    3    0    0 -0.13278143835E+03  0.19519202688E+02  0.68819534586E+03  0.70115957079E+03  0.00000000000E+00 0. -1.
         21    1    1    2  503  501 -0.23254572140E+02 -0.51030368567E+02 -0.21040132999E+02  0.59896250618E+02  0.00000000000E+00 0. -1.
          2    1    1    2  501    0  0.23277787905E+02 -0.57393887019E+02  0.43863044847E+02  0.75893875775E+02  0.00000000000E+00 0. -1.
<scales pt_clust_5="13000.00000" pt_clust_6="13000.00000" pt_clust_7="13000.00000" pt_clust_8="13000.00000" pt_clust_9="56.07917" pt_clust_10="71.33725"></scales>
<clustering>
<clus scale="   56.079">  2  9  1 -1</clus>
<clus scale="   71.337">  2 10  1 -1</clus>
<clus scale="   91.629">  5  6 -1 -1</clus>
<clus scale="  103.907">  7  8 -1 -1</clus>
<clus scale="  181.062">  2  5  1 -1</clus>
<clus scale="   56.079">  2  5  1 -1</clus>
</clustering>
</event>
<event>
10    2  0.2118180E-006  0.1476116E+03  0.7546771E-02  0.1214809E+00
         21   -1    0    0  501  502  0.00000000000E+00  0.00000000000E+00  0.11367901716E+03  0.11367901716E+03  0.00000000000E+00 0. -1.
          2   -1    0    0  503    0 -0.00000000000E+00 -0.00000000000E+00 -0.72359107914E+03  0.72359107914E+03  0.00000000000E+00 0. -1.
         23    2    1    2    0    0  0.43937392930E+02 -0.55255059170E+02 -0.38699339743E+03  0.40366522309E+03  0.90543396314E+02 0.  0.
         23    2    1    2    0    0 -0.49238360558E+02 -0.67380534547E+02 -0.24916097947E+03  0.27865096360E+03  0.92739491243E+02 0.  0.
        -11    1    3    3    0    0  0.54384997422E+02 -0.39552828911E+01 -0.12321406678E+03  0.13474078246E+03  0.00000000000E+00 0.  1.
         11    1    3    3    0    0 -0.10447604492E+02 -0.51299776279E+02 -0.26377933065E+03  0.26892444062E+03  0.00000000000E+00 0. -1.
        -13    1    4    4    0    0 -0.88176842195E+01  0.22054797917E+02 -0.75822275152E+02  0.79455541502E+02  0.00000000000E+00 0.  1.
         13    1    4    4    0    0 -0.40420676338E+02 -0.89435332464E+02 -0.17333870432E+03  0.19919542210E+03  0.00000000000E+00 0. -1.
         21    1    1    2  503  502  0.20155353573E+02 -0.75795430195E+01  0.15559232328E+01  0.21589549489E+02  0.00000000000E+00 0.  1.
          2    1    1    2  501    0 -0.14854385946E+02  0.13021513674E+03  0.24686391695E+02  0.13336436013E+03  0.00000000000E+00 0. -1.
<scales pt_clust_5="13000.00000" pt_clust_6="13000.00000" pt_clust_7="13000.00000" pt_clust_8="13000.00000" pt_clust_9="21.53341" pt_clust_10="114.84146"></scales>
<clustering>
<clus scale="   21.533">  1  9  2 -1</clus>
<clus scale="   90.543">  5  6 -1 -1</clus>
<clus scale="   92.739">  7  8 -1 -1</clus>
<clus scale="  115.749">  2  5  1 -1</clus>
<clus scale="  114.841">  1 10  2 -1</clus>
<clus scale="   21.533">  1  5  2 -1</clus>
</clustering>
</event>
<event>
10    2  0.1671105E-006  0.2249233E+03  0.7546771E-02  0.1130310E+00
          3   -1    0    0  502    0 -0.00000000000E+00  0.00000000000E+00  0.66237868770E+03  0.66237868770E+03  0.00000000000E+00 0. -1.
         21   -1    0    0  503  502  0.00000000000E+00 -0.00000000000E+00 -0.30570338742E+03  0.30570338742E+03  0.00000000000E+00 0. -1.
         23    2    1    2    0    0  0.22511223363E+03  0.59261025967E+02  0.54218777076E+03  0.59532325815E+03  0.79087394771E+02 0.  0.
         23    2    1    2    0    0 -0.13241164997E+03 -0.35179150157E+02 -0.14001295757E+02  0.15916530647E+03  0.79794366028E+02 0.  0.
        -13    1    3    3    0    0  0.55310537228E+02  0.48993857957E+02  0.13226110144E+03  0.15150132871E+03  0.00000000000E+00 0.  1.
         13    1    3    3    0    0  0.16980169640E+03  0.10267168009E+02  0.40992666932E+03  0.44382192945E+03  0.00000000000E+00 0. -1.
        -13    1    4    4    0    0 -0.26076078474E+02  0.20062385267E+02  0.14562249297E+02  0.35979442405E+02  0.00000000000E+00 0.  1.
         13    1    4    4    0    0 -0.10633557149E+03 -0.55241535423E+02 -0.28563545054E+02  0.12318586407E+03  0.00000000000E+00 0. -1.
         21    1    1    2  503  501  0.69583346608E+01 -0.26696099045E+02 -0.38826171933E+02  0.47629526058E+02  0.00000000000E+00 0. -1.
          3    1    1    2  501    0 -0.99658918323E+02  0.26142232354E+01 -0.13268500279E+03  0.16596398443E+03  0.00000000000E+00 0. -1.
<scales pt_clust_5="13000.00000" pt_clust_6="13000.00000" pt_clust_7="13000.00000" pt_clust_8="13000.00000" pt_clust_9="27.58804" pt_clust_10="96.52270"></scales>
<clustering>
<clus scale="   27.588">  2  9  1 -1</clus>
<clus scale="   79.087">  5  6 -1 -1</clus>
<clus scale="   79.794">  7  8 -1 -1</clus>
<clus scale="   96.523">  2 10  1 -1</clus>
<clus scale="  224.673">  1  5  2 -1</clus>
<clus scale="   27.588">  2  5  1 -1</clus>
</clustering>
</event>
<event>
10    2  0.1671105E-006  0.1838850E+03  0.7546771E-02  0.1189338E+00
         21   -1    0    0  501  502  0.00000000000E+00  0.00000000000E+00  0.14991338773E+03  0.14991338773E+03  0.00000000000E+00 0. -1.
          2   -1    0    0  503    0 -0.00000000000E+00 -0.00000000000E+00 -0.96762301344E+03  0.96762301344E+03  0.00000000000E+00 0. -1.
         23    2    1    2    0    0 -0.44475723199E+02 -0.57057489498E+02 -0.82269886762E+02  0.13253892930E+03  0.74596155740E+02 0.  0.
         23    2    1    2    0    0 -0.13928990992E+03  0.17329979015E+02 -0.41846311798E+03  0.45540392838E+03  0.11215770012E+03 0.  0.
        -11    1    4    4    0    0 -0.23391764042E+02  0.25735069644E+02 -0.19518419583E+02  0.39880285075E+02  0.00000000000E+00 0.  1.
         11    1    4    4    0    0 -0.11589814588E+03 -0.84050906289E+01 -0.39894469839E+03  0.41552364330E+03  0.00000000000E+00 0. -1.
        -13    1    3    3    0    0 -0.19989150200E+02  0.15179442839E+02 -0.34048760409E+02  0.42300114610E+02  0.00000000000E+00 0. -1.
         13    1    3    3    0    0 -0.24486573000E+02 -0.72236932336E+02 -0.48221126353E+02  0.90238814694E+02  0.00000000000E+00 0.  1.
         21    1    1    2  503  502  0.55637432149E+02  0.11318957464E+03 -0.35528880342E+03  0.37701132278E+03  0.00000000000E+00 0.  1.
          2    1    1    2  501    0  0.12812820097E+03 -0.73462064161E+02  0.38312182450E+02  0.15258222072E+03  0.00000000000E+00 0. -1.
<scales pt_clust_5="13000.00000" pt_clust_6="13000.00000" pt_clust_7="13000.00000" pt_clust_8="13000.00000" pt_clust_9="96.18284" pt_clust_10="145.72015"></scales>
<clustering>
<clus scale="   74.596">  7  8 -1 -1</clus>
<clus scale="  103.915">  2  7  1 -1</clus>
<clus scale="   96.183">  2  9  1 -1</clus>
<clus scale="  112.158">  5  6 -1 -1</clus>
<clus scale="  145.720">  1 10  2 -1</clus>
<clus scale="  145.720">  1  5  2 -1</clus>
</clustering>
</event>
<event>
10    2  0.1671105E-006  0.9281172E+02  0.7546771E-02  0.1297787E+00
         -3   -1    0    0    0  501 -0.00000000000E+00  0.00000000000E+00  0.14226178790E+03  0.14226178790E+03  0.00000000000E+00 0.  1.
         21   -1    0    0  503  502  0.00000000000E+00 -0.00000000000E+00 -0.23648271952E+03  0.23648271952E+03  0.00000000000E+00 0. -1.
         23    2    1    2    0    0  0.57143514515E+01  0.12020774168E+02  0.89817184517E+02  0.12886342508E+03  0.91441253626E+02 0.  0.
         23    2    1    2    0    0 -0.51593302362E+02  0.41855172144E+01 -0.84494954765E+02  0.13297788445E+03  0.88681074473E+02 0.  0.
        -11    1    4    4    0    0  0.51730453226E+01  0.23770436733E+02  0.53542523035E+01  0.24909076219E+02  0.00000000000E+00 0.  1.
         11    1    4    4    0    0 -0.56766347684E+02 -0.19584919518E+02 -0.89849207069E+02  0.10806880823E+03  0.00000000000E+00 0. -1.
        -11    1    3    3    0    0  0.33021138793E+02  0.37130884720E+02  0.72573781123E+02  0.87954828826E+02  0.00000000000E+00 0.  1.
         11    1    3    3    0    0 -0.27306787342E+02 -0.25110110552E+02  0.17243403394E+02  0.40908596254E+02  0.00000000000E+00 0. -1.
         21    1    1    2  503  501  0.11557205869E+02 -0.21393933135E+02 -0.57178023167E+02  0.62133692275E+02  0.00000000000E+00 0.  1.
         -3    1    1    2    0  502  0.34321745041E+02  0.51876417521E+01 -0.42365138207E+02  0.54769505612E+02  0.00000000000E+00 0.  1.
<scales pt_clust_5="13000.00000" pt_clust_6="13000.00000" pt_clust_7="13000.00000" pt_clust_8="13000.00000" pt_clust_9="24.31603" pt_clust_10="37.50237"></scales>
<clustering>
<clus scale="   24.316">  2  9  1 -1</clus>
<clus scale="   37.502">  2 10  1 -1</clus>
<clus scale="   88.681">  5  6 -1 -1</clus>
<clus scale="   90.094">  2  5  1 -1</clus>
<clus scale="   91.441">  7  8 -1 -1</clus>
<clus scale="   24.316">  2  5  1 -1</clus>
</clustering>
</event>
<event>
10    2  0.1671105E-006  0.1278714E+03  0.7546771E-02  0.1231041E+00
          1   -1    0    0  503    0 -0.00000000000E+00  0.00000000000E+00  0.53770601921E+03  0.53770601921E+03  0.00000000000E+00 0. -1.
         21   -1    0    0  501  502  0.00000000000E+00 -0.00000000000E+00 -0.53572563456E+03  0.53572563456E+03  0.00000000000E+00 0. -1.
         23    2    1    2    0    0  0.73323409289E+02  0.18464044570E+02  0.35941004053E+03  0.37908096277E+03  0.93859233996E+02 0.  0.
         23    2    1    2    0    0 -0.13849705893E+03  0.25904082593E+01  0.12174305905E+03  0.20629220756E+03  0.92449753517E+02 0.  0.
        -11    1    3    3    0    0  0.69946102160E+02  0.39942860543E+02  0.34162106183E+03  0.35098837473E+03  0.00000000000E+00 0. -1.
         11    1    3    3    0    0  0.33773071285E+01 -0.21478815973E+02  0.17788978708E+02  0.28092588035E+02  0.00000000000E+00 0.  1.
        -13    1    4    4    0    0 -0.12889324741E+03 -0.22632159590E+02  0.12255428287E+03  0.17929092594E+03  0.00000000000E+00 0. -1.
         13    1    4    4    0    0 -0.96038115180E+01  0.25222567850E+02 -0.81122382363E+00  0.27001281612E+02  0.00000000000E+00 0.  1.
         21    1    1    2  503  502  0.39640550590E+02  0.14248245878E+02 -0.32924224283E+03  0.33192595594E+03  0.00000000000E+00 0. -1.
          1    1    1    2  501    0  0.25533099051E+02 -0.35302698706E+02 -0.14993047210E+03  0.15613252751E+03  0.00000000000E+00 0. -1.
<scales pt_clust_5="13000.00000" pt_clust_6="13000.00000" pt_clust_7="13000.00000" pt_clust_8="13000.00000" pt_clust_9="42.12346" pt_clust_10="60.37603"></scales>
<clustering>
<clus scale="   42.123">  2  9  1 -1</clus>
<clus scale="   60.376">  2 10  1 -1</clus>
<clus scale="   92.450">  7  8 -1 -1</clus>
<clus scale="   93.859">  5  6 -1 -1</clus>
<clus scale="  126.840">  2  7  1 -1</clus>
<clus scale="   42.123">  2  5  1 -1</clus>
</clustering>
</event>
<event>
10    2  0.1671105E-006  0.1180406E+03  0.7546771E-02  0.1246650E+00
         -2   -1    0    0    0  501 -0.00000000000E+00  0.00000000000E+00  0.13780222391E+03  0.13780222391E+03  0.00000000000E+00 0.  1.
         21   -1    0    0  503  502  0.00000000000E+00 -0.00000000000E+00 -0.70294795792E+03  0.70294795792E+03  0.00000000000E+00 0.  1.
         23    2    1    2    0    0 -0.20526841585E+02 -0.70872697872E+02  0.91649598543E+02  0.14932230070E+03  0.91941340240E+02 0.  0.
         23    2    1    2    0    0 -0.28447603915E+02  0.73727364573E+02 -0.28693632790E+03  0.31175193496E+03  0.92799904255E+02 0.  0.
        -11    1    4    4    0    0 -0.48907304719E+02  0.19187709589E+02 -0.20227718097E+03  0.20898839823E+03  0.00000000000E+00 0.  1.
         11    1    4    4    0    0  0.20459700805E+02  0.54539654984E+02 -0.84659146925E+02  0.10276353673E+03  0.00000000000E+00 0. -1.
        -13    1    3    3    0    0 -0.39823688884E+02 -0.61337884894E+02  0.10194457155E+03  0.12546297457E+03  0.00000000000E+00 0.  1.
         13    1    3    3    0    0  0.19296847299E+02 -0.95348129779E+01 -0.10294973009E+02  0.23859326131E+02  0.00000000000E+00 0. -1.
         21    1    1    2  503  501  0.31687561071E+02  0.23837113469E+02 -0.30362510973E+03  0.30620339117E+03  0.00000000000E+00 0.  1.
         -2    1    1    2    0  502  0.17286884428E+02 -0.26691780170E+02 -0.66233894927E+02  0.73472555006E+02  0.00000000000E+00 0.  1.
<scales pt_clust_5="13000.00000" pt_clust_6="13000.00000" pt_clust_7="13000.00000" pt_clust_8="13000.00000" pt_clust_9="41.49296" pt_clust_10="31.80075"></scales>
<clustering>
<clus scale="   31.801">  2 10  1 -1</clus>
<clus scale="   41.493">  2  9  1 -1</clus>
<clus scale="   91.941">  7  8 -1 -1</clus>
<clus scale="   92.800">  5  6 -1 -1</clus>
<clus scale="  117.367">  1  7  2 -1</clus>
<clus scale="   31.801">  2  5  1 -1</clus>
</clustering>
</event>
<event>
10    2  0.1671105E-006  0.2861980E+03  0.7546771E-02  0.1102540E+00
         21   -1    0    0  501  502  0.00000000000E+00  0.00000000000E+00  0.14421325300E+03  0.14421325300E+03  0.00000000000E+00 0.  1.
          1   -1    0    0  503    0 -0.00000000000E+00 -0.00000000000E+00 -0.22956314172E+04  0.22956314172E+04  0.00000000000E+00 0. -1.
         23    2    1    2    0    0  0.19156487353E+02  0.19228579482E+03 -0.87543238840E+03  0.90140504863E+03  0.93853061399E+02 0.  0.
         23    2    1    2    0    0 -0.27795821969E+03 -0.12504361761E+03 -0.14099053056E+03  0.34813637086E+03  0.91781941641E+02 0.  0.
        -11    1    3    3    0    0  0.54686820302E+02  0.85964676801E+02 -0.37726248157E+03  0.39077813906E+03  0.00000000000E+00 0.  1.
         11    1    3    3    0    0 -0.35530332949E+02  0.10632111801E+03 -0.49816990684E+03  0.51062690957E+03  0.00000000000E+00 0. -1.
        -11    1    4    4    0    0 -0.19993385873E+03 -0.66163451217E+02 -0.13510998270E+03  0.25021162557E+03  0.00000000000E+00 0.  1.
         11    1    4    4    0    0 -0.78024360952E+02 -0.58880166391E+02 -0.58805478548E+01  0.97924745286E+02  0.00000000000E+00 0. -1.
         21    1    1    2  503  502  0.25001001816E+03 -0.11938758012E+03 -0.10759126471E+04  0.11110114435E+04  0.00000000000E+00 0. -1.
          1    1    1    2  501    0  0.87917141692E+01  0.52145402917E+02 -0.59082598177E+02  0.79291807210E+02  0.00000000000E+00 0. -1.
<scales pt_clust_5="13000.00000" pt_clust_6="13000.00000" pt_clust_7="13000.00000" pt_clust_8="13000.00000" pt_clust_9="271.08186" pt_clust_10="52.88135"></scales>
<clustering>
<clus scale="   52.881">  1 10  2 -1</clus>
<clus scale="   91.782">  7  8 -1 -1</clus>
<clus scale="   93.853">  5  6 -1 -1</clus>
<clus scale="  219.431">  2  5  1 -1</clus>
<clus scale="  271.082">  2  9  1 -1</clus>
<clus scale="   52.881">  1  5  2 -1</clus>
</clustering>
</event>
<event>
10    2  0.1671105E-006  0.1151009E+03  0.7546771E-02  0.1266965E+00
         21   -1    0    0  501  502  0.00000000000E+00  0.00000000000E+00  0.24932621138E+03  0.24932621138E+03  0.00000000000E+00 0. -1.
          2   -1    0    0  503    0 -0.00000000000E+00 -0.00000000000E+00 -0.12495858745E+03  0.12495858745E+03  0.00000000000E+00 0. -1.
         23    2    1    2    0    0  0.20982381348E+02 -0.58463631647E+01 -0.56753506949E+02  0.10312949691E+03  0.83308416703E+02 0.  0.
         23    2    1    2    0    0  0.14904839583E+02  0.64851292633E+01  0.68700407195E+02  0.13413419313E+03  0.11405272760E+03 0.  0.
        -11    1    3    3    0    0 -0.21689039877E+02 -0.11406597479E+02  0.76505617985E+01  0.25672086255E+02  0.00000000000E+00 0.  1.
         11    1    3    3    0    0  0.42671421225E+02  0.55602343142E+01 -0.64404068747E+02  0.77457410660E+02  0.00000000000E+00 0. -1.
        -13    1    4    4    0    0  0.37976228954E+02  0.22202493849E+02 -0.14545057434E+02  0.46332530628E+02  0.00000000000E+00 0. -1.
         13    1    4    4    0    0 -0.23071389370E+02 -0.15717364585E+02  0.83245464629E+02  0.87801662503E+02  0.00000000000E+00 0.  1.
         21    1    1    2  503  502 -0.17618381759E+02 -0.30914837368E+02  0.27303687793E+02  0.44851152855E+02  0.00000000000E+00 0. -1.
          2    1    1    2  501    0 -0.18268839173E+02  0.30276071270E+02  0.85117035897E+02  0.92169955930E+02  0.00000000000E+00 0. -1.
<scales pt_clust_5="13000.00000" pt_clust_6="13000.00000" pt_clust_7="13000.00000" pt_clust_8="13000.00000" pt_clust_9="32.45614" pt_clust_10="35.36087"></scales>
<clustering>
<clus scale="   35.361">  1 10  2 -1</clus>
<clus scale="   32.456">  1  9  2 -1</clus>
<clus scale="   83.308">  5  6 -1 -1</clus>
<clus scale="   84.738">  2  5  1 -1</clus>
<clus scale="  114.053">  7  8 -1 -1</clus>
<clus scale="   35.361">  1  5  2 -1</clus>
</clustering>
</event>
<event>
10    2  0.1671105E-006  0.1096065E+03  0.7546771E-02  0.1261394E+00
         21   -1    0    0  501  502  0.00000000000E+00  0.00000000000E+00  0.61738259371E+02  0.61738259371E+02  0.00000000000E+00 0. -1.
          1   -1    0    0  503    0 -0.00000000000E+00 -0.00000000000E+00 -0.59592984960E+03  0.59592984960E+03  0.00000000000E+00 0. -1.
         23    2    1    2    0    0  0.59179819820E+02  0.16202159739E+01 -0.33803555607E+03  0.35524235778E+03  0.91783546559E+02 0.  0.
         23    2    1    2    0    0 -0.59981960944E+02  0.20899674331E+02 -0.21395272612E+03  0.24122763249E+03  0.91544358828E+02 0.  0.
        -11    1    3    3    0    0  0.80778732603E+02  0.88779366293E+01 -0.20962444842E+03  0.22482533393E+03  0.00000000000E+00 0. -1.
         11    1    3    3    0    0 -0.21598912784E+02 -0.72577206554E+01 -0.12841110765E+03  0.13041702385E+03  0.00000000000E+00 0.  1.
        -11    1    4    4    0    0  0.18049869061E+02 -0.16890631551E+02 -0.46983948539E+02  0.53090325180E+02  0.00000000000E+00 0.  1.
         11    1    4    4    0    0 -0.78031830005E+02  0.37790305882E+02 -0.16696877758E+03  0.18813730731E+03  0.00000000000E+00 0. -1.
         21    1    1    2  503  502  0.26285776376E+02 -0.34776463351E+01  0.10772155386E+02  0.28619493276E+02  0.00000000000E+00 0. -1.
          1    1    1    2  501    0 -0.25483635251E+02 -0.19042243970E+02  0.70245365753E+01  0.32578625433E+02  0.00000000000E+00 0. -1.
<scales pt_clust_5="13000.00000" pt_clust_6="13000.00000" pt_clust_7="13000.00000" pt_clust_8="13000.00000" pt_clust_9="26.51483" pt_clust_10="24.48195"></scales>
<clustering>
<clus scale="   26.515">  1  9  2 -1</clus>
<clus scale="   24.482">  1 10  2 -1</clus>
<clus scale="   91.544">  7  8 -1 -1</clus>
<clus scale="   91.784">  5  6 -1 -1</clus>
<clus scale="  109.406">  1  7  2 -1</clus>
<clus scale="   26.515">  1  5  2 -1</clus>
</clustering>
</event>
<event>
10    2  0.1671105E-006  0.1449329E+03  0.7546771E-02  0.1226807E+00
         -4   -1    0    0    0  501 -0.00000000000E+00  0.00000000000E+00  0.19787895483E+03  0.19787895483E+03  0.00000000000E+00 0.  1.
         21   -1    0    0  501  502  0.00000000000E+00 -0.00000000000E+00 -0.17947794962E+03  0.17947794962E+03  0.00000000000E+00 0.  1.
         23    2    1    2    0    0  0.13758752643E+02  0.12492302194E+02  0.74062700576E+01  0.95374405367E+02  0.93252686152E+02 0.  0.
         23    2    1    2    0    0 -0.12351618154E+02 -0.12190913385E+03  0.45639346337E+02  0.15901258978E+03  0.90485658460E+02 0.  0.
        -11    1    4    4    0    0 -0.46765446256E+02 -0.92385026216E+02  0.46851880554E+02  0.11365341501E+03  0.00000000000E+00 0.  1.
         11    1    4    4    0    0  0.34413828102E+02 -0.29524107633E+02 -0.12125342173E+01  0.45359174766E+02  0.00000000000E+00 0. -1.
        -13    1    3    3    0    0  0.49858165337E+02  0.25593033476E+02  0.98136627263E+01  0.56895940007E+02  0.00000000000E+00 0. -1.
         13    1    3    3    0    0 -0.36099412694E+02 -0.13100731282E+02 -0.24073926687E+01  0.38478465359E+02  0.00000000000E+00 0.  1.
         21    1    1    2  503  502 -0.22305329999E+02  0.45465159784E+02 -0.16934534376E+02  0.53398379705E+02  0.00000000000E+00 0.  1.
         -4    1    1    2    0  503  0.20898195510E+02  0.63951671871E+02 -0.17710076808E+02  0.69571529602E+02  0.00000000000E+00 0.  1.
<scales pt_clust_5="13000.00000" pt_clust_6="13000.00000" pt_clust_7="13000.00000" pt_clust_8="13000.00000" pt_clust_9="38.28537" pt_clust_10="121.51221"></scales>
<clustering>
<clus scale="   38.285">  9 10 -1 -1</clus>
<clus scale="   90.486">  5  6 -1 -1</clus>
<clus scale="   93.253">  7  8 -1 -1</clus>
<clus scale="   95.086">  1  7  2 -1</clus>
<clus scale="  121.512">  2  9  1 -1</clus>
<clus scale="  121.512">  2  5  1 -1</clus>
</clustering>
</event>
<event>
10    2  0.1671105E-006  0.3874924E+03  0.7546771E-02  0.1070928E+00
          1   -1    0    0  502    0 -0.00000000000E+00  0.00000000000E+00  0.11991658794E+04  0.11991658794E+04  0.00000000000E+00 0. -1.
         21   -1    0    0  503  502  0.00000000000E+00 -0.00000000000E+00 -0.25486158395E+03  0.25486158395E+03  0.00000000000E+00 0. -1.
         23    2    1    2    0    0 -0.16008400085E+03 -0.93023555606E+02  0.51964746721E+03  0.55862234908E+03  0.88006644582E+02 0.  0.
         23    2    1    2    0    0 -0.27341122127E+03  0.17730138398E+03  0.24129032260E+03  0.41561504720E+03  0.91243471026E+02 0.  0.
        -11    1    3    3    0    0 -0.14077834421E+03 -0.46875993812E+02  0.44215245268E+03  0.46638470430E+03  0.00000000000E+00 0. -1.
         11    1    3    3    0    0 -0.19305656641E+02 -0.46147561794E+02  0.77495014526E+02  0.92237644779E+02  0.00000000000E+00 0.  1.
        -11    1    4    4    0    0 -0.21083445147E+03  0.13676830246E+03  0.13354564358E+03  0.28458948224E+03  0.00000000000E+00 0. -1.
         11    1    4    4    0    0 -0.62576769794E+02  0.40533081527E+02  0.10774467902E+03  0.13102556496E+03  0.00000000000E+00 0.  1.
         21    1    1    2  503  501  0.12228309177E+03 -0.41321633678E+02  0.48157408869E+02  0.13776707870E+03  0.00000000000E+00 0. -1.
          1    1    1    2  501    0  0.31121213035E+03 -0.42956194700E+02  0.13520909681E+03  0.34202298840E+03  0.00000000000E+00 0. -1.
<scales pt_clust_5="13000.00000" pt_clust_6="13000.00000" pt_clust_7="13000.00000" pt_clust_8="13000.00000" pt_clust_9="25.27104" pt_clust_10="378.65483"></scales>
<clustering>
<clus scale="   25.271">  9 10 -1 -1</clus>
<clus scale="   88.007">  5  6 -1 -1</clus>
<clus scale="   91.243">  7  8 -1 -1</clus>
<clus scale="  205.001">  1  5  2 -1</clus>
<clus scale="  378.655">  2  9  1 -1</clus>
<clus scale="  378.655">  2  5  1 -1</clus>
</clustering>
</event>
<event>
10    2  0.1671105E-006  0.1085285E+03  0.7546771E-02  0.1264624E+00
         21   -1    0    0  501  502  0.00000000000E+00  0.00000000000E+00  0.12002197408E+03  0.12002197408E+03  0.00000000000E+00 0.  1.
          2   -1    0    0  503    0 -0.00000000000E+00 -0.00000000000E+00 -0.66377866799E+03  0.66377866799E+03  0.00000000000E+00 0. -1.
         23    2    1    2    0    0 -0.34150380381E+02 -0.70977827649E+02 -0.57429494368E+03  0.58701678129E+03  0.92573855258E+02 0.  0.
         23    2    1    2    0    0  0.46496293581E+02  0.27774353239E+02  0.71922736992E+02  0.12685039642E+03  0.89357836591E+02 0.  0.
        -11    1    3    3    0    0 -0.24385111191E+02  0.18156175672E+02 -0.10898664583E+03  0.11314755557E+03  0.00000000000E+00 0.  1.
         11    1    3    3    0    0 -0.97652691897E+01 -0.89134003320E+02 -0.46530829786E+03  0.47386922572E+03  0.00000000000E+00 0. -1.
        -13    1    4    4    0    0  0.29061756776E+02  0.56009580055E+02  0.69054591480E+02  0.93542478956E+02  0.00000000000E+00 0.  1.
         13    1    4    4    0    0  0.17434536805E+02 -0.28235226816E+02  0.28681455116E+01  0.33307917461E+02  0.00000000000E+00 0. -1.
         21    1    1    2  503  502  0.81735362178E+01  0.21764284044E+02 -0.30441657954E+02  0.38303854809E+02  0.00000000000E+00 0.  1.
          2    1    1    2  501    0 -0.20519449418E+02  0.21439190366E+02 -0.10942829263E+02  0.31629609549E+02  0.00000000000E+00 0. -1.
<scales pt_clust_5="13000.00000" pt_clust_6="13000.00000" pt_clust_7="13000.00000" pt_clust_8="13000.00000" pt_clust_9="23.24846" pt_clust_10="30.02535"></scales>
<clustering>
<clus scale="   23.248">  2  9  1 -1</clus>
<clus scale="   30.025">  1 10  2 -1</clus>
<clus scale="   89.358">  7  8 -1 -1</clus>
<clus scale="   92.574">  5  6 -1 -1</clus>
<clus scale="  105.799">  1  7  2 -1</clus>
<clus scale="   30.025">  1  5  2 -1</clus>
</clustering>
</event>
<event>
10    2  0.1671105E-006  0.2171226E+03  0.7546771E-02  0.1162794E+00
         21   -1    0    0  501  502  0.00000000000E+00  0.00000000000E+00  0.82820959585E+02  0.82820959585E+02  0.00000000000E+00 0. -1.
          1   -1    0    0  503    0 -0.00000000000E+00 -0.00000000000E+00 -0.15191823918E+04  0.15191823918E+04  0.00000000000E+00 0. -1.
         23    2    1    2    0    0 -0.27134628603E+02  0.67269241864E+02 -0.36733885364E+03  0.38581961025E+03  0.93045683893E+02 0.  0.
         23    2    1    2    0    0 -0.18114726324E+03 -0.76904439995E+02 -0.88290830930E+03  0.90915683458E+03  0.91161633108E+02 0.  0.
        -11    1    3    3    0    0  0.21447292237E+02 -0.75297442087E+01 -0.13592715135E+03  0.13781463590E+03  0.00000000000E+00 0. -1.
         11    1    3    3    0    0 -0.48581920840E+02  0.74798986073E+02 -0.23141170228E+03  0.24800497435E+03  0.00000000000E+00 0.  1.
        -13    1    4    4    0    0 -0.54610252221E+02 -0.60813509034E+02 -0.46800042507E+03  0.47508416138E+03  0.00000000000E+00 0.  1.
         13    1    4    4    0    0 -0.12653701102E+03 -0.16090930961E+02 -0.41490788423E+03  0.43407267319E+03  0.00000000000E+00 0. -1.
         21    1    1    2  503  502  0.17776576557E+03  0.40791213755E+02 -0.94165898383E+02  0.20526033944E+03  0.00000000000E+00 0. -1.
          1    1    1    2  501    0  0.30516126275E+02 -0.31156015624E+02 -0.91948370845E+02  0.10176656707E+03  0.00000000000E+00 0. -1.
<scales pt_clust_5="13000.00000" pt_clust_6="13000.00000" pt_clust_7="13000.00000" pt_clust_8="13000.00000" pt_clust_9="197.05786" pt_clust_10="43.61116"></scales>
<clustering>
<clus scale="   43.611">  1 10  2 -1</clus>
<clus scale="   91.162">  7  8 -1 -1</clus>
<clus scale="   93.046">  5  6 -1 -1</clus>
<clus scale="  115.118">  2  5  1 -1</clus>
<clus scale="  197.058">  1  9  2 -1</clus>
<clus scale="   43.611">  1  5  2 -1</clus>
</clustering>
</event>
<event>
10    2  0.1671105E-006  0.1540776E+03  0.7546771E-02  0.1195874E+00
          2   -1    0    0  503    0 -0.00000000000E+00  0.00000000000E+00  0.15252041474E+03  0.15252041474E+03  0.00000000000E+00 0. -1.
         21   -1    0    0  501  502  0.00000000000E+00 -0.00000000000E+00 -0.55515836954E+03  0.55515836954E+03  0.00000000000E+00 0.  1.
         23    2    1    2    0    0 -0.10754466387E+01  0.12294756200E+03  0.64697845238E+02  0.16604580700E+03  0.90929309124E+02 0.  0.
         23    2    1    2    0    0 -0.71938905139E+02 -0.13350229639E+03 -0.36784571492E+03  0.40772830686E+03  0.89072066380E+02 0.  0.
        -13    1    4    4    0    0 -0.73828721893E+02 -0.97625649892E+02 -0.34262942624E+03  0.36383563792E+03  0.00000000000E+00 0.  1.
         13    1    4    4    0    0  0.18898167538E+01 -0.35876646502E+02 -0.25216288684E+02  0.43892668939E+02  0.00000000000E+00 0. -1.
        -13    1    3    3    0    0  0.72191630336E+00  0.42312233245E+02 -0.21946988719E+02  0.47670919428E+02  0.00000000000E+00 0.  1.
         13    1    3    3    0    0 -0.17973629420E+01  0.80635328756E+02  0.86644833957E+02  0.11837488758E+03  0.00000000000E+00 0. -1.
         21    1    1    2  503  502  0.47849965151E+02 -0.10899784040E+02 -0.84231762566E+02  0.97485456772E+02  0.00000000000E+00 0.  1.
          2    1    1    2  501    0  0.25164386627E+02  0.21454518434E+02 -0.15258322547E+02  0.36419213645E+02  0.00000000000E+00 0. -1.
<scales pt_clust_5="13000.00000" pt_clust_6="13000.00000" pt_clust_7="13000.00000" pt_clust_8="13000.00000" pt_clust_9="52.66631" pt_clust_10="33.06877"></scales>
<clustering>
<clus scale="   33.069">  2 10  1 -1</clus>
<clus scale="   52.666">  2  9  1 -1</clus>
<clus scale="   89.072">  5  6 -1 -1</clus>
<clus scale="   90.929">  7  8 -1 -1</clus>
<clus scale="  152.989">  2  5  1 -1</clus>
<clus scale="   33.069">  2  5  1 -1</clus>
</clustering>
</event>
<event>
10    2  0.1671105E-006  0.2012212E+03  0.7546771E-02  0.1151172E+00
         21   -1    0    0  501  502  0.00000000000E+00  0.00000000000E+00  0.94721825673E+02  0.94721825673E+02  0.00000000000E+00 0. -1.
          3   -1    0    0  503    0 -0.00000000000E+00 -0.00000000000E+00 -0.10829660167E+04  0.10829660167E+04  0.00000000000E+00 0. -1.
         23    2    1    2    0    0 -0.17008435730E+03  0.68019920660E+02 -0.59613768896E+03  0.63034896009E+03  0.91674800701E+02 0.  0.
         23    2    1    2    0    0  0.16849356890E+03  0.79412807947E+02 -0.27281819775E+03  0.34926243386E+03  0.11339312967E+03 0.  0.
        -11    1    3    3    0    0 -0.33878084682E+02  0.54565396159E+02 -0.13820939204E+03  0.15240388161E+03  0.00000000000E+00 0.  1.
         11    1    3    3    0    0 -0.13620627262E+03  0.13454524501E+02 -0.45792829691E+03  0.47794507848E+03  0.00000000000E+00 0. -1.
        -13    1    4    4    0    0  0.97987627775E+02  0.10140602061E+03 -0.14944290439E+03  0.20547004133E+03  0.00000000000E+00 0. -1.
         13    1    4    4    0    0  0.70505941122E+02 -0.21993212662E+02 -0.12337529337E+03  0.14379239253E+03  0.00000000000E+00 0.  1.
         21    1    1    2  503  502  0.13907890888E+02 -0.14593160479E+02 -0.34638300195E+02  0.40077445055E+02  0.00000000000E+00 0.  1.
          3    1    1    2  501    0 -0.12317102482E+02 -0.13283956813E+03 -0.84650004165E+02  0.15799900341E+03  0.00000000000E+00 0. -1.
<scales pt_clust_5="13000.00000" pt_clust_6="13000.00000" pt_clust_7="13000.00000" pt_clust_8="13000.00000" pt_clust_9="20.15911" pt_clust_10="134.95795"></scales>
<clustering>
<clus scale="   20.159">  2  9  1 -1</clus>
<clus scale="   91.675">  5  6 -1 -1</clus>
<clus scale="  113.393">  7  8 -1 -1</clus>
<clus scale="  134.958">  1 10  2 -1</clus>
<clus scale="  189.832">  2  5  1 -1</clus>
<clus scale="  134.958">  1  5  2 -1</clus>
</clustering>
</event>
<event>
10    2  0.1671105E-006  0.1456981E+03  0.7546771E-02  0.1206477E+00
          1   -1    0    0  503    0 -0.00000000000E+00  0.00000000000E+00  0.54180924613E+03  0.54180924613E+03  0.00000000000E+00 0. -1.
         21   -1    0    0  501  502  0.00000000000E+00 -0.00000000000E+00 -0.13463860743E+03  0.13463860743E+03  0.00000000000E+00 0. -1.
         23    2    1    2    0    0 -0.10557481637E+03 -0.17551290209E+02  0.26835394395E+03  0.30330008402E+03  0.92320160814E+02 0.  0.
         23    2    1    2    0    0  0.12407643713E+03 -0.79812344813E+02  0.17721490243E+03  0.24726245759E+03  0.89267175683E+02 0.  0.
        -13    1    3    3    0    0 -0.40745195427E+02 -0.47933047337E+02  0.17282841331E+03  0.18392228909E+03  0.00000000000E+00 0. -1.
         13    1    3    3    0    0 -0.64829620939E+02  0.30381757129E+02  0.95525530643E+02  0.11937779493E+03  0.00000000000E+00 0.  1.
        -13    1    4    4    0    0  0.24528494128E+02  0.12503886830E+02  0.50231239371E+01  0.27986174875E+02  0.00000000000E+00 0.  1.
         13    1    4    4    0    0  0.99547943000E+02 -0.92316231643E+02  0.17219177849E+03  0.21927628271E+03  0.00000000000E+00 0. -1.
         21    1    1    2  503  502 -0.29651566430E+02  0.49617831661E+02  0.80336953211E+01  0.58358245955E+02  0.00000000000E+00 0. -1.
          1    1    1    2  501    0  0.11149945667E+02  0.47745803362E+02 -0.46431903000E+02  0.67527066005E+02  0.00000000000E+00 0. -1.
<scales pt_clust_5="13000.00000" pt_clust_6="13000.00000" pt_clust_7="13000.00000" pt_clust_8="13000.00000" pt_clust_9="70.10321" pt_clust_10="49.03043"></scales>
<clustering>
<clus scale="   49.030">  2 10  1 -1</clus>
<clus scale="   70.103">  2  9  1 -1</clus>
<clus scale="   89.267">  7  8 -1 -1</clus>
<clus scale="   92.320">  5  6 -1 -1</clus>
<clus scale="  143.783">  2  7  1 -1</clus>
<clus scale="   49.030">  2  5  1 -1</clus>
</clustering>
</event>
<event>
10    2  0.1671105E-006  0.2226389E+03  0.7546771E-02  0.1155066E+00
         21   -1    0    0  503  502  0.00000000000E+00  0.00000000000E+00  0.43225168309E+03  0.43225168309E+03  0.00000000000E+00 0. -1.
          2   -1    0    0  502    0 -0.00000000000E+00 -0.00000000000E+00 -0.61472083557E+03  0.61472083557E+03  0.00000000000E+00 0. -1.
         23    2    1    2    0    0  0.27215027217E+02 -0.84742375835E+02 -0.43384519024E+03  0.45229389905E+03  0.91794302924E+02 0.  0.
         23    2    1    2    0    0  0.17670231081E+03  0.30131128526E+02 -0.59750826009E+02  0.21127990934E+03  0.94538073434E+02 0.  0.
        -11    1    4    4    0    0  0.28802267563E+02  0.37340212317E+02  0.90217641180E+01  0.48013063852E+02  0.00000000000E+00 0. -1.
         11    1    4    4    0    0  0.14790004325E+03 -0.72090837910E+01 -0.68772590127E+02  0.16326684549E+03  0.00000000000E+00 0.  1.
        -13    1    3    3    0    0  0.50560152762E+02 -0.66457373240E+02 -0.39327097553E+03  0.40203852017E+03  0.00000000000E+00 0. -1.
         13    1    3    3    0    0 -0.23345125545E+02 -0.18285002595E+02 -0.40574214714E+02  0.50255378879E+02  0.00000000000E+00 0.  1.
         21    1    1    2  503  501 -0.52270821838E+02  0.47736138136E+02  0.79366915127E+02  0.10634888301E+03  0.00000000000E+00 0. -1.
          2    1    1    2  501    0 -0.15164651619E+03  0.68751091728E+01  0.23175994864E+03  0.27704982728E+03  0.00000000000E+00 0. -1.
<scales pt_clust_5="13000.00000" pt_clust_6="13000.00000" pt_clust_7="13000.00000" pt_clust_8="13000.00000" pt_clust_9="51.23831" pt_clust_10="215.08280"></scales>
<clustering>
<clus scale="   51.238">  9 10 -1 -1</clus>
<clus scale="   91.794">  7  8 -1 -1</clus>
<clus scale="   94.538">  5  6 -1 -1</clus>
<clus scale="  127.860">  2  7  1 -1</clus>
<clus scale="  215.083">  1  9  2 -1</clus>
<clus scale="  215.083">  1  5  2 -1</clus>
</clustering>
</event>
<event>
10    2  0.1671105E-006  0.2079776E+03  0.7546771E-02  0.1156795E+00
         21   -1    0    0  503  502  0.00000000000E+00  0.00000000000E+00  0.30835888793E+03  0.30835888793E+03  0.00000000000E+00 0. -1.
          2   -1    0    0  502    0 -0.00000000000E+00 -0.00000000000E+00 -0.70462923694E+03  0.70462923694E+03  0.00000000000E+00 0. -1.
         23    2    1    2    0    0 -0.89461136133E+02  0.74541816676E+02 -0.37512070563E+03  0.40371025309E+03  0.93309417253E+02 0.  0.
         23    2    1    2    0    0 -0.10728200224E+03 -0.22947210062E+03 -0.12340779372E+03  0.29486102845E+03  0.86871569470E+02 0.  0.
        -13    1    4    4    0    0 -0.47552415189E+02 -0.18237478417E+03 -0.66482101781E+02  0.19985410666E+03  0.00000000000E+00 0. -1.
         13    1    4    4    0    0 -0.59729587052E+02 -0.47097316452E+02 -0.56925691942E+02  0.95006921797E+02  0.00000000000E+00 0.  1.
        -13    1    3    3    0    0 -0.32283916711E+02  0.50743201767E+02 -0.30179664269E+03  0.30773094961E+03  0.00000000000E+00 0.  1.
         13    1    3    3    0    0 -0.57177219421E+02  0.23798614909E+02 -0.73324062936E+02  0.95979303486E+02  0.00000000000E+00 0. -1.
         21    1    1    2  503  501  0.52766518296E+02  0.91146436402E+02  0.11559751053E+03  0.15638018660E+03  0.00000000000E+00 0.  1.
          2    1    1    2  501    0  0.14397662008E+03  0.63783847539E+02 -0.13339360183E+02  0.15803665672E+03  0.00000000000E+00 0. -1.
<scales pt_clust_5="13000.00000" pt_clust_6="13000.00000" pt_clust_7="13000.00000" pt_clust_8="13000.00000" pt_clust_9="105.31846" pt_clust_10="188.96572"></scales>
<clustering>
<clus scale="   86.872">  5  6 -1 -1</clus>
<clus scale="   93.309">  7  8 -1 -1</clus>
<clus scale="  105.318">  1  9  2 -1</clus>
<clus scale="  150.621">  2  7  1 -1</clus>
<clus scale="  188.966">  1 10  2 -1</clus>
<clus scale="  105.318">  1  5  2 -1</clus>
</clustering>
</event>
<event>
10    2  0.1671105E-006  0.2462971E+03  0.7546771E-02  0.1151121E+00
         21   -1    0    0  503  502  0.00000000000E+00  0.00000000000E+00  0.86491098004E+02  0.86491098004E+02  0.00000000000E+00 0. -1.
          2   -1    0    0  502    0 -0.00000000000E+00 -0.00000000000E+00 -0.10904876987E+04  0.10904876987E+04  0.00000000000E+00 0. -1.
         23    2    1    2    0    0  0.89032721749E+01 -0.53487541863E+02 -0.35553022696E+03  0.37032839519E+03  0.88324360209E+02 0.  0.
         23    2    1    2    0    0  0.95846943460E+02 -0.17702196789E+03 -0.31161706235E+03  0.38370763717E+03  0.97994609993E+02 0.  0.
        -11    1    3    3    0    0  0.37759388799E+02 -0.45974610075E+02 -0.31163657341E+03  0.31726454277E+03  0.00000000000E+00 0. -1.
         11    1    3    3    0    0 -0.28856116624E+02 -0.75129317881E+01 -0.43893653554E+02  0.53063852413E+02  0.00000000000E+00 0.  1.
        -11    1    4    4    0    0  0.73065953944E+02 -0.18437017756E+03 -0.26177922641E+03  0.32841948690E+03  0.00000000000E+00 0. -1.
         11    1    4    4    0    0  0.22780989516E+02  0.73482096657E+01 -0.49837835939E+02  0.55288150265E+02  0.00000000000E+00 0.  1.
         21    1    1    2  503  501 -0.75286694581E+02  0.12265868929E+03 -0.19309200972E+03  0.24082725065E+03  0.00000000000E+00 0. -1.
          2    1    1    2  501    0 -0.29463521055E+02  0.10785082047E+03 -0.14375730168E+03  0.18211551371E+03  0.00000000000E+00 0. -1.
<scales pt_clust_5="13000.00000" pt_clust_6="13000.00000" pt_clust_7="13000.00000" pt_clust_8="13000.00000" pt_clust_9="31.85052" pt_clust_10="228.83450"></scales>
<clustering>
<clus scale="   31.851">  9 10 -1 -1</clus>
<clus scale="   88.324">  5  6 -1 -1</clus>
<clus scale="   97.995">  7  8 -1 -1</clus>
<clus scale="  103.641">  2  5  1 -1</clus>
<clus scale="  228.835">  1  9  2 -1</clus>
<clus scale="  228.835">  1  5  2 -1</clus>
</clustering>
</event>
<event>
10    2  0.1671105E-006  0.1137649E+03  0.7546771E-02  0.1254936E+00
         21   -1    0    0  503  502  0.00000000000E+00  0.00000000000E+00  0.22438592585E+02  0.22438592585E+02  0.00000000000E+00 0. -1.
         -3   -1    0    0    0  501 -0.00000000000E+00 -0.00000000000E+00 -0.10694961704E+04  0.10694961704E+04  0.00000000000E+00 0.  1.
         23    2    1    2    0    0 -0.24711111029E+02 -0.45030598870E+02 -0.46028871993E+03  0.47198815793E+03  0.90932511689E+02 0.  0.
         23    2    1    2    0    0  0.20054593067E+02  0.93381965543E+02 -0.31335920253E+03  0.34085024443E+03  0.94140964100E+02 0.  0.
        -13    1    3    3    0    0  0.34542355544E+01 -0.67195856814E+02 -0.26301327894E+03  0.27148333248E+03  0.00000000000E+00 0.  1.
         13    1    3    3    0    0 -0.28165346583E+02  0.22165257943E+02 -0.19727544099E+03  0.20050482544E+03  0.00000000000E+00 0. -1.
        -13    1    4    4    0    0  0.18035564422E+02  0.40288015194E+02 -0.32004001059E+02  0.54522122446E+02  0.00000000000E+00 0. -1.
         13    1    4    4    0    0  0.20190286455E+01  0.53093950350E+02 -0.28135520147E+03  0.28632812198E+03  0.00000000000E+00 0.  1.
         21    1    1    2  503  501  0.11660533823E+02 -0.18975262472E+02 -0.70015221352E+02  0.73472170622E+02  0.00000000000E+00 0. -1.
         -3    1    1    2    0  502 -0.70040158612E+01 -0.29376104200E+02 -0.20339443399E+03  0.20562419000E+03  0.00000000000E+00 0.  1.
<scales pt_clust_5="13000.00000" pt_clust_6="13000.00000" pt_clust_7="13000.00000" pt_clust_8="13000.00000" pt_clust_9="22.27170" pt_clust_10="31.05916"></scales>
<clustering>
<clus scale="   22.272">  1  9  2 -1</clus>
<clus scale="   31.059">  1 10  2 -1</clus>
<clus scale="   90.933">  5  6 -1 -1</clus>
<clus scale="   94.141">  7  8 -1 -1</clus>
<clus scale="  111.125">  2  5  1 -1</clus>
<clus scale="   22.272">  1  5  2 -1</clus>
</clustering>
</event>
<event>
10    2  0.1671105E-006  0.1668680E+03  0.7546771E-02  0.1201376E+00
         21   -1    0    0  501  502  0.00000000000E+00  0.00000000000E+00  0.26543755950E+03  0.26543755950E+03  0.00000000000E+00 0. -1.
          2   -1    0    0  503    0 -0.00000000000E+00 -0.00000000000E+00 -0.58865652820E+03  0.58865652820E+03  0.00000000000E+00 0. -1.
         23    2    1    2    0    0 -0.29639331370E+02 -0.32017498046E+02 -0.11494135233E+03  0.15540997975E+03  0.95063858459E+02 0.  0.
         23    2    1    2    0    0  0.33360197638E+02  0.19649955207E+03 -0.37528544917E+03  0.43511830556E+03  0.93615141520E+02 0.  0.
        -11    1    3    3    0    0 -0.62985024111E+02 -0.32482430265E+02 -0.84198936692E+02  0.11005308936E+03  0.00000000000E+00 0.  1.
         11    1    3    3    0    0  0.33345692741E+02  0.46493221958E+00 -0.30742415641E+02  0.45356890389E+02  0.00000000000E+00 0. -1.
        -13    1    4    4    0    0 -0.21119971166E+02  0.13808133984E+03 -0.25434626766E+03  0.29018017414E+03  0.00000000000E+00 0.  1.
         13    1    4    4    0    0  0.54480168804E+02  0.58418212234E+02 -0.12093918151E+03  0.14493813142E+03  0.00000000000E+00 0. -1.
         21    1    1    2  503  502  0.24400634851E+01 -0.29733923573E+02 -0.17819997628E+02  0.34750718501E+02  0.00000000000E+00 0.  1.
          2    1    1    2  501    0 -0.61609297532E+01 -0.13474813045E+03  0.18482783042E+03  0.22881508389E+03  0.00000000000E+00 0. -1.
<scales pt_clust_5="13000.00000" pt_clust_6="13000.00000" pt_clust_7="13000.00000" pt_clust_8="13000.00000" pt_clust_9="29.83388" pt_clust_10="138.13443"></scales>
<clustering>
<clus scale="   29.834">  2  9  1 -1</clus>
<clus scale="   93.615">  7  8 -1 -1</clus>
<clus scale="   95.064">  5  6 -1 -1</clus>
<clus scale="  106.841">  2  5  1 -1</clus>
<clus scale="  138.134">  1 10  2 -1</clus>
<clus scale="  138.134">  1  5  2 -1</clus>
</clustering>
</event>
<event>
10    2  0.1671105E-006  0.1273119E+03  0.7546771E-02  0.1232473E+00
          2   -1    0    0  502    0 -0.00000000000E+00  0.00000000000E+00  0.37421412754E+03  0.37421412754E+03  0.00000000000E+00 0. -1.
         21   -1    0    0  503  502  0.00000000000E+00 -0.00000000000E+00 -0.13033688596E+03  0.13033688596E+03  0.00000000000E+00 0.  1.
         23    2    1    2    0    0 -0.49290870039E+02  0.61380996161E+02  0.20967974174E+03  0.24095999361E+03  0.88875800209E+02 0.  0.
         23    2    1    2    0    0  0.86814524742E+02 -0.11358673815E+03 -0.23256699437E+02  0.17179867480E+03  0.92386155919E+02 0.  0.
        -11    1    3    3    0    0 -0.26560436985E+02  0.20984207360E+02  0.90405190793E+01  0.35036049386E+02  0.00000000000E+00 0.  1.
         11    1    3    3    0    0 -0.22730433054E+02  0.40396788801E+02  0.20063922266E+03  0.20592394422E+03  0.00000000000E+00 0. -1.
        -13    1    4    4    0    0  0.20310451443E+02 -0.64085891065E+02 -0.50991670416E+02  0.84378115192E+02  0.00000000000E+00 0.  1.
         13    1    4    4    0    0  0.66504073300E+02 -0.49500847086E+02  0.27734970979E+02  0.87420559612E+02  0.00000000000E+00 0. -1.
         21    1    1    2  503  501 -0.26825756363E+02  0.23544349252E+02  0.13330965339E+02  0.38100816566E+02  0.00000000000E+00 0.  1.
          2    1    1    2  501    0 -0.10697898340E+02  0.28661392739E+02  0.44123233932E+02  0.53691528524E+02  0.00000000000E+00 0. -1.
<scales pt_clust_5="13000.00000" pt_clust_6="13000.00000" pt_clust_7="13000.00000" pt_clust_8="13000.00000" pt_clust_9="29.15025" pt_clust_10="71.58809"></scales>
<clustering>
<clus scale="   29.150">  9 10 -1 -1</clus>
<clus scale="   71.588">  2  9  1 -1</clus>
<clus scale="   88.876">  5  6 -1 -1</clus>
<clus scale="   92.386">  7  8 -1 -1</clus>
<clus scale="  124.788">  1  5  2 -1</clus>
<clus scale="   71.588">  2  5  1 -1</clus>
</clustering>
</event>
<event>
10    2  0.1671105E-006  0.9274916E+02  0.7546771E-02  0.1299678E+00
         21   -1    0    0  503  502  0.00000000000E+00  0.00000000000E+00  0.27797878635E+03  0.27797878635E+03  0.00000000000E+00 0. -1.
          1   -1    0    0  502    0 -0.00000000000E+00 -0.00000000000E+00 -0.23229948822E+03  0.23229948822E+03  0.00000000000E+00 0. -1.
         23    2    1    2    0    0  0.13499807656E+02  0.12893937679E+02 -0.19113399260E+03  0.21012212860E+03  0.85267856570E+02 0.  0.
         23    2    1    2    0    0  0.40711719294E+02 -0.47578345174E+02  0.11806430398E+03  0.16165914884E+03  0.90957998612E+02 0.  0.
        -11    1    3    3    0    0 -0.22835162161E+02  0.33907027684E+02 -0.61371743573E+02  0.73740233703E+02  0.00000000000E+00 0.  1.
         11    1    3    3    0    0  0.36334969816E+02 -0.21013090005E+02 -0.12976224903E+03  0.13638189490E+03  0.00000000000E+00 0. -1.
        -13    1    4    4    0    0  0.63812957480E+02 -0.45321390671E+02  0.58451003093E+02  0.97686446129E+02  0.00000000000E+00 0. -1.
         13    1    4    4    0    0 -0.23101238186E+02 -0.22569545030E+01  0.59613300884E+02  0.63972702707E+02  0.00000000000E+00 0.  1.
         21    1    1    2  503  501 -0.27643402994E+02  0.38538337943E+01  0.67575449956E+02  0.73112592628E+02  0.00000000000E+00 0. -1.
          1    1    1    2  501    0 -0.26568123956E+02  0.30830573701E+02  0.51173536790E+02  0.65384404508E+02  0.00000000000E+00 0. -1.
<scales pt_clust_5="13000.00000" pt_clust_6="13000.00000" pt_clust_7="13000.00000" pt_clust_8="13000.00000" pt_clust_9="25.36545" pt_clust_10="71.27479"></scales>
<clustering>
<clus scale="   25.365">  9 10 -1 -1</clus>
<clus scale="   71.275">  1  9  2 -1</clus>
<clus scale="   85.268">  5  6 -1 -1</clus>
<clus scale="   87.176">  2  5  1 -1</clus>
<clus scale="   90.958">  7  8 -1 -1</clus>
<clus scale="   71.275">  1  5  2 -1</clus>
</clustering>
</event>
<event>
10    2  0.1671105E-006  0.1207300E+03  0.7546771E-02  0.1243185E+00
         21   -1    0    0  501  502  0.00000000000E+00  0.00000000000E+00  0.42250482200E+02  0.42250482200E+02  0.00000000000E+00 0. -1.
          1   -1    0    0  503    0 -0.00000000000E+00 -0.00000000000E+00 -0.63630721399E+03  0.63630721399E+03  0.00000000000E+00 0. -1.
         23    2    1    2    0    0  0.72091055700E+02 -0.88620209958E+01 -0.18442208999E+03  0.21732368809E+03  0.89120269304E+02 0.  0.
         23    2    1    2    0    0 -0.84410072232E+02  0.63222382305E+01 -0.20201266027E+03  0.23802574493E+03  0.93177837235E+02 0.  0.
        -13    1    3    3    0    0  0.79756985851E+02  0.21929737117E+02 -0.14218216824E+03  0.16449273275E+03  0.00000000000E+00 0.  1.
         13    1    3    3    0    0 -0.76659301515E+01 -0.30791758113E+02 -0.42239921754E+02  0.52830955343E+02  0.00000000000E+00 0. -1.
        -13    1    4    4    0    0 -0.90140122421E+02 -0.19242435501E+02 -0.18527781176E+03  0.20693810796E+03  0.00000000000E+00 0. -1.
         13    1    4    4    0    0  0.57300501890E+01  0.25564673731E+02 -0.16734848506E+02  0.31087636975E+02  0.00000000000E+00 0.  1.
         21    1    1    2  503  502 -0.27005674273E+02 -0.17395488943E+02 -0.13028336186E+03  0.13418518494E+03  0.00000000000E+00 0.  1.
          1    1    1    2  501    0  0.39324690806E+02  0.19935271708E+02 -0.77338619671E+02  0.89023078231E+02  0.00000000000E+00 0. -1.
<scales pt_clust_5="13000.00000" pt_clust_6="13000.00000" pt_clust_7="13000.00000" pt_clust_8="13000.00000" pt_clust_9="32.12335" pt_clust_10="38.82014"></scales>
<clustering>
<clus scale="   32.123">  2  9  1 -1</clus>
<clus scale="   38.820">  1 10  2 -1</clus>
<clus scale="   89.120">  5  6 -1 -1</clus>
<clus scale="   93.178">  7  8 -1 -1</clus>
<clus scale="  117.627">  2  5  1 -1</clus>
<clus scale="   38.820">  1  5  2 -1</clus>
</clustering>
</event>
<event>
10    2  0.1671105E-006  0.2340981E+03  0.7546771E-02  0.1123906E+00
         21   -1    0    0  503  502  0.00000000000E+00  0.00000000000E+00  0.32069960210E+03  0.32069960210E+03  0.00000000000E+00 0.  1.
         -2   -1    0    0    0  501 -0.00000000000E+00 -0.00000000000E+00 -0.49169302174E+03  0.49169302174E+03  0.00000000000E+00 0.  1.
         23    2    1    2    0    0 -0.24201733946E+03 -0.96581840583E+02 -0.16836484521E+03  0.32305624953E+03  0.90100914143E+02 0.  0.
         23    2    1    2    0    0  0.16887335653E+03 -0.11142919820E+03  0.32453005706E+02  0.22455589626E+03  0.91855735848E+02 0.  0.
        -11    1    4    4    0    0  0.14524793776E+03 -0.12757794750E+03  0.31885458618E+02  0.19593309721E+03  0.00000000000E+00 0.  1.
         11    1    4    4    0    0  0.23625418769E+02  0.16148749293E+02  0.56754708844E+00  0.28622799050E+02  0.00000000000E+00 0. -1.
        -11    1    3    3    0    0 -0.77036617037E+02  0.12264103156E+02 -0.50608479752E+02  0.92985304288E+02  0.00000000000E+00 0. -1.
         11    1    3    3    0    0 -0.16498072243E+03 -0.10884594374E+03 -0.11775636546E+03  0.23007094525E+03  0.00000000000E+00 0.  1.
         21    1    1    2  503  501  0.31864065717E+02 -0.15239098655E+02 -0.71128330091E+01  0.36029726689E+02  0.00000000000E+00 0.  1.
         -2    1    1    2    0  502  0.41279917216E+02  0.22325013744E+03 -0.27968747128E+02  0.22875075136E+03  0.00000000000E+00 0.  1.
<scales pt_clust_5="13000.00000" pt_clust_6="13000.00000" pt_clust_7="13000.00000" pt_clust_8="13000.00000" pt_clust_9="35.32066" pt_clust_10="224.30015"></scales>
<clustering>
<clus scale="   35.321">  1  9  2 -1</clus>
<clus scale="   90.101">  7  8 -1 -1</clus>
<clus scale="   91.856">  5  6 -1 -1</clus>
<clus scale="  224.300">  1 10  2 -1</clus>
<clus scale="  233.415">  2  7  1 -1</clus>
<clus scale="   35.321">  1  5  2 -1</clus>
</clustering>
</event>
<event>
10    2  0.1671105E-006  0.1379343E+03  0.7546771E-02  0.1216723E+00
          1   -1    0    0  502    0 -0.00000000000E+00  0.00000000000E+00  0.99391058860E+03  0.99391058860E+03  0.00000000000E+00 0. -1.
         21   -1    0    0  503  502  0.00000000000E+00 -0.00000000000E+00 -0.59103521095E+02  0.59103521095E+02  0.00000000000E+00 0. -1.
         23    2    1    2    0    0  0.17751735628E+02 -0.10893131995E+03  0.42144181301E+03  0.44576840331E+03  0.94419865774E+02 0.  0.
         23    2    1    2    0    0  0.10808068648E+03  0.74336780555E+02  0.33923578330E+03  0.37514996684E+03  0.91919471364E+02 0.  0.
        -11    1    4    4    0    0  0.53684857784E+02 -0.48944335835E+01  0.64340064141E+02  0.83938449409E+02  0.00000000000E+00 0.  1.
         11    1    4    4    0    0  0.54395828699E+02  0.79231214139E+02  0.27489571916E+03  0.29121151743E+03  0.00000000000E+00 0. -1.
        -13    1    3    3    0    0 -0.24036392884E+02  0.21949409006E+01  0.45218801376E+02  0.51257252622E+02  0.00000000000E+00 0.  1.
         13    1    3    3    0    0  0.41788128511E+02 -0.11112626085E+03  0.37622301163E+03  0.39451115068E+03  0.00000000000E+00 0. -1.
         21    1    1    2  503  501 -0.70304676676E+01  0.30369866712E+02  0.58345160664E+02  0.66150692004E+02  0.00000000000E+00 0.  1.
          1    1    1    2  501    0 -0.11880195444E+03  0.42246726788E+01  0.11578431054E+03  0.16594504755E+03  0.00000000000E+00 0. -1.
<scales pt_clust_5="13000.00000" pt_clust_6="13000.00000" pt_clust_7="13000.00000" pt_clust_8="13000.00000" pt_clust_9="31.17301" pt_clust_10="123.32038"></scales>
<clustering>
<clus scale="   31.173">  2  9  1 -1</clus>
<clus scale="   91.919">  5  6 -1 -1</clus>
<clus scale="   94.420">  7  8 -1 -1</clus>
<clus scale="  123.320">  2 10  1 -1</clus>
<clus scale="  136.235">  2  5  1 -1</clus>
<clus scale="   31.173">  2  5  1 -1</clus>
</clustering>
</event>
<event>
10    2  0.1671105E-006  0.1228907E+03  0.7546771E-02  0.1238724E+00
         21   -1    0    0  503  502  0.00000000000E+00  0.00000000000E+00  0.60979039886E+03  0.60979039886E+03  0.00000000000E+00 0. -1.
          2   -1    0    0  502    0 -0.00000000000E+00 -0.00000000000E+00 -0.92568020372E+02  0.92568020372E+02  0.00000000000E+00 0. -1.
         23    2    1    2    0    0 -0.15589065199E+02 -0.67947532806E+02  0.69898930090E+01  0.12340578296E+03  0.10158859432E+03 0.  0.
         23    2    1    2    0    0 -0.91310187173E+02  0.72135398574E+02  0.22302765119E+03  0.27093639977E+03  0.10061875330E+03 0.  0.
        -13    1    4    4    0    0 -0.92042627281E+02  0.39556406413E+02  0.21526788022E+03  0.23743802303E+03  0.00000000000E+00 0. -1.
         13    1    4    4    0    0  0.73244010800E+00  0.32578992161E+02  0.77597709691E+01  0.33498376740E+02  0.00000000000E+00 0.  1.
        -13    1    3    3    0    0  0.38440197604E+02 -0.40908518072E+02  0.23372647523E+02  0.60806548125E+02  0.00000000000E+00 0.  1.
         13    1    3    3    0    0 -0.54029262803E+02 -0.27039014735E+02 -0.16382754514E+02  0.62599234838E+02  0.00000000000E+00 0. -1.
         21    1    1    2  503  501  0.33558687093E+02  0.10188072236E+02  0.11658721521E+03  0.12174794062E+03  0.00000000000E+00 0. -1.
          2    1    1    2  501    0  0.73340565279E+02 -0.14375938004E+02  0.17061761907E+03  0.18626829587E+03  0.00000000000E+00 0. -1.
<scales pt_clust_5="13000.00000" pt_clust_6="13000.00000" pt_clust_7="13000.00000" pt_clust_8="13000.00000" pt_clust_9="21.02936" pt_clust_10="111.29863"></scales>
<clustering>
<clus scale="   21.029">  9 10 -1 -1</clus>
<clus scale="  100.619">  5  6 -1 -1</clus>
<clus scale="  101.589">  7  8 -1 -1</clus>
<clus scale="  111.299">  1  9  2 -1</clus>
<clus scale="  122.090">  1  5  2 -1</clus>
<clus scale="  111.299">  1  5  2 -1</clus>
</clustering>
</event>
<event>
10    2  0.1671105E-006  0.1852952E+03  0.7546771E-02  0.1163096E+00
         21   -1    0    0  501  502  0.00000000000E+00  0.00000000000E+00  0.24060077055E+03  0.24060077055E+03  0.00000000000E+00 0. -1.
          1   -1    0    0  503    0 -0.00000000000E+00 -0.00000000000E+00 -0.14481321970E+04  0.14481321970E+04  0.00000000000E+00 0. -1.
         23    2    1    2    0    0  0.22861115756E+02  0.16901982712E+03 -0.91446238087E+03  0.93457245488E+03  0.89966075951E+02 0.  0.
         23    2    1    2    0    0 -0.23130807495E+02 -0.14361833792E+03 -0.48624679628E+03  0.51594375948E+03  0.92740254513E+02 0.  0.
        -11    1    4    4    0    0 -0.22209322476E+02 -0.17879418074E+02 -0.25182374389E+02  0.38040499148E+02  0.00000000000E+00 0.  1.
         11    1    4    4    0    0 -0.92148501868E+00 -0.12573891985E+03 -0.46106442189E+03  0.47790326033E+03  0.00000000000E+00 0. -1.
        -13    1    3    3    0    0  0.24257247124E+02  0.43716811343E+01 -0.70133570993E+02  0.74338707375E+02  0.00000000000E+00 0. -1.
         13    1    3    3    0    0 -0.13961313680E+01  0.16464814598E+03 -0.84432880987E+03  0.86023374750E+03  0.00000000000E+00 0.  1.
         21    1    1    2  503  502  0.13601048842E+02 -0.47427523828E+02  0.64925732249E+01  0.49764566241E+02  0.00000000000E+00 0. -1.
          1    1    1    2  501    0 -0.13331357103E+02  0.22026034631E+02  0.18668517747E+03  0.18845218696E+03  0.00000000000E+00 0. -1.
<scales pt_clust_5="13000.00000" pt_clust_6="13000.00000" pt_clust_7="13000.00000" pt_clust_8="13000.00000" pt_clust_9="36.33634" pt_clust_10="25.74629"></scales>
<clustering>
<clus scale="   25.746">  1 10  2 -1</clus>
<clus scale="   36.336">  1  9  2 -1</clus>
<clus scale="   89.966">  7  8 -1 -1</clus>
<clus scale="   92.740">  5  6 -1 -1</clus>
<clus scale="  183.922">  2  7  1 -1</clus>
<clus scale="   25.746">  1  5  2 -1</clus>
</clustering>
</event>
<event>
10    2  0.1671105E-006  0.2975095E+03  0.7546771E-02  0.1102645E+00
         21   -1    0    0  501  502  0.00000000000E+00  0.00000000000E+00  0.41784317869E+03  0.41784317869E+03  0.00000000000E+00 0.  1.
         -1   -1    0    0    0  501 -0.00000000000E+00 -0.00000000000E+00 -0.47821778327E+03  0.47821778327E+03  0.00000000000E+00 0.  1.
         23    2    1    2    0    0  0.10607437156E+03  0.13458020834E+03 -0.18338787541E+03  0.26755150308E+03  0.92677339071E+02 0.  0.
         23    2    1    2    0    0  0.98516664322E+02  0.18214856445E+03  0.69869383410E-01  0.22649213897E+03  0.91733589561E+02 0.  0.
        -11    1    3    3    0    0  0.11851344299E+03  0.95789582815E+02 -0.12936309155E+03  0.19988969408E+03  0.00000000000E+00 0.  1.
         11    1    3    3    0    0 -0.12439071428E+02  0.38790625525E+02 -0.54024783857E+02  0.67661809001E+02  0.00000000000E+00 0. -1.
        -13    1    4    4    0    0  0.76134563284E+02  0.52380038191E+02  0.16204331266E+02  0.93822814278E+02  0.00000000000E+00 0. -1.
         13    1    4    4    0    0  0.22382101038E+02  0.12976852626E+03 -0.16134461883E+02  0.13266932469E+03  0.00000000000E+00 0.  1.
         21    1    1    2  503  502 -0.39810874190E+02 -0.70421823853E+02  0.55476530317E+02  0.98090694740E+02  0.00000000000E+00 0. -1.
         -1    1    1    2    0  503 -0.16478016169E+03 -0.24630694893E+03  0.67466871127E+02  0.30392662516E+03  0.00000000000E+00 0.  1.
<scales pt_clust_5="13000.00000" pt_clust_6="13000.00000" pt_clust_7="13000.00000" pt_clust_8="13000.00000" pt_clust_9="34.37327" pt_clust_10="290.56013"></scales>
<clustering>
<clus scale="   34.373">  9 10 -1 -1</clus>
<clus scale="   91.734">  7  8 -1 -1</clus>
<clus scale="   92.677">  5  6 -1 -1</clus>
<clus scale="  194.815">  2  5  1 -1</clus>
<clus scale="  290.560">  1  9  2 -1</clus>
<clus scale="  290.560">  1  5  2 -1</clus>
</clustering>
</event>
<event>
10    2  0.1671105E-006  0.2513322E+03  0.7546771E-02  0.1112663E+00
         -1   -1    0    0    0  501 -0.00000000000E+00  0.00000000000E+00  0.64526028359E+02  0.64526028359E+02  0.00000000000E+00 0.  1.
         21   -1    0    0  501  502  0.00000000000E+00 -0.00000000000E+00 -0.13513577513E+04  0.13513577513E+04  0.00000000000E+00 0.  1.
         23    2    1    2    0    0 -0.27209906705E+02 -0.25954493773E+03 -0.50131156471E+03  0.57223753642E+03  0.89658013881E+02 0.  0.
         23    2    1    2    0    0  0.33006819459E+02  0.19460340415E+03 -0.69173290915E+03  0.72534333104E+03  0.93105291188E+02 0.  0.
        -11    1    4    4    0    0 -0.52284801840E+01  0.33565397410E+02 -0.37943524830E+02  0.50928223853E+02  0.00000000000E+00 0. -1.
         11    1    4    4    0    0  0.38235299643E+02  0.16103800674E+03 -0.65378938432E+03  0.67441510719E+03  0.00000000000E+00 0.  1.
        -11    1    3    3    0    0  0.12035736591E+02 -0.21945265917E+03 -0.40383553947E+03  0.45976893273E+03  0.00000000000E+00 0.  1.
         11    1    3    3    0    0 -0.39245643296E+02 -0.40092278561E+02 -0.97476025245E+02  0.11246860369E+03  0.00000000000E+00 0. -1.
         21    1    1    2  503  502  0.12761051302E+02  0.25937119171E+02 -0.36785910835E+02  0.46784418530E+02  0.00000000000E+00 0.  1.
         -1    1    1    2    0  503 -0.18557964055E+02  0.39004414412E+02 -0.57001338204E+02  0.71518493626E+02  0.00000000000E+00 0.  1.
<scales pt_clust_5="13000.00000" pt_clust_6="13000.00000" pt_clust_7="13000.00000" pt_clust_8="13000.00000" pt_clust_9="25.19463" pt_clust_10="72.10781"></scales>
<clustering>
<clus scale="   25.195">  9 10 -1 -1</clus>
<clus scale="   72.108">  2  9  1 -1</clus>
<clus scale="   89.658">  7  8 -1 -1</clus>
<clus scale="   93.105">  5  6 -1 -1</clus>
<clus scale="  250.076">  1  7  2 -1</clus>
<clus scale="   72.108">  2  5  1 -1</clus>
</clustering>
</event>
<event>
10    2  0.1671105E-006  0.1020267E+03  0.7546771E-02  0.1276480E+00
          2   -1    0    0  503    0 -0.00000000000E+00  0.00000000000E+00  0.85316768518E+02  0.85316768518E+02  0.00000000000E+00 0. -1.
         21   -1    0    0  501  502  0.00000000000E+00 -0.00000000000E+00 -0.68159543714E+03  0.68159543714E+03  0.00000000000E+00 0.  1.
         23    2    1    2    0    0  0.40478615542E+02  0.15722758706E+02  0.25326423534E+02  0.10483877063E+03  0.92000090436E+02 0.  0.
         23    2    1    2    0    0 -0.17736165469E+02 -0.67062443740E+02 -0.16545668328E+03  0.20124076763E+03  0.91159144292E+02 0.  0.
        -11    1    4    4    0    0  0.85232794474E+01 -0.73951240372E+02 -0.70671885331E+02  0.10264476422E+03  0.00000000000E+00 0.  1.
         11    1    4    4    0    0 -0.26259444916E+02  0.68887966322E+01 -0.94784797951E+02  0.98596003413E+02  0.00000000000E+00 0. -1.
        -11    1    3    3    0    0 -0.13613731192E+01  0.20174185060E+02 -0.29477257416E+02  0.35745765965E+02  0.00000000000E+00 0.  1.
         11    1    3    3    0    0  0.41839988661E+02 -0.44514263541E+01  0.54803680950E+02  0.69093004664E+02  0.00000000000E+00 0. -1.
         21    1    1    2  503  502 -0.27289501303E+02  0.21542083352E+02 -0.21224517738E+03  0.21507392579E+03  0.00000000000E+00 0.  1.
          2    1    1    2  501    0  0.45470512292E+01  0.29797601682E+02 -0.24390323149E+03  0.24575874160E+03  0.00000000000E+00 0. -1.
<scales pt_clust_5="13000.00000" pt_clust_6="13000.00000" pt_clust_7="13000.00000" pt_clust_8="13000.00000" pt_clust_9="43.96386" pt_clust_10="30.14254"></scales>
<clustering>
<clus scale="   30.143">  2 10  1 -1</clus>
<clus scale="   43.964">  2  9  1 -1</clus>
<clus scale="   91.159">  5  6 -1 -1</clus>
<clus scale="   92.000">  7  8 -1 -1</clus>
<clus scale="  101.269">  2  5  1 -1</clus>
<clus scale="   30.143">  2  5  1 -1</clus>
</clustering>
</event>
<event>
10    2  0.1671105E-006  0.3366914E+03  0.7546771E-02  0.1068260E+00
          1   -1    0    0  502    0 -0.00000000000E+00  0.00000000000E+00  0.97245839134E+03  0.97245839134E+03  0.00000000000E+00 0. -1.
         21   -1    0    0  503  502  0.00000000000E+00 -0.00000000000E+00 -0.25247654910E+03  0.25247654910E+03  0.00000000000E+00 0. -1.
         23    2    1    2    0    0  0.13905124256E+03 -0.26227239134E+03  0.48770060550E+03  0.57840985889E+03  0.92650034749E+02 0.  0.
         23    2    1    2    0    0 -0.13268073439E+03  0.35356688123E+03  0.32954912390E+03  0.50999072392E+03  0.94202954528E+02 0.  0.
        -13    1    4    4    0    0 -0.13208947158E+03  0.22880367803E+03  0.23238596614E+03  0.35185506795E+03  0.00000000000E+00 0. -1.
         13    1    4    4    0    0 -0.59126281155E+00  0.12476320320E+03  0.97163157761E+02  0.15813565597E+03  0.00000000000E+00 0.  1.
        -13    1    3    3    0    0  0.13799265074E+03 -0.17219517524E+03  0.35620494601E+03  0.41901684166E+03  0.00000000000E+00 0. -1.
         13    1    3    3    0    0  0.10585918270E+01 -0.90077216099E+02  0.13149565949E+03  0.15939301723E+03  0.00000000000E+00 0.  1.
         21    1    1    2  503  501  0.95316888747E+00 -0.52181897413E+02 -0.73629009161E+02  0.90250152014E+02  0.00000000000E+00 0. -1.
          1    1    1    2  501    0 -0.73236770610E+01 -0.39112592476E+02 -0.23638878006E+02  0.46284205613E+02  0.00000000000E+00 0. -1.
<scales pt_clust_5="13000.00000" pt_clust_6="13000.00000" pt_clust_7="13000.00000" pt_clust_8="13000.00000" pt_clust_9="24.77926" pt_clust_10="95.81539"></scales>
<clustering>
<clus scale="   24.779">  9 10 -1 -1</clus>
<clus scale="   92.650">  7  8 -1 -1</clus>
<clus scale="   94.203">  5  6 -1 -1</clus>
<clus scale="   95.815">  2  9  1 -1</clus>
<clus scale="  336.260">  1  7  2 -1</clus>
<clus scale="   95.815">  2  5  1 -1</clus>
</clustering>
</event>
<event>
10    2  0.1671105E-006  0.1035181E+03  0.7546771E-02  0.1274955E+00
          1   -1    0    0  502    0 -0.00000000000E+00  0.00000000000E+00  0.62588888125E+02  0.62588888125E+02  0.00000000000E+00 0. -1.
         21   -1    0    0  503  502  0.00000000000E+00 -0.00000000000E+00 -0.43711355152E+03  0.43711355152E+03  0.00000000000E+00 0.  1.
         23    2    1    2    0    0  0.13555792653E+02  0.51674366886E+02 -0.15765234835E+03  0.19115505408E+03  0.93978678703E+02 0.  0.
         23    2    1    2    0    0  0.68760709058E+02 -0.15128800775E+02 -0.15338219082E+03  0.19121957424E+03  0.89899462670E+02 0.  0.
        -11    1    3    3    0    0  0.28958516393E+02  0.65416795454E+02 -0.15451898147E+03  0.17027644709E+03  0.00000000000E+00 0.  1.
         11    1    3    3    0    0 -0.15402723741E+02 -0.13742428568E+02 -0.31333668789E+01  0.20878606984E+02  0.00000000000E+00 0. -1.
        -11    1    4    4    0    0  0.79921426614E+02 -0.38182602842E+02 -0.11920581368E+03  0.14851051009E+03  0.00000000000E+00 0.  1.
         11    1    4    4    0    0 -0.11160717556E+02  0.23053802067E+02 -0.34176377137E+02  0.42709064147E+02  0.00000000000E+00 0. -1.
         21    1    1    2  503  501 -0.37503018222E+02 -0.62928844487E+01 -0.61602193908E+01  0.38523046004E+02  0.00000000000E+00 0. -1.
          1    1    1    2  501    0 -0.44813483489E+02 -0.30252681662E+02 -0.57329904841E+02  0.78804765333E+02  0.00000000000E+00 0. -1.
<scales pt_clust_5="13000.00000" pt_clust_6="13000.00000" pt_clust_7="13000.00000" pt_clust_8="13000.00000" pt_clust_9="33.78810" pt_clust_10="98.66524"></scales>
<clustering>
<clus scale="   33.788">  9 10 -1 -1</clus>
<clus scale="   89.899">  7  8 -1 -1</clus>
<clus scale="   93.979">  5  6 -1 -1</clus>
<clus scale="   98.665">  2  9  1 -1</clus>
<clus scale="   99.829">  2  7  1 -1</clus>
<clus scale="   98.665">  2  5  1 -1</clus>
</clustering>
</event>
<event>
10    2  0.1671105E-006  0.9968405E+02  0.7546771E-02  0.1284475E+00
         -2   -1    0    0    0  501 -0.00000000000E+00  0.00000000000E+00  0.19433234884E+03  0.19433234884E+03  0.00000000000E+00 0.  1.
         21   -1    0    0  501  502  0.00000000000E+00 -0.00000000000E+00 -0.12710541394E+03  0.12710541394E+03  0.00000000000E+00 0. -1.
         23    2    1    2    0    0  0.72566416410E+01 -0.15416596353E+02  0.11885525894E+03  0.15058148833E+03  0.90872887910E+02 0.  0.
         23    2    1    2    0    0 -0.47645104100E+02  0.10243279469E+02 -0.17712155953E+02  0.11038683829E+03  0.97450258489E+02 0.  0.
        -11    1    4    4    0    0 -0.35501439664E+02  0.43628510609E+02 -0.39482464005E+02  0.68721642298E+02  0.00000000000E+00 0. -1.
         11    1    4    4    0    0 -0.12143664436E+02 -0.33385231140E+02  0.21770308052E+02  0.41665195990E+02  0.00000000000E+00 0.  1.
        -13    1    3    3    0    0 -0.10381880193E+02  0.35229118873E+02  0.33122712142E+02  0.49456933918E+02  0.00000000000E+00 0. -1.
         13    1    3    3    0    0  0.17638521834E+02 -0.50645715227E+02  0.85732546801E+02  0.10112455441E+03  0.00000000000E+00 0.  1.
         21    1    1    2  503  502  0.19745883895E+02 -0.73774634202E+01 -0.30897254387E+01  0.21304302396E+02  0.00000000000E+00 0. -1.
         -2    1    1    2    0  503  0.20642578564E+02  0.12550780304E+02 -0.30826442652E+02  0.39165133762E+02  0.00000000000E+00 0.  1.
<scales pt_clust_5="13000.00000" pt_clust_6="13000.00000" pt_clust_7="13000.00000" pt_clust_8="13000.00000" pt_clust_9="21.07906" pt_clust_10="28.57845"></scales>
<clustering>
<clus scale="   21.079">  2  9  1 -1</clus>
<clus scale="   28.578">  2 10  1 -1</clus>
<clus scale="   90.873">  7  8 -1 -1</clus>
<clus scale="   93.264">  1  7  2 -1</clus>
<clus scale="   97.450">  5  6 -1 -1</clus>
<clus scale="   21.079">  2  5  1 -1</clus>
</clustering>
</event>
<event>
10    2  0.1671105E-006  0.9561365E+02  0.7546771E-02  0.1293209E+00
         -1   -1    0    0    0  501 -0.00000000000E+00  0.00000000000E+00  0.28762092275E+03  0.28762092275E+03  0.00000000000E+00 0.  1.
         21   -1    0    0  503  502  0.00000000000E+00 -0.00000000000E+00 -0.32666289433E+03  0.32666289433E+03  0.00000000000E+00 0.  1.
         23    2    1    2    0    0 -0.23290840058E+02  0.31657421409E+02  0.13225657153E+03  0.16275865231E+03  0.86336102687E+02 0.  0.
         23    2    1    2    0    0  0.21976882170E+02  0.17856388919E+02  0.11199993344E+03  0.14796357876E+03  0.92452158297E+02 0.  0.
        -13    1    3    3    0    0 -0.13966561914E+02  0.60579620405E+02  0.10454131132E+03  0.12162993477E+03  0.00000000000E+00 0.  1.
         13    1    3    3    0    0 -0.93242781441E+01 -0.28922198996E+02  0.27715260213E+02  0.41128717538E+02  0.00000000000E+00 0. -1.
        -13    1    4    4    0    0  0.38882390250E+02  0.38324547534E+02  0.31127136215E+02  0.62845125699E+02  0.00000000000E+00 0.  1.
         13    1    4    4    0    0 -0.16905508079E+02 -0.20468158615E+02  0.80872797223E+02  0.85118453059E+02  0.00000000000E+00 0. -1.
         21    1    1    2  503  501 -0.44601333239E+02 -0.34541043436E+02 -0.19405619510E+03  0.20208950855E+03  0.00000000000E+00 0.  1.
         -1    1    1    2    0  502  0.45915291127E+02 -0.14972766892E+02 -0.89242281453E+02  0.10147207747E+03  0.00000000000E+00 0.  1.
<scales pt_clust_5="13000.00000" pt_clust_6="13000.00000" pt_clust_7="13000.00000" pt_clust_8="13000.00000" pt_clust_9="47.65632" pt_clust_10="48.29490"></scales>
<clustering>
<clus scale="   48.295">  2 10  1 -1</clus>
<clus scale="   47.656">  2  9  1 -1</clus>
<clus scale="   86.336">  5  6 -1 -1</clus>
<clus scale="   89.713">  1  5  2 -1</clus>
<clus scale="   92.452">  7  8 -1 -1</clus>
<clus scale="   48.295">  2  5  1 -1</clus>
</clustering>
</event>
<event>
10    2  0.1671105E-006  0.2065943E+03  0.7546771E-02  0.1144421E+00
          2   -1    0    0  503    0 -0.00000000000E+00  0.00000000000E+00  0.45178155840E+03  0.45178155840E+03  0.00000000000E+00 0. -1.
         21   -1    0    0  501  502  0.00000000000E+00 -0.00000000000E+00 -0.17162935184E+03  0.17162935184E+03  0.00000000000E+00 0.  1.
         23    2    1    2    0    0  0.16923254332E+03 -0.10275187810E+03  0.26844012507E+03  0.34583185378E+03  0.91334375635E+02 0.  0.
         23    2    1    2    0    0 -0.11766714376E+03  0.11356198057E+03  0.40808342228E+02  0.19101350373E+03  0.89883022091E+02 0.  0.
        -11    1    4    4    0    0 -0.42076945528E+02  0.53460574034E+02  0.62110243728E+02  0.92120490104E+02  0.00000000000E+00 0. -1.
         11    1    4    4    0    0 -0.75590198237E+02  0.60101406531E+02 -0.21301901501E+02  0.98893013626E+02  0.00000000000E+00 0.  1.
        -13    1    3    3    0    0  0.62424748660E+02 -0.72358884168E+02  0.70093316363E+02  0.11851468416E+03  0.00000000000E+00 0.  1.
         13    1    3    3    0    0  0.10680779466E+03 -0.30392993929E+02  0.19834680871E+03  0.22731716962E+03  0.00000000000E+00 0. -1.
         21    1    1    2  503  502 -0.43078253973E+02 -0.31322666980E+02 -0.45287505161E+01  0.53454232885E+02  0.00000000000E+00 0.  1.
          2    1    1    2  501    0 -0.84871455777E+01  0.20512564511E+02 -0.24567510227E+02  0.33111319841E+02  0.00000000000E+00 0. -1.
<scales pt_clust_5="13000.00000" pt_clust_6="13000.00000" pt_clust_7="13000.00000" pt_clust_8="13000.00000" pt_clust_9="52.39008" pt_clust_10="22.19903"></scales>
<clustering>
<clus scale="   22.199">  2 10  1 -1</clus>
<clus scale="   52.390">  2  9  1 -1</clus>
<clus scale="   89.883">  5  6 -1 -1</clus>
<clus scale="   91.334">  7  8 -1 -1</clus>
<clus scale="  205.957">  2  5  1 -1</clus>
<clus scale="   22.199">  2  5  1 -1</clus>
</clustering>
</event>
<event>
10    2  0.1671105E-006  0.9581471E+02  0.7546771E-02  0.1294383E+00
         21   -1    0    0  503  502  0.00000000000E+00  0.00000000000E+00  0.37861216681E+02  0.37861216681E+02  0.00000000000E+00 0. -1.
         -4   -1    0    0    0  501 -0.00000000000E+00 -0.00000000000E+00 -0.58558240221E+03  0.58558240221E+03  0.00000000000E+00 0.  1.
         23    2    1    2    0    0 -0.17812413205E+02  0.40343391703E+01 -0.26935327733E+03  0.28221908644E+03  0.82236651117E+02 0.  0.
         23    2    1    2    0    0  0.44322431035E+02 -0.44632359852E+02 -0.15793002234E+03  0.19296116674E+03  0.91299476848E+02 0.  0.
        -11    1    4    4    0    0  0.59247187804E+02 -0.26223939375E+01 -0.12218991293E+03  0.13582150432E+03  0.00000000000E+00 0. -1.
         11    1    4    4    0    0 -0.14924756770E+02 -0.42009965914E+02 -0.35740109408E+02  0.57139662418E+02  0.00000000000E+00 0.  1.
        -13    1    3    3    0    0 -0.50234352303E+02 -0.12830612734E+01 -0.13953021984E+03  0.14830313093E+03  0.00000000000E+00 0.  1.
         13    1    3    3    0    0  0.32421939098E+02  0.53174004437E+01 -0.12982305749E+03  0.13391595551E+03  0.00000000000E+00 0. -1.
         21    1    1    2  503  501  0.24550714294E+02  0.16678007630E+02 -0.48501291709E+02  0.56861839649E+02  0.00000000000E+00 0. -1.
         -4    1    1    2    0  502 -0.51060732123E+02  0.23920013051E+02 -0.71936594153E+02  0.91401526069E+02  0.00000000000E+00 0.  1.
<scales pt_clust_5="13000.00000" pt_clust_6="13000.00000" pt_clust_7="13000.00000" pt_clust_8="13000.00000" pt_clust_9="29.67985" pt_clust_10="52.52622"></scales>
<clustering>
<clus scale="   29.680">  1  9  2 -1</clus>
<clus scale="   52.526">  1 10  2 -1</clus>
<clus scale="   82.237">  7  8 -1 -1</clus>
<clus scale="   87.222">  2  7  1 -1</clus>
<clus scale="   91.299">  5  6 -1 -1</clus>
<clus scale="   29.680">  1  5  2 -1</clus>
</clustering>
</event>
<event>
10    2  0.1671105E-006  0.1600771E+03  0.7546771E-02  0.1189652E+00
         21   -1    0    0  501  502  0.00000000000E+00  0.00000000000E+00  0.29710140679E+03  0.29710140679E+03  0.00000000000E+00 0.  1.
         -3   -1    0    0    0  501 -0.00000000000E+00 -0.00000000000E+00 -0.52330332128E+03  0.52330332128E+03  0.00000000000E+00 0.  1.
         23    2    1    2    0    0  0.11244531408E+03 -0.49106220508E+02 -0.21206810560E+03  0.26114687506E+03  0.90384951145E+02 0.  0.
         23    2    1    2    0    0 -0.44349686541E+02  0.18481552627E+03 -0.21448365730E+03  0.29856488842E+03  0.83750103893E+02 0.  0.
        -11    1    4    4    0    0 -0.32745273323E+02  0.54089945511E+02 -0.12389399198E+03  0.13909599699E+03  0.00000000000E+00 0. -1.
         11    1    4    4    0    0 -0.11604413218E+02  0.13072558076E+03 -0.90589665321E+02  0.15946889143E+03  0.00000000000E+00 0.  1.
        -13    1    3    3    0    0  0.26879892118E+02 -0.43032972986E+02 -0.27716344915E+02  0.57814886835E+02  0.00000000000E+00 0. -1.
         13    1    3    3    0    0  0.85565421960E+02 -0.60732475217E+01 -0.18435176068E+03  0.20333198823E+03  0.00000000000E+00 0.  1.
         21    1    1    2  503  502  0.58748332512E+01 -0.26990014981E+02  0.71242943978E+02  0.76410284917E+02  0.00000000000E+00 0.  1.
         -3    1    1    2    0  503 -0.73970460788E+02 -0.10871929078E+03  0.12910690443E+03  0.18428267968E+03  0.00000000000E+00 0.  1.
<scales pt_clust_5="13000.00000" pt_clust_6="13000.00000" pt_clust_7="13000.00000" pt_clust_8="13000.00000" pt_clust_9="27.62199" pt_clust_10="145.51972"></scales>
<clustering>
<clus scale="   27.622">  1  9  2 -1</clus>
<clus scale="   83.750">  5  6 -1 -1</clus>
<clus scale="   90.385">  7  8 -1 -1</clus>
<clus scale="  145.520">  1 10  2 -1</clus>
<clus scale="  156.427">  1  5  2 -1</clus>
<clus scale="   27.622">  1  5  2 -1</clus>
</clustering>
</event>
<event>
10    2  0.1671105E-006  0.1505668E+03  0.7546771E-02  0.1217373E+00
          1   -1    0    0  502    0 -0.00000000000E+00  0.00000000000E+00  0.15966967680E+03  0.15966967680E+03  0.00000000000E+00 0. -1.
         21   -1    0    0  503  502  0.00000000000E+00 -0.00000000000E+00 -0.23878496583E+03  0.23878496583E+03  0.00000000000E+00 0.  1.
         23    2    1    2    0    0 -0.39914780406E+02  0.31650936462E+02 -0.14031632152E+02  0.10426146302E+03  0.89881001868E+02 0.  0.
         23    2    1    2    0    0 -0.58347807471E+02 -0.10573061711E+03 -0.65429440198E+02  0.16536419585E+03  0.92091669515E+02 0.  0.
        -13    1    3    3    0    0 -0.43471489187E+02  0.12141644689E+01  0.28385946415E+02  0.51932711477E+02  0.00000000000E+00 0. -1.
         13    1    3    3    0    0  0.35567087812E+01  0.30436771993E+02 -0.42417578567E+02  0.52328751544E+02  0.00000000000E+00 0.  1.
        -13    1    4    4    0    0 -0.43249063262E+02  0.17640973259E+01 -0.20248402653E+02  0.47786936734E+02  0.00000000000E+00 0.  1.
         13    1    4    4    0    0 -0.15098744209E+02 -0.10749471443E+03 -0.45181037545E+02  0.11757725912E+03  0.00000000000E+00 0. -1.
         21    1    1    2  503  501  0.60820959394E+02  0.30698252008E+02  0.14824972473E+02  0.69723393396E+02  0.00000000000E+00 0.  1.
          1    1    1    2  501    0  0.37441628483E+02  0.43381428637E+02 -0.14479189156E+02  0.59105590367E+02  0.00000000000E+00 0. -1.
<scales pt_clust_5="13000.00000" pt_clust_6="13000.00000" pt_clust_7="13000.00000" pt_clust_8="13000.00000" pt_clust_9="34.96464" pt_clust_10="125.07176"></scales>
<clustering>
<clus scale="   34.965">  9 10 -1 -1</clus>
<clus scale="   89.881">  5  6 -1 -1</clus>
<clus scale="   92.092">  7  8 -1 -1</clus>
<clus scale="  103.313">  1  5  2 -1</clus>
<clus scale="  125.072">  2  9  1 -1</clus>
<clus scale="  125.072">  2  5  1 -1</clus>
</clustering>
</event>
<event>
10    2  0.1671105E-006  0.1427690E+03  0.7546771E-02  0.1227863E+00
         21   -1    0    0  501  502  0.00000000000E+00  0.00000000000E+00  0.29285834700E+03  0.29285834700E+03  0.00000000000E+00 0. -1.
          1   -1    0    0  503    0 -0.00000000000E+00 -0.00000000000E+00 -0.48890743780E+03  0.48890743780E+03  0.00000000000E+00 0. -1.
         23    2    1    2    0    0  0.29091451287E+02  0.23956673632E+02 -0.25913500881E+03  0.27682911260E+03  0.89795156006E+02 0.  0.
         23    2    1    2    0    0  0.61913482848E+02  0.39435726452E+02 -0.18623871678E+03  0.22102769694E+03  0.93701266307E+02 0.  0.
        -11    1    3    3    0    0 -0.27404679393E+02  0.95438748330E+01 -0.36198931391E+02  0.46394661690E+02  0.00000000000E+00 0.  1.
         11    1    3    3    0    0  0.56496130680E+02  0.14412798799E+02 -0.22293607742E+03  0.23043445091E+03  0.00000000000E+00 0. -1.
        -11    1    4    4    0    0 -0.18851448967E+02 -0.12318995019E+02 -0.44604592698E+02  0.49967033694E+02  0.00000000000E+00 0.  1.
         11    1    4    4    0    0  0.80764931815E+02  0.51754721471E+02 -0.14163412408E+03  0.17106066325E+03  0.00000000000E+00 0. -1.
         21    1    1    2  503  502 -0.10286883213E+03 -0.41551578096E+02  0.20332839658E+03  0.23162678412E+03  0.00000000000E+00 0. -1.
          1    1    1    2  501    0  0.11863897999E+02 -0.21840821987E+02  0.45996238206E+02  0.52282191136E+02  0.00000000000E+00 0. -1.
<scales pt_clust_5="13000.00000" pt_clust_6="13000.00000" pt_clust_7="13000.00000" pt_clust_8="13000.00000" pt_clust_9="107.71746" pt_clust_10="24.85505"></scales>
<clustering>
<clus scale="   24.855">  1 10  2 -1</clus>
<clus scale="   89.795">  5  6 -1 -1</clus>
<clus scale="   93.701">  7  8 -1 -1</clus>
<clus scale="   97.321">  2  5  1 -1</clus>
<clus scale="  107.717">  1  9  2 -1</clus>
<clus scale="   24.855">  1  5  2 -1</clus>
</clustering>
</event>
<event>
10    2  0.1671105E-006  0.1638870E+03  0.7546771E-02  0.1203495E+00
          1   -1    0    0  502    0 -0.00000000000E+00  0.00000000000E+00  0.32658235696E+03  0.32658235696E+03  0.00000000000E+00 0. -1.
         21   -1    0    0  503  502  0.00000000000E+00 -0.00000000000E+00 -0.25378227859E+03  0.25378227859E+03  0.00000000000E+00 0. -1.
         23    2    1    2    0    0  0.19312038969E+02  0.53246866902E+02  0.81621204234E+01  0.10803559938E+03  0.91634528645E+02 0.  0.
         23    2    1    2    0    0  0.98444359455E+02 -0.12081979773E+03  0.20254338351E+03  0.27088854884E+03  0.89822426266E+02 0.  0.
        -11    1    3    3    0    0  0.48688695280E+02  0.24976713296E+02 -0.20243653777E+02  0.58345786253E+02  0.00000000000E+00 0.  1.
         11    1    3    3    0    0 -0.29376656311E+02  0.28270153606E+02  0.28405774200E+02  0.49689813129E+02  0.00000000000E+00 0. -1.
        -13    1    4    4    0    0  0.11120790343E+02 -0.38604239550E+02  0.11663152009E+03  0.12335668109E+03  0.00000000000E+00 0. -1.
         13    1    4    4    0    0  0.87323569112E+02 -0.82215558176E+02  0.85911863413E+02  0.14753186776E+03  0.00000000000E+00 0.  1.
         21    1    1    2  503  501 -0.68335263437E+02  0.67220822864E+02 -0.10440113366E+03  0.14173194405E+03  0.00000000000E+00 0. -1.
          1    1    1    2  501    0 -0.49421134988E+02  0.35210795941E+00 -0.33504291906E+02  0.59708543271E+02  0.00000000000E+00 0. -1.
<scales pt_clust_5="13000.00000" pt_clust_6="13000.00000" pt_clust_7="13000.00000" pt_clust_8="13000.00000" pt_clust_9="40.15731" pt_clust_10="148.04925"></scales>
<clustering>
<clus scale="   40.157">  9 10 -1 -1</clus>
<clus scale="   89.822">  7  8 -1 -1</clus>
<clus scale="   91.635">  5  6 -1 -1</clus>
<clus scale="  107.727">  1  5  2 -1</clus>
<clus scale="  148.049">  2  9  1 -1</clus>
<clus scale="  148.049">  2  5  1 -1</clus>
</clustering>
</event>
<event>
10    2  0.1671105E-006  0.1951902E+03  0.7546771E-02  0.1174159E+00
         -1   -1    0    0    0  501 -0.00000000000E+00  0.00000000000E+00  0.35678355365E+03  0.35678355365E+03  0.00000000000E+00 0.  1.
         21   -1    0    0  501  502  0.00000000000E+00 -0.00000000000E+00 -0.22779391506E+03  0.22779391506E+03  0.00000000000E+00 0. -1.
         23    2    1    2    0    0 -0.73117994079E+02 -0.34229133282E+02  0.15156267680E+03  0.19462110209E+03  0.91587410469E+02 0.  0.
         23    2    1    2    0    0  0.99755744172E+02 -0.14325086525E+03 -0.11786776971E+02  0.19745815553E+03  0.91535655257E+02 0.  0.
        -11    1    3    3    0    0 -0.33532365044E+02  0.29498070581E+02  0.75939500913E+02  0.88098600853E+02  0.00000000000E+00 0.  1.
         11    1    3    3    0    0 -0.39585629035E+02 -0.63727203863E+02  0.75623175884E+02  0.10652250123E+03  0.00000000000E+00 0. -1.
        -11    1    4    4    0    0 -0.86307576294E+01 -0.32538850594E+02  0.20195074107E+02  0.39256945798E+02  0.00000000000E+00 0.  1.
         11    1    4    4    0    0  0.10838650180E+03 -0.11071201466E+03 -0.31981851078E+02  0.15820120973E+03  0.00000000000E+00 0. -1.
         21    1    1    2  503  502  0.89788775317E+01  0.99883629874E+02 -0.30596906569E+02  0.10485003791E+03  0.00000000000E+00 0.  1.
         -1    1    1    2    0  503 -0.35616627625E+02  0.77596368660E+02  0.19810645336E+02  0.87648173177E+02  0.00000000000E+00 0.  1.
<scales pt_clust_5="13000.00000" pt_clust_6="13000.00000" pt_clust_7="13000.00000" pt_clust_8="13000.00000" pt_clust_9="63.46152" pt_clust_10="185.60975"></scales>
<clustering>
<clus scale="   63.462">  9 10 -1 -1</clus>
<clus scale="   91.536">  7  8 -1 -1</clus>
<clus scale="   91.587">  5  6 -1 -1</clus>
<clus scale="  122.091">  1  5  2 -1</clus>
<clus scale="  185.610">  2  9  1 -1</clus>
<clus scale="  185.610">  2  5  1 -1</clus>
</clustering>
</event>
<event>
10    2  0.1671105E-006  0.1034830E+03  0.7546771E-02  0.1274536E+00
         21   -1    0    0  503  502  0.00000000000E+00  0.00000000000E+00  0.30772259477E+02  0.30772259477E+02  0.00000000000E+00 0. -1.
          1   -1    0    0  502    0 -0.00000000000E+00 -0.00000000000E+00 -0.61836698362E+03  0.61836698362E+03  0.00000000000E+00 0. -1.
         23    2    1    2    0    0  0.49817043213E+02  0.33758311998E+02 -0.29696358720E+03  0.31806919735E+03  0.96743375764E+02 0.  0.
         23    2    1    2    0    0  0.18693844700E+01 -0.11254182790E+02 -0.14411351197E+03  0.17232970195E+03  0.93801229285E+02 0.  0.
        -11    1    4    4    0    0  0.17050864369E+02 -0.49557675461E+02 -0.92179684555E+02  0.10603673617E+03  0.00000000000E+00 0.  1.
         11    1    4    4    0    0 -0.15181479899E+02  0.38303492671E+02 -0.51933827410E+02  0.66292965782E+02  0.00000000000E+00 0. -1.
        -13    1    3    3    0    0 -0.23743602103E+02  0.27726743258E+02 -0.63826664467E+02  0.73528049271E+02  0.00000000000E+00 0.  1.
         13    1    3    3    0    0  0.73560645316E+02  0.60315687404E+01 -0.23313692274E+03  0.24454114808E+03  0.00000000000E+00 0. -1.
         21    1    1    2  503  501 -0.24669437824E+02 -0.20635979634E+02 -0.59909142162E+02  0.67996545005E+02  0.00000000000E+00 0. -1.
          1    1    1    2  501    0 -0.27016989859E+02 -0.18681495745E+01 -0.86608482817E+02  0.90743798795E+02  0.00000000000E+00 0. -1.
<scales pt_clust_5="13000.00000" pt_clust_6="13000.00000" pt_clust_7="13000.00000" pt_clust_8="13000.00000" pt_clust_9="21.58176" pt_clust_10="61.08262"></scales>
<clustering>
<clus scale="   21.582">  9 10 -1 -1</clus>
<clus scale="   61.083">  1  9  2 -1</clus>
<clus scale="   93.801">  5  6 -1 -1</clus>
<clus scale="   96.743">  7  8 -1 -1</clus>
<clus scale="  100.738">  1  5  2 -1</clus>
<clus scale="   61.083">  1  5  2 -1</clus>
</clustering>
</event>
<event>
10    2  0.1671105E-006  0.1929680E+03  0.7546771E-02  0.1187459E+00
         21   -1    0    0  503  502  0.00000000000E+00  0.00000000000E+00  0.47175674749E+03  0.47175674749E+03  0.00000000000E+00 0. -1.
          1   -1    0    0  502    0 -0.00000000000E+00 -0.00000000000E+00 -0.16910500607E+03  0.16910500607E+03  0.00000000000E+00 0. -1.
         23    2    1    2    0    0  0.13549539295E+02 -0.13807356863E+02  0.10879525739E+03  0.14361087886E+03  0.91724824215E+02 0.  0.
         23    2    1    2    0    0 -0.67372029316E+02  0.17168096083E+03 -0.37417737190E+02  0.20910614380E+03  0.91169894565E+02 0.  0.
        -11    1    4    4    0    0  0.78763425109E+01  0.25393907149E+02  0.21680846724E+02  0.34306652508E+02  0.00000000000E+00 0.  1.
         11    1    4    4    0    0 -0.75248371827E+02  0.14628705368E+03 -0.59098583914E+02  0.17479949130E+03  0.00000000000E+00 0. -1.
        -11    1    3    3    0    0  0.32175197218E+02  0.40865324160E+01  0.66690490268E+00  0.32440527513E+02  0.00000000000E+00 0.  1.
         11    1    3    3    0    0 -0.18625657923E+02 -0.17893889279E+02  0.10812835249E+03  0.11117035134E+03  0.00000000000E+00 0. -1.
         21    1    1    2  503  501  0.26768061951E+02 -0.26656234448E+02  0.55356573382E+02  0.67018163151E+02  0.00000000000E+00 0. -1.
          1    1    1    2  501    0  0.27054428070E+02 -0.13121736952E+03  0.17591764785E+03  0.22112656775E+03  0.00000000000E+00 0. -1.
<scales pt_clust_5="13000.00000" pt_clust_6="13000.00000" pt_clust_7="13000.00000" pt_clust_8="13000.00000" pt_clust_9="22.01379" pt_clust_10="175.05248"></scales>
<clustering>
<clus scale="   22.014">  9 10 -1 -1</clus>
<clus scale="   91.170">  5  6 -1 -1</clus>
<clus scale="   91.725">  7  8 -1 -1</clus>
<clus scale="   93.743">  2  7  1 -1</clus>
<clus scale="  175.052">  1  9  2 -1</clus>
<clus scale="  175.052">  1  5  2 -1</clus>
</clustering>
</event>
<event>
10    2  0.1671105E-006  0.1097569E+03  0.7546771E-02  0.1261074E+00
         21   -1    0    0  501  502  0.00000000000E+00  0.00000000000E+00  0.37211337618E+03  0.37211337618E+03  0.00000000000E+00 0. -1.
          3   -1    0    0  503    0 -0.00000000000E+00 -0.00000000000E+00 -0.14293068894E+03  0.14293068894E+03  0.00000000000E+00 0. -1.
         23    2    1    2    0    0 -0.43177235327E+02  0.52207020210E+02 -0.72704651244E+02  0.13405901064E+03  0.89977805098E+02 0.  0.
         23    2    1    2    0    0 -0.28620181779E+02 -0.43281090770E+02  0.26432521167E+03  0.28404504743E+03  0.90118831667E+02 0.  0.
        -13    1    4    4    0    0  0.26348580189E+02 -0.32251039935E+02  0.66810397489E+02  0.78727418778E+02  0.00000000000E+00 0.  1.
         13    1    4    4    0    0 -0.54968761967E+02 -0.11030050835E+02  0.19751481418E+03  0.20531762865E+03  0.00000000000E+00 0. -1.
        -13    1    3    3    0    0  0.12633736367E+02  0.51781638797E+02 -0.52185444361E+02  0.74594034709E+02  0.00000000000E+00 0. -1.
         13    1    3    3    0    0 -0.55810971694E+02  0.42538141357E+00 -0.20519206884E+02  0.59464975926E+02  0.00000000000E+00 0.  1.
         21    1    1    2  503  502  0.31178880626E+02  0.20138704507E+02  0.26975284554E+02  0.45884158411E+02  0.00000000000E+00 0. -1.
          3    1    1    2  501    0  0.40618536480E+02 -0.29064633947E+02  0.10586842263E+02  0.51055848649E+02  0.00000000000E+00 0. -1.
<scales pt_clust_5="13000.00000" pt_clust_6="13000.00000" pt_clust_7="13000.00000" pt_clust_8="13000.00000" pt_clust_9="37.11725" pt_clust_10="51.29631"></scales>
<clustering>
<clus scale="   37.117">  1  9  2 -1</clus>
<clus scale="   51.296">  1 10  2 -1</clus>
<clus scale="   89.978">  7  8 -1 -1</clus>
<clus scale="   90.119">  5  6 -1 -1</clus>
<clus scale="  109.641">  2  7  1 -1</clus>
<clus scale="   37.117">  1  5  2 -1</clus>
</clustering>
</event>
<event>
10    2  0.1671105E-006  0.1491795E+03  0.7546771E-02  0.1213301E+00
          2   -1    0    0  502    0 -0.00000000000E+00  0.00000000000E+00  0.34559069987E+03  0.34559069987E+03  0.00000000000E+00 0. -1.
         21   -1    0    0  503  502  0.00000000000E+00 -0.00000000000E+00 -0.24692541366E+03  0.24692541366E+03  0.00000000000E+00 0. -1.
         23    2    1    2    0    0  0.66585289489E+02 -0.21046032121E+02  0.60422143671E+02  0.13060022319E+03  0.92352837564E+02 0.  0.
         23    2    1    2    0    0 -0.35916911873E+02  0.13861804699E+03  0.19544203554E+03  0.25703426493E+03  0.85813964982E+02 0.  0.
        -13    1    3    3    0    0  0.27057678984E+02  0.29585785895E+02  0.52233087071E+02  0.65846276311E+02  0.00000000000E+00 0. -1.
         13    1    3    3    0    0  0.39527610505E+02 -0.50631818017E+02  0.81890566002E+01  0.64753946875E+02  0.00000000000E+00 0.  1.
        -13    1    4    4    0    0 -0.48376587960E+02  0.28899348967E+02  0.71504797137E+02  0.91040664798E+02  0.00000000000E+00 0.  1.
         13    1    4    4    0    0  0.12459676087E+02  0.10971869802E+03  0.12393723840E+03  0.16599360013E+03  0.00000000000E+00 0. -1.
         21    1    1    2  503  501 -0.25340053367E+02 -0.18199985767E+02 -0.46855660892E+02  0.56292190792E+02  0.00000000000E+00 0. -1.
          2    1    1    2  501    0 -0.53283242499E+01 -0.99372029101E+02 -0.11034323211E+03  0.14858943462E+03  0.00000000000E+00 0. -1.
<scales pt_clust_5="13000.00000" pt_clust_6="13000.00000" pt_clust_7="13000.00000" pt_clust_8="13000.00000" pt_clust_9="28.00295" pt_clust_10="131.87778"></scales>
<clustering>
<clus scale="   28.003">  9 10 -1 -1</clus>
<clus scale="   85.814">  7  8 -1 -1</clus>
<clus scale="   92.353">  5  6 -1 -1</clus>
<clus scale="  115.782">  1  5  2 -1</clus>
<clus scale="  131.878">  2  9  1 -1</clus>
<clus scale="  131.878">  2  5  1 -1</clus>
</clustering>
</event>
<event>
10    2  0.1671105E-006  0.3119537E+03  0.7546771E-02  0.1120353E+00
         -1   -1    0    0    0  501 -0.00000000000E+00  0.00000000000E+00  0.10341925566E+04  0.10341925566E+04  0.00000000000E+00 0.  1.
         21   -1    0    0  503  502  0.00000000000E+00 -0.00000000000E+00 -0.19950945167E+03  0.19950945167E+03  0.00000000000E+00 0.  1.
         23    2    1    2    0    0 -0.38338756423E+01 -0.55613144962E+02  0.13631247664E+02  0.10862692364E+03  0.92230565056E+02 0.  0.
         23    2    1    2    0    0 -0.15064702829E+03 -0.27774440635E+03  0.45333028914E+03  0.56003766474E+03  0.91089804522E+02 0.  0.
        -11    1    3    3    0    0 -0.57275047514E+01  0.25442528457E+02  0.83246762798E+01  0.27375660725E+02  0.00000000000E+00 0.  1.
         11    1    3    3    0    0  0.18936291091E+01 -0.81055673419E+02  0.53065713840E+01  0.81251262910E+02  0.00000000000E+00 0. -1.
        -11    1    4    4    0    0 -0.20047507666E+02 -0.90917514832E+00  0.13528552341E+02  0.24202291039E+02  0.00000000000E+00 0. -1.
         11    1    4    4    0    0 -0.13059952062E+03 -0.27683523121E+03  0.43980173680E+03  0.53583537370E+03  0.00000000000E+00 0.  1.
         21    1    1    2  503  501  0.20105093468E+03  0.19240830136E+03  0.21148690608E+03  0.34952702930E+03  0.00000000000E+00 0.  1.
         -1    1    1    2    0  502 -0.46570030751E+02  0.14094924996E+03  0.15623466207E+03  0.21551039061E+03  0.00000000000E+00 0.  1.
<scales pt_clust_5="13000.00000" pt_clust_6="13000.00000" pt_clust_7="13000.00000" pt_clust_8="13000.00000" pt_clust_9="298.35849" pt_clust_10="138.64500"></scales>
<clustering>
<clus scale="   91.090">  7  8 -1 -1</clus>
<clus scale="   92.231">  5  6 -1 -1</clus>
<clus scale="  107.768">  1  5  2 -1</clus>
<clus scale="  138.645">  2 10  1 -1</clus>
<clus scale="  298.358">  2  9  1 -1</clus>
<clus scale="  138.645">  2  5  1 -1</clus>
</clustering>
</event>
<event>
10    2  0.1671105E-006  0.1702745E+03  0.7546771E-02  0.1196250E+00
         21   -1    0    0  503  502  0.00000000000E+00  0.00000000000E+00  0.94867216722E+02  0.94867216722E+02  0.00000000000E+00 0. -1.
          1   -1    0    0  502    0 -0.00000000000E+00 -0.00000000000E+00 -0.62708924632E+03  0.62708924632E+03  0.00000000000E+00 0. -1.
         23    2    1    2    0    0 -0.58248168916E+02  0.37647538683E+02 -0.18645015838E+03  0.21772283662E+03  0.88483815894E+02 0.  0.
         23    2    1    2    0    0  0.12893621268E+03  0.87805786414E+02 -0.29659626849E+03  0.34723562205E+03  0.90933094467E+02 0.  0.
        -11    1    3    3    0    0 -0.57251990071E+02  0.62495618639E+02 -0.12120477564E+03  0.14789891938E+03  0.00000000000E+00 0. -1.
         11    1    3    3    0    0 -0.99617884566E+00 -0.24848079956E+02 -0.65245382739E+02  0.69823917238E+02  0.00000000000E+00 0.  1.
        -11    1    4    4    0    0  0.81237930315E+02  0.89847827806E+02 -0.14851202048E+03  0.19164564621E+03  0.00000000000E+00 0. -1.
         11    1    4    4    0    0  0.47698282361E+02 -0.20420413919E+01 -0.14808424801E+03  0.15558997584E+03  0.00000000000E+00 0.  1.
         21    1    1    2  503  501 -0.27463122412E+02 -0.19739405836E+02 -0.35303873575E+01  0.34004865391E+02  0.00000000000E+00 0. -1.
          1    1    1    2  501    0 -0.43224921348E+02 -0.10571391926E+03 -0.45645215377E+02  0.12299313899E+03  0.00000000000E+00 0. -1.
<scales pt_clust_5="13000.00000" pt_clust_6="13000.00000" pt_clust_7="13000.00000" pt_clust_8="13000.00000" pt_clust_9="21.03942" pt_clust_10="149.06163"></scales>
<clustering>
<clus scale="   21.039">  9 10 -1 -1</clus>
<clus scale="   88.484">  5  6 -1 -1</clus>
<clus scale="   90.933">  7  8 -1 -1</clus>
<clus scale="  112.426">  2  5  1 -1</clus>
<clus scale="  149.062">  1  9  2 -1</clus>
<clus scale="  149.062">  1  5  2 -1</clus>
</clustering>
</event>
<event>
10    2  0.1671105E-006  0.1573194E+03  0.7546771E-02  0.1216185E+00
          1   -1    0    0  503    0 -0.00000000000E+00  0.00000000000E+00  0.25518933411E+03  0.25518933411E+03  0.00000000000E+00 0. -1.
         21   -1    0    0  501  502  0.00000000000E+00 -0.00000000000E+00 -0.42338778679E+03  0.42338778679E+03  0.00000000000E+00 0. -1.
         23    2    1    2    0    0 -0.28976965732E+02 -0.19061197922E+02  0.48157421275E+02  0.10561579609E+03  0.87364554317E+02 0.  0.
         23    2    1    2    0    0 -0.45303033207E+02  0.11837323150E+03  0.11073848895E+03  0.19195358035E+03  0.92296139264E+02 0.  0.
        -11    1    4    4    0    0 -0.11773215805E+02  0.49230991999E+02 -0.72626427659E+01  0.51137512294E+02  0.00000000000E+00 0.  1.
         11    1    4    4    0    0 -0.33529817401E+02  0.69142239498E+02  0.11800113172E+03  0.14081606806E+03  0.00000000000E+00 0. -1.
        -13    1    3    3    0    0 -0.57690144184E+02 -0.26286589851E+02  0.39785333255E+02  0.74846578306E+02  0.00000000000E+00 0.  1.
         13    1    3    3    0    0  0.28713178452E+02  0.72253919281E+01  0.83720880201E+01  0.30769217786E+02  0.00000000000E+00 0. -1.
         21    1    1    2  503  502  0.23225248171E+02  0.38718203671E+02 -0.50815790553E+02  0.67976143003E+02  0.00000000000E+00 0. -1.
          1    1    1    2  501    0  0.51054750768E+02 -0.13803023725E+03 -0.27627857235E+03  0.31303160146E+03  0.00000000000E+00 0. -1.
<scales pt_clust_5="13000.00000" pt_clust_6="13000.00000" pt_clust_7="13000.00000" pt_clust_8="13000.00000" pt_clust_9="45.14988" pt_clust_10="127.40023"></scales>
<clustering>
<clus scale="   45.150">  2  9  1 -1</clus>
<clus scale="   87.365">  7  8 -1 -1</clus>
<clus scale="   92.296">  5  6 -1 -1</clus>
<clus scale="   92.874">  1  7  2 -1</clus>
<clus scale="  127.400">  2 10  1 -1</clus>
<clus scale="   45.150">  2  5  1 -1</clus>
</clustering>
</event>
<event>
10    2  0.1671105E-006  0.2289873E+03  0.7546771E-02  0.1127434E+00
          1   -1    0    0  503    0 -0.00000000000E+00  0.00000000000E+00  0.24513917522E+03  0.24513917522E+03  0.00000000000E+00 0. -1.
         21   -1    0    0  501  502  0.00000000000E+00 -0.00000000000E+00 -0.36258576674E+03  0.36258576674E+03  0.00000000000E+00 0. -1.
         23    2    1    2    0    0  0.21746610987E+03 -0.76354112731E+02  0.23911416718E+02  0.24889551753E+03  0.90861231134E+02 0.  0.
         23    2    1    2    0    0 -0.18728344219E+03  0.23503664066E+02 -0.60854219229E+02  0.21767409036E+03  0.89728834130E+02 0.  0.
        -11    1    4    4    0    0 -0.17122935191E+03  0.49455299334E+02 -0.48137953907E+02  0.18461468033E+03  0.00000000000E+00 0. -1.
         11    1    4    4    0    0 -0.16054090276E+02 -0.25951635268E+02 -0.12716265321E+02  0.33059410028E+02  0.00000000000E+00 0.  1.
        -13    1    3    3    0    0  0.73858860510E+02 -0.98424217689E+01 -0.31938124118E+02  0.81068170784E+02  0.00000000000E+00 0.  1.
         13    1    3    3    0    0  0.14360724936E+03 -0.66511690962E+02  0.55849540836E+02  0.16782734674E+03  0.00000000000E+00 0. -1.
         21    1    1    2  503  502  0.10985263700E+02  0.48354175381E+02  0.11505244360E+01  0.49599657275E+02  0.00000000000E+00 0. -1.
          1    1    1    2  501    0 -0.41167931382E+02  0.44962732842E+01 -0.81654313446E+02  0.91555676788E+02  0.00000000000E+00 0. -1.
<scales pt_clust_5="13000.00000" pt_clust_6="13000.00000" pt_clust_7="13000.00000" pt_clust_8="13000.00000" pt_clust_9="49.30306" pt_clust_10="41.41274"></scales>
<clustering>
<clus scale="   41.413">  2 10  1 -1</clus>
<clus scale="   49.303">  1  9  2 -1</clus>
<clus scale="   89.729">  5  6 -1 -1</clus>
<clus scale="   90.861">  7  8 -1 -1</clus>
<clus scale="  228.540">  2  5  1 -1</clus>
<clus scale="   41.413">  2  5  1 -1</clus>
</clustering>
</event>
<event>
10    2  0.1671105E-006  0.1037812E+03  0.7546771E-02  0.1274117E+00
          3   -1    0    0  503    0 -0.00000000000E+00  0.00000000000E+00  0.25279657169E+03  0.25279657169E+03  0.00000000000E+00 0. -1.
         21   -1    0    0  501  502  0.00000000000E+00 -0.00000000000E+00 -0.18817264618E+03  0.18817264618E+03  0.00000000000E+00 0. -1.
         23    2    1    2    0    0 -0.47292734228E+02 -0.41134910007E+02  0.15570595921E+03  0.19066395960E+03  0.90441783624E+02 0.  0.
         23    2    1    2    0    0 -0.40968193076E+02  0.25963465716E+02  0.83115354699E+01  0.10599752475E+03  0.93882369145E+02 0.  0.
        -11    1    4    4    0    0 -0.70695612073E+02  0.23256704638E+02  0.13676195382E+02  0.75668898479E+02  0.00000000000E+00 0. -1.
         11    1    4    4    0    0  0.29727418997E+02  0.27067610784E+01 -0.53646599123E+01  0.30328626275E+02  0.00000000000E+00 0.  1.
        -13    1    3    3    0    0 -0.67789234398E+02 -0.18547616446E+02  0.13931346581E+03  0.15603729084E+03  0.00000000000E+00 0. -1.
         13    1    3    3    0    0  0.20496500171E+02 -0.22587293562E+02  0.16392493399E+02  0.34626668762E+02  0.00000000000E+00 0.  1.
         21    1    1    2  503  502  0.42292065363E+02 -0.11531731584E+02 -0.18658975646E+02  0.47641966775E+02  0.00000000000E+00 0. -1.
          3    1    1    2  501    0  0.45968861940E+02  0.26703175875E+02 -0.80734593519E+02  0.96665766746E+02  0.00000000000E+00 0. -1.
<scales pt_clust_5="13000.00000" pt_clust_6="13000.00000" pt_clust_7="13000.00000" pt_clust_8="13000.00000" pt_clust_9="43.83605" pt_clust_10="72.99094"></scales>
<clustering>
<clus scale="   43.836">  2  9  1 -1</clus>
<clus scale="   72.991">  2 10  1 -1</clus>
<clus scale="   90.442">  7  8 -1 -1</clus>
<clus scale="   93.882">  5  6 -1 -1</clus>
<clus scale="  100.680">  1  7  2 -1</clus>
<clus scale="   43.836">  2  5  1 -1</clus>
</clustering>
</event>
<event>
10    2  0.1671105E-006  0.2154887E+03  0.7546771E-02  0.1137534E+00
         21   -1    0    0  503  502  0.00000000000E+00  0.00000000000E+00  0.19291251302E+03  0.19291251302E+03  0.00000000000E+00 0. -1.
         -2   -1    0    0    0  501 -0.00000000000E+00 -0.00000000000E+00 -0.42241523698E+03  0.42241523698E+03  0.00000000000E+00 0.  1.
         23    2    1    2    0    0  0.38070083921E+02 -0.20492262816E+03 -0.11023190070E+03  0.25388891898E+03  0.94158889256E+02 0.  0.
         23    2    1    2    0    0  0.33325556073E+00  0.17464153231E+03 -0.21258908840E+02  0.19818238415E+03  0.91238918873E+02 0.  0.
        -13    1    4    4    0    0 -0.18349468432E+02  0.45389629447E+02  0.30525286066E+02  0.57695013151E+02  0.00000000000E+00 0. -1.
         13    1    4    4    0    0  0.18682723992E+02  0.12925190286E+03 -0.51784194906E+02  0.14048737100E+03  0.00000000000E+00 0.  1.
        -13    1    3    3    0    0  0.41685361834E+02 -0.14403834722E+03 -0.12008447152E+03  0.19210672857E+03  0.00000000000E+00 0. -1.
         13    1    3    3    0    0 -0.36152779137E+01 -0.60884280939E+02  0.98525708193E+01  0.61782190408E+02  0.00000000000E+00 0.  1.
         21    1    1    2  503  501  0.19859579618E+02 -0.27164409028E+02 -0.68424221211E+02  0.76250784053E+02  0.00000000000E+00 0. -1.
         -2    1    1    2    0  502 -0.58262919099E+02  0.57445504875E+02 -0.29587693213E+02  0.87005662815E+02  0.00000000000E+00 0.  1.
<scales pt_clust_5="13000.00000" pt_clust_6="13000.00000" pt_clust_7="13000.00000" pt_clust_8="13000.00000" pt_clust_9="33.64978" pt_clust_10="76.29469"></scales>
<clustering>
<clus scale="   33.650">  2  9  1 -1</clus>
<clus scale="   76.295">  1 10  2 -1</clus>
<clus scale="   91.239">  5  6 -1 -1</clus>
<clus scale="   94.159">  7  8 -1 -1</clus>
<clus scale="  214.229">  1  5  2 -1</clus>
<clus scale="   76.295">  1  5  2 -1</clus>
</clustering>
</event>
<event>
10    2  0.1671105E-006  0.1368619E+03  0.7546771E-02  0.1219111E+00
         -2   -1    0    0    0  501 -0.00000000000E+00  0.00000000000E+00  0.36367632043E+03  0.36367632043E+03  0.00000000000E+00 0.  1.
         21   -1    0    0  503  502  0.00000000000E+00 -0.00000000000E+00 -0.33086733289E+03  0.33086733289E+03  0.00000000000E+00 0. -1.
         23    2    1    2    0    0 -0.10644769633E+03  0.95963741776E+02  0.17911494667E+03  0.24506251833E+03  0.86216715215E+02 0.  0.
         23    2    1    2    0    0  0.23227819053E+02 -0.18752289716E+02 -0.25427462953E+03  0.27225684845E+03  0.92612225737E+02 0.  0.
        -11    1    3    3    0    0 -0.34227381655E+02  0.54307140358E+02  0.13779095200E+03  0.15201028124E+03  0.00000000000E+00 0.  1.
         11    1    3    3    0    0 -0.72220314673E+02  0.41656601418E+02  0.41323994670E+02  0.93052237096E+02  0.00000000000E+00 0. -1.
        -13    1    4    4    0    0  0.19718830153E+02 -0.52899241157E+02 -0.20182995877E+03  0.20957694108E+03  0.00000000000E+00 0. -1.
         13    1    4    4    0    0  0.35089888993E+01  0.34146951440E+02 -0.52444670763E+02  0.62679907364E+02  0.00000000000E+00 0.  1.
         21    1    1    2  503  501  0.46568241431E+02 -0.15873985580E+02  0.91513333454E+02  0.10390031149E+03  0.00000000000E+00 0. -1.
         -2    1    1    2    0  502  0.36651635844E+02 -0.61337466480E+02  0.16455336944E+02  0.73323975057E+02  0.00000000000E+00 0.  1.
<scales pt_clust_5="13000.00000" pt_clust_6="13000.00000" pt_clust_7="13000.00000" pt_clust_8="13000.00000" pt_clust_9="49.19944" pt_clust_10="77.97046"></scales>
<clustering>
<clus scale="   49.199">  1  9  2 -1</clus>
<clus scale="   77.970">  2 10  1 -1</clus>
<clus scale="   86.217">  5  6 -1 -1</clus>
<clus scale="   92.612">  7  8 -1 -1</clus>
<clus scale="  132.618">  1  5  2 -1</clus>
<clus scale="   77.970">  2  5  1 -1</clus>
</clustering>
</event>
<event>
10    2  0.1671105E-006  0.1099937E+03  0.7546771E-02  0.1261369E+00
         21   -1    0    0  501  502  0.00000000000E+00  0.00000000000E+00  0.39212300831E+03  0.39212300831E+03  0.00000000000E+00 0. -1.
          1   -1    0    0  503    0 -0.00000000000E+00 -0.00000000000E+00 -0.82655850135E+02  0.82655850135E+02  0.00000000000E+00 0. -1.
         23    2    1    2    0    0  0.49077687317E+02 -0.62913295284E+02  0.35250937948E+02  0.12677678819E+03  0.91994691591E+02 0.  0.
         23    2    1    2    0    0  0.18021964435E+02  0.33775597442E+02  0.12237379144E+03  0.15663948416E+03  0.89972223400E+02 0.  0.
        -11    1    3    3    0    0  0.26744605113E+02 -0.12375169150E+02  0.59530216870E+02  0.66424885659E+02  0.00000000000E+00 0.  1.
         11    1    3    3    0    0  0.22333082204E+02 -0.50538126134E+02 -0.24279278922E+02  0.60351902529E+02  0.00000000000E+00 0. -1.
        -13    1    4    4    0    0 -0.48800439920E+01  0.48861618971E+02  0.11934028386E+03  0.12904796003E+03  0.00000000000E+00 0.  1.
         13    1    4    4    0    0  0.22902008427E+02 -0.15086021529E+02  0.30335075803E+01  0.27591524130E+02  0.00000000000E+00 0. -1.
         21    1    1    2  503  502 -0.91334257659E+01 -0.24658630358E+02  0.84709999335E+01  0.27626533572E+02  0.00000000000E+00 0. -1.
          1    1    1    2  501    0 -0.57966225987E+02  0.53796328200E+02  0.14337142885E+03  0.16373605252E+03  0.00000000000E+00 0. -1.
<scales pt_clust_5="13000.00000" pt_clust_6="13000.00000" pt_clust_7="13000.00000" pt_clust_8="13000.00000" pt_clust_9="26.29577" pt_clust_10="77.75231"></scales>
<clustering>
<clus scale="   26.296">  2  9  1 -1</clus>
<clus scale="   77.752">  1 10  2 -1</clus>
<clus scale="   89.972">  7  8 -1 -1</clus>
<clus scale="   91.995">  5  6 -1 -1</clus>
<clus scale="  108.308">  1  7  2 -1</clus>
<clus scale="   77.752">  1  5  2 -1</clus>
</clustering>
</event>
<event>
10    2  0.1671105E-006  0.1054623E+03  0.7546771E-02  0.1269441E+00
         21   -1    0    0  501  502  0.00000000000E+00  0.00000000000E+00  0.11111254010E+03  0.11111254010E+03  0.00000000000E+00 0. -1.
          3   -1    0    0  503    0 -0.00000000000E+00 -0.00000000000E+00 -0.34426331029E+03  0.34426331029E+03  0.00000000000E+00 0. -1.
         23    2    1    2    0    0 -0.58985009326E+02  0.38418984676E+02 -0.91220947253E+02  0.14589677172E+03  0.89495011441E+02 0.  0.
         23    2    1    2    0    0 -0.59282658913E+02 -0.73294433652E+02 -0.10672270149E+03  0.16847545365E+03  0.90042966507E+02 0.  0.
        -11    1    3    3    0    0 -0.41320138198E+02  0.17371122530E+02  0.56740800187E+01  0.45180802369E+02  0.00000000000E+00 0. -1.
         11    1    3    3    0    0 -0.17664871128E+02  0.21047862146E+02 -0.96895027272E+02  0.10071596935E+03  0.00000000000E+00 0.  1.
        -11    1    4    4    0    0 -0.15269383601E+02 -0.75551636428E+02 -0.96007457969E+02  0.12312041191E+03  0.00000000000E+00 0. -1.
         11    1    4    4    0    0 -0.44013275312E+02  0.22572027763E+01 -0.10715243526E+02  0.45355041747E+02  0.00000000000E+00 0.  1.
         21    1    1    2  503  502  0.87039664848E+02  0.17738913326E+02 -0.50565568376E+02  0.10221276343E+03  0.00000000000E+00 0.  1.
          3    1    1    2  501    0  0.31228003391E+02  0.17136535649E+02  0.15358446931E+02  0.38790861578E+02  0.00000000000E+00 0. -1.
<scales pt_clust_5="13000.00000" pt_clust_6="13000.00000" pt_clust_7="13000.00000" pt_clust_8="13000.00000" pt_clust_9="99.33605" pt_clust_10="35.62091"></scales>
<clustering>
<clus scale="   35.621">  1 10  2 -1</clus>
<clus scale="   89.495">  5  6 -1 -1</clus>
<clus scale="   90.043">  7  8 -1 -1</clus>
<clus scale="   99.336">  1  9  2 -1</clus>
<clus scale="  104.995">  2  5  1 -1</clus>
<clus scale="   35.621">  1  5  2 -1</clus>
</clustering>
</event>
<event>
10    2  0.1671105E-006  0.1013735E+03  0.7546771E-02  0.1278816E+00
         21   -1    0    0  501  502  0.00000000000E+00  0.00000000000E+00  0.27488529041E+03  0.27488529041E+03  0.00000000000E+00 0. -1.
          1   -1    0    0  503    0 -0.00000000000E+00 -0.00000000000E+00 -0.98814021422E+02  0.98814021422E+02  0.00000000000E+00 0. -1.
         23    2    1    2    0    0  0.71400680008E+02 -0.14722653725E+02  0.30457925959E+02  0.11988635269E+03  0.90167836109E+02 0.  0.
         23    2    1    2    0    0 -0.51593052225E+01 -0.15884867364E+02  0.75148843772E+02  0.12076642320E+03  0.93049625524E+02 0.  0.
        -11    1    3    3    0    0  0.76383597875E+02  0.97155428184E+01  0.46764659881E+02  0.90087619628E+02  0.00000000000E+00 0. -1.
         11    1    3    3    0    0 -0.49829178663E+01 -0.24438196543E+02 -0.16306733922E+02  0.29798733059E+02  0.00000000000E+00 0.  1.
        -13    1    4    4    0    0  0.85631761481E+01 -0.49886944164E+02  0.19751724328E+02  0.54333836582E+02  0.00000000000E+00 0.  1.
         13    1    4    4    0    0 -0.13722481371E+02  0.34002076801E+02  0.55397119443E+02  0.66432586615E+02  0.00000000000E+00 0. -1.
         21    1    1    2  503  502 -0.19030904425E+02 -0.86350115990E+01 -0.16478813471E+02  0.26613719055E+02  0.00000000000E+00 0. -1.
          1    1    1    2  501    0 -0.47210470361E+02  0.39242532687E+02  0.86943312731E+02  0.10643281689E+03  0.00000000000E+00 0. -1.
<scales pt_clust_5="13000.00000" pt_clust_6="13000.00000" pt_clust_7="13000.00000" pt_clust_8="13000.00000" pt_clust_9="20.89830" pt_clust_10="62.58515"></scales>
<clustering>
<clus scale="   20.898">  2  9  1 -1</clus>
<clus scale="   62.585">  1 10  2 -1</clus>
<clus scale="   90.168">  5  6 -1 -1</clus>
<clus scale="   93.050">  7  8 -1 -1</clus>
<clus scale="   98.735">  2  5  1 -1</clus>
<clus scale="   62.585">  1  5  2 -1</clus>
</clustering>
</event>
<event>
10    2  0.1671105E-006  0.1200653E+03  0.7546771E-02  0.1253497E+00
         21   -1    0    0  501  502  0.00000000000E+00  0.00000000000E+00  0.17249727565E+03  0.17249727565E+03  0.00000000000E+00 0. -1.
          1   -1    0    0  503    0 -0.00000000000E+00 -0.00000000000E+00 -0.24075659685E+03  0.24075659685E+03  0.00000000000E+00 0. -1.
         23    2    1    2    0    0 -0.30097230978E+02 -0.14156126494E+01 -0.11094727825E+03  0.14469844075E+03  0.87866335604E+02 0.  0.
         23    2    1    2    0    0  0.75706039359E+02  0.14889466338E+02 -0.40586215668E+02  0.14238991479E+03  0.11258128765E+03 0.  0.
        -11    1    4    4    0    0  0.64733400591E+01 -0.31087300769E+02 -0.49494802653E+02  0.58805270939E+02  0.00000000000E+00 0.  1.
         11    1    4    4    0    0  0.69232699300E+02  0.45976767107E+02  0.89085869842E+01  0.83584643853E+02  0.00000000000E+00 0. -1.
        -11    1    3    3    0    0  0.10744287611E+02 -0.21611275652E+02  0.66585202831E+00  0.24143949770E+02  0.00000000000E+00 0.  1.
         11    1    3    3    0    0 -0.40841518589E+02  0.20195663003E+02 -0.11161313028E+03  0.12055449098E+03  0.00000000000E+00 0. -1.
         21    1    1    2  503  502  0.42047647784E+01  0.28447069426E+02  0.33910297431E+02  0.44461489827E+02  0.00000000000E+00 0.  1.
          1    1    1    2  501    0 -0.49813573159E+02 -0.41920923114E+02  0.49363875290E+02  0.81704027130E+02  0.00000000000E+00 0. -1.
<scales pt_clust_5="13000.00000" pt_clust_6="13000.00000" pt_clust_7="13000.00000" pt_clust_8="13000.00000" pt_clust_9="28.75614" pt_clust_10="55.31905"></scales>
<clustering>
<clus scale="   28.756">  1  9  2 -1</clus>
<clus scale="   55.319">  1 10  2 -1</clus>
<clus scale="   87.866">  7  8 -1 -1</clus>
<clus scale="   97.271">  2  7  1 -1</clus>
<clus scale="  112.581">  5  6 -1 -1</clus>
<clus scale="   28.756">  1  5  2 -1</clus>
</clustering>
</event>
<event>
10    2  0.1671105E-006  0.1493904E+03  0.7546771E-02  0.1222215E+00
         21   -1    0    0  501  502  0.00000000000E+00  0.00000000000E+00  0.71275786100E+03  0.71275786100E+03  0.00000000000E+00 0. -1.
          2   -1    0    0  503    0 -0.00000000000E+00 -0.00000000000E+00 -0.12548499218E+03  0.12548499218E+03  0.00000000000E+00 0. -1.
         23    2    1    2    0    0  0.17502330036E+02 -0.35600980565E+02 -0.42120538012E+02  0.10634372550E+03  0.89224922844E+02 0.  0.
         23    2    1    2    0    0  0.59690226666E+01 -0.14091118274E+03  0.25449056778E+03  0.30519792143E+03  0.92134312295E+02 0.  0.
        -13    1    3    3    0    0  0.27978306722E+02 -0.55007349263E+02 -0.34296397154E+01  0.61809032904E+02  0.00000000000E+00 0. -1.
         13    1    3    3    0    0 -0.10475976685E+02  0.19406368697E+02 -0.38690898296E+02  0.44534692595E+02  0.00000000000E+00 0.  1.
        -13    1    4    4    0    0  0.48619176494E+02 -0.66921986889E+02  0.11547262862E+03  0.14204331949E+03  0.00000000000E+00 0. -1.
         13    1    4    4    0    0 -0.42650153827E+02 -0.73989195855E+02  0.13901793916E+03  0.16315460194E+03  0.00000000000E+00 0.  1.
         21    1    1    2  503  502  0.30046585177E+02  0.94908295084E+02  0.24317771008E+03  0.26276563785E+03  0.00000000000E+00 0. -1.
          2    1    1    2  501    0 -0.53517937880E+02  0.81603868226E+02  0.13172512897E+03  0.16393556840E+03  0.00000000000E+00 0. -1.
<scales pt_clust_5="13000.00000" pt_clust_6="13000.00000" pt_clust_7="13000.00000" pt_clust_8="13000.00000" pt_clust_9="117.59580" pt_clust_10="97.58771"></scales>
<clustering>
<clus scale="   89.225">  5  6 -1 -1</clus>
<clus scale="   92.134">  7  8 -1 -1</clus>
<clus scale="   97.588">  1 10  2 -1</clus>
<clus scale="   95.545">  2  5  1 -1</clus>
<clus scale="  117.596">  2  9  1 -1</clus>
<clus scale="   97.588">  1  5  2 -1</clus>
</clustering>
</event>
<event>
10    2  0.1671105E-006  0.1117517E+03  0.7546771E-02  0.1260141E+00
         21   -1    0    0  501  502  0.00000000000E+00  0.00000000000E+00  0.12819024214E+03  0.12819024214E+03  0.00000000000E+00 0.  1.
          2   -1    0    0  503    0 -0.00000000000E+00 -0.00000000000E+00 -0.23828461927E+03  0.23828461927E+03  0.00000000000E+00 0. -1.
         23    2    1    2    0    0 -0.56268296807E+02  0.14379133032E+02 -0.12318934455E+03  0.16791870063E+03  0.98225224450E+02 0.  0.
         23    2    1    2    0    0  0.36038999534E+02 -0.29482015202E+02 -0.10582291901E+02  0.10311396672E+03  0.91392048462E+02 0.  0.
        -11    1    3    3    0    0  0.23171132253E+02 -0.12480153534E+02 -0.50481351961E+02  0.56929978903E+02  0.00000000000E+00 0.  1.
         11    1    3    3    0    0 -0.79439429059E+02  0.26859286567E+02 -0.72707992585E+02  0.11098872172E+03  0.00000000000E+00 0. -1.
        -11    1    4    4    0    0  0.35207907415E+02  0.22963946065E+02 -0.24752050929E+02  0.48781180681E+02  0.00000000000E+00 0.  1.
         11    1    4    4    0    0  0.83109211911E+00 -0.52445961267E+02  0.14169759028E+02  0.54332786035E+02  0.00000000000E+00 0. -1.
         21    1    1    2  503  502  0.20440296884E+02  0.44951131501E+02 -0.10061433114E+02  0.50394864780E+02  0.00000000000E+00 0.  1.
          2    1    1    2  501    0 -0.21099961189E+00 -0.29848249331E+02  0.33738692427E+02  0.45047329284E+02  0.00000000000E+00 0. -1.
<scales pt_clust_5="13000.00000" pt_clust_6="13000.00000" pt_clust_7="13000.00000" pt_clust_8="13000.00000" pt_clust_9="43.27787" pt_clust_10="29.84900"></scales>
<clustering>
<clus scale="   29.849">  1 10  2 -1</clus>
<clus scale="   43.278">  1  9  2 -1</clus>
<clus scale="   91.392">  7  8 -1 -1</clus>
<clus scale="   98.225">  5  6 -1 -1</clus>
<clus scale="  105.796">  1  7  2 -1</clus>
<clus scale="   29.849">  1  5  2 -1</clus>
</clustering>
</event>
<event>
10    2  0.1671105E-006  0.9350613E+02  0.7546771E-02  0.1296210E+00
          1   -1    0    0  502    0 -0.00000000000E+00  0.00000000000E+00  0.53724823641E+03  0.53724823641E+03  0.00000000000E+00 0. -1.
         21   -1    0    0  503  502  0.00000000000E+00 -0.00000000000E+00 -0.13220795936E+03  0.13220795936E+03  0.00000000000E+00 0. -1.
         23    2    1    2    0    0 -0.37121786052E+02 -0.16219217069E+02  0.32748407907E+03  0.34185483565E+03  0.89318624107E+02 0.  0.
         23    2    1    2    0    0 -0.29256109249E+02 -0.43726563403E+02  0.16787488516E+03  0.19759804535E+03  0.89972652420E+02 0.  0.
        -13    1    4    4    0    0  0.80859598758E+01  0.21128134630E+02  0.14310240931E+02  0.26768709636E+02  0.00000000000E+00 0.  1.
         13    1    4    4    0    0 -0.37342069124E+02 -0.64854698033E+02  0.15356464423E+03  0.17082933572E+03  0.00000000000E+00 0. -1.
        -13    1    3    3    0    0 -0.55407969768E+02  0.16744158502E+02  0.23409450251E+03  0.24114445062E+03  0.00000000000E+00 0.  1.
         13    1    3    3    0    0  0.18286183717E+02 -0.32963375571E+02  0.93389576559E+02  0.10071038503E+03  0.00000000000E+00 0. -1.
         21    1    1    2  503  501  0.31850262422E+02  0.11206222766E+02 -0.31631524835E+02  0.46266316131E+02  0.00000000000E+00 0. -1.
          1    1    1    2  501    0  0.34527632879E+02  0.48739557706E+02 -0.58687162347E+02  0.83736998644E+02  0.00000000000E+00 0. -1.
<scales pt_clust_5="13000.00000" pt_clust_6="13000.00000" pt_clust_7="13000.00000" pt_clust_8="13000.00000" pt_clust_9="20.50599" pt_clust_10="93.50613"></scales>
<clustering>
<clus scale="   20.506">  9 10 -1 -1</clus>
<clus scale="   89.319">  7  8 -1 -1</clus>
<clus scale="   89.973">  5  6 -1 -1</clus>
<clus scale="   93.506">  2  9  1 -1</clus>
<clus scale="   90.712">  1  7  2 -1</clus>
<clus scale="   93.506">  2  5  1 -1</clus>
</clustering>
</event>
<event>
10    2  0.1671105E-006  0.9736262E+02  0.7546771E-02  0.1288259E+00
          2   -1    0    0  503    0 -0.00000000000E+00  0.00000000000E+00  0.35365895195E+03  0.35365895195E+03  0.00000000000E+00 0. -1.
         21   -1    0    0  501  502  0.00000000000E+00 -0.00000000000E+00 -0.80472873691E+02  0.80472873691E+02  0.00000000000E+00 0. -1.
         23    2    1    2    0    0  0.13004199652E+02 -0.60951927601E+01  0.15477494505E+03  0.18082416992E+03  0.92389589396E+02 0.  0.
         23    2    1    2    0    0  0.87515936808E+01 -0.34299946610E+02  0.14654239088E+03  0.17903935356E+03  0.96578160418E+02 0.  0.
        -13    1    4    4    0    0 -0.37850384537E+02  0.32135463187E+01  0.31406051504E+02  0.49288117844E+02  0.00000000000E+00 0.  1.
         13    1    4    4    0    0  0.46601978218E+02 -0.37513492928E+02  0.11513633938E+03  0.12975123572E+03  0.00000000000E+00 0. -1.
        -13    1    3    3    0    0 -0.39063437850E+02  0.72246118352E+01  0.68011449396E+02  0.78763598456E+02  0.00000000000E+00 0.  1.
         13    1    3    3    0    0  0.52067637502E+02 -0.13319804595E+02  0.86763495655E+02  0.10206057147E+03  0.00000000000E+00 0. -1.
         21    1    1    2  503  502  0.16797926895E+02  0.13287775986E+02 -0.62820534106E+01  0.22320383816E+02  0.00000000000E+00 0. -1.
          2    1    1    2  501    0 -0.38553720228E+02  0.27107363384E+02 -0.21849204262E+02  0.51947918341E+02  0.00000000000E+00 0. -1.
<scales pt_clust_5="13000.00000" pt_clust_6="13000.00000" pt_clust_7="13000.00000" pt_clust_8="13000.00000" pt_clust_9="21.41811" pt_clust_10="45.20275"></scales>
<clustering>
<clus scale="   21.418">  2  9  1 -1</clus>
<clus scale="   45.203">  2 10  1 -1</clus>
<clus scale="   92.390">  7  8 -1 -1</clus>
<clus scale="   93.209">  1  7  2 -1</clus>
<clus scale="   96.578">  5  6 -1 -1</clus>
<clus scale="   21.418">  2  5  1 -1</clus>
</clustering>
</event>
<event>
10    2  0.1671105E-006  0.1001499E+03  0.7546771E-02  0.1280141E+00
         21   -1    0    0  501  502  0.00000000000E+00  0.00000000000E+00  0.68768912886E+03  0.68768912886E+03  0.00000000000E+00 0. -1.
          3   -1    0    0  503    0 -0.00000000000E+00 -0.00000000000E+00 -0.43798442224E+02  0.43798442224E+02  0.00000000000E+00 0. -1.
         23    2    1    2    0    0  0.27387246967E+02 -0.24968407715E+02  0.11733165263E+03  0.15328860458E+03  0.91417705642E+02 0.  0.
         23    2    1    2    0    0  0.24994616165E+02  0.61402671122E+02  0.16235262323E+03  0.19761019398E+03  0.91084552115E+02 0.  0.
        -13    1    3    3    0    0 -0.17174908755E+02 -0.38775129175E+02  0.89311003209E+02  0.98868313566E+02  0.00000000000E+00 0.  1.
         13    1    3    3    0    0  0.44562155723E+02  0.13806721460E+02  0.28020649425E+02  0.54420291017E+02  0.00000000000E+00 0. -1.
        -13    1    4    4    0    0  0.69327832327E+01 -0.21106230466E+02  0.65172743787E+02  0.68855086817E+02  0.00000000000E+00 0.  1.
         13    1    4    4    0    0  0.18061832932E+02  0.82508901588E+02  0.97179879448E+02  0.12875510716E+03  0.00000000000E+00 0. -1.
         21    1    1    2  503  502 -0.29093356685E+02  0.28577270389E+02  0.11624708734E+03  0.12319281270E+03  0.00000000000E+00 0.  1.
          3    1    1    2  501    0 -0.23288506447E+02 -0.65011533795E+02  0.24795932343E+03  0.25739595982E+03  0.00000000000E+00 0. -1.
<scales pt_clust_5="13000.00000" pt_clust_6="13000.00000" pt_clust_7="13000.00000" pt_clust_8="13000.00000" pt_clust_9="40.78092" pt_clust_10="63.62245"></scales>
<clustering>
<clus scale="   40.781">  1  9  2 -1</clus>
<clus scale="   63.622">  1 10  2 -1</clus>
<clus scale="   91.085">  7  8 -1 -1</clus>
<clus scale="   91.418">  5  6 -1 -1</clus>
<clus scale="   99.846">  1  7  2 -1</clus>
<clus scale="   40.781">  1  5  2 -1</clus>
</clustering>
</event>
<event>
10    2  0.1671105E-006  0.1077899E+03  0.7546771E-02  0.1265568E+00
         21   -1    0    0  501  502  0.00000000000E+00  0.00000000000E+00  0.21005142203E+03  0.21005142203E+03  0.00000000000E+00 0. -1.
          1   -1    0    0  503    0 -0.00000000000E+00 -0.00000000000E+00 -0.29099964451E+03  0.29099964451E+03  0.00000000000E+00 0. -1.
         23    2    1    2    0    0  0.74746921841E+01  0.45506821078E+02 -0.11209130400E+03  0.15175375247E+03  0.91312645165E+02 0.  0.
         23    2    1    2    0    0 -0.71534188983E+02 -0.10349904160E+03  0.12245354666E+03  0.19884831492E+03  0.93362676976E+02 0.  0.
        -11    1    3    3    0    0 -0.35659322936E+02 -0.31491454186E+01 -0.52575438113E+02  0.63605668945E+02  0.00000000000E+00 0.  1.
         11    1    3    3    0    0  0.43134015120E+02  0.48655966497E+02 -0.59515865891E+02  0.88148083524E+02  0.00000000000E+00 0. -1.
        -13    1    4    4    0    0 -0.32631126316E+02 -0.71871550120E+00  0.69662698104E+02  0.76929828180E+02  0.00000000000E+00 0.  1.
         13    1    4    4    0    0 -0.38903062666E+02 -0.10278032610E+03  0.52790848554E+02  0.12191848674E+03  0.00000000000E+00 0. -1.
         21    1    1    2  503  502 -0.16656374821E+02  0.12622417982E+02 -0.72037262092E+00  0.20911221738E+02  0.00000000000E+00 0.  1.
          1    1    1    2  501    0  0.80715871619E+02  0.45369802545E+02 -0.90590092515E+02  0.12953777741E+03  0.00000000000E+00 0. -1.
<scales pt_clust_5="13000.00000" pt_clust_6="13000.00000" pt_clust_7="13000.00000" pt_clust_8="13000.00000" pt_clust_9="20.89881" pt_clust_10="91.80032"></scales>
<clustering>
<clus scale="   20.899">  1  9  2 -1</clus>
<clus scale="   91.313">  5  6 -1 -1</clus>
<clus scale="   91.800">  1 10  2 -1</clus>
<clus scale="   93.363">  7  8 -1 -1</clus>
<clus scale="  106.019">  2  5  1 -1</clus>
<clus scale="   20.899">  1  5  2 -1</clus>
</clustering>
</event>
<event>
10    2  0.1671105E-006  0.9849458E+02  0.7546771E-02  0.1283772E+00
         21   -1    0    0  501  502  0.00000000000E+00  0.00000000000E+00  0.99064058514E+02  0.99064058514E+02  0.00000000000E+00 0.  1.
          1   -1    0    0  503    0 -0.00000000000E+00 -0.00000000000E+00 -0.17427898828E+03  0.17427898828E+03  0.00000000000E+00 0. -1.
         23    2    1    2    0    0  0.13800271404E+02  0.18309671267E+02 -0.55392983457E+02  0.10957991421E+03  0.91726132754E+02 0.  0.
         23    2    1    2    0    0 -0.38901708068E+02 -0.30956063769E+02 -0.44821701543E+02  0.11399978904E+03  0.92278633480E+02 0.  0.
        -11    1    3    3    0    0 -0.35289487987E+02  0.62783053658E+01 -0.45760884116E+02  0.58127649150E+02  0.00000000000E+00 0.  1.
         11    1    3    3    0    0  0.49089759390E+02  0.12031365901E+02 -0.96320993407E+01  0.51452265063E+02  0.00000000000E+00 0. -1.
        -13    1    4    4    0    0 -0.61837783135E+02 -0.44046179692E+02 -0.21861504190E+02  0.79005713299E+02  0.00000000000E+00 0.  1.
         13    1    4    4    0    0  0.22936075067E+02  0.13090115923E+02 -0.22960197352E+02  0.34994075739E+02  0.00000000000E+00 0. -1.
         21    1    1    2  503  502  0.20909997261E+02 -0.73232558412E+01  0.93467665180E+01  0.24046207724E+02  0.00000000000E+00 0.  1.
          1    1    1    2  501    0  0.41914394034E+01  0.19969648344E+02  0.15652988713E+02  0.25717135822E+02  0.00000000000E+00 0. -1.
<scales pt_clust_5="13000.00000" pt_clust_6="13000.00000" pt_clust_7="13000.00000" pt_clust_8="13000.00000" pt_clust_9="22.01784" pt_clust_10="20.40478"></scales>
<clustering>
<clus scale="   20.405">  1 10  2 -1</clus>
<clus scale="   22.018">  1  9  2 -1</clus>
<clus scale="   91.726">  5  6 -1 -1</clus>
<clus scale="   92.279">  7  8 -1 -1</clus>
<clus scale="   97.977">  2  5  1 -1</clus>
<clus scale="   20.405">  1  5  2 -1</clus>
</clustering>
</event>
<event>
10    2  0.1671105E-006  0.9511586E+02  0.7546771E-02  0.1291426E+00
         -2   -1    0    0    0  501 -0.00000000000E+00  0.00000000000E+00  0.19430323558E+03  0.19430323558E+03  0.00000000000E+00 0.  1.
         21   -1    0    0  503  502  0.00000000000E+00 -0.00000000000E+00 -0.12760274528E+03  0.12760274528E+03  0.00000000000E+00 0.  1.
         23    2    1    2    0    0 -0.62518694360E+01  0.32379754625E+01  0.98857740670E+02  0.13628194093E+03  0.93543274356E+02 0.  0.
         23    2    1    2    0    0  0.12550374071E+02 -0.37968663604E+02  0.33663958410E+02  0.10635601854E+03  0.92624021070E+02 0.  0.
        -13    1    3    3    0    0 -0.36732061120E+02 -0.25489162371E+02  0.76995922106E+02  0.89035463348E+02  0.00000000000E+00 0.  1.
         13    1    3    3    0    0  0.30480191684E+02  0.28727137834E+02  0.21861818564E+02  0.47246477584E+02  0.00000000000E+00 0. -1.
        -13    1    4    4    0    0  0.50614155338E+02 -0.20880056203E+02  0.34334576023E+02  0.64626871951E+02  0.00000000000E+00 0. -1.
         13    1    4    4    0    0 -0.38063781267E+02 -0.17088607402E+02 -0.67061761279E+00  0.41729146592E+02  0.00000000000E+00 0.  1.
         21    1    1    2  503  501 -0.14287304265E+02  0.14986578021E+02 -0.20234247751E+02  0.28950809418E+02  0.00000000000E+00 0. -1.
         -2    1    1    2    0  502  0.79887996305E+01  0.19744110121E+02 -0.45586961029E+02  0.50317211964E+02  0.00000000000E+00 0.  1.
<scales pt_clust_5="13000.00000" pt_clust_6="13000.00000" pt_clust_7="13000.00000" pt_clust_8="13000.00000" pt_clust_9="20.70567" pt_clust_10="26.75396"></scales>
<clustering>
<clus scale="   20.706">  2  9  1 -1</clus>
<clus scale="   26.754">  2 10  1 -1</clus>
<clus scale="   92.624">  7  8 -1 -1</clus>
<clus scale="   93.543">  5  6 -1 -1</clus>
<clus scale="   94.212">  2  7  1 -1</clus>
<clus scale="   20.706">  2  5  1 -1</clus>
</clustering>
</event>
<event>
10    2  0.1671105E-006  0.1006809E+03  0.7546771E-02  0.1280464E+00
          3   -1    0    0  502    0 -0.00000000000E+00  0.00000000000E+00  0.91438456381E+02  0.91438456381E+02  0.00000000000E+00 0. -1.
         21   -1    0    0  503  502  0.00000000000E+00 -0.00000000000E+00 -0.44138401279E+03  0.44138401279E+03  0.00000000000E+00 0. -1.
         23    2    1    2    0    0 -0.16760543943E+02 -0.47284898721E+01 -0.14212191943E+02  0.10123354516E+03  0.98706483147E+02 0.  0.
         23    2    1    2    0    0 -0.63770250741E+02 -0.39078382521E+02 -0.47595864915E+02  0.12734705301E+03  0.91422867456E+02 0.  0.
        -11    1    4    4    0    0  0.16813952394E+02 -0.31293173620E+02 -0.50265518767E+01  0.35878098251E+02  0.00000000000E+00 0.  1.
         11    1    4    4    0    0 -0.80584203135E+02 -0.77852089005E+01 -0.42569313038E+02  0.91468954761E+02  0.00000000000E+00 0. -1.
        -11    1    3    3    0    0  0.21053880888E+02  0.37613638420E+02 -0.10364720620E+02  0.44333724513E+02  0.00000000000E+00 0.  1.
         11    1    3    3    0    0 -0.37814424831E+02 -0.42342128292E+02 -0.38474713237E+01  0.56899820643E+02  0.00000000000E+00 0. -1.
         21    1    1    2  503  501  0.30628165250E+02  0.35155652970E+02 -0.12443444094E+03  0.13288316121E+03  0.00000000000E+00 0. -1.
          3    1    1    2  501    0  0.49902629434E+02  0.86512194232E+01 -0.16370305862E+03  0.17135870980E+03  0.00000000000E+00 0. -1.
<scales pt_clust_5="13000.00000" pt_clust_6="13000.00000" pt_clust_7="13000.00000" pt_clust_8="13000.00000" pt_clust_9="32.33404" pt_clust_10="97.67240"></scales>
<clustering>
<clus scale="   32.334">  9 10 -1 -1</clus>
<clus scale="   91.423">  5  6 -1 -1</clus>
<clus scale="   97.672">  2  9  1 -1</clus>
<clus scale="   97.672">  2  5  1 -1</clus>
<clus scale="   98.706">  7  8 -1 -1</clus>
<clus scale="   97.672">  2  5  1 -1</clus>
</clustering>
</event>
<event>
10    2  0.1671105E-006  0.9846314E+02  0.7546771E-02  0.1284047E+00
         21   -1    0    0  501  502  0.00000000000E+00  0.00000000000E+00  0.20569611285E+03  0.20569611285E+03  0.00000000000E+00 0. -1.
          3   -1    0    0  503    0 -0.00000000000E+00 -0.00000000000E+00 -0.36708986218E+03  0.36708986218E+03  0.00000000000E+00 0. -1.
         23    2    1    2    0    0 -0.34913762182E+02 -0.15576727184E+02 -0.30986254905E+03  0.32496950352E+03  0.90159712153E+02 0.  0.
         23    2    1    2    0    0  0.23168007575E+02  0.10524923217E+02  0.69966397033E+02  0.11767812762E+03  0.91133497813E+02 0.  0.
        -11    1    4    4    0    0 -0.35250826387E+02  0.51494238209E+01  0.31248156616E+02  0.47387599839E+02  0.00000000000E+00 0. -1.
         11    1    4    4    0    0  0.58418833962E+02  0.53754993958E+01  0.38718240418E+02  0.70290527785E+02  0.00000000000E+00 0.  1.
        -13    1    3    3    0    0 -0.45178525331E+02 -0.36761505354E+02 -0.28435649684E+03  0.29026044292E+03  0.00000000000E+00 0. -1.
         13    1    3    3    0    0  0.10264763149E+02  0.21184778170E+02 -0.25506052204E+02  0.34709060599E+02  0.00000000000E+00 0.  1.
         21    1    1    2  503  502 -0.16251360113E+02 -0.29955029498E+02 -0.58855358715E+01  0.34583956255E+02  0.00000000000E+00 0. -1.
          3    1    1    2  501    0  0.27997114720E+02  0.35006833465E+02  0.84387938557E+02  0.95554387632E+02  0.00000000000E+00 0. -1.
<scales pt_clust_5="13000.00000" pt_clust_6="13000.00000" pt_clust_7="13000.00000" pt_clust_8="13000.00000" pt_clust_9="34.07947" pt_clust_10="29.19052"></scales>
<clustering>
<clus scale="   34.079">  1  9  2 -1</clus>
<clus scale="   29.191">  1 10  2 -1</clus>
<clus scale="   90.160">  7  8 -1 -1</clus>
<clus scale="   91.133">  5  6 -1 -1</clus>
<clus scale="   97.563">  2  7  1 -1</clus>
<clus scale="   34.079">  1  5  2 -1</clus>
</clustering>
</event>
<event>
10    2  0.1671105E-006  0.1159469E+03  0.7546771E-02  0.1250901E+00
          3   -1    0    0  502    0 -0.00000000000E+00  0.00000000000E+00  0.15407116849E+03  0.15407116849E+03  0.00000000000E+00 0. -1.
         21   -1    0    0  503  502  0.00000000000E+00 -0.00000000000E+00 -0.19843738235E+03  0.19843738235E+03  0.00000000000E+00 0. -1.
         23    2    1    2    0    0  0.40884807654E+02 -0.68446495505E+02  0.77496141173E+02  0.14505098312E+03  0.93153881104E+02 0.  0.
         23    2    1    2    0    0 -0.49267281014E+02  0.16958108503E+02 -0.52858529859E+02  0.11695838417E+03  0.90390248515E+02 0.  0.
        -13    1    3    3    0    0  0.14891717232E+02 -0.25180348152E+02 -0.19880735260E+02  0.35370281447E+02  0.00000000000E+00 0.  1.
         13    1    3    3    0    0  0.25993090422E+02 -0.43266147352E+02  0.97376876433E+02  0.10968070168E+03  0.00000000000E+00 0. -1.
        -13    1    4    4    0    0 -0.33944680785E+02 -0.33196131748E+02 -0.84196867901E+01  0.48219452944E+02  0.00000000000E+00 0.  1.
         13    1    4    4    0    0 -0.15322600230E+02  0.50154240251E+02 -0.44438843069E+02  0.68738931227E+02  0.00000000000E+00 0. -1.
         21    1    1    2  503  501  0.15389979845E+02  0.15925807191E+02 -0.22964524028E+02  0.31903795670E+02  0.00000000000E+00 0.  1.
          3    1    1    2  501    0 -0.70075064854E+01  0.35562579810E+02 -0.46039301147E+02  0.58595387873E+02  0.00000000000E+00 0. -1.
<scales pt_clust_5="13000.00000" pt_clust_6="13000.00000" pt_clust_7="13000.00000" pt_clust_8="13000.00000" pt_clust_9="20.78793" pt_clust_10="58.55403"></scales>
<clustering>
<clus scale="   20.788">  9 10 -1 -1</clus>
<clus scale="   58.554">  2  9  1 -1</clus>
<clus scale="   90.390">  7  8 -1 -1</clus>
<clus scale="   93.154">  5  6 -1 -1</clus>
<clus scale="  113.738">  2  7  1 -1</clus>
<clus scale="   58.554">  2  5  1 -1</clus>
</clustering>
</event>
<event>
10    2  0.1671105E-006  0.2036314E+03  0.7546771E-02  0.1170359E+00
          2   -1    0    0  503    0 -0.00000000000E+00  0.00000000000E+00  0.55921921935E+03  0.55921921935E+03  0.00000000000E+00 0. -1.
         21   -1    0    0  501  502  0.00000000000E+00 -0.00000000000E+00 -0.25959646451E+03  0.25959646451E+03  0.00000000000E+00 0. -1.
         23    2    1    2    0    0  0.22990323964E+02  0.71396837610E+00  0.23598016544E+03  0.25390526136E+03  0.90841502165E+02 0.  0.
         23    2    1    2    0    0 -0.24885041807E+03 -0.28555278062E+02 -0.51553058227E+02  0.27161000623E+03  0.91500509245E+02 0.  0.
        -11    1    3    3    0    0  0.22033372988E+02 -0.43881411245E+02  0.12392745296E+03  0.13330064282E+03  0.00000000000E+00 0. -1.
         11    1    3    3    0    0  0.95695097568E+00  0.44595379621E+02  0.11205271248E+03  0.12060461854E+03  0.00000000000E+00 0.  1.
        -13    1    4    4    0    0 -0.17379617055E+03 -0.56372368684E+02 -0.56963949224E+02  0.19138402326E+03  0.00000000000E+00 0. -1.
         13    1    4    4    0    0 -0.75054247521E+02  0.27817090622E+02  0.54108909975E+01  0.80225982967E+02  0.00000000000E+00 0.  1.
         21    1    1    2  503  502  0.87947319829E+02 -0.14007247119E+01  0.12402088699E+03  0.15204562968E+03  0.00000000000E+00 0.  1.
          2    1    1    2  501    0  0.13791277428E+03  0.29242034398E+02 -0.88252393742E+01  0.14125478659E+03  0.00000000000E+00 0. -1.
<scales pt_clust_5="13000.00000" pt_clust_6="13000.00000" pt_clust_7="13000.00000" pt_clust_8="13000.00000" pt_clust_9="87.95847" pt_clust_10="181.91597"></scales>
<clustering>
<clus scale="   87.958">  1  9  2 -1</clus>
<clus scale="   90.842">  5  6 -1 -1</clus>
<clus scale="   91.501">  7  8 -1 -1</clus>
<clus scale="  117.254">  1  5  2 -1</clus>
<clus scale="  181.916">  2 10  1 -1</clus>
<clus scale="  181.916">  2  5  1 -1</clus>
</clustering>
</event>
<event>
10    2  0.1671105E-006  0.2197786E+03  0.7546771E-02  0.1148170E+00
         21   -1    0    0  503  502  0.00000000000E+00  0.00000000000E+00  0.37408430283E+03  0.37408430283E+03  0.00000000000E+00 0.  1.
          2   -1    0    0  502    0 -0.00000000000E+00 -0.00000000000E+00 -0.30889670995E+03  0.30889670995E+03  0.00000000000E+00 0. -1.
         23    2    1    2    0    0 -0.87881656422E+02  0.87117143350E+02 -0.12171400933E+03  0.19820827533E+03  0.95705998455E+02 0.  0.
         23    2    1    2    0    0 -0.11918521133E+02 -0.23034139385E+03  0.16787867591E+03  0.30066587397E+03  0.94960565885E+02 0.  0.
        -11    1    4    4    0    0  0.61143114636E+01 -0.15907433098E+03  0.16167116127E+03  0.22689114564E+03  0.00000000000E+00 0.  1.
         11    1    4    4    0    0 -0.18032832597E+02 -0.71267062876E+02  0.62075146421E+01  0.73774728332E+02  0.00000000000E+00 0. -1.
        -13    1    3    3    0    0 -0.43541626618E+02  0.26440912672E+02  0.46849853746E+01  0.51156076857E+02  0.00000000000E+00 0.  1.
         13    1    3    3    0    0 -0.44340029805E+02  0.60676230678E+02 -0.12639899471E+03  0.14705219847E+03  0.00000000000E+00 0. -1.
         21    1    1    2  503  501  0.31158297315E+02  0.56437835470E+02  0.33263859455E+02  0.72543456700E+02  0.00000000000E+00 0.  1.
          2    1    1    2  501    0  0.68641880240E+02  0.86786415035E+02 -0.14240933153E+02  0.11156340679E+03  0.00000000000E+00 0. -1.
<scales pt_clust_5="13000.00000" pt_clust_6="13000.00000" pt_clust_7="13000.00000" pt_clust_8="13000.00000" pt_clust_9="42.22491" pt_clust_10="205.77991"></scales>
<clustering>
<clus scale="   42.225">  9 10 -1 -1</clus>
<clus scale="   94.961">  5  6 -1 -1</clus>
<clus scale="   95.706">  7  8 -1 -1</clus>
<clus scale="  156.436">  2  7  1 -1</clus>
<clus scale="  205.780">  1  9  2 -1</clus>
<clus scale="  205.780">  1  5  2 -1</clus>
</clustering>
</event>
<event>
10    2  0.1671105E-006  0.1204977E+03  0.7546771E-02  0.1244990E+00
         21   -1    0    0  501  502  0.00000000000E+00  0.00000000000E+00  0.45325365504E+03  0.45325365504E+03  0.00000000000E+00 0.  1.
          3   -1    0    0  503    0 -0.00000000000E+00 -0.00000000000E+00 -0.76397402164E+02  0.76397402164E+02  0.00000000000E+00 0. -1.
         23    2    1    2    0    0  0.45877879124E+02 -0.86969434088E+02  0.12489923780E+03  0.18549883700E+03  0.95611383571E+02 0.  0.
         23    2    1    2    0    0  0.37223181958E+02  0.57001713714E+02  0.18127083058E+03  0.21243746385E+03  0.87383072663E+02 0.  0.
        -11    1    4    4    0    0 -0.21874987658E+02  0.52523068260E+01  0.11262408011E+02  0.25158371295E+02  0.00000000000E+00 0.  1.
         11    1    4    4    0    0  0.59098169615E+02  0.51749406888E+02  0.17000842257E+03  0.18727909256E+03  0.00000000000E+00 0. -1.
        -13    1    3    3    0    0  0.65863780218E+01 -0.21521609523E+02  0.10392392397E+03  0.10633316522E+03  0.00000000000E+00 0.  1.
         13    1    3    3    0    0  0.39291501102E+02 -0.65447824565E+02  0.20975313829E+02  0.79165671786E+02  0.00000000000E+00 0. -1.
         21    1    1    2  503  502 -0.60165689186E+02 -0.21928576221E+01  0.69835206133E+02  0.92204526979E+02  0.00000000000E+00 0.  1.
          3    1    1    2  501    0 -0.22935371896E+02  0.32160577996E+02  0.85097837087E+00  0.39510229374E+02  0.00000000000E+00 0. -1.
<scales pt_clust_5="13000.00000" pt_clust_6="13000.00000" pt_clust_7="13000.00000" pt_clust_8="13000.00000" pt_clust_9="64.56979" pt_clust_10="39.50108"></scales>
<clustering>
<clus scale="   39.501">  1 10  2 -1</clus>
<clus scale="   64.570">  2  9  1 -1</clus>
<clus scale="   87.383">  5  6 -1 -1</clus>
<clus scale="   95.611">  7  8 -1 -1</clus>
<clus scale="  114.079">  1  5  2 -1</clus>
<clus scale="   39.501">  1  5  2 -1</clus>
</clustering>
</event>
<event>
10    2  0.1671105E-006  0.1136757E+03  0.7546771E-02  0.1259834E+00
          1   -1    0    0  502    0 -0.00000000000E+00  0.00000000000E+00  0.47108500737E+03  0.47108500737E+03  0.00000000000E+00 0. -1.
         21   -1    0    0  503  502  0.00000000000E+00 -0.00000000000E+00 -0.82073226878E+02  0.82073226878E+02  0.00000000000E+00 0. -1.
         23    2    1    2    0    0  0.44739272187E+02 -0.80476613654E+02  0.30447866194E+03  0.33012887478E+03  0.88316083249E+02 0.  0.
         23    2    1    2    0    0  0.10074183338E+02  0.54315824344E+02  0.11446979122E+03  0.14580292643E+03  0.71438521187E+02 0.  0.
        -11    1    4    4    0    0 -0.28885353163E+02  0.15134350272E+02  0.26971574795E+02  0.42318766905E+02  0.00000000000E+00 0.  1.
         11    1    4    4    0    0  0.38959536501E+02  0.39181474072E+02  0.87498216426E+02  0.10348415953E+03  0.00000000000E+00 0. -1.
        -11    1    3    3    0    0  0.28712741320E+02  0.74248880116E+01  0.33214312924E+02  0.44527980632E+02  0.00000000000E+00 0.  1.
         11    1    3    3    0    0  0.16026530867E+02 -0.87901501666E+02  0.27126434902E+03  0.28560089414E+03  0.00000000000E+00 0. -1.
         21    1    1    2  503  501 -0.88893614982E+01  0.22292711452E+02 -0.16828475783E+02  0.29311829163E+02  0.00000000000E+00 0. -1.
          1    1    1    2  501    0 -0.45924094027E+02  0.38680778582E+01 -0.13108196895E+02  0.47914603874E+02  0.00000000000E+00 0. -1.
<scales pt_clust_5="13000.00000" pt_clust_6="13000.00000" pt_clust_7="13000.00000" pt_clust_8="13000.00000" pt_clust_9="23.99970" pt_clust_10="52.81477"></scales>
<clustering>
<clus scale="   24.000">  2  9  1 -1</clus>
<clus scale="   52.815">  2 10  1 -1</clus>
<clus scale="   71.439">  5  6 -1 -1</clus>
<clus scale="   88.316">  7  8 -1 -1</clus>
<clus scale="  101.123">  2  5  1 -1</clus>
<clus scale="   24.000">  2  5  1 -1</clus>
</clustering>
</event>
<event>
10    2  0.1671105E-006  0.2572354E+03  0.7546771E-02  0.1137792E+00
         21   -1    0    0  503  502  0.00000000000E+00  0.00000000000E+00  0.24871245836E+03  0.24871245836E+03  0.00000000000E+00 0. -1.
          1   -1    0    0  502    0 -0.00000000000E+00 -0.00000000000E+00 -0.53416746070E+03  0.53416746070E+03  0.00000000000E+00 0. -1.
         23    2    1    2    0    0 -0.45004587066E+01  0.84947449771E+02 -0.11651516887E+03  0.17099464539E+03  0.91799024085E+02 0.  0.
         23    2    1    2    0    0  0.21522174750E+03 -0.17873521557E+03 -0.22725506107E+03  0.37194475086E+03  0.91822421160E+02 0.  0.
        -13    1    3    3    0    0  0.21356989347E+02  0.93254461030E+02 -0.10328470602E+03  0.14078439542E+03  0.00000000000E+00 0. -1.
         13    1    3    3    0    0 -0.25857448054E+02 -0.83070112594E+01 -0.13230462854E+02  0.30210249970E+02  0.00000000000E+00 0.  1.
        -13    1    4    4    0    0  0.13912548602E+03 -0.79783699571E+02 -0.17279793080E+03  0.23575509425E+03  0.00000000000E+00 0. -1.
         13    1    4    4    0    0  0.76096261481E+02 -0.98951515995E+02 -0.54457130273E+02  0.13618965661E+03  0.00000000000E+00 0.  1.
         21    1    1    2  503  501 -0.87200894861E+02  0.28581919241E+02  0.35607358594E+02  0.98431733491E+02  0.00000000000E+00 0. -1.
          1    1    1    2  501    0 -0.12352039393E+03  0.65205846554E+02  0.22707869014E+02  0.14150878933E+03  0.00000000000E+00 0. -1.
<scales pt_clust_5="13000.00000" pt_clust_6="13000.00000" pt_clust_7="13000.00000" pt_clust_8="13000.00000" pt_clust_9="25.25986" pt_clust_10="242.30120"></scales>
<clustering>
<clus scale="   25.260">  9 10 -1 -1</clus>
<clus scale="   91.799">  5  6 -1 -1</clus>
<clus scale="   91.822">  7  8 -1 -1</clus>
<clus scale="  125.153">  2  5  1 -1</clus>
<clus scale="  242.301">  1  9  2 -1</clus>
<clus scale="  242.301">  1  5  2 -1</clus>
</clustering>
</event>
<event>
10    2  0.1671105E-006  0.1450690E+03  0.7546771E-02  0.1207045E+00
         21   -1    0    0  501  502  0.00000000000E+00  0.00000000000E+00  0.12976760579E+03  0.12976760579E+03  0.00000000000E+00 0.  1.
         -3   -1    0    0    0  501 -0.00000000000E+00 -0.00000000000E+00 -0.45333472030E+03  0.45333472030E+03  0.00000000000E+00 0.  1.
         23    2    1    2    0    0  0.10165823494E+03  0.30683369655E+02 -0.26828932702E+03  0.30290880277E+03  0.92188469424E+02 0.  0.
         23    2    1    2    0    0 -0.10451257920E+03 -0.81379788052E+02 -0.10618457689E+03  0.19230271851E+03  0.90330626382E+02 0.  0.
        -13    1    4    4    0    0 -0.56179511712E+02 -0.64212618634E+02 -0.13511702990E+02  0.86382660562E+02  0.00000000000E+00 0.  1.
         13    1    4    4    0    0 -0.48333067491E+02 -0.17167169418E+02 -0.92672873904E+02  0.10592005795E+03  0.00000000000E+00 0. -1.
        -13    1    3    3    0    0  0.83683553761E+02 -0.20593507206E+02 -0.17022163069E+03  0.19079421706E+03  0.00000000000E+00 0.  1.
         13    1    3    3    0    0  0.17974681181E+02  0.51276876861E+02 -0.98067696337E+02  0.11211458571E+03  0.00000000000E+00 0. -1.
         21    1    1    2  503  502  0.13193012835E+02  0.15450284092E+02  0.46689505919E+02  0.50918334901E+02  0.00000000000E+00 0.  1.
         -3    1    1    2    0  503 -0.10338668574E+02  0.35246134305E+02  0.42172834865E+01  0.36972469911E+02  0.00000000000E+00 0.  1.
<scales pt_clust_5="13000.00000" pt_clust_6="13000.00000" pt_clust_7="13000.00000" pt_clust_8="13000.00000" pt_clust_9="20.31666" pt_clust_10="39.79368"></scales>
<clustering>
<clus scale="   20.317">  1  9  2 -1</clus>
<clus scale="   39.794">  1 10  2 -1</clus>
<clus scale="   90.331">  5  6 -1 -1</clus>
<clus scale="   92.188">  7  8 -1 -1</clus>
<clus scale="  143.895">  1  5  2 -1</clus>
<clus scale="   20.317">  1  5  2 -1</clus>
</clustering>
</event>
<event>
10    2  0.1671105E-006  0.2430005E+03  0.7546771E-02  0.1151580E+00
          1   -1    0    0  502    0 -0.00000000000E+00  0.00000000000E+00  0.50213823384E+03  0.50213823384E+03  0.00000000000E+00 0. -1.
         21   -1    0    0  503  502  0.00000000000E+00 -0.00000000000E+00 -0.52773951811E+03  0.52773951811E+03  0.00000000000E+00 0. -1.
         23    2    1    2    0    0 -0.39708908565E+02  0.39417871417E+02  0.20851223786E+03  0.23425026652E+03  0.90913519475E+02 0.  0.
         23    2    1    2    0    0 -0.13467538551E+03 -0.18395601788E+03  0.19109867810E+03  0.31059622953E+03  0.89297463861E+02 0.  0.
        -11    1    4    4    0    0 -0.70779946023E+02 -0.99913141301E+02  0.15813113769E+03  0.19999473311E+03  0.00000000000E+00 0.  1.
         11    1    4    4    0    0 -0.63895439484E+02 -0.84042876579E+02  0.32967540409E+02  0.11060149642E+03  0.00000000000E+00 0. -1.
        -11    1    3    3    0    0  0.17465805255E+02  0.35849841772E+02  0.40919517341E+02  0.57137311870E+02  0.00000000000E+00 0.  1.
         11    1    3    3    0    0 -0.57174713820E+02  0.35680296452E+01  0.16759272052E+03  0.17711295465E+03  0.00000000000E+00 0. -1.
         21    1    1    2  503  501  0.39710880175E+02  0.52576845025E+02 -0.16823930874E+03  0.18068133175E+03  0.00000000000E+00 0.  1.
          1    1    1    2  501    0  0.13467341390E+03  0.91961301438E+02 -0.25697289149E+03  0.30434992415E+03  0.00000000000E+00 0. -1.
<scales pt_clust_5="13000.00000" pt_clust_6="13000.00000" pt_clust_7="13000.00000" pt_clust_8="13000.00000" pt_clust_9="35.66795" pt_clust_10="232.86038"></scales>
<clustering>
<clus scale="   35.668">  9 10 -1 -1</clus>
<clus scale="   89.297">  5  6 -1 -1</clus>
<clus scale="   90.914">  7  8 -1 -1</clus>
<clus scale="  106.751">  1  7  2 -1</clus>
<clus scale="  232.860">  2  9  1 -1</clus>
<clus scale="  232.860">  2  5  1 -1</clus>
</clustering>
</event>
<event>
10    2  0.1671105E-006  0.2474430E+03  0.7546771E-02  0.1130167E+00
         21   -1    0    0  503  502  0.00000000000E+00  0.00000000000E+00  0.97365381163E+03  0.97365381163E+03  0.00000000000E+00 0. -1.
          4   -1    0    0  502    0 -0.00000000000E+00 -0.00000000000E+00 -0.13984233298E+03  0.13984233298E+03  0.00000000000E+00 0. -1.
         23    2    1    2    0    0  0.10063753830E+03  0.10180381748E+03  0.36057529771E+03  0.39835945725E+03  0.90464249804E+02 0.  0.
         23    2    1    2    0    0 -0.14961826723E+03 -0.28519615081E+03  0.25745346599E+03  0.42187973828E+03  0.89318285313E+02 0.  0.
        -11    1    3    3    0    0  0.59150637855E+02  0.81588845248E+02  0.32448482556E+03  0.33977336512E+03  0.00000000000E+00 0. -1.
         11    1    3    3    0    0  0.41486900447E+02  0.20214972233E+02  0.36090472156E+02  0.58586092134E+02  0.00000000000E+00 0.  1.
        -13    1    4    4    0    0 -0.82979677878E+02 -0.82927083084E+02  0.12325783238E+03  0.17016175038E+03  0.00000000000E+00 0.  1.
         13    1    4    4    0    0 -0.66638589355E+02 -0.20226906772E+03  0.13419563360E+03  0.25171798789E+03  0.00000000000E+00 0. -1.
         21    1    1    2  503  501  0.29516686830E+01  0.38894187019E+02  0.82920295691E+02  0.91636486016E+02  0.00000000000E+00 0. -1.
          4    1    1    2  501    0  0.46029060249E+02  0.14449814631E+03  0.13286241926E+03  0.20162046306E+03  0.00000000000E+00 0. -1.
<scales pt_clust_5="13000.00000" pt_clust_6="13000.00000" pt_clust_7="13000.00000" pt_clust_8="13000.00000" pt_clust_9="29.59635" pt_clust_10="238.02497"></scales>
<clustering>
<clus scale="   29.596">  9 10 -1 -1</clus>
<clus scale="   89.318">  7  8 -1 -1</clus>
<clus scale="   90.464">  5  6 -1 -1</clus>
<clus scale="  169.339">  2  5  1 -1</clus>
<clus scale="  238.025">  1  9  2 -1</clus>
<clus scale="  238.025">  1  5  2 -1</clus>
</clustering>
</event>
<event>
10    2  0.1671105E-006  0.9710382E+02  0.7546771E-02  0.1287990E+00
         -4   -1    0    0    0  501 -0.00000000000E+00  0.00000000000E+00  0.74248586403E+03  0.74248586403E+03  0.00000000000E+00 0.  1.
         21   -1    0    0  503  502  0.00000000000E+00 -0.00000000000E+00 -0.21951447203E+02  0.21951447203E+02  0.00000000000E+00 0. -1.
         23    2    1    2    0    0  0.35476280033E+01  0.30948632135E+02  0.45344483737E+03  0.46413861318E+03  0.94032059497E+02 0.  0.
         23    2    1    2    0    0  0.19243742052E+01 -0.88672976985E+01  0.16261484538E+03  0.18669816542E+03  0.91270394147E+02 0.  0.
        -13    1    3    3    0    0  0.35705761585E+02 -0.15706333646E+02  0.12849785833E+03  0.13428808555E+03  0.00000000000E+00 0. -1.
         13    1    3    3    0    0 -0.32158133582E+02  0.46654965781E+02  0.32494697905E+03  0.32985052763E+03  0.00000000000E+00 0.  1.
        -13    1    4    4    0    0 -0.11445257418E+02  0.39660575458E+02  0.68835063601E+02  0.80263448369E+02  0.00000000000E+00 0.  1.
         13    1    4    4    0    0  0.13369631623E+02 -0.48527873156E+02  0.93779781781E+02  0.10643471705E+03  0.00000000000E+00 0. -1.
         21    1    1    2  503  501  0.15276681272E+02 -0.16791405553E+02  0.62184131849E+02  0.66198146084E+02  0.00000000000E+00 0. -1.
         -4    1    1    2    0  502 -0.20748683481E+02 -0.52899288830E+01  0.42290602222E+02  0.47402386544E+02  0.00000000000E+00 0.  1.
<scales pt_clust_5="13000.00000" pt_clust_6="13000.00000" pt_clust_7="13000.00000" pt_clust_8="13000.00000" pt_clust_9="21.74906" pt_clust_10="21.41241"></scales>
<clustering>
<clus scale="   21.412">  2 10  1 -1</clus>
<clus scale="   21.749">  2  9  1 -1</clus>
<clus scale="   91.270">  7  8 -1 -1</clus>
<clus scale="   94.032">  5  6 -1 -1</clus>
<clus scale="   94.432">  2  7  1 -1</clus>
<clus scale="   21.412">  2  5  1 -1</clus>
</clustering>
</event>
<event>
10    2  0.1671105E-006  0.1097528E+03  0.7546771E-02  0.1262258E+00
          3   -1    0    0  503    0 -0.00000000000E+00  0.00000000000E+00  0.35808180442E+03  0.35808180442E+03  0.00000000000E+00 0. -1.
         21   -1    0    0  501  502  0.00000000000E+00 -0.00000000000E+00 -0.25107519874E+03  0.25107519874E+03  0.00000000000E+00 0. -1.
         23    2    1    2    0    0 -0.66495417497E+02  0.12665774767E+02  0.26086571685E+03  0.28526034903E+03  0.93490545519E+02 0.  0.
         23    2    1    2    0    0  0.35199622993E+02  0.14324914554E+02  0.52780637537E+02  0.11137215564E+03  0.90408764607E+02 0.  0.
        -13    1    4    4    0    0  0.24987591941E+02 -0.36343429855E+02  0.36297473883E+02  0.57120322609E+02  0.00000000000E+00 0. -1.
         13    1    4    4    0    0  0.10212031051E+02  0.50668344410E+02  0.16483163654E+02  0.54251833033E+02  0.00000000000E+00 0.  1.
        -13    1    3    3    0    0  0.80663985837E+01  0.36173739652E+02  0.76574727790E+02  0.85072293743E+02  0.00000000000E+00 0.  1.
         13    1    3    3    0    0 -0.74561816080E+02 -0.23507964885E+02  0.18429098906E+03  0.20018805528E+03  0.00000000000E+00 0. -1.
         21    1    1    2  503  502  0.89603182526E+01 -0.20728000413E+02 -0.60933444071E+02  0.64983243307E+02  0.00000000000E+00 0. -1.
          3    1    1    2  501    0  0.22335476251E+02 -0.62626889081E+01 -0.14570630463E+03  0.14754125519E+03  0.00000000000E+00 0. -1.
<scales pt_clust_5="13000.00000" pt_clust_6="13000.00000" pt_clust_7="13000.00000" pt_clust_8="13000.00000" pt_clust_9="22.58179" pt_clust_10="36.90834"></scales>
<clustering>
<clus scale="   22.582">  2  9  1 -1</clus>
<clus scale="   36.908">  2 10  1 -1</clus>
<clus scale="   90.409">  5  6 -1 -1</clus>
<clus scale="   93.491">  7  8 -1 -1</clus>
<clus scale="  107.140">  2  5  1 -1</clus>
<clus scale="   22.582">  2  5  1 -1</clus>
</clustering>
</event>
<event>
10    2  0.1671105E-006  0.1098660E+03  0.7546771E-02  0.1260848E+00
         21   -1    0    0  503  502  0.00000000000E+00  0.00000000000E+00  0.15209535016E+03  0.15209535016E+03  0.00000000000E+00 0.  1.
          2   -1    0    0  502    0 -0.00000000000E+00 -0.00000000000E+00 -0.27773444627E+03  0.27773444627E+03  0.00000000000E+00 0. -1.
         23    2    1    2    0    0  0.34333546617E+02 -0.12136686873E+02 -0.10961307968E+03  0.14781804594E+03  0.92244543886E+02 0.  0.
         23    2    1    2    0    0 -0.96980022807E+02  0.72056133826E+02 -0.70232426698E+02  0.16749045697E+03  0.92321439386E+02 0.  0.
        -11    1    3    3    0    0  0.20348689321E+02 -0.48451455557E+02 -0.90051530590E+02  0.10426356441E+03  0.00000000000E+00 0.  1.
         11    1    3    3    0    0  0.13984857296E+02  0.36314768684E+02 -0.19561549093E+02  0.43554481527E+02  0.00000000000E+00 0. -1.
        -13    1    4    4    0    0 -0.83974123247E+02  0.15179848884E+02 -0.14032406048E+02  0.86481151743E+02  0.00000000000E+00 0.  1.
         13    1    4    4    0    0 -0.13005899559E+02  0.56876284942E+02 -0.56200020650E+02  0.81009305226E+02  0.00000000000E+00 0. -1.
         21    1    1    2  503  501  0.11335536824E+02 -0.42133295993E+02  0.10667289565E+02  0.44916590398E+02  0.00000000000E+00 0. -1.
          2    1    1    2  501    0  0.51310939365E+02 -0.17786150960E+02  0.43539120704E+02  0.69604703118E+02  0.00000000000E+00 0. -1.
<scales pt_clust_5="13000.00000" pt_clust_6="13000.00000" pt_clust_7="13000.00000" pt_clust_8="13000.00000" pt_clust_9="43.63151" pt_clust_10="67.49073"></scales>
<clustering>
<clus scale="   43.632">  1  9  2 -1</clus>
<clus scale="   67.491">  1 10  2 -1</clus>
<clus scale="   92.245">  5  6 -1 -1</clus>
<clus scale="   92.321">  7  8 -1 -1</clus>
<clus scale="  109.801">  2  5  1 -1</clus>
<clus scale="   43.632">  1  5  2 -1</clus>
</clustering>
</event>
<event>
10    2  0.1671105E-006  0.1057964E+03  0.7546771E-02  0.1269089E+00
          1   -1    0    0  503    0 -0.00000000000E+00  0.00000000000E+00  0.16473125833E+03  0.16473125833E+03  0.00000000000E+00 0. -1.
         21   -1    0    0  501  502  0.00000000000E+00 -0.00000000000E+00 -0.11462905088E+03  0.11462905088E+03  0.00000000000E+00 0.  1.
         23    2    1    2    0    0 -0.22208446636E+02  0.54998391116E+02  0.26614391338E+02  0.11104917957E+03  0.90030863202E+02 0.  0.
         23    2    1    2    0    0  0.18762024022E+02 -0.46825151812E+02  0.23809546156E+02  0.10697993401E+03  0.91286381265E+02 0.  0.
        -11    1    4    4    0    0  0.38694604484E+02 -0.23938675597E+02 -0.23161701770E+02  0.51056802038E+02  0.00000000000E+00 0.  1.
         11    1    4    4    0    0 -0.19932580462E+02 -0.22886476216E+02  0.46971247927E+02  0.55923131969E+02  0.00000000000E+00 0. -1.
        -13    1    3    3    0    0 -0.26063981634E+02 -0.15016621773E+02 -0.10312701024E+02  0.31799086001E+02  0.00000000000E+00 0.  1.
         13    1    3    3    0    0  0.38555349981E+01  0.70015012889E+02  0.36927092362E+02  0.79250093566E+02  0.00000000000E+00 0. -1.
         21    1    1    2  503  502  0.40692247190E+01 -0.30926004892E+02  0.14262194133E+02  0.34298491948E+02  0.00000000000E+00 0.  1.
          1    1    1    2  501    0 -0.62280210514E+00  0.22752765589E+02 -0.14583924179E+02  0.27032703691E+02  0.00000000000E+00 0. -1.
<scales pt_clust_5="13000.00000" pt_clust_6="13000.00000" pt_clust_7="13000.00000" pt_clust_8="13000.00000" pt_clust_9="28.77622" pt_clust_10="22.76129"></scales>
<clustering>
<clus scale="   22.761">  2 10  1 -1</clus>
<clus scale="   28.776">  1  9  2 -1</clus>
<clus scale="   90.031">  7  8 -1 -1</clus>
<clus scale="   91.286">  5  6 -1 -1</clus>
<clus scale="  104.715">  1  7  2 -1</clus>
<clus scale="   22.761">  2  5  1 -1</clus>
</clustering>
</event>
<event>
10    2  0.1671105E-006  0.1266995E+03  0.7546771E-02  0.1251866E+00
         -3   -1    0    0    0  501 -0.00000000000E+00  0.00000000000E+00  0.45986191177E+03  0.45986191177E+03  0.00000000000E+00 0.  1.
         21   -1    0    0  501  502  0.00000000000E+00 -0.00000000000E+00 -0.94167978299E+02  0.94167978299E+02  0.00000000000E+00 0.  1.
         23    2    1    2    0    0  0.14964329866E+02 -0.16146518793E+02 -0.33849629714E+02  0.91962475501E+02  0.82623593670E+02 0.  0.
         23    2    1    2    0    0  0.56378425531E+02  0.73697766156E+02  0.27797569679E+03  0.30589220058E+03  0.87690722238E+02 0.  0.
        -11    1    3    3    0    0  0.48537863028E+02 -0.77073822879E+01 -0.28842334998E+02  0.56984280088E+02  0.00000000000E+00 0.  1.
         11    1    3    3    0    0 -0.33573533162E+02 -0.84391365048E+01 -0.50072947167E+01  0.34978195412E+02  0.00000000000E+00 0. -1.
        -11    1    4    4    0    0 -0.18586764558E+02  0.81567742690E+01  0.16700558354E+02  0.26285156125E+02  0.00000000000E+00 0.  1.
         11    1    4    4    0    0  0.74965190089E+02  0.65540991887E+02  0.26127513844E+03  0.27960704446E+03  0.00000000000E+00 0. -1.
         21    1    1    2  503  502 -0.43107995785E+02 -0.15787675215E+02  0.43492003104E+02  0.63238471861E+02  0.00000000000E+00 0.  1.
         -3    1    1    2    0  503 -0.28234759612E+02 -0.41763572148E+02  0.78075863287E+02  0.92936742126E+02  0.00000000000E+00 0.  1.
<scales pt_clust_5="13000.00000" pt_clust_6="13000.00000" pt_clust_7="13000.00000" pt_clust_8="13000.00000" pt_clust_9="33.19495" pt_clust_10="97.84232"></scales>
<clustering>
<clus scale="   33.195">  9 10 -1 -1</clus>
<clus scale="   82.624">  5  6 -1 -1</clus>
<clus scale="   85.506">  1  5  2 -1</clus>
<clus scale="   87.691">  7  8 -1 -1</clus>
<clus scale="   97.842">  2  9  1 -1</clus>
<clus scale="   97.842">  2  5  1 -1</clus>
</clustering>
</event>
<event>
10    2  0.1671105E-006  0.2217425E+03  0.7546771E-02  0.1165962E+00
         21   -1    0    0  503  502  0.00000000000E+00  0.00000000000E+00  0.50808135454E+03  0.50808135454E+03  0.00000000000E+00 0. -1.
          2   -1    0    0  502    0 -0.00000000000E+00 -0.00000000000E+00 -0.50890101559E+03  0.50890101559E+03  0.00000000000E+00 0. -1.
         23    2    1    2    0    0  0.93237448105E+01 -0.12696507499E+01 -0.18951361752E+03  0.21448712348E+03  0.10000385334E+03 0.  0.
         23    2    1    2    0    0  0.12353289372E+03 -0.15118864685E+03 -0.23822356518E+03  0.32116212428E+03  0.90973953915E+02 0.  0.
        -13    1    3    3    0    0 -0.29823645796E+02  0.31333637402E+02 -0.12506069232E+03  0.13233073507E+03  0.00000000000E+00 0.  1.
         13    1    3    3    0    0  0.39147390606E+02 -0.32603288151E+02 -0.64452925200E+02  0.82156388409E+02  0.00000000000E+00 0. -1.
        -13    1    4    4    0    0  0.40111035908E+02 -0.79108028679E+02 -0.16934212160E+03  0.19116414295E+03  0.00000000000E+00 0.  1.
         13    1    4    4    0    0  0.83421857817E+02 -0.72080618173E+02 -0.68881443588E+02  0.12999798133E+03  0.00000000000E+00 0. -1.
         21    1    1    2  503  501 -0.23670163533E+02  0.53144163811E+02  0.50591966470E+02  0.77098157307E+02  0.00000000000E+00 0. -1.
          2    1    1    2  501    0 -0.10918647500E+03  0.99314133792E+02  0.37632555519E+03  0.40423496507E+03  0.00000000000E+00 0. -1.
<scales pt_clust_5="13000.00000" pt_clust_6="13000.00000" pt_clust_7="13000.00000" pt_clust_8="13000.00000" pt_clust_9="57.97962" pt_clust_10="57.97962"></scales>
<clustering>
<clus scale="   57.980">  9 10 -1 -1</clus>
<clus scale="   90.974">  7  8 -1 -1</clus>
<clus scale="  100.004">  5  6 -1 -1</clus>
<clus scale="  100.446">  2  5  1 -1</clus>
<clus scale="  221.173">  2  7  1 -1</clus>
<clus scale="  221.743">  1  5  2 -1</clus>
</clustering>
</event>
<event>
10    2  0.1671105E-006  0.1024723E+03  0.7546771E-02  0.1277086E+00
         21   -1    0    0  501  502  0.00000000000E+00  0.00000000000E+00  0.27389271694E+03  0.27389271694E+03  0.00000000000E+00 0. -1.
          3   -1    0    0  503    0 -0.00000000000E+00 -0.00000000000E+00 -0.11810030393E+03  0.11810030393E+03  0.00000000000E+00 0. -1.
         23    2    1    2    0    0 -0.10839619601E+02  0.33057425111E+02 -0.23260871378E+02  0.10013244928E+03  0.90967843509E+02 0.  0.
         23    2    1    2    0    0 -0.12528667708E+02 -0.70749761140E+02  0.15340499696E+02  0.11372877286E+03  0.86812479687E+02 0.  0.
        -11    1    4    4    0    0  0.33729695948E+02 -0.29036981649E+02 -0.11400072338E+02  0.45943447208E+02  0.00000000000E+00 0.  1.
         11    1    4    4    0    0 -0.46258363657E+02 -0.41712779491E+02  0.26740572034E+02  0.67785325652E+02  0.00000000000E+00 0. -1.
        -11    1    3    3    0    0  0.69407185198E+01 -0.29800230799E+02  0.55384369787E+00  0.30602844183E+02  0.00000000000E+00 0.  1.
         11    1    3    3    0    0 -0.17780338121E+02  0.62857655910E+02 -0.23814715076E+02  0.69529605093E+02  0.00000000000E+00 0. -1.
         21    1    1    2  503  502  0.35159520540E+02  0.89410766974E+01  0.62611399582E+02  0.72362435661E+02  0.00000000000E+00 0. -1.
          3    1    1    2  501    0 -0.11791233231E+02  0.28751259331E+02  0.10110138511E+03  0.10576936307E+03  0.00000000000E+00 0. -1.
<scales pt_clust_5="13000.00000" pt_clust_6="13000.00000" pt_clust_7="13000.00000" pt_clust_8="13000.00000" pt_clust_9="36.64402" pt_clust_10="31.07520"></scales>
<clustering>
<clus scale="   31.075">  1 10  2 -1</clus>
<clus scale="   36.644">  1  9  2 -1</clus>
<clus scale="   86.812">  5  6 -1 -1</clus>
<clus scale="   90.968">  7  8 -1 -1</clus>
<clus scale="   98.802">  1  5  2 -1</clus>
<clus scale="   31.075">  1  5  2 -1</clus>
</clustering>
</event>
<event>
10    2  0.1671105E-006  0.1201754E+03  0.7546771E-02  0.1243953E+00
         21   -1    0    0  501  502  0.00000000000E+00  0.00000000000E+00  0.76896292185E+02  0.76896292185E+02  0.00000000000E+00 0. -1.
          4   -1    0    0  503    0 -0.00000000000E+00 -0.00000000000E+00 -0.71621907834E+03  0.71621907834E+03  0.00000000000E+00 0. -1.
         23    2    1    2    0    0 -0.55939375186E+02 -0.85666963885E+02 -0.49151415272E+03  0.51030125973E+03  0.91395683469E+02 0.  0.
         23    2    1    2    0    0 -0.17936350209E+02  0.10953904902E+02 -0.73571788596E+02  0.12190259571E+03  0.94898546212E+02 0.  0.
        -11    1    3    3    0    0 -0.74770857733E+02 -0.33886251360E+02 -0.29482591000E+03  0.30604129853E+03  0.00000000000E+00 0.  1.
         11    1    3    3    0    0  0.18831482547E+02 -0.51780712525E+02 -0.19668824272E+03  0.20425996120E+03  0.00000000000E+00 0. -1.
        -13    1    4    4    0    0  0.36442045904E+02  0.73142140398E+01 -0.10660341321E+02  0.38667341695E+02  0.00000000000E+00 0.  1.
         13    1    4    4    0    0 -0.54378396113E+02  0.36396908624E+01 -0.62911447275E+02  0.83235254019E+02  0.00000000000E+00 0. -1.
         21    1    1    2  503  502 -0.19964459177E+02  0.35864028126E+02 -0.18026503108E+02  0.44830379855E+02  0.00000000000E+00 0.  1.
          4    1    1    2  501    0  0.93840184571E+02  0.38849030857E+02 -0.56210341731E+02  0.11608113523E+03  0.00000000000E+00 0. -1.
<scales pt_clust_5="13000.00000" pt_clust_6="13000.00000" pt_clust_7="13000.00000" pt_clust_8="13000.00000" pt_clust_9="41.04641" pt_clust_10="101.17778"></scales>
<clustering>
<clus scale="   41.046">  1  9  2 -1</clus>
<clus scale="   91.396">  5  6 -1 -1</clus>
<clus scale="   94.899">  7  8 -1 -1</clus>
<clus scale="  101.178">  1 10  2 -1</clus>
<clus scale="  117.429">  2  5  1 -1</clus>
<clus scale="   41.046">  1  5  2 -1</clus>
</clustering>
</event>
<event>
10    2  0.1671105E-006  0.1035408E+03  0.7546771E-02  0.1275305E+00
         21   -1    0    0  501  502  0.00000000000E+00  0.00000000000E+00  0.48495767550E+02  0.48495767550E+02  0.00000000000E+00 0. -1.
          1   -1    0    0  503    0 -0.00000000000E+00 -0.00000000000E+00 -0.64104004757E+03  0.64104004757E+03  0.00000000000E+00 0. -1.
         23    2    1    2    0    0  0.79390695977E+01  0.47139963052E+02 -0.28334158220E+03  0.30117802646E+03  0.90224976982E+02 0.  0.
         23    2    1    2    0    0  0.69826095923E+02 -0.15874155629E+02 -0.19395031474E+03  0.22756444559E+03  0.95085118829E+02 0.  0.
        -11    1    4    4    0    0  0.88409727549E+02 -0.31971305659E+02 -0.16121596617E+03  0.18662537893E+03  0.00000000000E+00 0. -1.
         11    1    4    4    0    0 -0.18583631626E+02  0.16097150030E+02 -0.32734348566E+02  0.40939066667E+02  0.00000000000E+00 0.  1.
        -13    1    3    3    0    0 -0.36160782955E+02 -0.17395295269E+01 -0.10595444795E+03  0.11196862608E+03  0.00000000000E+00 0.  1.
         13    1    3    3    0    0  0.44099852553E+02  0.48879492579E+02 -0.17738713426E+03  0.18920940037E+03  0.00000000000E+00 0. -1.
         21    1    1    2  503  502 -0.10666576374E+02 -0.39123192931E+02 -0.23551701625E+02  0.46894378406E+02  0.00000000000E+00 0. -1.
          1    1    1    2  501    0 -0.67098589146E+02  0.78573855077E+01 -0.91700681450E+02  0.11389896466E+03  0.00000000000E+00 0. -1.
<scales pt_clust_5="13000.00000" pt_clust_6="13000.00000" pt_clust_7="13000.00000" pt_clust_8="13000.00000" pt_clust_9="40.55120" pt_clust_10="70.42357"></scales>
<clustering>
<clus scale="   40.551">  1  9  2 -1</clus>
<clus scale="   70.424">  1 10  2 -1</clus>
<clus scale="   90.225">  7  8 -1 -1</clus>
<clus scale="   95.085">  5  6 -1 -1</clus>
<clus scale="   99.096">  2  7  1 -1</clus>
<clus scale="   40.551">  1  5  2 -1</clus>
</clustering>
</event>
<event>
10    2  0.1671105E-006  0.2048261E+03  0.7546771E-02  0.1170138E+00
          1   -1    0    0  502    0 -0.00000000000E+00  0.00000000000E+00  0.87184561934E+02  0.87184561934E+02  0.00000000000E+00 0. -1.
         21   -1    0    0  503  502  0.00000000000E+00 -0.00000000000E+00 -0.10186511789E+04  0.10186511789E+04  0.00000000000E+00 0.  1.
         23    2    1    2    0    0  0.40389304255E+02 -0.56153355186E+02 -0.43892188605E+02  0.12383516740E+03  0.92866190114E+02 0.  0.
         23    2    1    2    0    0 -0.19184051276E+03  0.79555404477E+02 -0.71512885152E+03  0.74939961887E+03  0.84015889975E+02 0.  0.
        -11    1    3    3    0    0 -0.28412800460E+02 -0.55615612299E+01 -0.19889355514E+02  0.35125555597E+02  0.00000000000E+00 0.  1.
         11    1    3    3    0    0  0.68802104715E+02 -0.50591793956E+02 -0.24002833091E+02  0.88709611798E+02  0.00000000000E+00 0. -1.
        -13    1    4    4    0    0 -0.98109843160E+02  0.75782089969E+00 -0.38460116662E+03  0.39691834549E+03  0.00000000000E+00 0.  1.
         13    1    4    4    0    0 -0.93730669602E+02  0.78797583577E+02 -0.33052768490E+03  0.35248127339E+03  0.00000000000E+00 0. -1.
         21    1    1    2  503  501  0.71636213131E+02 -0.11408527965E+02 -0.59717346959E+02  0.93957772802E+02  0.00000000000E+00 0. -1.
          1    1    1    2  501    0  0.79814995376E+02 -0.11993521326E+02 -0.11272822992E+03  0.13864318181E+03  0.00000000000E+00 0. -1.
<scales pt_clust_5="13000.00000" pt_clust_6="13000.00000" pt_clust_7="13000.00000" pt_clust_8="13000.00000" pt_clust_9="28.13255" pt_clust_10="189.14469"></scales>
<clustering>
<clus scale="   28.133">  9 10 -1 -1</clus>
<clus scale="   84.016">  7  8 -1 -1</clus>
<clus scale="   92.866">  5  6 -1 -1</clus>
<clus scale="  115.796">  1  5  2 -1</clus>
<clus scale="  189.145">  2  9  1 -1</clus>
<clus scale="  189.145">  2  5  1 -1</clus>
</clustering>
</event>
<event>
10    2  0.1671105E-006  0.4320777E+03  0.7546771E-02  0.1080132E+00
         21   -1    0    0  503  502  0.00000000000E+00  0.00000000000E+00  0.18432806470E+03  0.18432806470E+03  0.00000000000E+00 0. -1.
          2   -1    0    0  502    0 -0.00000000000E+00 -0.00000000000E+00 -0.15028398894E+04  0.15028398894E+04  0.00000000000E+00 0. -1.
         23    2    1    2    0    0 -0.20944642776E+02 -0.59183804284E+02 -0.74678997482E+02  0.13724505788E+03  0.96529024113E+02 0.  0.
         23    2    1    2    0    0  0.41989004002E+03  0.48575108753E+02 -0.32536718074E+03  0.54109573884E+03  0.90849377499E+02 0.  0.
        -13    1    3    3    0    0 -0.29434830642E+02 -0.19588272438E+02 -0.87820344461E+02  0.94670600364E+02  0.00000000000E+00 0.  1.
         13    1    3    3    0    0  0.84901878656E+01 -0.39595531846E+02  0.13141346979E+02  0.42574457513E+02  0.00000000000E+00 0. -1.
        -13    1    4    4    0    0  0.63343530295E+02  0.39095865058E+02 -0.72258072070E+02  0.10374063078E+03  0.00000000000E+00 0.  1.
         13    1    4    4    0    0  0.35654650973E+03  0.94792436947E+01 -0.25310910867E+03  0.43735510806E+03  0.00000000000E+00 0. -1.
         21    1    1    2  503  501 -0.30142721677E+03 -0.16206775037E+02 -0.55770261180E+03  0.63415552491E+03  0.00000000000E+00 0. -1.
          2    1    1    2  501    0 -0.97518180480E+02  0.26815470568E+02 -0.36076303465E+03  0.37467163244E+03  0.00000000000E+00 0. -1.
<scales pt_clust_5="13000.00000" pt_clust_6="13000.00000" pt_clust_7="13000.00000" pt_clust_8="13000.00000" pt_clust_9="70.61535" pt_clust_10="70.61535"></scales>
<clustering>
<clus scale="   70.615">  9 10 -1 -1</clus>
<clus scale="   90.849">  7  8 -1 -1</clus>
<clus scale="   96.529">  5  6 -1 -1</clus>
<clus scale="  115.149">  2  5  1 -1</clus>
<clus scale="  424.337">  2  7  1 -1</clus>
<clus scale="  432.078">  1  5  2 -1</clus>
</clustering>
</event>
<event>
10    2  0.1671105E-006  0.1361397E+03  0.7546771E-02  0.1230650E+00
         -1   -1    0    0    0  501 -0.00000000000E+00  0.00000000000E+00  0.89220852169E+03  0.89220852169E+03  0.00000000000E+00 0.  1.
         21   -1    0    0  503  502  0.00000000000E+00 -0.00000000000E+00 -0.91687776532E+02  0.91687776532E+02  0.00000000000E+00 0.  1.
         23    2    1    2    0    0 -0.59490035690E+02  0.58227864867E+01  0.51963881879E+03  0.53046633036E+03  0.88300942599E+02 0.  0.
         23    2    1    2    0    0 -0.54599838545E+02  0.24102675739E+02  0.28545893444E+03  0.30528840386E+03  0.90289118565E+02 0.  0.
        -11    1    3    3    0    0 -0.50352290055E+01  0.40222267426E+02  0.15680522710E+03  0.16196006784E+03  0.00000000000E+00 0. -1.
         11    1    3    3    0    0 -0.54454806685E+02 -0.34399480940E+02  0.36283359169E+03  0.36850626252E+03  0.00000000000E+00 0.  1.
        -13    1    4    4    0    0 -0.63487798625E+02 -0.16695157067E+02  0.19240965600E+03  0.20330003583E+03  0.00000000000E+00 0.  1.
         13    1    4    4    0    0  0.88879600797E+01  0.40797832805E+02  0.93049278436E+02  0.10198836803E+03  0.00000000000E+00 0. -1.
         21    1    1    2  503  501  0.16448304902E+02 -0.29235837840E+02  0.29551182497E+02  0.44705182421E+02  0.00000000000E+00 0.  1.
         -1    1    1    2    0  502  0.97641569333E+02 -0.68962438569E+00 -0.34128190568E+02  0.10343638158E+03  0.00000000000E+00 0.  1.
<scales pt_clust_5="13000.00000" pt_clust_6="13000.00000" pt_clust_7="13000.00000" pt_clust_8="13000.00000" pt_clust_9="33.54521" pt_clust_10="101.89164"></scales>
<clustering>
<clus scale="   33.545">  2  9  1 -1</clus>
<clus scale="   88.301">  5  6 -1 -1</clus>
<clus scale="   90.289">  7  8 -1 -1</clus>
<clus scale="  105.957">  1  5  2 -1</clus>
<clus scale="  101.892">  2 10  1 -1</clus>
<clus scale="   33.545">  2  5  1 -1</clus>
</clustering>
</event>
<event>
10    2  0.1671105E-006  0.1087242E+03  0.7546771E-02  0.1262958E+00
          1   -1    0    0  503    0 -0.00000000000E+00  0.00000000000E+00  0.74679843155E+03  0.74679843155E+03  0.00000000000E+00 0. -1.
         21   -1    0    0  501  502  0.00000000000E+00 -0.00000000000E+00 -0.53331814739E+02  0.53331814739E+02  0.00000000000E+00 0.  1.
         23    2    1    2    0    0 -0.12773913458E+02  0.48315878634E+02  0.44608070500E+03  0.45803905467E+03  0.91182143203E+02 0.  0.
         23    2    1    2    0    0  0.45412316441E+02 -0.72632805728E+02  0.23513429464E+03  0.26633929623E+03  0.91162937906E+02 0.  0.
        -11    1    3    3    0    0 -0.60575858731E+01  0.73789139349E+02  0.37487957944E+03  0.38212070150E+03  0.00000000000E+00 0. -1.
         11    1    3    3    0    0 -0.67163275850E+01 -0.25473260716E+02  0.71201125561E+02  0.75918353175E+02  0.00000000000E+00 0.  1.
        -13    1    4    4    0    0  0.16063367992E+02 -0.88841684507E+02  0.15339788430E+03  0.17799378530E+03  0.00000000000E+00 0.  1.
         13    1    4    4    0    0  0.29348948449E+02  0.16208878779E+02  0.81736410337E+02  0.88345510928E+02  0.00000000000E+00 0. -1.
         21    1    1    2  503  502 -0.96170572694E+01  0.34729886211E+02  0.28298692815E+02  0.45819960735E+02  0.00000000000E+00 0.  1.
          1    1    1    2  501    0 -0.23021345714E+02 -0.10412959117E+02 -0.16047075635E+02  0.29931934660E+02  0.00000000000E+00 0. -1.
<scales pt_clust_5="13000.00000" pt_clust_6="13000.00000" pt_clust_7="13000.00000" pt_clust_8="13000.00000" pt_clust_9="35.64953" pt_clust_10="25.26682"></scales>
<clustering>
<clus scale="   25.267">  2 10  1 -1</clus>
<clus scale="   35.650">  2  9  1 -1</clus>
<clus scale="   91.163">  7  8 -1 -1</clus>
<clus scale="   91.182">  5  6 -1 -1</clus>
<clus scale="  108.708">  2  7  1 -1</clus>
<clus scale="   25.267">  2  5  1 -1</clus>
</clustering>
</event>
<event>
10    2  0.1671105E-006  0.1067098E+03  0.7546771E-02  0.1268755E+00
         21   -1    0    0  503  502  0.00000000000E+00  0.00000000000E+00  0.79646883193E+02  0.79646883193E+02  0.00000000000E+00 0.  1.
          1   -1    0    0  502    0 -0.00000000000E+00 -0.00000000000E+00 -0.29089306954E+03  0.29089306954E+03  0.00000000000E+00 0. -1.
         23    2    1    2    0    0  0.61105571013E+02  0.73844523548E-02 -0.18867862933E+03  0.21511596838E+03  0.83314847551E+02 0.  0.
         23    2    1    2    0    0 -0.54469839062E+02  0.33072980091E+02 -0.20879384023E+02  0.11079455102E+03  0.88196930103E+02 0.  0.
        -11    1    3    3    0    0  0.34990320248E+02  0.38794313761E+02 -0.12986614276E+03  0.13998048552E+03  0.00000000000E+00 0.  1.
         11    1    3    3    0    0  0.26115250765E+02 -0.38786929309E+02 -0.58812486566E+02  0.75135482855E+02  0.00000000000E+00 0. -1.
        -13    1    4    4    0    0  0.92550336956E+01 -0.21431470314E+02  0.31717581572E+01  0.23558939245E+02  0.00000000000E+00 0.  1.
         13    1    4    4    0    0 -0.63724872758E+02  0.54504450405E+02 -0.24051142180E+02  0.87235611777E+02  0.00000000000E+00 0. -1.
         21    1    1    2  503  501  0.11358724486E+02 -0.17115359458E+02 -0.72709278671E+00  0.20554435415E+02  0.00000000000E+00 0.  1.
          1    1    1    2  501    0 -0.17994456437E+02 -0.15965005085E+02 -0.96108021521E+00  0.24074997924E+02  0.00000000000E+00 0. -1.
<scales pt_clust_5="13000.00000" pt_clust_6="13000.00000" pt_clust_7="13000.00000" pt_clust_8="13000.00000" pt_clust_9="20.54157" pt_clust_10="24.76073"></scales>
<clustering>
<clus scale="   20.542">  1  9  2 -1</clus>
<clus scale="   24.761">  1 10  2 -1</clus>
<clus scale="   83.315">  5  6 -1 -1</clus>
<clus scale="   88.197">  7  8 -1 -1</clus>
<clus scale="  102.711">  2  5  1 -1</clus>
<clus scale="   20.542">  1  5  2 -1</clus>
</clustering>
</event>
<event>
10    2  0.1671105E-006  0.1306184E+03  0.7546771E-02  0.1226896E+00
          3   -1    0    0  503    0 -0.00000000000E+00  0.00000000000E+00  0.18275394317E+03  0.18275394317E+03  0.00000000000E+00 0. -1.
         21   -1    0    0  501  502  0.00000000000E+00 -0.00000000000E+00 -0.35080829764E+03  0.35080829764E+03  0.00000000000E+00 0. -1.
         23    2    1    2    0    0  0.10318845418E+03  0.30543667914E+02  0.98125386420E+00  0.13986197179E+03  0.89328805926E+02 0.  0.
         23    2    1    2    0    0 -0.11193773459E+03 -0.12836289382E+02 -0.24191414667E+03  0.28186272869E+03  0.90715581434E+02 0.  0.
        -11    1    3    3    0    0  0.31168330739E+02 -0.22993261067E+02  0.26062102690E+02  0.46683916847E+02  0.00000000000E+00 0.  1.
         11    1    3    3    0    0  0.72020123444E+02  0.53536928980E+02 -0.25080848826E+02  0.93178054945E+02  0.00000000000E+00 0. -1.
        -13    1    4    4    0    0 -0.90918080344E+02 -0.38275699315E+02 -0.11887255164E+03  0.15447268375E+03  0.00000000000E+00 0.  1.
         13    1    4    4    0    0 -0.21019654247E+02  0.25439409933E+02 -0.12304159503E+03  0.12739004494E+03  0.00000000000E+00 0. -1.
         21    1    1    2  503  502 -0.33866070509E+02 -0.22917603589E+01  0.51622605158E+02  0.61782329679E+02  0.00000000000E+00 0. -1.
          3    1    1    2  501    0  0.42615350917E+02 -0.15415618172E+02  0.21255933175E+02  0.50055210644E+02  0.00000000000E+00 0. -1.
<scales pt_clust_5="13000.00000" pt_clust_6="13000.00000" pt_clust_7="13000.00000" pt_clust_8="13000.00000" pt_clust_9="33.94353" pt_clust_10="36.73438"></scales>
<clustering>
<clus scale="   33.944">  1  9  2 -1</clus>
<clus scale="   36.734">  2 10  1 -1</clus>
<clus scale="   89.329">  5  6 -1 -1</clus>
<clus scale="   90.716">  7  8 -1 -1</clus>
<clus scale="  129.659">  1  5  2 -1</clus>
<clus scale="   36.734">  2  5  1 -1</clus>
</clustering>
</event>
<event>
10    2  0.1671105E-006  0.9379134E+02  0.7546771E-02  0.1293968E+00
          4   -1    0    0  502    0 -0.00000000000E+00  0.00000000000E+00  0.17390255626E+03  0.17390255626E+03  0.00000000000E+00 0.  1.
         21   -1    0    0  503  502  0.00000000000E+00 -0.00000000000E+00 -0.14393518770E+03  0.14393518770E+03  0.00000000000E+00 0. -1.
         23    2    1    2    0    0  0.18920070756E+02  0.10267161862E+02  0.54163882328E+02  0.10777693779E+03  0.90657368594E+02 0.  0.
         23    2    1    2    0    0  0.41114148406E+02 -0.64058382530E+02 -0.36792155341E+02  0.12389961119E+03  0.90573734528E+02 0.  0.
        -11    1    4    4    0    0  0.68754246376E+02 -0.33392908525E+02 -0.29747299139E+02  0.82019110825E+02  0.00000000000E+00 0.  1.
         11    1    4    4    0    0 -0.27640097970E+02 -0.30665474005E+02 -0.70448562020E+01  0.41880500363E+02  0.00000000000E+00 0. -1.
        -13    1    3    3    0    0  0.19265321850E+02  0.49091871512E+02  0.21177146184E+02  0.56829886460E+02  0.00000000000E+00 0. -1.
         13    1    3    3    0    0 -0.34525109431E+00 -0.38824709651E+02  0.32986736144E+02  0.50947051330E+02  0.00000000000E+00 0.  1.
         21    1    1    2  503  501 -0.19492325919E+02  0.35088286395E+02  0.15586662659E+01  0.40169242617E+02  0.00000000000E+00 0. -1.
          4    1    1    2  501    0 -0.40541893243E+02  0.18702934273E+02  0.11036975304E+02  0.45991952361E+02  0.00000000000E+00 0.  1.
<scales pt_clust_5="13000.00000" pt_clust_6="13000.00000" pt_clust_7="13000.00000" pt_clust_8="13000.00000" pt_clust_9="26.26763" pt_clust_10="85.23561"></scales>
<clustering>
<clus scale="   26.268">  9 10 -1 -1</clus>
<clus scale="   85.236">  2  9  1 -1</clus>
<clus scale="   90.574">  5  6 -1 -1</clus>
<clus scale="   90.657">  7  8 -1 -1</clus>
<clus scale="   93.711">  2  5  1 -1</clus>
<clus scale="   85.236">  2  5  1 -1</clus>
</clustering>
</event>
<event>
10    2  0.1671105E-006  0.1534109E+03  0.7546771E-02  0.1196368E+00
         21   -1    0    0  501  502  0.00000000000E+00  0.00000000000E+00  0.95676892517E+02  0.95676892517E+02  0.00000000000E+00 0. -1.
          1   -1    0    0  503    0 -0.00000000000E+00 -0.00000000000E+00 -0.12216514435E+04  0.12216514435E+04  0.00000000000E+00 0. -1.
         23    2    1    2    0    0 -0.11069863300E+03  0.27457423876E+02 -0.82044440557E+03  0.83330349695E+03  0.90871326171E+02 0.  0.
         23    2    1    2    0    0  0.22062116491E+03 -0.13113118539E+02 -0.16123869892E+03  0.28822890291E+03  0.90732189221E+02 0.  0.
        -13    1    4    4    0    0  0.30543837589E+02 -0.31823070990E+02 -0.52045683623E+02  0.68223068281E+02  0.00000000000E+00 0.  1.
         13    1    4    4    0    0  0.19007732732E+03  0.18709952451E+02 -0.10919301529E+03  0.22000583463E+03  0.00000000000E+00 0. -1.
        -13    1    3    3    0    0 -0.70970273577E+02  0.61070621305E+02 -0.54568921789E+03  0.55366336617E+03  0.00000000000E+00 0. -1.
         13    1    3    3    0    0 -0.39728359427E+02 -0.33613197429E+02 -0.27475518769E+03  0.27964013079E+03  0.00000000000E+00 0.  1.
         21    1    1    2  503  502 -0.77602673541E+02 -0.30260160789E+02 -0.13493807527E+03  0.15857533361E+03  0.00000000000E+00 0. -1.
          1    1    1    2  501    0 -0.32319858366E+02  0.15915855452E+02 -0.93533712044E+01  0.37220602527E+02  0.00000000000E+00 0. -1.
<scales pt_clust_5="13000.00000" pt_clust_6="13000.00000" pt_clust_7="13000.00000" pt_clust_8="13000.00000" pt_clust_9="86.89633" pt_clust_10="36.02621"></scales>
<clustering>
<clus scale="   36.026">  1 10  2 -1</clus>
<clus scale="   86.896">  1  9  2 -1</clus>
<clus scale="   90.732">  5  6 -1 -1</clus>
<clus scale="   90.871">  7  8 -1 -1</clus>
<clus scale="  153.329">  1  5  2 -1</clus>
<clus scale="   36.026">  1  5  2 -1</clus>
</clustering>
</event>
<event>
10    2  0.1671105E-006  0.4788494E+03  0.7546771E-02  0.1041209E+00
         21   -1    0    0  503  502  0.00000000000E+00  0.00000000000E+00  0.64963989935E+03  0.64963989935E+03  0.00000000000E+00 0. -1.
          1   -1    0    0  502    0 -0.00000000000E+00 -0.00000000000E+00 -0.88873607597E+03  0.88873607597E+03  0.00000000000E+00 0. -1.
         23    2    1    2    0    0 -0.20621941713E+03 -0.11023769946E+03 -0.17654881316E+03  0.30701175267E+03  0.91694789754E+02 0.  0.
         23    2    1    2    0    0 -0.53233158528E+02  0.50106026873E+03 -0.39496193739E+03  0.64674369102E+03  0.91582246178E+02 0.  0.
        -13    1    3    3    0    0 -0.18778835354E+03 -0.65500404133E+02 -0.16192365527E+03  0.25646449814E+03  0.00000000000E+00 0. -1.
         13    1    3    3    0    0 -0.18431063588E+02 -0.44737295324E+02 -0.14625157886E+02  0.50547254536E+02  0.00000000000E+00 0.  1.
        -13    1    4    4    0    0 -0.23532780531E+02  0.13769672234E+03 -0.16282403809E+03  0.21453635235E+03  0.00000000000E+00 0.  1.
         13    1    4    4    0    0 -0.29700377997E+02  0.36336354640E+03 -0.23213789930E+03  0.43220733866E+03  0.00000000000E+00 0. -1.
         21    1    1    2  503  501  0.59620813166E+02 -0.26426806335E+02  0.40859603492E+02  0.76957940806E+02  0.00000000000E+00 0. -1.
          1    1    1    2  501    0  0.19983176249E+03 -0.36439576294E+03  0.29155497043E+03  0.50766259083E+03  0.00000000000E+00 0. -1.
<scales pt_clust_5="13000.00000" pt_clust_6="13000.00000" pt_clust_7="13000.00000" pt_clust_8="13000.00000" pt_clust_9="41.96724" pt_clust_10="41.96724"></scales>
<clustering>
<clus scale="   41.967">  9 10 -1 -1</clus>
<clus scale="   91.582">  7  8 -1 -1</clus>
<clus scale="   91.695">  5  6 -1 -1</clus>
<clus scale="  251.171">  2  5  1 -1</clus>
<clus scale="  475.878">  2  7  1 -1</clus>
<clus scale="  478.849">  1  5  2 -1</clus>
</clustering>
</event>
<event>
10    2  0.1671105E-006  0.4608678E+03  0.7546771E-02  0.1024821E+00
          1   -1    0    0  503    0 -0.00000000000E+00  0.00000000000E+00  0.15718055756E+04  0.15718055756E+04  0.00000000000E+00 0. -1.
         21   -1    0    0  501  502  0.00000000000E+00 -0.00000000000E+00 -0.18559663771E+03  0.18559663771E+03  0.00000000000E+00 0.  1.
         23    2    1    2    0    0  0.42040528275E+03  0.11965438608E+03  0.84369555511E+03  0.95258894202E+03  0.67422020676E+02 0.  0.
         23    2    1    2    0    0 -0.45038584575E+03 -0.17341936860E+03  0.44500764073E+03  0.66270557212E+03  0.90692819774E+02 0.  0.
        -11    1    3    3    0    0  0.61663696440E+02 -0.55201435342E+01  0.13297911795E+03  0.14668445471E+03  0.00000000000E+00 0.  1.
         11    1    3    3    0    0  0.35874158631E+03  0.12517452962E+03  0.71071643716E+03  0.80590448731E+03  0.00000000000E+00 0. -1.
        -13    1    4    4    0    0 -0.24891986625E+02 -0.19050022909E+02  0.63202787155E+02  0.70548612142E+02  0.00000000000E+00 0. -1.
         13    1    4    4    0    0 -0.42549385912E+03 -0.15436934569E+03  0.38180485358E+03  0.59215695998E+03  0.00000000000E+00 0.  1.
         21    1    1    2  503  502 -0.20430117829E+02  0.13110454102E+02 -0.91413530460E+00  0.24292166734E+02  0.00000000000E+00 0.  1.
          1    1    1    2  501    0  0.50410680823E+02  0.40654528412E+02  0.98419877319E+02  0.11781553239E+03  0.00000000000E+00 0. -1.
<scales pt_clust_5="13000.00000" pt_clust_6="13000.00000" pt_clust_7="13000.00000" pt_clust_8="13000.00000" pt_clust_9="24.27496" pt_clust_10="64.34417"></scales>
<clustering>
<clus scale="   24.275">  2  9  1 -1</clus>
<clus scale="   64.344">  2 10  1 -1</clus>
<clus scale="   67.422">  5  6 -1 -1</clus>
<clus scale="   90.693">  7  8 -1 -1</clus>
<clus scale="  456.859">  1  5  2 -1</clus>
<clus scale="   24.275">  2  5  1 -1</clus>
</clustering>
</event>
<event>
10    2  0.1671105E-006  0.1019112E+03  0.7546771E-02  0.1278210E+00
         21   -1    0    0  501  502  0.00000000000E+00  0.00000000000E+00  0.83086886309E+02  0.83086886309E+02  0.00000000000E+00 0.  1.
          2   -1    0    0  503    0 -0.00000000000E+00 -0.00000000000E+00 -0.35768679894E+03  0.35768679894E+03  0.00000000000E+00 0. -1.
         23    2    1    2    0    0  0.13222288134E+02 -0.17692258649E+01 -0.14636428728E+03  0.17307366469E+03  0.91400381594E+02 0.  0.
         23    2    1    2    0    0 -0.95916986024E+02  0.15869354008E+02 -0.88016337765E+02  0.15758075271E+03  0.87366545701E+02 0.  0.
        -11    1    3    3    0    0  0.47639255814E+02  0.44304293872E+01 -0.44375021301E+02  0.65255420576E+02  0.00000000000E+00 0. -1.
         11    1    3    3    0    0 -0.34416967680E+02 -0.61996552522E+01 -0.10198926598E+03  0.10781824412E+03  0.00000000000E+00 0.  1.
        -11    1    4    4    0    0 -0.30435911167E+02 -0.35904910291E+02 -0.27986237061E+02  0.54760722571E+02  0.00000000000E+00 0. -1.
         11    1    4    4    0    0 -0.65481074856E+02  0.51774264299E+02 -0.60030100704E+02  0.10282003014E+03  0.00000000000E+00 0.  1.
         21    1    1    2  503  502  0.15390753293E+02 -0.19398083596E+02 -0.34360572460E+02  0.42353392708E+02  0.00000000000E+00 0. -1.
          2    1    1    2  501    0  0.67303944596E+02  0.52979554530E+01 -0.58587151293E+01  0.67765875138E+02  0.00000000000E+00 0. -1.
<scales pt_clust_5="13000.00000" pt_clust_6="13000.00000" pt_clust_7="13000.00000" pt_clust_8="13000.00000" pt_clust_9="24.76209" pt_clust_10="69.14601"></scales>
<clustering>
<clus scale="   24.762">  2  9  1 -1</clus>
<clus scale="   69.146">  1 10  2 -1</clus>
<clus scale="   87.367">  7  8 -1 -1</clus>
<clus scale="   91.400">  5  6 -1 -1</clus>
<clus scale="   98.310">  1  7  2 -1</clus>
<clus scale="   69.146">  1  5  2 -1</clus>
</clustering>
</event>
<event>
10    2  0.1671105E-006  0.1532540E+03  0.7546771E-02  0.1197143E+00
          1   -1    0    0  503    0 -0.00000000000E+00  0.00000000000E+00  0.78080722100E+03  0.78080722100E+03  0.00000000000E+00 0. -1.
         21   -1    0    0  501  502  0.00000000000E+00 -0.00000000000E+00 -0.27863959132E+03  0.27863959132E+03  0.00000000000E+00 0. -1.
         23    2    1    2    0    0 -0.59896601636E+02  0.11476239370E+03  0.52540352157E+03  0.54902105889E+03  0.92829158866E+02 0.  0.
         23    2    1    2    0    0  0.14586414997E+03 -0.29233554917E+01  0.15885528369E+03  0.23612835841E+03  0.96107774042E+02 0.  0.
        -11    1    4    4    0    0  0.26717389058E+01 -0.28865659109E+02  0.22383490285E+02  0.36624924600E+02  0.00000000000E+00 0.  1.
         11    1    4    4    0    0  0.14319241107E+03  0.25942303617E+02  0.13647179341E+03  0.19950343381E+03  0.00000000000E+00 0. -1.
        -13    1    3    3    0    0 -0.84177280755E+02  0.84474760863E+02  0.42363065418E+03  0.44009627467E+03  0.00000000000E+00 0. -1.
         13    1    3    3    0    0  0.24280679119E+02  0.30287632834E+02  0.10177286739E+03  0.10892478422E+03  0.00000000000E+00 0.  1.
         21    1    1    2  503  502 -0.12316137219E+03 -0.11403147667E+03 -0.15095768385E+03  0.22574349068E+03  0.00000000000E+00 0. -1.
          1    1    1    2  501    0  0.37193823853E+02  0.21924384692E+01 -0.31133491725E+02  0.48553904336E+02  0.00000000000E+00 0. -1.
<scales pt_clust_5="13000.00000" pt_clust_6="13000.00000" pt_clust_7="13000.00000" pt_clust_8="13000.00000" pt_clust_9="146.33815" pt_clust_10="37.25839"></scales>
<clustering>
<clus scale="   37.258">  2 10  1 -1</clus>
<clus scale="   92.829">  7  8 -1 -1</clus>
<clus scale="   96.108">  5  6 -1 -1</clus>
<clus scale="  146.338">  2  9  1 -1</clus>
<clus scale="  151.220">  1  7  2 -1</clus>
<clus scale="   37.258">  2  5  1 -1</clus>
</clustering>
</event>
<event>
10    2  0.1671105E-006  0.2174268E+03  0.7546771E-02  0.1135925E+00
         21   -1    0    0  501  502  0.00000000000E+00  0.00000000000E+00  0.13224718529E+03  0.13224718529E+03  0.00000000000E+00 0. -1.
          2   -1    0    0  503    0 -0.00000000000E+00 -0.00000000000E+00 -0.17542399126E+04  0.17542399126E+04  0.00000000000E+00 0. -1.
         23    2    1    2    0    0  0.10147683050E+03 -0.11923233734E+03 -0.71433238901E+03  0.73693210224E+03  0.91017931947E+02 0.  0.
         23    2    1    2    0    0 -0.25867478407E+03  0.19192237441E+03 -0.79725758707E+03  0.86481164069E+03  0.92372463528E+02 0.  0.
        -11    1    4    4    0    0 -0.82397954958E+02  0.92519544928E+02 -0.21192188866E+03  0.24547948197E+03  0.00000000000E+00 0.  1.
         11    1    4    4    0    0 -0.17627682911E+03  0.99402829478E+02 -0.58533569841E+03  0.61933215872E+03  0.00000000000E+00 0. -1.
        -13    1    3    3    0    0  0.39980969204E+02  0.53083550384E+01 -0.12043015548E+03  0.12700424749E+03  0.00000000000E+00 0.  1.
         13    1    3    3    0    0  0.61495861297E+02 -0.12454069238E+03 -0.59390223352E+03  0.60992785475E+03  0.00000000000E+00 0. -1.
         21    1    1    2  503  502  0.69729107043E+02 -0.13709953442E+03 -0.62544032203E+02  0.16604272544E+03  0.00000000000E+00 0. -1.
          2    1    1    2  501    0  0.87468846527E+02  0.64409497353E+02 -0.47858719024E+02  0.11870062952E+03  0.00000000000E+00 0. -1.
<scales pt_clust_5="13000.00000" pt_clust_6="13000.00000" pt_clust_7="13000.00000" pt_clust_8="13000.00000" pt_clust_9="155.27147" pt_clust_10="108.62496"></scales>
<clustering>
<clus scale="   91.018">  7  8 -1 -1</clus>
<clus scale="   92.372">  5  6 -1 -1</clus>
<clus scale="  108.625">  1 10  2 -1</clus>
<clus scale="  155.271">  1  9  2 -1</clus>
<clus scale="  216.855">  2  7  1 -1</clus>
<clus scale="  108.625">  1  5  2 -1</clus>
</clustering>
</event>
<event>
10    2  0.1671105E-006  0.2600007E+03  0.7546771E-02  0.1141998E+00
         -3   -1    0    0    0  501 -0.00000000000E+00  0.00000000000E+00  0.71995121461E+03  0.71995121461E+03  0.00000000000E+00 0.  1.
         21   -1    0    0  501  502  0.00000000000E+00 -0.00000000000E+00 -0.15732219102E+03  0.15732219102E+03  0.00000000000E+00 0.  1.
         23    2    1    2    0    0  0.82069967812E+01  0.59588576870E+02  0.98704452334E+02  0.14742614478E+03  0.91508174311E+02 0.  0.
         23    2    1    2    0    0  0.95538368331E+02 -0.24081595970E+03  0.80607290309E+02  0.28653072337E+03  0.92100021249E+02 0.  0.
        -11    1    3    3    0    0  0.27316436569E+02  0.30634688921E+02  0.10448380237E+03  0.11225656698E+03  0.00000000000E+00 0.  1.
         11    1    3    3    0    0 -0.19109439788E+02  0.28953887949E+02 -0.57793500331E+01  0.35169577808E+02  0.00000000000E+00 0. -1.
        -13    1    4    4    0    0  0.36297032997E+02 -0.18254817112E+02  0.30575025006E+02  0.50848255685E+02  0.00000000000E+00 0. -1.
         13    1    4    4    0    0  0.59241335334E+02 -0.22256114259E+03  0.50032265304E+02  0.23568246768E+03  0.00000000000E+00 0.  1.
         21    1    1    2  503  502 -0.36076005243E+02  0.83506614214E+01  0.66296402756E+02  0.75936978600E+02  0.00000000000E+00 0. -1.
         -3    1    1    2    0  503 -0.67669359869E+02  0.17287672141E+03  0.31702087819E+03  0.36737955887E+03  0.00000000000E+00 0.  1.
<scales pt_clust_5="13000.00000" pt_clust_6="13000.00000" pt_clust_7="13000.00000" pt_clust_8="13000.00000" pt_clust_9="34.56828" pt_clust_10="255.16458"></scales>
<clustering>
<clus scale="   34.568">  9 10 -1 -1</clus>
<clus scale="   91.508">  5  6 -1 -1</clus>
<clus scale="   92.100">  7  8 -1 -1</clus>
<clus scale="  109.508">  1  5  2 -1</clus>
<clus scale="  255.165">  2  9  1 -1</clus>
<clus scale="  255.165">  2  5  1 -1</clus>
</clustering>
</event>
<event>
10    2  0.1671105E-006  0.2711976E+03  0.7546771E-02  0.1127439E+00
         -2   -1    0    0    0  501 -0.00000000000E+00  0.00000000000E+00  0.61322524145E+03  0.61322524145E+03  0.00000000000E+00 0.  1.
         21   -1    0    0  501  502  0.00000000000E+00 -0.00000000000E+00 -0.20136719620E+03  0.20136719620E+03  0.00000000000E+00 0.  1.
         23    2    1    2    0    0 -0.10374167004E+03  0.22369770956E+02  0.11563003888E+03  0.18131309931E+03  0.90782120135E+02 0.  0.
         23    2    1    2    0    0  0.17162253557E+03  0.22099422007E+03  0.17793229987E+03  0.34389554337E+03  0.91167435995E+02 0.  0.
        -11    1    4    4    0    0  0.13674855196E+03  0.22043615569E+03  0.15681497195E+03  0.30312241854E+03  0.00000000000E+00 0.  1.
         11    1    4    4    0    0  0.34873983615E+02  0.55806438693E+00  0.21117327924E+02  0.40773124822E+02  0.00000000000E+00 0. -1.
        -11    1    3    3    0    0 -0.32194831462E+02 -0.10666790926E+02  0.93496572734E+02  0.99458014833E+02  0.00000000000E+00 0. -1.
         11    1    3    3    0    0 -0.71546838578E+02  0.33036561883E+02  0.22133466142E+02  0.81855084479E+02  0.00000000000E+00 0.  1.
         21    1    1    2  503  502  0.13316501898E+02 -0.15679485597E+02  0.73790836902E+00  0.20584460162E+02  0.00000000000E+00 0. -1.
         -2    1    1    2    0  503 -0.81197367431E+02 -0.22768450543E+03  0.11755779813E+03  0.26879933481E+03  0.00000000000E+00 0.  1.
<scales pt_clust_5="13000.00000" pt_clust_6="13000.00000" pt_clust_7="13000.00000" pt_clust_8="13000.00000" pt_clust_9="20.57123" pt_clust_10="255.41466"></scales>
<clustering>
<clus scale="   20.571">  2  9  1 -1</clus>
<clus scale="   90.782">  7  8 -1 -1</clus>
<clus scale="   91.167">  5  6 -1 -1</clus>
<clus scale="  137.558">  1  7  2 -1</clus>
<clus scale="  255.415">  2 10  1 -1</clus>
<clus scale="   20.571">  2  5  1 -1</clus>
</clustering>
</event>
<event>
10    2  0.1671105E-006  0.1178901E+03  0.7546771E-02  0.1249645E+00
         21   -1    0    0  503  502  0.00000000000E+00  0.00000000000E+00  0.12502523726E+03  0.12502523726E+03  0.00000000000E+00 0.  1.
          3   -1    0    0  502    0 -0.00000000000E+00 -0.00000000000E+00 -0.32783802891E+03  0.32783802891E+03  0.00000000000E+00 0. -1.
         23    2    1    2    0    0  0.50939621382E+01 -0.71016462220E+02 -0.25721167411E+03  0.28520986970E+03  0.10058597375E+03 0.  0.
         23    2    1    2    0    0 -0.15122280845E+02  0.22923459586E+02  0.10415589145E+02  0.96917410529E+02  0.92359794224E+02 0.  0.
        -11    1    3    3    0    0 -0.27262333048E+02 -0.72861713031E+02 -0.23029845881E+03  0.24308320419E+03  0.00000000000E+00 0.  1.
         11    1    3    3    0    0  0.32356295186E+02  0.18452508107E+01 -0.26913215300E+02  0.42126665504E+02  0.00000000000E+00 0. -1.
        -11    1    4    4    0    0 -0.50831107387E+02  0.31115087845E+01 -0.89747358724E+01  0.51711012842E+02  0.00000000000E+00 0.  1.
         11    1    4    4    0    0  0.35708826542E+02  0.19811950801E+02  0.19390325017E+02  0.45206397687E+02  0.00000000000E+00 0. -1.
         21    1    1    2  503  501  0.14118770323E+02  0.15354370250E+02  0.25407124586E+02  0.32872759862E+02  0.00000000000E+00 0.  1.
          3    1    1    2  501    0 -0.40904516159E+01  0.32738632384E+02  0.18576168733E+02  0.37863226085E+02  0.00000000000E+00 0. -1.
<scales pt_clust_5="13000.00000" pt_clust_6="13000.00000" pt_clust_7="13000.00000" pt_clust_8="13000.00000" pt_clust_9="20.35803" pt_clust_10="55.39900"></scales>
<clustering>
<clus scale="   20.358">  9 10 -1 -1</clus>
<clus scale="   55.399">  1  9  2 -1</clus>
<clus scale="   92.360">  7  8 -1 -1</clus>
<clus scale="  100.586">  5  6 -1 -1</clus>
<clus scale="  110.954">  1  7  2 -1</clus>
<clus scale="   55.399">  1  5  2 -1</clus>
</clustering>
</event>
<event>
10    2  0.1671105E-006  0.1007069E+03  0.7546771E-02  0.1279024E+00
         21   -1    0    0  501  502  0.00000000000E+00  0.00000000000E+00  0.20627690984E+03  0.20627690984E+03  0.00000000000E+00 0. -1.
          2   -1    0    0  503    0 -0.00000000000E+00 -0.00000000000E+00 -0.21853922793E+03  0.21853922793E+03  0.00000000000E+00 0. -1.
         23    2    1    2    0    0 -0.51233854185E+02 -0.29731323876E+02 -0.15693698563E+03  0.19033249509E+03  0.89935431248E+02 0.  0.
         23    2    1    2    0    0 -0.18010425960E+02 -0.34128563057E+01  0.47198298422E+02  0.10282096240E+03  0.89489931852E+02 0.  0.
        -11    1    4    4    0    0 -0.48713391308E+02 -0.23068813684E+02  0.35475993801E+02  0.64526822281E+02  0.00000000000E+00 0. -1.
         11    1    4    4    0    0  0.30702965348E+02  0.19655957378E+02  0.11722304621E+02  0.38294140116E+02  0.00000000000E+00 0.  1.
        -13    1    3    3    0    0 -0.14690263049E+02  0.29579080981E+02 -0.79962084372E+02  0.86513934122E+02  0.00000000000E+00 0.  1.
         13    1    3    3    0    0 -0.36543591137E+02 -0.59310404857E+02 -0.76974901260E+02  0.10381856097E+03  0.00000000000E+00 0. -1.
         21    1    1    2  503  502  0.29112591664E+02  0.32421771424E+01  0.10130263825E+02  0.30994789097E+02  0.00000000000E+00 0.  1.
          2    1    1    2  501    0  0.40131688482E+02  0.29902003040E+02  0.87346105298E+02  0.10066789119E+03  0.00000000000E+00 0. -1.
<scales pt_clust_5="13000.00000" pt_clust_6="13000.00000" pt_clust_7="13000.00000" pt_clust_8="13000.00000" pt_clust_9="29.29257" pt_clust_10="63.28897"></scales>
<clustering>
<clus scale="   29.293">  1  9  2 -1</clus>
<clus scale="   63.289">  1 10  2 -1</clus>
<clus scale="   89.490">  5  6 -1 -1</clus>
<clus scale="   89.935">  7  8 -1 -1</clus>
<clus scale="  100.309">  1  5  2 -1</clus>
<clus scale="   29.293">  1  5  2 -1</clus>
</clustering>
</event>
<event>
10    2  0.1671105E-006  0.1584847E+03  0.7546771E-02  0.1212810E+00
         21   -1    0    0  503  502  0.00000000000E+00  0.00000000000E+00  0.14097459942E+03  0.14097459942E+03  0.00000000000E+00 0. -1.
          1   -1    0    0  502    0 -0.00000000000E+00 -0.00000000000E+00 -0.59618949603E+03  0.59618949603E+03  0.00000000000E+00 0. -1.
         23    2    1    2    0    0  0.20888457666E+02  0.33032475336E+02  0.66700154897E+02  0.11819380104E+03  0.89405770793E+02 0.  0.
         23    2    1    2    0    0  0.11173998210E+03 -0.50269380862E+02 -0.42711715438E+03  0.45342788539E+03  0.90304758617E+02 0.  0.
        -11    1    4    4    0    0  0.84731900486E+02  0.72092462498E+01 -0.19409256425E+03  0.21190420403E+03  0.00000000000E+00 0. -1.
         11    1    4    4    0    0  0.27008081609E+02 -0.57478627112E+02 -0.23302459013E+03  0.24152368135E+03  0.00000000000E+00 0.  1.
        -11    1    3    3    0    0 -0.32405720734E+02  0.23326819425E+02  0.13190145890E+02  0.42050578942E+02  0.00000000000E+00 0.  1.
         11    1    3    3    0    0  0.53294178400E+02  0.97056559116E+01  0.53510009007E+02  0.76143222101E+02  0.00000000000E+00 0. -1.
         21    1    1    2  503  501 -0.70797544339E+02  0.20482531233E+02 -0.48432353868E+02  0.88190244763E+02  0.00000000000E+00 0. -1.
          1    1    1    2  501    0 -0.61830895423E+02 -0.32456257067E+01 -0.46365543256E+02  0.77352164264E+02  0.00000000000E+00 0. -1.
<scales pt_clust_5="13000.00000" pt_clust_6="13000.00000" pt_clust_7="13000.00000" pt_clust_8="13000.00000" pt_clust_9="21.10565" pt_clust_10="132.25988"></scales>
<clustering>
<clus scale="   21.106">  9 10 -1 -1</clus>
<clus scale="   89.406">  7  8 -1 -1</clus>
<clus scale="   90.305">  5  6 -1 -1</clus>
<clus scale="   97.575">  2  7  1 -1</clus>
<clus scale="  132.260">  1  9  2 -1</clus>
<clus scale="  132.260">  1  5  2 -1</clus>
</clustering>
</event>
<event>
10    2  0.1671105E-006  0.1575899E+03  0.7546771E-02  0.1192523E+00
         -2   -1    0    0    0  501 -0.00000000000E+00  0.00000000000E+00  0.11662368742E+04  0.11662368742E+04  0.00000000000E+00 0.  1.
         21   -1    0    0  503  502  0.00000000000E+00 -0.00000000000E+00 -0.47185638861E+02  0.47185638861E+02  0.00000000000E+00 0.  1.
         23    2    1    2    0    0  0.13728480525E+03 -0.71060651667E+02  0.59578469120E+03  0.62315209061E+03  0.97274846703E+02 0.  0.
         23    2    1    2    0    0 -0.11630865157E+03  0.18110731651E+01  0.27934740717E+03  0.31603220440E+03  0.91161383866E+02 0.  0.
        -13    1    4    4    0    0 -0.89071916747E+02 -0.28321642808E+02  0.12292986025E+03  0.15442691587E+03  0.00000000000E+00 0.  1.
         13    1    4    4    0    0 -0.27236734822E+02  0.30132715973E+02  0.15641754692E+03  0.16160528852E+03  0.00000000000E+00 0. -1.
        -13    1    3    3    0    0  0.93806469201E+02  0.41118215683E+01  0.26439757515E+03  0.28057554862E+03  0.00000000000E+00 0.  1.
         13    1    3    3    0    0  0.43478336048E+02 -0.75172473236E+02  0.33138711605E+03  0.34257654199E+03  0.00000000000E+00 0. -1.
         21    1    1    2  503  501 -0.34658411465E+02  0.39422560045E+02  0.23420481184E+03  0.24001507789E+03  0.00000000000E+00 0.  1.
         -2    1    1    2    0  502  0.13682257785E+02  0.29827018457E+02  0.97143251006E+01  0.34223140129E+02  0.00000000000E+00 0.  1.
<scales pt_clust_5="13000.00000" pt_clust_6="13000.00000" pt_clust_7="13000.00000" pt_clust_8="13000.00000" pt_clust_9="53.66098" pt_clust_10="32.81547"></scales>
<clustering>
<clus scale="   32.815">  2 10  1 -1</clus>
<clus scale="   53.661">  1  9  2 -1</clus>
<clus scale="   91.161">  5  6 -1 -1</clus>
<clus scale="   97.275">  7  8 -1 -1</clus>
<clus scale="  153.891">  2  5  1 -1</clus>
<clus scale="   32.815">  2  5  1 -1</clus>
</clustering>
</event>
<event>
10    2  0.1671105E-006  0.1290885E+03  0.7546771E-02  0.1229435E+00
          1   -1    0    0  503    0 -0.00000000000E+00  0.00000000000E+00  0.20751571989E+03  0.20751571989E+03  0.00000000000E+00 0. -1.
         21   -1    0    0  501  502  0.00000000000E+00 -0.00000000000E+00 -0.14707310336E+03  0.14707310336E+03  0.00000000000E+00 0. -1.
         23    2    1    2    0    0 -0.55331667229E+02  0.56800508210E+02  0.80693595178E+02  0.14678925846E+03  0.93529348156E+02 0.  0.
         23    2    1    2    0    0  0.10516141186E+03 -0.48074257342E+02 -0.20706080564E+01  0.14730847197E+03  0.91243858597E+02 0.  0.
        -13    1    3    3    0    0  0.23171836599E+02  0.16170561473E+02  0.41235179498E+02  0.49987609444E+02  0.00000000000E+00 0.  1.
         13    1    3    3    0    0 -0.78503503828E+02  0.40629946737E+02  0.39458415680E+02  0.96801649020E+02  0.00000000000E+00 0. -1.
        -13    1    4    4    0    0  0.57795509610E+02  0.55593450886E+01 -0.35790026033E+02  0.68206694776E+02  0.00000000000E+00 0.  1.
         13    1    4    4    0    0  0.47365902251E+02 -0.53633602431E+02  0.33719417977E+02  0.79101777189E+02  0.00000000000E+00 0. -1.
         21    1    1    2  503  502 -0.14177665593E+02 -0.14651028779E+02 -0.83898592201E+00  0.20404968594E+02  0.00000000000E+00 0.  1.
          1    1    1    2  501    0 -0.35652079038E+02  0.59247779119E+01 -0.17341384672E+02  0.40086124225E+02  0.00000000000E+00 0. -1.
<scales pt_clust_5="13000.00000" pt_clust_6="13000.00000" pt_clust_7="13000.00000" pt_clust_8="13000.00000" pt_clust_9="20.38771" pt_clust_10="38.73989"></scales>
<clustering>
<clus scale="   20.388">  2  9  1 -1</clus>
<clus scale="   38.740">  2 10  1 -1</clus>
<clus scale="   91.244">  7  8 -1 -1</clus>
<clus scale="   93.529">  5  6 -1 -1</clus>
<clus scale="  127.442">  2  7  1 -1</clus>
<clus scale="   20.388">  2  5  1 -1</clus>
</clustering>
</event>
<event>
10    2  0.1671105E-006  0.2783182E+03  0.7546771E-02  0.1096632E+00
         21   -1    0    0  503  502  0.00000000000E+00  0.00000000000E+00  0.33104580561E+03  0.33104580561E+03  0.00000000000E+00 0. -1.
          2   -1    0    0  502    0 -0.00000000000E+00 -0.00000000000E+00 -0.43970458595E+03  0.43970458595E+03  0.00000000000E+00 0. -1.
         23    2    1    2    0    0 -0.13335128906E+03 -0.26854444683E+03 -0.23341806232E+03  0.39068103384E+03  0.90823962509E+02 0.  0.
         23    2    1    2    0    0  0.42386997252E+02  0.20241253459E+03  0.30966680828E+02  0.22817027757E+03  0.91297582383E+02 0.  0.
        -11    1    4    4    0    0  0.59626446213E+02  0.80881080979E+02  0.31875792534E+02  0.10541882421E+03  0.00000000000E+00 0. -1.
         11    1    4    4    0    0 -0.17239448961E+02  0.12153145361E+03 -0.90911170683E+00  0.12275145336E+03  0.00000000000E+00 0.  1.
        -11    1    3    3    0    0 -0.11064656441E+03 -0.12209433532E+03 -0.11414487695E+03  0.20044635658E+03  0.00000000000E+00 0. -1.
         11    1    3    3    0    0 -0.22704724655E+02 -0.14645011151E+03 -0.11927318537E+03  0.19023467726E+03  0.00000000000E+00 0.  1.
         21    1    1    2  503  501  0.26404129310E+02  0.19947512458E+02  0.53429677904E+02  0.62847528025E+02  0.00000000000E+00 0. -1.
          2    1    1    2  501    0  0.64560162502E+02  0.46184399774E+02  0.40362923248E+02  0.89051552136E+02  0.00000000000E+00 0. -1.
<scales pt_clust_5="13000.00000" pt_clust_6="13000.00000" pt_clust_7="13000.00000" pt_clust_8="13000.00000" pt_clust_9="26.05448" pt_clust_10="119.48338"></scales>
<clustering>
<clus scale="   26.054">  9 10 -1 -1</clus>
<clus scale="   90.824">  7  8 -1 -1</clus>
<clus scale="   91.298">  5  6 -1 -1</clus>
<clus scale="  119.483">  1  9  2 -1</clus>
<clus scale="  278.163">  2  7  1 -1</clus>
<clus scale="  119.483">  1  5  2 -1</clus>
</clustering>
</event>
<event>
10    2  0.1671105E-006  0.1178688E+03  0.7546771E-02  0.1250734E+00
          2   -1    0    0  503    0 -0.00000000000E+00  0.00000000000E+00  0.28755712122E+03  0.28755712122E+03  0.00000000000E+00 0. -1.
         21   -1    0    0  501  502  0.00000000000E+00 -0.00000000000E+00 -0.35068961098E+03  0.35068961098E+03  0.00000000000E+00 0. -1.
         23    2    1    2    0    0  0.51767082512E+02  0.66676306545E+00  0.20671813519E+03  0.23696928842E+03  0.10364256283E+03 0.  0.
         23    2    1    2    0    0 -0.90832789958E+02  0.94317325541E+02 -0.98010374579E+02  0.18815069192E+03  0.92996213454E+02 0.  0.
        -11    1    3    3    0    0 -0.19541295236E+02 -0.29795169933E+02  0.43213404405E+02  0.56009041155E+02  0.00000000000E+00 0.  1.
         11    1    3    3    0    0  0.71308377748E+02  0.30461932999E+02  0.16350473079E+03  0.18096024726E+03  0.00000000000E+00 0. -1.
        -13    1    4    4    0    0 -0.12404345552E+02 -0.17715467801E+02 -0.34846282849E+01  0.21905438189E+02  0.00000000000E+00 0.  1.
         13    1    4    4    0    0 -0.78428444407E+02  0.11203279334E+03 -0.94525746294E+02  0.16624525373E+03  0.00000000000E+00 0. -1.
         21    1    1    2  503  502  0.56920155027E+02 -0.44073992221E+02 -0.93376398242E+02  0.11790493029E+03  0.00000000000E+00 0. -1.
          2    1    1    2  501    0 -0.17854447581E+02 -0.50910096386E+02 -0.78463852132E+02  0.95221821574E+02  0.00000000000E+00 0. -1.
<scales pt_clust_5="13000.00000" pt_clust_6="13000.00000" pt_clust_7="13000.00000" pt_clust_8="13000.00000" pt_clust_9="81.43706" pt_clust_10="53.95015"></scales>
<clustering>
<clus scale="   53.950">  2 10  1 -1</clus>
<clus scale="   81.437">  2  9  1 -1</clus>
<clus scale="   92.996">  7  8 -1 -1</clus>
<clus scale="  103.643">  5  6 -1 -1</clus>
<clus scale="  108.626">  2  7  1 -1</clus>
<clus scale="   53.950">  2  5  1 -1</clus>
</clustering>
</event>
<event>
10    2  0.1671105E-006  0.1364572E+03  0.7546771E-02  0.1218580E+00
         -3   -1    0    0    0  501 -0.00000000000E+00  0.00000000000E+00  0.21760937780E+03  0.21760937780E+03  0.00000000000E+00 0.  1.
         21   -1    0    0  503  502  0.00000000000E+00 -0.00000000000E+00 -0.19353596978E+03  0.19353596978E+03  0.00000000000E+00 0.  1.
         23    2    1    2    0    0  0.88611409414E+02  0.85405024912E+02  0.85998309842E+01  0.15416116579E+03  0.92442997502E+02 0.  0.
         23    2    1    2    0    0 -0.98620355978E+02  0.24325149278E+01 -0.36982491483E+02  0.13903921841E+03  0.90732066210E+02 0.  0.
        -11    1    3    3    0    0  0.61198733509E+02  0.36252560713E+02 -0.38403104183E+02  0.80835212329E+02  0.00000000000E+00 0. -1.
         11    1    3    3    0    0  0.27412675905E+02  0.49152464199E+02  0.47002935167E+02  0.73325953464E+02  0.00000000000E+00 0.  1.
        -11    1    4    4    0    0 -0.90682767276E+02  0.28483864607E+02 -0.24797377743E+01  0.95083352503E+02  0.00000000000E+00 0.  1.
         11    1    4    4    0    0 -0.79375887021E+01 -0.26051349679E+02 -0.34502753709E+02  0.43955865911E+02  0.00000000000E+00 0. -1.
         21    1    1    2  503  501 -0.13157242481E+01 -0.67737057950E+02  0.84722300141E+01  0.68277513366E+02  0.00000000000E+00 0.  1.
         -3    1    1    2    0  502  0.11324670812E+02 -0.20100481889E+02  0.43983838497E+02  0.49667450006E+02  0.00000000000E+00 0.  1.
<scales pt_clust_5="13000.00000" pt_clust_6="13000.00000" pt_clust_7="13000.00000" pt_clust_8="13000.00000" pt_clust_9="70.89050" pt_clust_10="23.07115"></scales>
<clustering>
<clus scale="   23.071">  2 10  1 -1</clus>
<clus scale="   70.890">  1  9  2 -1</clus>
<clus scale="   90.732">  7  8 -1 -1</clus>
<clus scale="   92.443">  5  6 -1 -1</clus>
<clus scale="  135.304">  2  7  1 -1</clus>
<clus scale="   23.071">  2  5  1 -1</clus>
</clustering>
</event>
<event>
10    2  0.1671105E-006  0.1075968E+03  0.7546771E-02  0.1265507E+00
         21   -1    0    0  501  502  0.00000000000E+00  0.00000000000E+00  0.23675449208E+03  0.23675449208E+03  0.00000000000E+00 0. -1.
          4   -1    0    0  503    0 -0.00000000000E+00 -0.00000000000E+00 -0.17684924518E+03  0.17684924518E+03  0.00000000000E+00 0. -1.
         23    2    1    2    0    0  0.64847861634E+02 -0.30392033603E+02 -0.10543771758E+03  0.15611390476E+03  0.90141655774E+02 0.  0.
         23    2    1    2    0    0 -0.26550071795E+02 -0.11811409908E+02  0.29040535989E+02  0.10000778861E+03  0.91179983199E+02 0.  0.
        -13    1    4    4    0    0  0.30095558720E+02 -0.13012459496E+02  0.28350336728E+02  0.43345222913E+02  0.00000000000E+00 0.  1.
         13    1    4    4    0    0 -0.56645630515E+02  0.12010495884E+01  0.69019926102E+00  0.56662565699E+02  0.00000000000E+00 0. -1.
        -13    1    3    3    0    0  0.51391769253E+02 -0.50257055947E+02 -0.11027874735E+03  0.13163695429E+03  0.00000000000E+00 0. -1.
         13    1    3    3    0    0  0.13456092380E+02  0.19865022343E+02  0.48410297673E+01  0.24476950465E+02  0.00000000000E+00 0.  1.
         21    1    1    2  503  502 -0.30932639778E+02  0.23004921780E+02  0.13056043698E+03  0.13613259101E+03  0.00000000000E+00 0. -1.
          4    1    1    2  501    0 -0.73651500604E+01  0.19198521731E+02  0.57419915044E+01  0.21349452886E+02  0.00000000000E+00 0. -1.
<scales pt_clust_5="13000.00000" pt_clust_6="13000.00000" pt_clust_7="13000.00000" pt_clust_8="13000.00000" pt_clust_9="49.36466" pt_clust_10="20.56280"></scales>
<clustering>
<clus scale="   20.563">  1 10  2 -1</clus>
<clus scale="   49.365">  1  9  2 -1</clus>
<clus scale="   90.142">  7  8 -1 -1</clus>
<clus scale="   91.180">  5  6 -1 -1</clus>
<clus scale="  106.718">  2  7  1 -1</clus>
<clus scale="   20.563">  1  5  2 -1</clus>
</clustering>
</event>
<event>
10    2  0.1671105E-006  0.1373820E+03  0.7546771E-02  0.1222617E+00
          1   -1    0    0  503    0 -0.00000000000E+00  0.00000000000E+00  0.44996743971E+03  0.44996743971E+03  0.00000000000E+00 0. -1.
         21   -1    0    0  501  502  0.00000000000E+00 -0.00000000000E+00 -0.63665559078E+02  0.63665559078E+02  0.00000000000E+00 0.  1.
         23    2    1    2    0    0  0.12554854171E+01 -0.89215406990E+02  0.25517274392E+03  0.28534936204E+03  0.91379232278E+02 0.  0.
         23    2    1    2    0    0 -0.16234865312E+02  0.63426739611E+02  0.11702436071E+03  0.17425193146E+03  0.11127673822E+03 0.  0.
        -11    1    3    3    0    0 -0.27213535957E+02  0.43756045845E+01  0.36034950637E+02  0.45367831358E+02  0.00000000000E+00 0.  1.
         11    1    3    3    0    0  0.28469021374E+02 -0.93591011575E+02  0.21913779328E+03  0.23998153069E+03  0.00000000000E+00 0. -1.
        -13    1    4    4    0    0 -0.43363741053E+02  0.51165869492E+02  0.16026928299E+02  0.68958122579E+02  0.00000000000E+00 0.  1.
         13    1    4    4    0    0  0.27128875741E+02  0.12260870119E+02  0.10099743241E+03  0.10529380888E+03  0.00000000000E+00 0. -1.
         21    1    1    2  503  502 -0.13703178958E+02  0.16830370994E+02  0.26125009694E+01  0.21860092925E+02  0.00000000000E+00 0.  1.
          1    1    1    2  501    0  0.28682558853E+02  0.89582963852E+01  0.11492275038E+02  0.32171612363E+02  0.00000000000E+00 0. -1.
<scales pt_clust_5="13000.00000" pt_clust_6="13000.00000" pt_clust_7="13000.00000" pt_clust_8="13000.00000" pt_clust_9="21.70342" pt_clust_10="28.76590"></scales>
<clustering>
<clus scale="   21.703">  2  9  1 -1</clus>
<clus scale="   28.766">  2 10  1 -1</clus>
<clus scale="   91.379">  5  6 -1 -1</clus>
<clus scale="  111.277">  7  8 -1 -1</clus>
<clus scale="  121.826">  1  5  2 -1</clus>
<clus scale="   21.703">  2  5  1 -1</clus>
</clustering>
</event>
<event>
10    2  0.1671105E-006  0.1519351E+03  0.7546771E-02  0.1218866E+00
         21   -1    0    0  503  502  0.00000000000E+00  0.00000000000E+00  0.59241632421E+02  0.59241632421E+02  0.00000000000E+00 0. -1.
          2   -1    0    0  502    0 -0.00000000000E+00 -0.00000000000E+00 -0.99604073971E+03  0.99604073971E+03  0.00000000000E+00 0. -1.
         23    2    1    2    0    0 -0.35840403045E+02  0.15523565878E+02 -0.31548535618E+03  0.33018854692E+03  0.89263379754E+02 0.  0.
         23    2    1    2    0    0  0.81914962384E+02  0.98849027299E+02 -0.55783202479E+03  0.57925798599E+03  0.88780939392E+02 0.  0.
        -11    1    3    3    0    0  0.27165532753E+02 -0.65686814469E+01 -0.61126777872E+02  0.67213069553E+02  0.00000000000E+00 0.  1.
         11    1    3    3    0    0 -0.63005935798E+02  0.22092247325E+02 -0.25435857831E+03  0.26297547737E+03  0.00000000000E+00 0. -1.
        -13    1    4    4    0    0 -0.84440090780E+01  0.50358058492E+02 -0.13984598624E+03  0.14887624126E+03  0.00000000000E+00 0.  1.
         13    1    4    4    0    0  0.90358971462E+02  0.48490968807E+02 -0.41798603855E+03  0.43038174473E+03  0.00000000000E+00 0. -1.
         21    1    1    2  503  501 -0.81818271531E+01 -0.62264292178E+02 -0.13355737669E+02  0.64204050532E+02  0.00000000000E+00 0. -1.
          2    1    1    2  501    0 -0.37892732186E+02 -0.52108300999E+02 -0.50125988652E+02  0.81631788684E+02  0.00000000000E+00 0. -1.
<scales pt_clust_5="13000.00000" pt_clust_6="13000.00000" pt_clust_7="13000.00000" pt_clust_8="13000.00000" pt_clust_9="44.52810" pt_clust_10="131.28760"></scales>
<clustering>
<clus scale="   44.528">  9 10 -1 -1</clus>
<clus scale="   88.781">  7  8 -1 -1</clus>
<clus scale="   89.263">  5  6 -1 -1</clus>
<clus scale="   97.434">  2  5  1 -1</clus>
<clus scale="  131.288">  1  9  2 -1</clus>
<clus scale="  131.288">  1  5  2 -1</clus>
</clustering>
</event>
<event>
10    2  0.1671105E-006  0.1712412E+03  0.7546771E-02  0.1176570E+00
         21   -1    0    0  503  502  0.00000000000E+00  0.00000000000E+00  0.96637853597E+02  0.96637853597E+02  0.00000000000E+00 0. -1.
          2   -1    0    0  502    0 -0.00000000000E+00 -0.00000000000E+00 -0.10266432706E+04  0.10266432706E+04  0.00000000000E+00 0. -1.
         23    2    1    2    0    0 -0.17114842548E+03  0.88318416925E+02 -0.74465898464E+03  0.77470945881E+03  0.92551692878E+02 0.  0.
         23    2    1    2    0    0  0.83868777832E+02 -0.18769500485E+02 -0.19588167435E+03  0.23310063051E+03  0.92628330187E+02 0.  0.
        -11    1    3    3    0    0 -0.86176190295E+02  0.55707736566E+02 -0.55421355754E+03  0.56363317419E+03  0.00000000000E+00 0. -1.
         11    1    3    3    0    0 -0.84972235189E+02  0.32610680359E+02 -0.19044542710E+03  0.21107628462E+03  0.00000000000E+00 0.  1.
        -13    1    4    4    0    0  0.44127787414E+01  0.31839568206E+02 -0.51056948913E+02  0.60332766819E+02  0.00000000000E+00 0. -1.
         13    1    4    4    0    0  0.79455999090E+02 -0.50609068692E+02 -0.14482472544E+03  0.17276786369E+03  0.00000000000E+00 0.  1.
         21    1    1    2  503  501  0.47653831923E+02 -0.26725783197E+02 -0.56383768220E+01  0.54926737366E+02  0.00000000000E+00 0.  1.
          2    1    1    2  501    0  0.39625815729E+02 -0.42823133243E+02  0.16173618828E+02  0.60544297493E+02  0.00000000000E+00 0. -1.
<scales pt_clust_5="13000.00000" pt_clust_6="13000.00000" pt_clust_7="13000.00000" pt_clust_8="13000.00000" pt_clust_9="26.81402" pt_clust_10="114.98943"></scales>
<clustering>
<clus scale="   26.814">  9 10 -1 -1</clus>
<clus scale="   92.552">  5  6 -1 -1</clus>
<clus scale="   92.628">  7  8 -1 -1</clus>
<clus scale="  114.989">  1  9  2 -1</clus>
<clus scale="  171.200">  2  5  1 -1</clus>
<clus scale="  114.989">  1  5  2 -1</clus>
</clustering>
</event>
<event>
10    2  0.1671105E-006  0.1184965E+03  0.7546771E-02  0.1245987E+00
         -2   -1    0    0    0  501 -0.00000000000E+00  0.00000000000E+00  0.77398512505E+03  0.77398512505E+03  0.00000000000E+00 0.  1.
         21   -1    0    0  503  502  0.00000000000E+00 -0.00000000000E+00 -0.10048302384E+03  0.10048302384E+03  0.00000000000E+00 0.  1.
         23    2    1    2    0    0  0.78010881284E+02 -0.27981476249E+02  0.57358811067E+03  0.58662490796E+03  0.90866942978E+02 0.  0.
         23    2    1    2    0    0 -0.41377091400E+02  0.48701412714E+02  0.14983988287E+03  0.18594359457E+03  0.89661243424E+02 0.  0.
        -11    1    4    4    0    0 -0.25862319626E+02 -0.19262315557E+02  0.18313657032E+02  0.37084854199E+02  0.00000000000E+00 0. -1.
         11    1    4    4    0    0 -0.15514771774E+02  0.67963728272E+02  0.13152622583E+03  0.14885874037E+03  0.00000000000E+00 0.  1.
        -13    1    3    3    0    0  0.60982835183E+02 -0.60303281935E+02  0.42936762086E+03  0.43784922729E+03  0.00000000000E+00 0. -1.
         13    1    3    3    0    0  0.17028046101E+02  0.32321805686E+02  0.14422048981E+03  0.14877568067E+03  0.00000000000E+00 0.  1.
         21    1    1    2  503  501 -0.31019480046E+02  0.24245483980E+02 -0.80217889787E+01  0.40179605949E+02  0.00000000000E+00 0. -1.
         -2    1    1    2    0  502 -0.56143098379E+01 -0.44965420445E+02 -0.41904103346E+02  0.61720040409E+02  0.00000000000E+00 0.  1.
<scales pt_clust_5="13000.00000" pt_clust_6="13000.00000" pt_clust_7="13000.00000" pt_clust_8="13000.00000" pt_clust_9="39.37070" pt_clust_10="39.03665"></scales>
<clustering>
<clus scale="   39.371">  2  9  1 -1</clus>
<clus scale="   39.037">  2 10  1 -1</clus>
<clus scale="   89.661">  5  6 -1 -1</clus>
<clus scale="   90.867">  7  8 -1 -1</clus>
<clus scale="  117.574">  2  5  1 -1</clus>
<clus scale="   39.371">  2  5  1 -1</clus>
</clustering>
</event>
<event>
10    2  0.1671105E-006  0.1088278E+03  0.7546771E-02  0.1263136E+00
         21   -1    0    0  503  502  0.00000000000E+00  0.00000000000E+00  0.20397099323E+03  0.20397099323E+03  0.00000000000E+00 0.  1.
          2   -1    0    0  502    0 -0.00000000000E+00 -0.00000000000E+00 -0.47072224477E+03  0.47072224477E+03  0.00000000000E+00 0. -1.
         23    2    1    2    0    0  0.51713249880E+02 -0.14998582985E+02 -0.38524970929E+03  0.39972370073E+03  0.91991742636E+02 0.  0.
         23    2    1    2    0    0 -0.10000795844E+03 -0.43830244193E+02  0.16093886516E+02  0.14428747753E+03  0.92936434890E+02 0.  0.
        -11    1    3    3    0    0 -0.23707121868E+02  0.61477287391E+00 -0.45008857017E+02  0.50874382384E+02  0.00000000000E+00 0.  1.
         11    1    3    3    0    0  0.75420371748E+02 -0.15613355859E+02 -0.34024085227E+03  0.34884931835E+03  0.00000000000E+00 0. -1.
        -13    1    4    4    0    0 -0.72885531185E+02 -0.46847089540E+02 -0.29180415373E+02  0.91424543181E+02  0.00000000000E+00 0. -1.
         13    1    4    4    0    0 -0.27122427255E+02  0.30168453463E+01  0.45274301888E+02  0.52862934345E+02  0.00000000000E+00 0.  1.
         21    1    1    2  503  501  0.20898734503E+02  0.22485179116E+02  0.64575710505E+02  0.71500788604E+02  0.00000000000E+00 0. -1.
          2    1    1    2  501    0  0.27395974057E+02  0.36343648062E+02  0.37828860727E+02  0.59181271133E+02  0.00000000000E+00 0. -1.
<scales pt_clust_5="13000.00000" pt_clust_6="13000.00000" pt_clust_7="13000.00000" pt_clust_8="13000.00000" pt_clust_9="23.19844" pt_clust_10="81.18562"></scales>
<clustering>
<clus scale="   23.198">  9 10 -1 -1</clus>
<clus scale="   81.186">  1  9  2 -1</clus>
<clus scale="   91.992">  5  6 -1 -1</clus>
<clus scale="   92.936">  7  8 -1 -1</clus>
<clus scale="  108.022">  2  5  1 -1</clus>
<clus scale="   81.186">  1  5  2 -1</clus>
</clustering>
</event>
<event>
10    2  0.1671105E-006  0.3006507E+03  0.7546771E-02  0.1085620E+00
         21   -1    0    0  503  502  0.00000000000E+00  0.00000000000E+00  0.41716693011E+03  0.41716693011E+03  0.00000000000E+00 0. -1.
          2   -1    0    0  502    0 -0.00000000000E+00 -0.00000000000E+00 -0.10112782521E+04  0.10112782521E+04  0.00000000000E+00 0. -1.
         23    2    1    2    0    0  0.17015907835E+02  0.29018022306E+03 -0.86542742995E+03  0.91744636101E+03  0.90824478231E+02 0.  0.
         23    2    1    2    0    0 -0.63379349890E+02 -0.25728184312E+03  0.47306641758E+02  0.27814900942E+03  0.70128911980E+02 0.  0.
        -11    1    3    3    0    0  0.33097741287E+02  0.25457600381E+03 -0.80944847491E+03  0.84918268690E+03  0.00000000000E+00 0. -1.
         11    1    3    3    0    0 -0.16081833452E+02  0.35604219258E+02 -0.55978955040E+02  0.68263674113E+02  0.00000000000E+00 0.  1.
        -11    1    4    4    0    0  0.43863712788E+00 -0.64601395497E+02  0.38024808540E+02  0.74962782547E+02  0.00000000000E+00 0.  1.
         11    1    4    4    0    0 -0.63817987018E+02 -0.19268044762E+03  0.92818332179E+01  0.20318622687E+03  0.00000000000E+00 0. -1.
         21    1    1    2  503  501  0.29863774857E+02 -0.43206864120E+01  0.94391032951E+02  0.99096823770E+02  0.00000000000E+00 0. -1.
          2    1    1    2  501    0  0.16499667198E+02 -0.28577693535E+02  0.12961843321E+03  0.13375298805E+03  0.00000000000E+00 0. -1.
<scales pt_clust_5="13000.00000" pt_clust_6="13000.00000" pt_clust_7="13000.00000" pt_clust_8="13000.00000" pt_clust_9="27.16364" pt_clust_10="63.55151"></scales>
<clustering>
<clus scale="   27.164">  9 10 -1 -1</clus>
<clus scale="   63.552">  1  9  2 -1</clus>
<clus scale="   70.129">  7  8 -1 -1</clus>
<clus scale="   90.824">  5  6 -1 -1</clus>
<clus scale="  295.059">  1  7  2 -1</clus>
<clus scale="   63.552">  1  5  2 -1</clus>
</clustering>
</event>
<event>
10    2  0.1671105E-006  0.1316915E+03  0.7546771E-02  0.1226020E+00
         21   -1    0    0  503  502  0.00000000000E+00  0.00000000000E+00  0.15623927071E+03  0.15623927071E+03  0.00000000000E+00 0. -1.
          1   -1    0    0  502    0 -0.00000000000E+00 -0.00000000000E+00 -0.27356810897E+03  0.27356810897E+03  0.00000000000E+00 0. -1.
         23    2    1    2    0    0  0.65073077018E+00  0.78429589789E+02 -0.95271174268E+02  0.15360794631E+03  0.91472293723E+02 0.  0.
         23    2    1    2    0    0  0.31673270777E+02 -0.15088802088E+03  0.25457907706E+02  0.17900446437E+03  0.87316105476E+02 0.  0.
        -11    1    4    4    0    0  0.47028866520E+02 -0.61000349735E+02 -0.16264902694E+02  0.78722957348E+02  0.00000000000E+00 0.  1.
         11    1    4    4    0    0 -0.15355595743E+02 -0.89887671142E+02  0.41722810399E+02  0.10028150703E+03  0.00000000000E+00 0. -1.
        -13    1    3    3    0    0 -0.22727353832E+02 -0.12395733500E+02 -0.13585093048E+02  0.29235963715E+02  0.00000000000E+00 0.  1.
         13    1    3    3    0    0  0.23378084602E+02  0.90825323288E+02 -0.81686081220E+02  0.12437198260E+03  0.00000000000E+00 0. -1.
         21    1    1    2  503  501 -0.29826668051E+02  0.43324879946E+02 -0.17861209623E+02  0.55549060825E+02  0.00000000000E+00 0. -1.
          1    1    1    2  501    0 -0.24973334964E+01  0.29133551142E+02 -0.29654362074E+02  0.41645908163E+02  0.00000000000E+00 0. -1.
<scales pt_clust_5="13000.00000" pt_clust_6="13000.00000" pt_clust_7="13000.00000" pt_clust_8="13000.00000" pt_clust_9="22.29395" pt_clust_10="84.78879"></scales>
<clustering>
<clus scale="   22.294">  9 10 -1 -1</clus>
<clus scale="   84.789">  1  9  2 -1</clus>
<clus scale="   87.316">  5  6 -1 -1</clus>
<clus scale="   91.472">  7  8 -1 -1</clus>
<clus scale="  128.839">  1  5  2 -1</clus>
<clus scale="   84.789">  1  5  2 -1</clus>
</clustering>
</event>
<event>
10    2  0.1671105E-006  0.1644809E+03  0.7546771E-02  0.1189797E+00
         21   -1    0    0  501  502  0.00000000000E+00  0.00000000000E+00  0.37845332334E+03  0.37845332334E+03  0.00000000000E+00 0. -1.
         -1   -1    0    0    0  501 -0.00000000000E+00 -0.00000000000E+00 -0.20420940528E+03  0.20420940528E+03  0.00000000000E+00 0.  1.
         23    2    1    2    0    0 -0.85762446832E+02  0.50782946414E+02 -0.97180128928E+02  0.16846450928E+03  0.94879968878E+02 0.  0.
         23    2    1    2    0    0  0.87452073822E+02 -0.13600729533E+03  0.11536863209E+03  0.23420496998E+03  0.12408141318E+03 0.  0.
        -11    1    4    4    0    0  0.70937543919E+02 -0.94300292310E+02  0.85058104018E+01  0.11830904056E+03  0.00000000000E+00 0.  1.
         11    1    4    4    0    0  0.16514529903E+02 -0.41707003023E+02  0.10686282168E+03  0.11589592942E+03  0.00000000000E+00 0. -1.
        -13    1    3    3    0    0 -0.40050764511E+02  0.69181312874E+02 -0.86999754268E+02  0.11814852954E+03  0.00000000000E+00 0.  1.
         13    1    3    3    0    0 -0.45711682321E+02 -0.18398366460E+02 -0.10180374660E+02  0.50315979740E+02  0.00000000000E+00 0. -1.
         21    1    1    2  503  502  0.12276303140E+02  0.50231550509E+02  0.82892781191E+02  0.97699178394E+02  0.00000000000E+00 0.  1.
         -1    1    1    2    0  503 -0.13965930130E+02  0.34992798410E+02  0.73162633706E+02  0.82294070963E+02  0.00000000000E+00 0.  1.
<scales pt_clust_5="13000.00000" pt_clust_6="13000.00000" pt_clust_7="13000.00000" pt_clust_8="13000.00000" pt_clust_9="23.81250" pt_clust_10="89.68990"></scales>
<clustering>
<clus scale="   23.812">  9 10 -1 -1</clus>
<clus scale="   89.690">  1  9  2 -1</clus>
<clus scale="   94.880">  7  8 -1 -1</clus>
<clus scale="  124.081">  5  6 -1 -1</clus>
<clus scale="  143.736">  2  7  1 -1</clus>
<clus scale="   89.690">  1  5  2 -1</clus>
</clustering>
</event>
<event>
10    2  0.1671105E-006  0.1499341E+03  0.7546771E-02  0.1223960E+00
         21   -1    0    0  503  502  0.00000000000E+00  0.00000000000E+00  0.38561567065E+03  0.38561567065E+03  0.00000000000E+00 0. -1.
         -3   -1    0    0    0  501 -0.00000000000E+00 -0.00000000000E+00 -0.30095095720E+03  0.30095095720E+03  0.00000000000E+00 0.  1.
         23    2    1    2    0    0 -0.29561798038E+01  0.61174779658E+01 -0.36028650366E+02  0.97722395726E+02  0.90583886224E+02 0.  0.
         23    2    1    2    0    0 -0.85421035707E+02 -0.14884932827E+03  0.25457139497E+03  0.32009424433E+03  0.90558568040E+02 0.  0.
        -11    1    4    4    0    0  0.13379717680E+02 -0.14938556836E+02  0.64107180086E+02  0.67170736665E+02  0.00000000000E+00 0.  1.
         11    1    4    4    0    0 -0.98800753387E+02 -0.13391077143E+03  0.19046421489E+03  0.25292350766E+03  0.00000000000E+00 0. -1.
        -11    1    3    3    0    0 -0.15834942342E+02 -0.31369723209E+02  0.10427387700E+02  0.36654267793E+02  0.00000000000E+00 0. -1.
         11    1    3    3    0    0  0.12878762538E+02  0.37487201175E+02 -0.46456038066E+02  0.61068127933E+02  0.00000000000E+00 0.  1.
         21    1    1    2  503  501  0.65543543566E+02  0.36066893821E+02  0.22467334763E+02  0.78112470608E+02  0.00000000000E+00 0.  1.
         -3    1    1    2    0  502  0.22833671946E+02  0.10666495648E+03 -0.15634536592E+03  0.19063751719E+03  0.00000000000E+00 0.  1.
<scales pt_clust_5="13000.00000" pt_clust_6="13000.00000" pt_clust_7="13000.00000" pt_clust_8="13000.00000" pt_clust_9="74.81161" pt_clust_10="119.49644"></scales>
<clustering>
<clus scale="   74.812">  1  9  2 -1</clus>
<clus scale="   90.559">  5  6 -1 -1</clus>
<clus scale="   90.584">  7  8 -1 -1</clus>
<clus scale="   91.126">  2  7  1 -1</clus>
<clus scale="  119.496">  1 10  2 -1</clus>
<clus scale="   74.812">  1  5  2 -1</clus>
</clustering>
</event>
<event>
10    2  0.1671105E-006  0.1444107E+03  0.7546771E-02  0.1208237E+00
         21   -1    0    0  503  502  0.00000000000E+00  0.00000000000E+00  0.37569026816E+03  0.37569026816E+03  0.00000000000E+00 0. -1.
         -3   -1    0    0    0  501 -0.00000000000E+00 -0.00000000000E+00 -0.24486425866E+03  0.24486425866E+03  0.00000000000E+00 0.  1.
         23    2    1    2    0    0  0.98506584536E+02  0.54850784854E+02 -0.15330034020E+03  0.21098444661E+03  0.91111396717E+02 0.  0.
         23    2    1    2    0    0 -0.43080443386E+02 -0.12985087677E+03  0.11727745945E+03  0.20034041524E+03  0.87550583565E+02 0.  0.
        -11    1    3    3    0    0  0.85282345760E+01  0.53876697143E+02 -0.65832272504E+02  0.85494545925E+02  0.00000000000E+00 0.  1.
         11    1    3    3    0    0  0.89978349960E+02  0.97408771151E+00 -0.87468067695E+02  0.12548990069E+03  0.00000000000E+00 0. -1.
        -13    1    4    4    0    0  0.18857796238E+02 -0.54231345481E+02  0.73418578507E+02  0.93203771284E+02  0.00000000000E+00 0. -1.
         13    1    4    4    0    0 -0.61938239624E+02 -0.75619531291E+02  0.43858880943E+02  0.10713664395E+03  0.00000000000E+00 0.  1.
         21    1    1    2  503  501 -0.20595732186E+02  0.22020873330E+02 -0.62286577838E+00  0.30157768622E+02  0.00000000000E+00 0.  1.
         -3    1    1    2    0  502 -0.34830408964E+02  0.52979218587E+02  0.16747175603E+03  0.17907189634E+03  0.00000000000E+00 0.  1.
<scales pt_clust_5="13000.00000" pt_clust_6="13000.00000" pt_clust_7="13000.00000" pt_clust_8="13000.00000" pt_clust_9="30.15134" pt_clust_10="64.15430"></scales>
<clustering>
<clus scale="   30.151">  2  9  1 -1</clus>
<clus scale="   64.154">  1 10  2 -1</clus>
<clus scale="   87.551">  7  8 -1 -1</clus>
<clus scale="   91.111">  5  6 -1 -1</clus>
<clus scale="  142.191">  1  7  2 -1</clus>
<clus scale="   64.154">  1  5  2 -1</clus>
</clustering>
</event>
<event>
10    2  0.1671105E-006  0.1288897E+03  0.7546771E-02  0.1241081E+00
         21   -1    0    0  503  502  0.00000000000E+00  0.00000000000E+00  0.37506934871E+03  0.37506934871E+03  0.00000000000E+00 0. -1.
         -1   -1    0    0    0  501 -0.00000000000E+00 -0.00000000000E+00 -0.14452873517E+03  0.14452873517E+03  0.00000000000E+00 0.  1.
         23    2    1    2    0    0 -0.37295022675E+02  0.14627425146E+02 -0.66139362604E+02  0.12117327592E+03  0.93293446874E+02 0.  0.
         23    2    1    2    0    0 -0.87974432830E+02 -0.28954013398E+01  0.15599882882E+03  0.20138309398E+03  0.92041467663E+02 0.  0.
        -11    1    3    3    0    0 -0.24136602279E+02 -0.29541841816E+02 -0.64644581752E+02  0.75061427760E+02  0.00000000000E+00 0.  1.
         11    1    3    3    0    0 -0.13158420396E+02  0.44169266962E+02 -0.14947808524E+01  0.46111848163E+02  0.00000000000E+00 0. -1.
        -13    1    4    4    0    0 -0.51863258979E+02  0.38641783376E+02  0.11779980010E+03  0.13438667329E+03  0.00000000000E+00 0. -1.
         13    1    4    4    0    0 -0.36111173851E+02 -0.41537184716E+02  0.38199028721E+02  0.66996420697E+02  0.00000000000E+00 0.  1.
         21    1    1    2  503  501  0.21532955192E+02  0.23992299085E+01  0.63154545847E+02  0.66767665262E+02  0.00000000000E+00 0.  1.
         -1    1    1    2    0  502  0.10373650031E+03 -0.14131253714E+02  0.77526601479E+02  0.13027404870E+03  0.00000000000E+00 0.  1.
<scales pt_clust_5="13000.00000" pt_clust_6="13000.00000" pt_clust_7="13000.00000" pt_clust_8="13000.00000" pt_clust_9="21.66621" pt_clust_10="90.22707"></scales>
<clustering>
<clus scale="   21.666">  1  9  2 -1</clus>
<clus scale="   92.041">  7  8 -1 -1</clus>
<clus scale="   93.293">  5  6 -1 -1</clus>
<clus scale="  100.876">  2  5  1 -1</clus>
<clus scale="   90.227">  1 10  2 -1</clus>
<clus scale="   21.666">  1  5  2 -1</clus>
</clustering>
</event>
<event>
10    2  0.1671105E-006  0.1082190E+03  0.7546771E-02  0.1264935E+00
         21   -1    0    0  501  502  0.00000000000E+00  0.00000000000E+00  0.39237220118E+02  0.39237220118E+02  0.00000000000E+00 0. -1.
         -1   -1    0    0    0  501 -0.00000000000E+00 -0.00000000000E+00 -0.54720794051E+03  0.54720794051E+03  0.00000000000E+00 0.  1.
         23    2    1    2    0    0 -0.29185739844E+02 -0.26449440369E+02 -0.27848975301E+03  0.29714591691E+03  0.95852872140E+02 0.  0.
         23    2    1    2    0    0  0.76476621859E+02  0.21431905001E+02 -0.15576740454E+03  0.19823568411E+03  0.93412536067E+02 0.  0.
        -11    1    3    3    0    0 -0.33384705496E+02 -0.58341328579E+02 -0.22401925429E+03  0.23388645850E+03  0.00000000000E+00 0.  1.
         11    1    3    3    0    0  0.41989656523E+01  0.31891888210E+02 -0.54470498726E+02  0.63259458404E+02  0.00000000000E+00 0. -1.
        -13    1    4    4    0    0 -0.20513365117E+02  0.11343534383E+02 -0.18521121985E+02  0.29874836908E+02  0.00000000000E+00 0.  1.
         13    1    4    4    0    0  0.96989986976E+02  0.10088370618E+02 -0.13724628256E+03  0.16836084720E+03  0.00000000000E+00 0. -1.
         21    1    1    2  503  502 -0.22238090779E+02  0.23464489454E+01 -0.14337390597E+02  0.26563118666E+02  0.00000000000E+00 0.  1.
         -1    1    1    2    0  503 -0.25052791236E+02  0.26710864223E+01 -0.59376172247E+02  0.64500440945E+02  0.00000000000E+00 0.  1.
<scales pt_clust_5="13000.00000" pt_clust_6="13000.00000" pt_clust_7="13000.00000" pt_clust_8="13000.00000" pt_clust_9="22.36154" pt_clust_10="26.92444"></scales>
<clustering>
<clus scale="   22.362">  1  9  2 -1</clus>
<clus scale="   26.924">  1 10  2 -1</clus>
<clus scale="   93.413">  7  8 -1 -1</clus>
<clus scale="   95.853">  5  6 -1 -1</clus>
<clus scale="  106.064">  1  7  2 -1</clus>
<clus scale="   22.362">  1  5  2 -1</clus>
</clustering>
</event>
<event>
10    2  0.1671105E-006  0.1193004E+03  0.7546771E-02  0.1244899E+00
         21   -1    0    0  501  502  0.00000000000E+00  0.00000000000E+00  0.42886300541E+03  0.42886300541E+03  0.00000000000E+00 0.  1.
          2   -1    0    0  503    0 -0.00000000000E+00 -0.00000000000E+00 -0.25188444918E+03  0.25188444918E+03  0.00000000000E+00 0. -1.
         23    2    1    2    0    0 -0.27510636108E+02  0.68519962620E+02 -0.19986209489E+03  0.23235527530E+03  0.92694641747E+02 0.  0.
         23    2    1    2    0    0  0.64316988723E+01 -0.10524233007E+03  0.31005451886E+03  0.33982200662E+03  0.90707644267E+02 0.  0.
        -13    1    4    4    0    0 -0.13502790602E+02 -0.99435517446E+02  0.30078721586E+03  0.31708468382E+03  0.00000000000E+00 0.  1.
         13    1    4    4    0    0  0.19934489475E+02 -0.58068126195E+01  0.92673029978E+01  0.22737322803E+02  0.00000000000E+00 0. -1.
        -13    1    3    3    0    0 -0.37691862321E+02  0.28699539630E+02 -0.18106412906E+03  0.18715918063E+03  0.00000000000E+00 0. -1.
         13    1    3    3    0    0  0.10181226213E+02  0.39820422990E+02 -0.18797965831E+02  0.45196094674E+02  0.00000000000E+00 0.  1.
         21    1    1    2  503  502  0.41079138796E+02  0.11388529229E+02  0.10847063900E+02  0.43986964404E+02  0.00000000000E+00 0. -1.
          2    1    1    2  501    0 -0.20000201560E+02  0.25333838216E+02  0.55939068360E+02  0.64583208268E+02  0.00000000000E+00 0. -1.
<scales pt_clust_5="13000.00000" pt_clust_6="13000.00000" pt_clust_7="13000.00000" pt_clust_8="13000.00000" pt_clust_9="41.75711" pt_clust_10="32.27710"></scales>
<clustering>
<clus scale="   32.277">  1 10  2 -1</clus>
<clus scale="   41.757">  1  9  2 -1</clus>
<clus scale="   90.708">  5  6 -1 -1</clus>
<clus scale="   92.695">  7  8 -1 -1</clus>
<clus scale="  117.763">  1  5  2 -1</clus>
<clus scale="   32.277">  1  5  2 -1</clus>
</clustering>
</event>
<event>
10    2  0.1671105E-006  0.2226670E+03  0.7546771E-02  0.1154071E+00
         21   -1    0    0  503  502  0.00000000000E+00  0.00000000000E+00  0.43909051813E+03  0.43909051813E+03  0.00000000000E+00 0.  1.
         -3   -1    0    0    0  501 -0.00000000000E+00 -0.00000000000E+00 -0.36715830413E+03  0.36715830413E+03  0.00000000000E+00 0.  1.
         23    2    1    2    0    0 -0.45889067518E+00  0.71176601887E+02  0.69250919490E+02  0.14507905262E+03  0.10576352123E+03 0.  0.
         23    2    1    2    0    0  0.20566598069E+03 -0.16995398711E+03 -0.14524888388E+03  0.31739460292E+03  0.91974139542E+02 0.  0.
        -11    1    3    3    0    0 -0.42280950082E+02  0.57245251006E+01  0.26275146918E+01  0.42747546841E+02  0.00000000000E+00 0. -1.
         11    1    3    3    0    0  0.41822059407E+02  0.65452076787E+02  0.66623404798E+02  0.10233150578E+03  0.00000000000E+00 0.  1.
        -11    1    4    4    0    0  0.13119947271E+03 -0.89574879991E+02 -0.13291345000E+03  0.20713026326E+03  0.00000000000E+00 0.  1.
         11    1    4    4    0    0  0.74466507973E+02 -0.80379107121E+02 -0.12335433880E+02  0.11026433966E+03  0.00000000000E+00 0. -1.
         21    1    1    2  503  501 -0.17168872371E+02  0.47365486966E+02 -0.46419411958E+02  0.68505629992E+02  0.00000000000E+00 0. -1.
         -3    1    1    2    0  502 -0.18803821764E+03  0.51411898258E+02  0.19434959036E+03  0.27526953672E+03  0.00000000000E+00 0.  1.
<scales pt_clust_5="13000.00000" pt_clust_6="13000.00000" pt_clust_7="13000.00000" pt_clust_8="13000.00000" pt_clust_9="50.38114" pt_clust_10="202.78398"></scales>
<clustering>
<clus scale="   50.381">  2  9  1 -1</clus>
<clus scale="   91.974">  7  8 -1 -1</clus>
<clus scale="  105.764">  5  6 -1 -1</clus>
<clus scale="  130.835">  2  5  1 -1</clus>
<clus scale="  202.784">  1 10  2 -1</clus>
<clus scale="  202.784">  1  5  2 -1</clus>
</clustering>
</event>
<event>
10    2  0.1671105E-006  0.1253170E+03  0.7546771E-02  0.1238194E+00
          1   -1    0    0  502    0 -0.00000000000E+00  0.00000000000E+00  0.36496076651E+03  0.36496076651E+03  0.00000000000E+00 0. -1.
         21   -1    0    0  503  502  0.00000000000E+00 -0.00000000000E+00 -0.98938833680E+02  0.98938833680E+02  0.00000000000E+00 0. -1.
         23    2    1    2    0    0  0.57371302748E+02 -0.11656970688E+02  0.16243565890E+03  0.20169181932E+03  0.10424440202E+03 0.  0.
         23    2    1    2    0    0 -0.85478100741E+02 -0.15021620371E+02  0.13253387735E+03  0.18386264388E+03  0.93317138753E+02 0.  0.
        -13    1    4    4    0    0 -0.98718702824E+02 -0.30840785755E+02  0.12417506495E+03  0.16160440312E+03  0.00000000000E+00 0.  1.
         13    1    4    4    0    0  0.13240602083E+02  0.15819165384E+02  0.83588123991E+01  0.22258240759E+02  0.00000000000E+00 0. -1.
        -13    1    3    3    0    0  0.31196022495E+02 -0.53610450997E+02  0.52936276989E+02  0.81544599435E+02  0.00000000000E+00 0.  1.
         13    1    3    3    0    0  0.26175280253E+02  0.41953480309E+02  0.10949938191E+03  0.12014721988E+03  0.00000000000E+00 0. -1.
         21    1    1    2  503  501 -0.54009228694E+01  0.28905527412E+02 -0.33365411752E+02  0.44474151866E+02  0.00000000000E+00 0. -1.
          1    1    1    2  501    0  0.33507720862E+02 -0.22269363531E+01  0.44178083310E+01  0.33870985125E+02  0.00000000000E+00 0. -1.
<scales pt_clust_5="13000.00000" pt_clust_6="13000.00000" pt_clust_7="13000.00000" pt_clust_8="13000.00000" pt_clust_9="29.40577" pt_clust_10="32.54823"></scales>
<clustering>
<clus scale="   29.406">  2  9  1 -1</clus>
<clus scale="   32.548">  2 10  1 -1</clus>
<clus scale="   93.317">  5  6 -1 -1</clus>
<clus scale="  104.244">  7  8 -1 -1</clus>
<clus scale="  116.385">  2  5  1 -1</clus>
<clus scale="   29.406">  2  5  1 -1</clus>
</clustering>
</event>
<event>
10    2  0.1671105E-006  0.9247224E+02  0.7546771E-02  0.1297304E+00
          2   -1    0    0  502    0 -0.00000000000E+00  0.00000000000E+00  0.49040621755E+03  0.49040621755E+03  0.00000000000E+00 0. -1.
         21   -1    0    0  503  502  0.00000000000E+00 -0.00000000000E+00 -0.43960027938E+02  0.43960027938E+02  0.00000000000E+00 0. -1.
         23    2    1    2    0    0  0.18834309562E+02 -0.18242789492E+02  0.32300962036E+03  0.33658311065E+03  0.90914492473E+02 0.  0.
         23    2    1    2    0    0 -0.45127910845E+01 -0.31607058287E+02  0.79397771052E+02  0.12443659792E+03  0.90338748256E+02 0.  0.
        -13    1    3    3    0    0 -0.68202153823E+01  0.34859264605E+02  0.12992071215E+03  0.13468880842E+03  0.00000000000E+00 0.  1.
         13    1    3    3    0    0  0.25654524944E+02 -0.53102054098E+02  0.19308890821E+03  0.20189430223E+03  0.00000000000E+00 0. -1.
        -13    1    4    4    0    0  0.40952623948E+02 -0.24904500583E+02  0.52913805838E+02  0.71394834587E+02  0.00000000000E+00 0.  1.
         13    1    4    4    0    0 -0.45465415032E+02 -0.67025577042E+01  0.26483965213E+02  0.53041763331E+02  0.00000000000E+00 0. -1.
         21    1    1    2  503  501 -0.19355881215E+02  0.20450286602E+02  0.26919526176E+02  0.38955426441E+02  0.00000000000E+00 0.  1.
          2    1    1    2  501    0  0.50343627373E+01  0.29399561178E+02  0.17119272025E+02  0.34391110484E+02  0.00000000000E+00 0. -1.
<scales pt_clust_5="13000.00000" pt_clust_6="13000.00000" pt_clust_7="13000.00000" pt_clust_8="13000.00000" pt_clust_9="26.61189" pt_clust_10="58.65406"></scales>
<clustering>
<clus scale="   26.612">  9 10 -1 -1</clus>
<clus scale="   58.654">  2  9  1 -1</clus>
<clus scale="   90.339">  7  8 -1 -1</clus>
<clus scale="   90.914">  5  6 -1 -1</clus>
<clus scale="   91.906">  2  7  1 -1</clus>
<clus scale="   58.654">  2  5  1 -1</clus>
</clustering>
</event>
<event>
10    2  0.1671105E-006  0.2407277E+03  0.7546771E-02  0.1150229E+00
          2   -1    0    0  503    0 -0.00000000000E+00  0.00000000000E+00  0.62443008883E+03  0.62443008883E+03  0.00000000000E+00 0. -1.
         21   -1    0    0  501  502  0.00000000000E+00 -0.00000000000E+00 -0.22328449325E+03  0.22328449325E+03  0.00000000000E+00 0.  1.
         23    2    1    2    0    0 -0.38802108140E+02 -0.61287104721E+02  0.17931051490E+03  0.21367524272E+03  0.90791716573E+02 0.  0.
         23    2    1    2    0    0 -0.23203585280E+03 -0.49975996297E+02  0.11026591497E+03  0.27712365799E+03  0.91108246732E+02 0.  0.
        -13    1    3    3    0    0 -0.32106453349E+01  0.23779197611E+02  0.36353892299E+02  0.43558741577E+02  0.00000000000E+00 0. -1.
         13    1    3    3    0    0 -0.35591462805E+02 -0.85066302332E+02  0.14295662260E+03  0.17011650115E+03  0.00000000000E+00 0.  1.
        -13    1    4    4    0    0 -0.11756431958E+03 -0.37195104511E+02  0.10477417327E+03  0.16180998863E+03  0.00000000000E+00 0. -1.
         13    1    4    4    0    0 -0.11447153322E+03 -0.12780891785E+02  0.54917416986E+01  0.11531366936E+03  0.00000000000E+00 0.  1.
         21    1    1    2  503  502  0.60150642227E+02  0.15381552020E+02 -0.45677198003E+02  0.77078520486E+02  0.00000000000E+00 0. -1.
          2    1    1    2  501    0  0.21068731872E+03  0.95881548997E+02  0.15724636372E+03  0.27983716088E+03  0.00000000000E+00 0. -1.
<scales pt_clust_5="13000.00000" pt_clust_6="13000.00000" pt_clust_7="13000.00000" pt_clust_8="13000.00000" pt_clust_9="62.08617" pt_clust_10="222.82092"></scales>
<clustering>
<clus scale="   62.086">  2  9  1 -1</clus>
<clus scale="   90.792">  5  6 -1 -1</clus>
<clus scale="   91.108">  7  8 -1 -1</clus>
<clus scale="  113.370">  1  5  2 -1</clus>
<clus scale="  222.821">  2 10  1 -1</clus>
<clus scale="   62.086">  2  5  1 -1</clus>
</clustering>
</event>
<event>
10    2  0.1671105E-006  0.2897462E+03  0.7546771E-02  0.1102776E+00
          1   -1    0    0  502    0 -0.00000000000E+00  0.00000000000E+00  0.13685687384E+04  0.13685687384E+04  0.00000000000E+00 0. -1.
         21   -1    0    0  503  502  0.00000000000E+00 -0.00000000000E+00 -0.65453680624E+03  0.65453680624E+03  0.00000000000E+00 0. -1.
         23    2    1    2    0    0  0.11334515885E+03 -0.17362431660E+03 -0.54662955904E+03  0.59173994262E+03  0.91431704185E+02 0.  0.
         23    2    1    2    0    0  0.23213695834E+03  0.14071751155E+03  0.66677440880E+03  0.72559963414E+03  0.90651703477E+02 0.  0.
        -11    1    3    3    0    0  0.60735093540E+02 -0.44414355626E+02 -0.29043531222E+03  0.30002342768E+03  0.00000000000E+00 0.  1.
         11    1    3    3    0    0  0.52610065310E+02 -0.12920996097E+03 -0.25619424682E+03  0.29171651495E+03  0.00000000000E+00 0. -1.
        -13    1    4    4    0    0  0.19541104982E+02 -0.98212052785E+01  0.91766144636E+02  0.94336292902E+02  0.00000000000E+00 0.  1.
         13    1    4    4    0    0  0.21259585336E+03  0.15053871683E+03  0.57500826416E+03  0.63126334123E+03  0.00000000000E+00 0. -1.
         21    1    1    2  503  501 -0.40275581452E+02  0.98220814678E+00  0.35634517334E+01  0.40444843706E+02  0.00000000000E+00 0. -1.
          1    1    1    2  501    0 -0.30520653574E+03  0.31924596904E+02  0.59032363065E+03  0.66532112416E+03  0.00000000000E+00 0. -1.
<scales pt_clust_5="13000.00000" pt_clust_6="13000.00000" pt_clust_7="13000.00000" pt_clust_8="13000.00000" pt_clust_9="40.28756" pt_clust_10="275.20015"></scales>
<clustering>
<clus scale="   40.288">  2  9  1 -1</clus>
<clus scale="   90.652">  7  8 -1 -1</clus>
<clus scale="   91.432">  5  6 -1 -1</clus>
<clus scale="  210.183">  1  5  2 -1</clus>
<clus scale="  275.200">  2 10  1 -1</clus>
<clus scale="   40.288">  2  5  1 -1</clus>
</clustering>
</event>
<event>
10    2  0.1671105E-006  0.1215228E+03  0.7546771E-02  0.1241277E+00
         21   -1    0    0  503  502  0.00000000000E+00  0.00000000000E+00  0.18616534915E+03  0.18616534915E+03  0.00000000000E+00 0. -1.
          1   -1    0    0  502    0 -0.00000000000E+00 -0.00000000000E+00 -0.12294484995E+03  0.12294484995E+03  0.00000000000E+00 0. -1.
         23    2    1    2    0    0  0.78679172840E+02  0.15234443126E+02  0.87023199324E+01  0.12362844016E+03  0.93732386869E+02 0.  0.
         23    2    1    2    0    0 -0.75220890199E+02  0.31115075045E+02  0.50868408532E+02  0.13267791218E+03  0.91594231129E+02 0.  0.
        -11    1    4    4    0    0 -0.28637789091E+02 -0.59316645710E+01  0.65199641368E+02  0.71458385394E+02  0.00000000000E+00 0. -1.
         11    1    4    4    0    0 -0.46583101108E+02  0.37046739616E+02 -0.14331232837E+02  0.61219526784E+02  0.00000000000E+00 0.  1.
        -11    1    3    3    0    0  0.29258809890E+02  0.11707707631E+02 -0.42150960489E+02  0.52629381948E+02  0.00000000000E+00 0. -1.
         11    1    3    3    0    0  0.49420362950E+02  0.35267354954E+01  0.50853280421E+02  0.70999058212E+02  0.00000000000E+00 0.  1.
         21    1    1    2  503  501 -0.66860578808E+01 -0.20129927026E+02  0.12885510938E+02  0.24818415022E+02  0.00000000000E+00 0.  1.
          1    1    1    2  501    0  0.32277752393E+01 -0.26219591145E+02 -0.92357402043E+01  0.27985431745E+02  0.00000000000E+00 0. -1.
<scales pt_clust_5="13000.00000" pt_clust_6="13000.00000" pt_clust_7="13000.00000" pt_clust_8="13000.00000" pt_clust_9="21.21125" pt_clust_10="27.49595"></scales>
<clustering>
<clus scale="   21.211">  1  9  2 -1</clus>
<clus scale="   27.496">  1 10  2 -1</clus>
<clus scale="   91.594">  5  6 -1 -1</clus>
<clus scale="   93.732">  7  8 -1 -1</clus>
<clus scale="  119.881">  1  5  2 -1</clus>
<clus scale="   21.211">  1  5  2 -1</clus>
</clustering>
</event>
<event>
10    2  0.1671105E-006  0.1133925E+03  0.7546771E-02  0.1259733E+00
          3   -1    0    0  503    0 -0.00000000000E+00  0.00000000000E+00  0.33553466937E+03  0.33553466937E+03  0.00000000000E+00 0. -1.
         21   -1    0    0  501  502  0.00000000000E+00 -0.00000000000E+00 -0.89241152674E+02  0.89241152674E+02  0.00000000000E+00 0. -1.
         23    2    1    2    0    0  0.22041236247E+02  0.30441705773E+02  0.90668679133E+02  0.13400514543E+03  0.91236265154E+02 0.  0.
         23    2    1    2    0    0 -0.77666515935E+02  0.32223304761E+02  0.12204245208E+03  0.18090233923E+03  0.10373459965E+03 0.  0.
        -11    1    3    3    0    0  0.24951064289E+01  0.58371075936E+02  0.33233386002E+02  0.67215072768E+02  0.00000000000E+00 0. -1.
         11    1    3    3    0    0  0.19546129818E+02 -0.27929370163E+02  0.57435293132E+02  0.66790072658E+02  0.00000000000E+00 0.  1.
        -11    1    4    4    0    0 -0.73034743475E+02 -0.21533098689E+02  0.50797877099E+02  0.91532357182E+02  0.00000000000E+00 0.  1.
         11    1    4    4    0    0 -0.46317724608E+01  0.53756403450E+02  0.71244574979E+02  0.89369982052E+02  0.00000000000E+00 0. -1.
         21    1    1    2  503  502  0.23645776039E+02  0.67172428615E+01 -0.37014805903E+01  0.24858500251E+02  0.00000000000E+00 0.  1.
          3    1    1    2  501    0  0.31979503649E+02 -0.69382253396E+02  0.37283866074E+02  0.85009837133E+02  0.00000000000E+00 0. -1.
<scales pt_clust_5="13000.00000" pt_clust_6="13000.00000" pt_clust_7="13000.00000" pt_clust_8="13000.00000" pt_clust_9="24.58138" pt_clust_10="77.99060"></scales>
<clustering>
<clus scale="   24.581">  2  9  1 -1</clus>
<clus scale="   77.991">  2 10  1 -1</clus>
<clus scale="   91.236">  5  6 -1 -1</clus>
<clus scale="  102.084">  1  5  2 -1</clus>
<clus scale="  103.735">  7  8 -1 -1</clus>
<clus scale="   24.581">  2  5  1 -1</clus>
</clustering>
</event>
<event>
10    2  0.1671105E-006  0.2141842E+03  0.7546771E-02  0.1138323E+00
          2   -1    0    0  503    0 -0.00000000000E+00  0.00000000000E+00  0.15794097019E+04  0.15794097019E+04  0.00000000000E+00 0. -1.
         21   -1    0    0  501  502  0.00000000000E+00 -0.00000000000E+00 -0.35950765425E+03  0.35950765425E+03  0.00000000000E+00 0. -1.
         23    2    1    2    0    0 -0.15767215063E+03 -0.53108910177E+02  0.73618374267E+03  0.76019909380E+03  0.90857557801E+02 0.  0.
         23    2    1    2    0    0  0.21752347491E+03  0.10421397741E+03  0.80338289664E+03  0.84367862083E+03  0.90512548313E+02 0.  0.
        -13    1    4    4    0    0  0.11222340928E+03  0.38434589371E+02  0.53464457383E+03  0.54764599111E+03  0.00000000000E+00 0. -1.
         13    1    4    4    0    0  0.10530006562E+03  0.65779388040E+02  0.26873832282E+03  0.29603262972E+03  0.00000000000E+00 0.  1.
        -13    1    3    3    0    0 -0.98182439372E+02 -0.76873276047E+02  0.51860142981E+03  0.53338235346E+03  0.00000000000E+00 0.  1.
         13    1    3    3    0    0 -0.59489711260E+02  0.23764365869E+02  0.21758231286E+03  0.22681674034E+03  0.00000000000E+00 0. -1.
         21    1    1    2  503  502 -0.11103485676E+02 -0.22960911185E+02 -0.27517909422E+02  0.37519677178E+02  0.00000000000E+00 0. -1.
          2    1    1    2  501    0 -0.48747838600E+02 -0.28144156049E+02 -0.29214668220E+03  0.29751996439E+03  0.00000000000E+00 0. -1.
<scales pt_clust_5="13000.00000" pt_clust_6="13000.00000" pt_clust_7="13000.00000" pt_clust_8="13000.00000" pt_clust_9="25.50472" pt_clust_10="76.41147"></scales>
<clustering>
<clus scale="   25.505">  2  9  1 -1</clus>
<clus scale="   76.411">  2 10  1 -1</clus>
<clus scale="   90.513">  5  6 -1 -1</clus>
<clus scale="   90.858">  7  8 -1 -1</clus>
<clus scale="  214.038">  2  5  1 -1</clus>
<clus scale="   25.505">  2  5  1 -1</clus>
</clustering>
</event>
<event>
10    2  0.1671105E-006  0.3929995E+03  0.7546771E-02  0.1089089E+00
         21   -1    0    0  503  502  0.00000000000E+00  0.00000000000E+00  0.83010174344E+03  0.83010174344E+03  0.00000000000E+00 0. -1.
          2   -1    0    0  502    0 -0.00000000000E+00 -0.00000000000E+00 -0.28287142613E+03  0.28287142613E+03  0.00000000000E+00 0. -1.
         23    2    1    2    0    0  0.42778570076E+02 -0.66992599170E+02  0.68707820274E+02  0.13868889932E+03  0.90530833569E+02 0.  0.
         23    2    1    2    0    0  0.24497389381E+02  0.42534342115E+03  0.99706978137E+02  0.44691895173E+03  0.90983074938E+02 0.  0.
        -11    1    4    4    0    0 -0.33024336473E+01  0.90836205351E+02  0.60010992943E+02  0.10891942685E+03  0.00000000000E+00 0.  1.
         11    1    4    4    0    0  0.27799823028E+02  0.33450721580E+03  0.39695985194E+02  0.33799952488E+03  0.00000000000E+00 0. -1.
        -13    1    3    3    0    0  0.50081846541E+02  0.24747653140E+01  0.22654323392E+02  0.55023033220E+02  0.00000000000E+00 0. -1.
         13    1    3    3    0    0 -0.73032764648E+01 -0.69467364484E+02  0.46053496882E+02  0.83665866101E+02  0.00000000000E+00 0.  1.
         21    1    1    2  503  501  0.15867223628E+01 -0.74896181500E+02  0.85947235564E+02  0.11401264400E+03  0.00000000000E+00 0.  1.
          2    1    1    2  501    0 -0.68862681820E+02 -0.28345464048E+03  0.29286828333E+03  0.41335267453E+03  0.00000000000E+00 0. -1.
<scales pt_clust_5="13000.00000" pt_clust_6="13000.00000" pt_clust_7="13000.00000" pt_clust_8="13000.00000" pt_clust_9="20.71948" pt_clust_10="384.50271"></scales>
<clustering>
<clus scale="   20.719">  9 10 -1 -1</clus>
<clus scale="   90.531">  7  8 -1 -1</clus>
<clus scale="   90.983">  5  6 -1 -1</clus>
<clus scale="  120.473">  2  7  1 -1</clus>
<clus scale="  384.503">  1  9  2 -1</clus>
<clus scale="  384.503">  1  5  2 -1</clus>
</clustering>
</event>
<event>
10    2  0.1671105E-006  0.1061755E+03  0.7546771E-02  0.1268046E+00
          1   -1    0    0  503    0 -0.00000000000E+00  0.00000000000E+00  0.33215291282E+03  0.33215291282E+03  0.00000000000E+00 0. -1.
         21   -1    0    0  501  502  0.00000000000E+00 -0.00000000000E+00 -0.12962656653E+03  0.12962656653E+03  0.00000000000E+00 0. -1.
         23    2    1    2    0    0 -0.28944091415E+02 -0.42926208190E+02  0.53512438798E+02  0.11775626788E+03  0.91227943869E+02 0.  0.
         23    2    1    2    0    0 -0.68200412587E+02  0.59255430419E+02  0.82869419742E+02  0.15313539087E+03  0.91763853981E+02 0.  0.
        -11    1    3    3    0    0  0.81848604136E-01  0.22895820155E+02  0.37689287341E+02  0.44098839668E+02  0.00000000000E+00 0.  1.
         11    1    3    3    0    0 -0.29025940019E+02 -0.65822028345E+02  0.15823151457E+02  0.73657428216E+02  0.00000000000E+00 0. -1.
        -13    1    4    4    0    0 -0.29222297680E+02  0.42564059883E+01 -0.15911878509E+02  0.33544709736E+02  0.00000000000E+00 0.  1.
         13    1    4    4    0    0 -0.38978114907E+02  0.54999024430E+02  0.98781298250E+02  0.11959068113E+03  0.00000000000E+00 0. -1.
         21    1    1    2  503  502  0.62683072429E+02  0.40886832701E+02  0.92586922072E+02  0.11905141241E+03  0.00000000000E+00 0.  1.
          1    1    1    2  501    0  0.34461431572E+02 -0.57216054930E+02 -0.26442434323E+02  0.71836408184E+02  0.00000000000E+00 0. -1.
<scales pt_clust_5="13000.00000" pt_clust_6="13000.00000" pt_clust_7="13000.00000" pt_clust_8="13000.00000" pt_clust_9="75.24989" pt_clust_10="66.79272"></scales>
<clustering>
<clus scale="   66.793">  2 10  1 -1</clus>
<clus scale="   75.250">  1  9  2 -1</clus>
<clus scale="   91.228">  5  6 -1 -1</clus>
<clus scale="   91.764">  7  8 -1 -1</clus>
<clus scale="  105.713">  1  5  2 -1</clus>
<clus scale="   66.793">  2  5  1 -1</clus>
</clustering>
</event>
<event>
10    2  0.1671105E-006  0.1040373E+03  0.7546771E-02  0.1273445E+00
          1   -1    0    0  502    0 -0.00000000000E+00  0.00000000000E+00  0.31794404397E+03  0.31794404397E+03  0.00000000000E+00 0. -1.
         21   -1    0    0  503  502  0.00000000000E+00 -0.00000000000E+00 -0.21567648271E+03  0.21567648271E+03  0.00000000000E+00 0.  1.
         23    2    1    2    0    0 -0.36946197329E+02 -0.39360538270E+02  0.17001441182E+03  0.20239654875E+03  0.95630482854E+02 0.  0.
         23    2    1    2    0    0  0.32703333274E+02 -0.14661765284E+00  0.10629483979E+03  0.14470201111E+03  0.92577262604E+02 0.  0.
        -13    1    4    4    0    0 -0.10430920923E+02 -0.33364923150E+02  0.72860156058E+02  0.80812279691E+02  0.00000000000E+00 0. -1.
         13    1    4    4    0    0  0.43134254197E+02  0.33218305498E+02  0.33434683729E+02  0.63889731423E+02  0.00000000000E+00 0.  1.
        -13    1    3    3    0    0  0.11856817614E+02  0.25793165401E+02  0.45786531732E+02  0.53872794557E+02  0.00000000000E+00 0.  1.
         13    1    3    3    0    0 -0.48803014943E+02 -0.65153703670E+02  0.12422788009E+03  0.14852375420E+03  0.00000000000E+00 0. -1.
         21    1    1    2  503  501 -0.23261509846E+02  0.66568473131E+01 -0.59674952104E+02  0.64393410883E+02  0.00000000000E+00 0.  1.
          1    1    1    2  501    0  0.27504373901E+02  0.32850308610E+02 -0.11436673824E+03  0.12212855593E+03  0.00000000000E+00 0. -1.
<scales pt_clust_5="13000.00000" pt_clust_6="13000.00000" pt_clust_7="13000.00000" pt_clust_8="13000.00000" pt_clust_9="24.19528" pt_clust_10="39.16870"></scales>
<clustering>
<clus scale="   24.195">  2  9  1 -1</clus>
<clus scale="   39.169">  2 10  1 -1</clus>
<clus scale="   92.577">  5  6 -1 -1</clus>
<clus scale="   95.630">  7  8 -1 -1</clus>
<clus scale="  101.238">  2  5  1 -1</clus>
<clus scale="   24.195">  2  5  1 -1</clus>
</clustering>
</event>
<event>
10    2  0.1671105E-006  0.1166609E+03  0.7546771E-02  0.1249070E+00
         21   -1    0    0  503  502  0.00000000000E+00  0.00000000000E+00  0.91577298114E+02  0.91577298114E+02  0.00000000000E+00 0.  1.
          2   -1    0    0  502    0 -0.00000000000E+00 -0.00000000000E+00 -0.39578110359E+03  0.39578110359E+03  0.00000000000E+00 0. -1.
         23    2    1    2    0    0  0.60606499572E+02 -0.37075332163E+02 -0.15464391830E+03  0.19248778869E+03  0.89939308888E+02 0.  0.
         23    2    1    2    0    0 -0.17145140601E+02  0.10953042177E+03 -0.32271969250E+02  0.14569324632E+03  0.88849158036E+02 0.  0.
        -13    1    3    3    0    0  0.29002655037E+02  0.24057852762E+02 -0.23571689429E+02  0.44447258872E+02  0.00000000000E+00 0.  1.
         13    1    3    3    0    0  0.31603844535E+02 -0.61133184925E+02 -0.13107222887E+03  0.14804052982E+03  0.00000000000E+00 0. -1.
        -13    1    4    4    0    0  0.32924956815E+01  0.98534133328E+02  0.83153169248E+01  0.98939175528E+02  0.00000000000E+00 0.  1.
         13    1    4    4    0    0 -0.20437636283E+02  0.10996288442E+02 -0.40587286175E+02  0.46754070789E+02  0.00000000000E+00 0. -1.
         21    1    1    2  503  501 -0.93964598875E+01 -0.30275507117E+02 -0.19085017464E+02  0.37001860510E+02  0.00000000000E+00 0.  1.
          2    1    1    2  501    0 -0.34064899083E+02 -0.42179582491E+02 -0.98202900461E+02  0.11217550618E+03  0.00000000000E+00 0. -1.
<scales pt_clust_5="13000.00000" pt_clust_6="13000.00000" pt_clust_7="13000.00000" pt_clust_8="13000.00000" pt_clust_9="28.18636" pt_clust_10="92.18156"></scales>
<clustering>
<clus scale="   28.186">  9 10 -1 -1</clus>
<clus scale="   88.849">  7  8 -1 -1</clus>
<clus scale="   89.939">  5  6 -1 -1</clus>
<clus scale="   92.182">  1  9  2 -1</clus>
<clus scale="  115.823">  1  7  2 -1</clus>
<clus scale="   92.182">  1  5  2 -1</clus>
</clustering>
</event>
<event>
10    2  0.1671105E-006  0.1589032E+03  0.7546771E-02  0.1190848E+00
          2   -1    0    0  503    0 -0.00000000000E+00  0.00000000000E+00  0.42181596255E+03  0.42181596255E+03  0.00000000000E+00 0. -1.
         21   -1    0    0  501  502  0.00000000000E+00 -0.00000000000E+00 -0.18181056607E+03  0.18181056607E+03  0.00000000000E+00 0. -1.
         23    2    1    2    0    0 -0.12400267442E+03  0.66386516458E+02  0.28211639881E+03  0.32756276583E+03  0.89016123551E+02 0.  0.
         23    2    1    2    0    0  0.88679113138E+02 -0.51537387737E+02  0.63952883180E+02  0.15338156962E+03  0.94423763914E+02 0.  0.
        -11    1    4    4    0    0  0.63108654622E+02 -0.29737275589E+02 -0.11573688289E+02  0.70717452643E+02  0.00000000000E+00 0.  1.
         11    1    4    4    0    0  0.25570458516E+02 -0.21800112148E+02  0.75526571470E+02  0.82664116981E+02  0.00000000000E+00 0. -1.
        -13    1    3    3    0    0 -0.30839588176E+02  0.47425436156E+02  0.17704237324E+03  0.18586084611E+03  0.00000000000E+00 0.  1.
         13    1    3    3    0    0 -0.93163086239E+02  0.18961080302E+02  0.10507402557E+03  0.14170191973E+03  0.00000000000E+00 0. -1.
         21    1    1    2  503  502  0.18475340385E+02  0.92203555765E+01 -0.11447738564E+02  0.23609402312E+02  0.00000000000E+00 0. -1.
          2    1    1    2  501    0  0.16848220893E+02 -0.24069484297E+02 -0.94616146954E+02  0.99072790846E+02  0.00000000000E+00 0. -1.
<scales pt_clust_5="13000.00000" pt_clust_6="13000.00000" pt_clust_7="13000.00000" pt_clust_8="13000.00000" pt_clust_9="20.64832" pt_clust_10="33.41716"></scales>
<clustering>
<clus scale="   20.648">  2  9  1 -1</clus>
<clus scale="   33.417">  2 10  1 -1</clus>
<clus scale="   89.016">  7  8 -1 -1</clus>
<clus scale="   94.424">  5  6 -1 -1</clus>
<clus scale="  155.751">  1  7  2 -1</clus>
<clus scale="   20.648">  2  5  1 -1</clus>
</clustering>
</event>
<event>
10    2  0.1671105E-006  0.1369455E+03  0.7546771E-02  0.1236314E+00
         -4   -1    0    0    0  501 -0.00000000000E+00  0.00000000000E+00  0.33743142714E+03  0.33743142714E+03  0.00000000000E+00 0.  1.
         21   -1    0    0  501  502  0.00000000000E+00 -0.00000000000E+00 -0.21505935350E+03  0.21505935350E+03  0.00000000000E+00 0.  1.
         23    2    1    2    0    0 -0.52511662383E+01  0.14383052381E+02  0.21649903041E+03  0.23549821480E+03  0.91395470693E+02 0.  0.
         23    2    1    2    0    0 -0.98838474986E+02  0.76310938727E+00  0.40097670248E+02  0.13913234883E+03  0.89332865493E+02 0.  0.
        -11    1    4    4    0    0 -0.12779791729E+01 -0.22614932959E+02 -0.12485983105E+02  0.25864419530E+02  0.00000000000E+00 0. -1.
         11    1    4    4    0    0 -0.97560495813E+02  0.23378042347E+02  0.52583653353E+02  0.11326792930E+03  0.00000000000E+00 0.  1.
        -13    1    3    3    0    0 -0.41325704963E+02 -0.16614667882E+02  0.11772462450E+03  0.12586877410E+03  0.00000000000E+00 0. -1.
         13    1    3    3    0    0  0.36074538725E+02  0.30997720262E+02  0.98774405910E+02  0.10962944070E+03  0.00000000000E+00 0.  1.
         21    1    1    2  503  502  0.50692980430E+02 -0.16385813938E+02 -0.10307626249E+03  0.11603012131E+03  0.00000000000E+00 0.  1.
         -4    1    1    2    0  503  0.53396660795E+02  0.12396521703E+01 -0.31148364531E+02  0.61830095701E+02  0.00000000000E+00 0.  1.
<scales pt_clust_5="13000.00000" pt_clust_6="13000.00000" pt_clust_7="13000.00000" pt_clust_8="13000.00000" pt_clust_9="50.47239" pt_clust_10="115.44544"></scales>
<clustering>
<clus scale="   50.472">  9 10 -1 -1</clus>
<clus scale="   89.333">  5  6 -1 -1</clus>
<clus scale="   91.395">  7  8 -1 -1</clus>
<clus scale="   92.669">  1  7  2 -1</clus>
<clus scale="  115.445">  2  9  1 -1</clus>
<clus scale="  115.445">  2  5  1 -1</clus>
</clustering>
</event>
<event>
10    2  0.1671105E-006  0.7838402E+03  0.7546771E-02  0.1021228E+00
          1   -1    0    0  502    0 -0.00000000000E+00  0.00000000000E+00  0.12807553450E+04  0.12807553450E+04  0.00000000000E+00 0. -1.
         21   -1    0    0  503  502  0.00000000000E+00 -0.00000000000E+00 -0.57859740727E+03  0.57859740727E+03  0.00000000000E+00 0. -1.
         23    2    1    2    0    0  0.36845334749E+01  0.12093076840E+02  0.17914405234E+03  0.20687392350E+03  0.10268597977E+03 0.  0.
         23    2    1    2    0    0  0.12874666564E+02  0.70589625376E+03  0.48916660072E+03  0.86371993397E+03  0.90955389963E+02 0.  0.
        -11    1    3    3    0    0  0.50015049724E+02 -0.61049285620E+01  0.11599352334E+03  0.12646451205E+03  0.00000000000E+00 0. -1.
         11    1    3    3    0    0 -0.46330516249E+02  0.18198005402E+02  0.63150528998E+02  0.80409411447E+02  0.00000000000E+00 0.  1.
        -13    1    4    4    0    0 -0.61678049045E+01  0.66430917851E+03  0.47166252100E+03  0.81474551867E+03  0.00000000000E+00 0. -1.
         13    1    4    4    0    0  0.19042471468E+02  0.41587075251E+02  0.17504079722E+02  0.48974415305E+02  0.00000000000E+00 0.  1.
         21    1    1    2  503  501  0.50216756797E+02 -0.45617137157E+03 -0.12458391233E+03  0.47553674318E+03  0.00000000000E+00 0. -1.
          1    1    1    2  501    0 -0.66775956835E+02 -0.26181795903E+03  0.15843119700E+03  0.31322215162E+03  0.00000000000E+00 0. -1.
<scales pt_clust_5="13000.00000" pt_clust_6="13000.00000" pt_clust_7="13000.00000" pt_clust_8="13000.00000" pt_clust_9="248.13029" pt_clust_10="248.13029"></scales>
<clustering>
<clus scale="   90.955">  7  8 -1 -1</clus>
<clus scale="  102.686">  5  6 -1 -1</clus>
<clus scale="  103.461">  1  5  2 -1</clus>
<clus scale="  248.130">  9 10 -1 -1</clus>
<clus scale="  719.351">  1  7  2 -1</clus>
<clus scale="  783.840">  2  5  1 -1</clus>
</clustering>
</event>
<event>
10    2  0.1671105E-006  0.1571274E+03  0.7546771E-02  0.1215678E+00
          3   -1    0    0  503    0 -0.00000000000E+00  0.00000000000E+00  0.62892037992E+03  0.62892037992E+03  0.00000000000E+00 0. -1.
         21   -1    0    0  501  502  0.00000000000E+00 -0.00000000000E+00 -0.14661800435E+03  0.14661800435E+03  0.00000000000E+00 0. -1.
         23    2    1    2    0    0  0.14851326996E+02 -0.15895263295E+02  0.18729000401E+03  0.20965357150E+03  0.91672532042E+02 0.  0.
         23    2    1    2    0    0 -0.13962635410E+03 -0.61174415151E+02  0.29142747356E+03  0.34146052763E+03  0.91801371196E+02 0.  0.
        -13    1    3    3    0    0 -0.14061095110E+02  0.29808175184E+02  0.11336412319E+03  0.11805789313E+03  0.00000000000E+00 0.  1.
         13    1    3    3    0    0  0.28912422106E+02 -0.45703438480E+02  0.73925880824E+02  0.91595678373E+02  0.00000000000E+00 0. -1.
        -13    1    4    4    0    0 -0.89404602831E+02 -0.84060921153E+02  0.19764836815E+03  0.23264629571E+03  0.00000000000E+00 0.  1.
         13    1    4    4    0    0 -0.50221751272E+02  0.22886506002E+02  0.93779105407E+02  0.10881423192E+03  0.00000000000E+00 0. -1.
         21    1    1    2  503  502  0.10772522336E+03 -0.33236735920E+02 -0.40405645544E+00  0.11273671818E+03  0.00000000000E+00 0. -1.
          3    1    1    2  501    0  0.17049803744E+02  0.11030641437E+03  0.39889544500E+01  0.11168756697E+03  0.00000000000E+00 0. -1.
<scales pt_clust_5="13000.00000" pt_clust_6="13000.00000" pt_clust_7="13000.00000" pt_clust_8="13000.00000" pt_clust_9="127.52070" pt_clust_10="109.83445"></scales>
<clustering>
<clus scale="   91.673">  5  6 -1 -1</clus>
<clus scale="   91.801">  7  8 -1 -1</clus>
<clus scale="   94.218">  1  5  2 -1</clus>
<clus scale="  109.834">  2 10  1 -1</clus>
<clus scale="  127.521">  2  9  1 -1</clus>
<clus scale="  109.834">  2  5  1 -1</clus>
</clustering>
</event>
<event>
10    2  0.1671105E-006  0.1538972E+03  0.7546771E-02  0.1213758E+00
         21   -1    0    0  503  502  0.00000000000E+00  0.00000000000E+00  0.39835149193E+02  0.39835149193E+02  0.00000000000E+00 0. -1.
          1   -1    0    0  502    0 -0.00000000000E+00 -0.00000000000E+00 -0.10178338192E+04  0.10178338192E+04  0.00000000000E+00 0. -1.
         23    2    1    2    0    0 -0.37390638078E+02 -0.44713982737E+02 -0.28183777401E+03  0.30056659049E+03  0.86662243172E+02 0.  0.
         23    2    1    2    0    0 -0.29870108128E+02  0.13678038344E+03 -0.31694706260E+03  0.35784043749E+03  0.89404930285E+02 0.  0.
        -11    1    3    3    0    0 -0.66838141972E+01 -0.65832252558E+02 -0.15959007195E+03  0.17276443475E+03  0.00000000000E+00 0.  1.
         11    1    3    3    0    0 -0.30706823881E+02  0.21118269821E+02 -0.12224770206E+03  0.12780215574E+03  0.00000000000E+00 0. -1.
        -13    1    4    4    0    0 -0.16325074932E+02  0.91962114201E+02 -0.28806533947E+03  0.30282862864E+03  0.00000000000E+00 0.  1.
         13    1    4    4    0    0 -0.13545033196E+02  0.44818269240E+02 -0.28881723126E+02  0.55011808848E+02  0.00000000000E+00 0. -1.
         21    1    1    2  503  501 -0.90454676753E+00 -0.36320251995E+02 -0.12829668775E+03  0.13334173764E+03  0.00000000000E+00 0. -1.
          1    1    1    2  501    0  0.68165292973E+02 -0.55746148708E+02 -0.25091714568E+03  0.26592020280E+03  0.00000000000E+00 0. -1.
<scales pt_clust_5="13000.00000" pt_clust_6="13000.00000" pt_clust_7="13000.00000" pt_clust_8="13000.00000" pt_clust_9="32.79494" pt_clust_10="135.26963"></scales>
<clustering>
<clus scale="   32.795">  9 10 -1 -1</clus>
<clus scale="   86.662">  5  6 -1 -1</clus>
<clus scale="   89.405">  7  8 -1 -1</clus>
<clus scale="  104.440">  2  5  1 -1</clus>
<clus scale="  135.270">  1  9  2 -1</clus>
<clus scale="  135.270">  1  5  2 -1</clus>
</clustering>
</event>
<event>
10    2  0.1671105E-006  0.2061184E+03  0.7546771E-02  0.1165180E+00
         21   -1    0    0  503  502  0.00000000000E+00  0.00000000000E+00  0.33637710523E+03  0.33637710523E+03  0.00000000000E+00 0.  1.
         -1   -1    0    0    0  501 -0.00000000000E+00 -0.00000000000E+00 -0.46137719864E+03  0.46137719864E+03  0.00000000000E+00 0.  1.
         23    2    1    2    0    0  0.24882944338E+02 -0.94495547051E+02 -0.91490671628E+02  0.16206109657E+03  0.91349256674E+02 0.  0.
         23    2    1    2    0    0  0.16275057919E+03  0.59313450675E+02 -0.16090040048E+03  0.25366488643E+03  0.91929860619E+02 0.  0.
        -11    1    4    4    0    0  0.11125372832E+03  0.44126449339E+02 -0.16019911728E+03  0.19997072979E+03  0.00000000000E+00 0.  1.
         11    1    4    4    0    0  0.51496850870E+02  0.15187001336E+02 -0.70128320696E+00  0.53694156640E+02  0.00000000000E+00 0. -1.
        -11    1    3    3    0    0 -0.30315912936E+02 -0.63193792723E+02 -0.52649459048E+02  0.87661140501E+02  0.00000000000E+00 0.  1.
         11    1    3    3    0    0  0.55198857274E+02 -0.31301754327E+02 -0.38841212579E+02  0.74399956068E+02  0.00000000000E+00 0. -1.
         21    1    1    2  503  501 -0.20459920820E+03 -0.52345956069E+02  0.18087551455E+03  0.27805914277E+03  0.00000000000E+00 0.  1.
         -1    1    1    2    0  502  0.16965684666E+02  0.87528052445E+02 -0.53484535846E+02  0.10396917810E+03  0.00000000000E+00 0.  1.
<scales pt_clust_5="13000.00000" pt_clust_6="13000.00000" pt_clust_7="13000.00000" pt_clust_8="13000.00000" pt_clust_9="184.48227" pt_clust_10="89.15718"></scales>
<clustering>
<clus scale="   89.157">  1 10  2 -1</clus>
<clus scale="   91.349">  7  8 -1 -1</clus>
<clus scale="   91.930">  5  6 -1 -1</clus>
<clus scale="  127.339">  2  7  1 -1</clus>
<clus scale="  184.482">  1  9  2 -1</clus>
<clus scale="   89.157">  1  5  2 -1</clus>
</clustering>
</event>
<event>
10    2  0.1671105E-006  0.2824527E+03  0.7546771E-02  0.1094557E+00
          2   -1    0    0  503    0 -0.00000000000E+00  0.00000000000E+00  0.16094071699E+04  0.16094071699E+04  0.00000000000E+00 0. -1.
         21   -1    0    0  501  502  0.00000000000E+00 -0.00000000000E+00 -0.12572366005E+03  0.12572366005E+03  0.00000000000E+00 0.  1.
         23    2    1    2    0    0 -0.52692734527E+02  0.32434924305E+03  0.11589049161E+04  0.12082746752E+04  0.94276880758E+02 0.  0.
         23    2    1    2    0    0  0.98652213196E+02 -0.15261188453E+03  0.23264832874E+03  0.30854977366E+03  0.89750050100E+02 0.  0.
        -13    1    4    4    0    0  0.78122019359E+02 -0.16177258415E+03  0.21343734383E+03  0.27897834797E+03  0.00000000000E+00 0.  1.
         13    1    4    4    0    0  0.20530193838E+02  0.91606996212E+01  0.19210984909E+02  0.29571425697E+02  0.00000000000E+00 0. -1.
        -13    1    3    3    0    0 -0.57602858522E+02  0.10727693202E+03  0.49547700585E+03  0.51021945551E+03  0.00000000000E+00 0. -1.
         13    1    3    3    0    0  0.49101239949E+01  0.21707231103E+03  0.66342791030E+03  0.69805521966E+03  0.00000000000E+00 0.  1.
         21    1    1    2  503  502 -0.25422541416E+02 -0.10298065082E+02  0.37867587117E+02  0.46757993013E+02  0.00000000000E+00 0. -1.
          2    1    1    2  501    0 -0.20536937254E+02 -0.16143929343E+03  0.54262677856E+02  0.17154838811E+03  0.00000000000E+00 0. -1.
<scales pt_clust_5="13000.00000" pt_clust_6="13000.00000" pt_clust_7="13000.00000" pt_clust_8="13000.00000" pt_clust_9="27.42910" pt_clust_10="169.62609"></scales>
<clustering>
<clus scale="   27.429">  2  9  1 -1</clus>
<clus scale="   89.750">  5  6 -1 -1</clus>
<clus scale="   94.277">  7  8 -1 -1</clus>
<clus scale="  169.626">  2 10  1 -1</clus>
<clus scale="  280.974">  2  5  1 -1</clus>
<clus scale="   27.429">  2  5  1 -1</clus>
</clustering>
</event>
<event>
10    2  0.1671105E-006  0.1536275E+03  0.7546771E-02  0.1214770E+00
          2   -1    0    0  502    0 -0.00000000000E+00  0.00000000000E+00  0.59187975886E+03  0.59187975886E+03  0.00000000000E+00 0. -1.
         21   -1    0    0  503  502  0.00000000000E+00 -0.00000000000E+00 -0.74942867018E+02  0.74942867018E+02  0.00000000000E+00 0. -1.
         23    2    1    2    0    0 -0.39855031239E+00 -0.47130056514E+02  0.90726370190E+02  0.13708204503E+03  0.91317094521E+02 0.  0.
         23    2    1    2    0    0 -0.37416617174E+02 -0.84698600443E+02  0.32941075972E+03  0.35390641357E+03  0.90357317300E+02 0.  0.
        -11    1    4    4    0    0  0.29507534927E+02 -0.18723708383E+02  0.10299523073E+03  0.10876253686E+03  0.00000000000E+00 0.  1.
         11    1    4    4    0    0 -0.66924152101E+02 -0.65974892059E+02  0.22641552900E+03  0.24514387671E+03  0.00000000000E+00 0. -1.
        -13    1    3    3    0    0 -0.14284967428E+02  0.23223170026E+02  0.43089291140E+02  0.50990812226E+02  0.00000000000E+00 0.  1.
         13    1    3    3    0    0  0.13886417116E+02 -0.70353226541E+02  0.47637079050E+02  0.86091232802E+02  0.00000000000E+00 0. -1.
         21    1    1    2  503  501 -0.11898222130E+02  0.31545769586E+02  0.13531868466E+02  0.36329254504E+02  0.00000000000E+00 0. -1.
          2    1    1    2  501    0  0.49713389616E+02  0.10028288737E+03  0.83267893467E+02  0.13950491278E+03  0.00000000000E+00 0. -1.
<scales pt_clust_5="13000.00000" pt_clust_6="13000.00000" pt_clust_7="13000.00000" pt_clust_8="13000.00000" pt_clust_9="28.72177" pt_clust_10="134.81707"></scales>
<clustering>
<clus scale="   28.722">  9 10 -1 -1</clus>
<clus scale="   90.357">  5  6 -1 -1</clus>
<clus scale="   91.317">  7  8 -1 -1</clus>
<clus scale="  102.763">  1  7  2 -1</clus>
<clus scale="  134.817">  2  9  1 -1</clus>
<clus scale="  134.817">  2  5  1 -1</clus>
</clustering>
</event>
<event>
10    2  0.1671105E-006  0.1112530E+03  0.7546771E-02  0.1258927E+00
         -2   -1    0    0    0  501 -0.00000000000E+00  0.00000000000E+00  0.15023412028E+03  0.15023412028E+03  0.00000000000E+00 0.  1.
         21   -1    0    0  501  502  0.00000000000E+00 -0.00000000000E+00 -0.45335211592E+03  0.45335211592E+03  0.00000000000E+00 0.  1.
         23    2    1    2    0    0 -0.23320222097E+02  0.51352145404E+02  0.51346551388E+02  0.11912825243E+03  0.91510636498E+02 0.  0.
         23    2    1    2    0    0  0.55976488917E+02 -0.57390694376E+02 -0.17188302020E+02  0.12156836146E+03  0.89757281991E+02 0.  0.
        -11    1    3    3    0    0 -0.37023875143E+02  0.72888711673E+02  0.35866444799E+02  0.89274483938E+02  0.00000000000E+00 0.  1.
         11    1    3    3    0    0  0.13703653046E+02 -0.21536566268E+02  0.15480106588E+02  0.29853768496E+02  0.00000000000E+00 0. -1.
        -13    1    4    4    0    0 -0.12909451745E+02 -0.49102991721E+02 -0.10665107222E+02  0.51879690172E+02  0.00000000000E+00 0. -1.
         13    1    4    4    0    0  0.68885940662E+02 -0.82877026557E+01 -0.65231947980E+01  0.69688671293E+02  0.00000000000E+00 0.  1.
         21    1    1    2  503  502  0.20807866788E+02  0.52360471621E+02 -0.94546849443E+02  0.11006222353E+03  0.00000000000E+00 0.  1.
         -2    1    1    2    0  503 -0.53464133609E+02 -0.46321922649E+02 -0.24272939556E+03  0.25282739877E+03  0.00000000000E+00 0.  1.
<scales pt_clust_5="13000.00000" pt_clust_6="13000.00000" pt_clust_7="13000.00000" pt_clust_8="13000.00000" pt_clust_9="56.34347" pt_clust_10="39.89213"></scales>
<clustering>
<clus scale="   56.343">  2  9  1 -1</clus>
<clus scale="   39.892">  2 10  1 -1</clus>
<clus scale="   89.757">  7  8 -1 -1</clus>
<clus scale="   91.511">  5  6 -1 -1</clus>
<clus scale="  109.815">  2  7  1 -1</clus>
<clus scale="   56.343">  2  5  1 -1</clus>
</clustering>
</event>
<event>
10    2  0.1671105E-006  0.2739257E+03  0.7546771E-02  0.1130179E+00
         21   -1    0    0  503  502  0.00000000000E+00  0.00000000000E+00  0.68654703376E+03  0.68654703376E+03  0.00000000000E+00 0. -1.
          1   -1    0    0  502    0 -0.00000000000E+00 -0.00000000000E+00 -0.36654036560E+03  0.36654036560E+03  0.00000000000E+00 0. -1.
         23    2    1    2    0    0  0.47514166656E+01  0.85615771078E+02  0.69029293929E+02  0.14260483782E+03  0.90655723097E+02 0.  0.
         23    2    1    2    0    0 -0.22978466206E+03 -0.20373303362E+03 -0.21041680336E+03  0.38303164035E+03  0.90165772134E+02 0.  0.
        -11    1    3    3    0    0  0.38957595868E+02  0.35504741029E+02  0.62229332953E+02  0.81552258038E+02  0.00000000000E+00 0.  1.
         11    1    3    3    0    0 -0.34206179202E+02  0.50111030049E+02  0.67999609766E+01  0.61052579777E+02  0.00000000000E+00 0. -1.
        -13    1    4    4    0    0 -0.15555629145E+02 -0.21442611035E+02 -0.56459993119E+02  0.62365807852E+02  0.00000000000E+00 0.  1.
         13    1    4    4    0    0 -0.21422903292E+03 -0.18229042258E+03 -0.15395681025E+03  0.32066583250E+03  0.00000000000E+00 0. -1.
         21    1    1    2  503  501  0.11457246739E+03  0.44934931498E+02  0.22378813738E+03  0.25539602343E+03  0.00000000000E+00 0. -1.
          1    1    1    2  501    0  0.11046077800E+03  0.73182331042E+02  0.23760604021E+03  0.27205489777E+03  0.00000000000E+00 0. -1.
<scales pt_clust_5="13000.00000" pt_clust_6="13000.00000" pt_clust_7="13000.00000" pt_clust_8="13000.00000" pt_clust_9="26.00741" pt_clust_10="260.06468"></scales>
<clustering>
<clus scale="   26.007">  9 10 -1 -1</clus>
<clus scale="   90.166">  7  8 -1 -1</clus>
<clus scale="   90.656">  5  6 -1 -1</clus>
<clus scale="  124.784">  2  5  1 -1</clus>
<clus scale="  260.065">  1  9  2 -1</clus>
<clus scale="  260.065">  1  5  2 -1</clus>
</clustering>
</event>
<event>
10    2  0.1671105E-006  0.2474629E+03  0.7546771E-02  0.1115012E+00
          1   -1    0    0  503    0 -0.00000000000E+00  0.00000000000E+00  0.97033404221E+03  0.97033404221E+03  0.00000000000E+00 0. -1.
         21   -1    0    0  501  502  0.00000000000E+00 -0.00000000000E+00 -0.11459409627E+03  0.11459409627E+03  0.00000000000E+00 0. -1.
         23    2    1    2    0    0 -0.13968160318E+03  0.16977771178E+03  0.43698419270E+03  0.49741697787E+03  0.90183388266E+02 0.  0.
         23    2    1    2    0    0  0.21621686257E+03 -0.13950182935E+03  0.36036417046E+03  0.45221058962E+03  0.91769221226E+02 0.  0.
        -11    1    3    3    0    0 -0.65817623834E+02  0.43544691936E+02  0.23603530321E+03  0.24887901511E+03  0.00000000000E+00 0.  1.
         11    1    3    3    0    0 -0.73863979341E+02  0.12623301984E+03  0.20094888949E+03  0.24853796275E+03  0.00000000000E+00 0. -1.
        -13    1    4    4    0    0  0.20020577801E+02 -0.17918512875E+02  0.10326460999E+03  0.10670274746E+03  0.00000000000E+00 0.  1.
         13    1    4    4    0    0  0.19619628477E+03 -0.12158331648E+03  0.25709956047E+03  0.34550784216E+03  0.00000000000E+00 0. -1.
         21    1    1    2  503  502 -0.59383478149E+01 -0.23964256019E+02  0.59494117985E+02  0.64413504920E+02  0.00000000000E+00 0.  1.
          1    1    1    2  501    0 -0.70596911580E+02 -0.63116264046E+01 -0.11025352014E+01  0.70887066072E+02  0.00000000000E+00 0. -1.
<scales pt_clust_5="13000.00000" pt_clust_6="13000.00000" pt_clust_7="13000.00000" pt_clust_8="13000.00000" pt_clust_9="24.68906" pt_clust_10="71.19330"></scales>
<clustering>
<clus scale="   24.689">  1  9  2 -1</clus>
<clus scale="   71.193">  2 10  1 -1</clus>
<clus scale="   90.183">  5  6 -1 -1</clus>
<clus scale="   91.769">  7  8 -1 -1</clus>
<clus scale="  246.879">  1  5  2 -1</clus>
<clus scale="   71.193">  2  5  1 -1</clus>
</clustering>
</event>
<event>
10    2  0.1671105E-006  0.2122365E+03  0.7546771E-02  0.1154341E+00
         21   -1    0    0  501  502  0.00000000000E+00  0.00000000000E+00  0.21566914161E+03  0.21566914161E+03  0.00000000000E+00 0.  1.
         -1   -1    0    0    0  501 -0.00000000000E+00 -0.00000000000E+00 -0.43676660652E+03  0.43676660652E+03  0.00000000000E+00 0.  1.
         23    2    1    2    0    0  0.64763523544E+02 -0.10720612921E+03  0.10666245966E+02  0.15051064627E+03  0.82778123407E+02 0.  0.
         23    2    1    2    0    0 -0.22447530730E+03  0.13318232703E+03 -0.16311748833E+03  0.32067551383E+03  0.89993190582E+02 0.  0.
        -11    1    4    4    0    0 -0.81328871217E+02  0.22314382911E+01 -0.58950512170E+02  0.10047152579E+03  0.00000000000E+00 0. -1.
         11    1    4    4    0    0 -0.14314643608E+03  0.13095088874E+03 -0.10416697616E+03  0.22020398804E+03  0.00000000000E+00 0.  1.
        -13    1    3    3    0    0  0.41920093823E+02 -0.60471966846E+02  0.46773492606E+02  0.87188947987E+02  0.00000000000E+00 0. -1.
         13    1    3    3    0    0  0.22843429720E+02 -0.46734162361E+02 -0.36107246640E+02  0.63321698279E+02  0.00000000000E+00 0.  1.
         21    1    1    2  503  502  0.45478351698E+02 -0.20699155816E+02 -0.38240339124E+02  0.62921054195E+02  0.00000000000E+00 0.  1.
         -1    1    1    2    0  503  0.11423343206E+03 -0.52770420104E+01 -0.30405883419E+02  0.11832853383E+03  0.00000000000E+00 0.  1.
<scales pt_clust_5="13000.00000" pt_clust_6="13000.00000" pt_clust_7="13000.00000" pt_clust_8="13000.00000" pt_clust_9="29.23844" pt_clust_10="197.23605"></scales>
<clustering>
<clus scale="   29.238">  9 10 -1 -1</clus>
<clus scale="   82.778">  7  8 -1 -1</clus>
<clus scale="   89.993">  5  6 -1 -1</clus>
<clus scale="  150.132">  2  7  1 -1</clus>
<clus scale="  197.236">  1  9  2 -1</clus>
<clus scale="  197.236">  1  5  2 -1</clus>
</clustering>
</event>
<event>
10    2  0.1671105E-006  0.1256376E+03  0.7546771E-02  0.1234649E+00
          2   -1    0    0  503    0 -0.00000000000E+00  0.00000000000E+00  0.64586138989E+03  0.64586138989E+03  0.00000000000E+00 0. -1.
         21   -1    0    0  501  502  0.00000000000E+00 -0.00000000000E+00 -0.66920480725E+02  0.66920480725E+02  0.00000000000E+00 0. -1.
         23    2    1    2    0    0 -0.90268628237E+02 -0.72053872783E+02  0.36287591858E+03  0.39116103536E+03  0.89374702646E+02 0.  0.
         23    2    1    2    0    0  0.65676646055E+02 -0.15090868831E+01  0.19888052251E+03  0.22852443167E+03  0.91401610806E+02 0.  0.
        -13    1    4    4    0    0  0.91323159646E+01  0.40404006290E+02  0.61273804728E+02  0.73961896034E+02  0.00000000000E+00 0.  1.
         13    1    4    4    0    0  0.56544330090E+02 -0.41913093173E+02  0.13760671778E+03  0.15456253564E+03  0.00000000000E+00 0. -1.
        -13    1    3    3    0    0 -0.13260394111E+02 -0.67138876753E+02  0.15547577715E+03  0.16987108084E+03  0.00000000000E+00 0.  1.
         13    1    3    3    0    0 -0.77008234126E+02 -0.49149960297E+01  0.20740014143E+03  0.22128995452E+03  0.00000000000E+00 0. -1.
         21    1    1    2  503  502  0.18817278073E+01  0.67114423784E+02  0.17870677467E+02  0.69478398748E+02  0.00000000000E+00 0. -1.
          2    1    1    2  501    0  0.22710254375E+02  0.64485358816E+01 -0.68620939568E+00  0.23618004829E+02  0.00000000000E+00 0. -1.
<scales pt_clust_5="13000.00000" pt_clust_6="13000.00000" pt_clust_7="13000.00000" pt_clust_8="13000.00000" pt_clust_9="71.27191" pt_clust_10="23.60803"></scales>
<clustering>
<clus scale="   23.608">  2 10  1 -1</clus>
<clus scale="   71.272">  2  9  1 -1</clus>
<clus scale="   89.375">  7  8 -1 -1</clus>
<clus scale="   91.402">  5  6 -1 -1</clus>
<clus scale="  124.171">  1  7  2 -1</clus>
<clus scale="   23.608">  2  5  1 -1</clus>
</clustering>
</event>
<event>
10    2  0.1671105E-006  0.1551882E+03  0.7546771E-02  0.1218513E+00
         21   -1    0    0  501  502  0.00000000000E+00  0.00000000000E+00  0.16307209203E+03  0.16307209203E+03  0.00000000000E+00 0.  1.
         -1   -1    0    0    0  501 -0.00000000000E+00 -0.00000000000E+00 -0.25665272771E+03  0.25665272771E+03  0.00000000000E+00 0.  1.
         23    2    1    2    0    0 -0.10638553619E+02 -0.96014250545E+01  0.15256710117E+02  0.93372606534E+02  0.90996210148E+02 0.  0.
         23    2    1    2    0    0 -0.70024198769E+02 -0.91239036315E+02 -0.12148015747E+03  0.19081042221E+03  0.91778202230E+02 0.  0.
        -11    1    4    4    0    0 -0.56726012386E+02 -0.18348865326E+01 -0.46884889881E+02  0.73616575504E+02  0.00000000000E+00 0. -1.
         11    1    4    4    0    0 -0.13298186383E+02 -0.89404149782E+02 -0.74595267590E+02  0.11719384671E+03  0.00000000000E+00 0.  1.
        -13    1    3    3    0    0  0.32037720632E+02  0.13657708666E+02 -0.12974166217E+02  0.37165542352E+02  0.00000000000E+00 0. -1.
         13    1    3    3    0    0 -0.42676274251E+02 -0.23259133720E+02  0.28230876334E+02  0.56207064182E+02  0.00000000000E+00 0.  1.
         21    1    1    2  503  502  0.25981639612E+02  0.58417148707E+02 -0.49712479891E+01  0.64127390143E+02  0.00000000000E+00 0.  1.
         -1    1    1    2    0  503  0.54681112776E+02  0.42423312662E+02  0.17614059665E+02  0.71414400856E+02  0.00000000000E+00 0.  1.
<scales pt_clust_5="13000.00000" pt_clust_6="13000.00000" pt_clust_7="13000.00000" pt_clust_8="13000.00000" pt_clust_9="37.67465" pt_clust_10="131.13574"></scales>
<clustering>
<clus scale="   37.675">  9 10 -1 -1</clus>
<clus scale="   90.996">  7  8 -1 -1</clus>
<clus scale="   91.778">  5  6 -1 -1</clus>
<clus scale="   92.118">  2  7  1 -1</clus>
<clus scale="  131.136">  1  9  2 -1</clus>
<clus scale="  131.136">  1  5  2 -1</clus>
</clustering>
</event>
<event>
10    2  0.1671105E-006  0.2112253E+03  0.7546771E-02  0.1140763E+00
          1   -1    0    0  503    0 -0.00000000000E+00  0.00000000000E+00  0.98072128428E+03  0.98072128428E+03  0.00000000000E+00 0. -1.
         21   -1    0    0  501  502  0.00000000000E+00 -0.00000000000E+00 -0.25376077586E+03  0.25376077586E+03  0.00000000000E+00 0. -1.
         23    2    1    2    0    0  0.15029680646E+03 -0.84321475282E+02  0.44908758308E+03  0.48976921811E+03  0.92168261943E+02 0.  0.
         23    2    1    2    0    0 -0.21624601863E+03  0.46313466625E+02  0.41730626667E+03  0.48155712847E+03  0.94050358883E+02 0.  0.
        -11    1    3    3    0    0  0.13515589387E+03 -0.68638251046E+02  0.44131897314E+03  0.46662700437E+03  0.00000000000E+00 0. -1.
         11    1    3    3    0    0  0.15140912588E+02 -0.15683224236E+02  0.77686099371E+01  0.23142213740E+02  0.00000000000E+00 0.  1.
        -13    1    4    4    0    0 -0.16723949653E+03  0.73825928426E+02  0.33929885366E+03  0.38541280337E+03  0.00000000000E+00 0. -1.
         13    1    4    4    0    0 -0.49006522102E+02 -0.27512461800E+02  0.78007413018E+02  0.96144325099E+02  0.00000000000E+00 0.  1.
         21    1    1    2  503  502  0.24595638648E+02  0.89768700949E+02  0.15769669066E+02  0.94403641736E+02  0.00000000000E+00 0. -1.
          1    1    1    2  501    0  0.41353573530E+02 -0.51760692292E+02 -0.15520301039E+03  0.16875207182E+03  0.00000000000E+00 0. -1.
<scales pt_clust_5="13000.00000" pt_clust_6="13000.00000" pt_clust_7="13000.00000" pt_clust_8="13000.00000" pt_clust_9="79.74573" pt_clust_10="66.25170"></scales>
<clustering>
<clus scale="   66.252">  2 10  1 -1</clus>
<clus scale="   79.746">  2  9  1 -1</clus>
<clus scale="   92.168">  5  6 -1 -1</clus>
<clus scale="   94.050">  7  8 -1 -1</clus>
<clus scale="  210.394">  1  5  2 -1</clus>
<clus scale="   66.252">  2  5  1 -1</clus>
</clustering>
</event>
<event>
10    2  0.1671105E-006  0.2309602E+03  0.7546771E-02  0.1126104E+00
         -2   -1    0    0    0  501 -0.00000000000E+00  0.00000000000E+00  0.62193796945E+03  0.62193796945E+03  0.00000000000E+00 0.  1.
         21   -1    0    0  501  502  0.00000000000E+00 -0.00000000000E+00 -0.30419009722E+03  0.30419009722E+03  0.00000000000E+00 0. -1.
         23    2    1    2    0    0  0.19664265653E+03 -0.27363587747E+02  0.43187046496E+03  0.48414111677E+03  0.91996859373E+02 0.  0.
         23    2    1    2    0    0 -0.29100555494E+03  0.12009283140E+02 -0.25179543396E+02  0.30706414913E+03  0.93946401670E+02 0.  0.
        -11    1    4    4    0    0 -0.15225247611E+03  0.17922209979E+02 -0.58766642487E+02  0.16418142514E+03  0.00000000000E+00 0. -1.
         11    1    4    4    0    0 -0.13875307883E+03 -0.59129268390E+01  0.33587099091E+02  0.14288272399E+03  0.00000000000E+00 0.  1.
        -11    1    3    3    0    0  0.14145633684E+03 -0.41117896907E+02  0.37846207460E+03  0.40612081772E+03  0.00000000000E+00 0.  1.
         11    1    3    3    0    0  0.55186319691E+02  0.13754309160E+02  0.53408390365E+02  0.78020299044E+02  0.00000000000E+00 0. -1.
         21    1    1    2  503  502  0.49167167114E+02  0.24688981102E+02 -0.43283670660E+02  0.70003087473E+02  0.00000000000E+00 0.  1.
         -2    1    1    2    0  503  0.45195731298E+02 -0.93346764952E+01 -0.45659378682E+02  0.64919713296E+02  0.00000000000E+00 0.  1.
<scales pt_clust_5="13000.00000" pt_clust_6="13000.00000" pt_clust_7="13000.00000" pt_clust_8="13000.00000" pt_clust_9="31.10156" pt_clust_10="101.45588"></scales>
<clustering>
<clus scale="   31.102">  9 10 -1 -1</clus>
<clus scale="   91.997">  7  8 -1 -1</clus>
<clus scale="   93.946">  5  6 -1 -1</clus>
<clus scale="  101.456">  2  9  1 -1</clus>
<clus scale="  230.174">  1  7  2 -1</clus>
<clus scale="  101.456">  2  5  1 -1</clus>
</clustering>
</event>
<event>
10    2  0.1671105E-006  0.3566050E+03  0.7546771E-02  0.1101633E+00
          2   -1    0    0  502    0 -0.00000000000E+00  0.00000000000E+00  0.66444622288E+03  0.66444622288E+03  0.00000000000E+00 0. -1.
         21   -1    0    0  503  502  0.00000000000E+00 -0.00000000000E+00 -0.26549876428E+03  0.26549876428E+03  0.00000000000E+00 0. -1.
         23    2    1    2    0    0 -0.59660541703E+02 -0.39038490001E+02  0.43950427939E+02  0.12416235114E+03  0.91658416892E+02 0.  0.
         23    2    1    2    0    0 -0.72260150111E+02  0.34777975588E+03  0.27101028289E+03  0.45853315738E+03  0.10312029424E+03 0.  0.
        -11    1    4    4    0    0 -0.88497200865E+02  0.33523940575E+03  0.26703519788E+03  0.43763570539E+03  0.00000000000E+00 0. -1.
         11    1    4    4    0    0  0.16237050754E+02  0.12540350135E+02  0.39750850182E+01  0.20897451989E+02  0.00000000000E+00 0.  1.
        -11    1    3    3    0    0  0.10054772662E+02 -0.44889779790E+02  0.14250823317E+02  0.48158869880E+02  0.00000000000E+00 0.  1.
         11    1    3    3    0    0 -0.69715314365E+02  0.58512897894E+01  0.29699604622E+02  0.76003481262E+02  0.00000000000E+00 0. -1.
         21    1    1    2  503  501  0.77570602601E+02 -0.18474273962E+03  0.35783573642E+02  0.20353756993E+03  0.00000000000E+00 0. -1.
          2    1    1    2  501    0  0.54350089213E+02 -0.12399852626E+03  0.48203174126E+02  0.14371190872E+03  0.00000000000E+00 0. -1.
<scales pt_clust_5="13000.00000" pt_clust_6="13000.00000" pt_clust_7="13000.00000" pt_clust_8="13000.00000" pt_clust_9="23.31060" pt_clust_10="342.54567"></scales>
<clustering>
<clus scale="   23.311">  9 10 -1 -1</clus>
<clus scale="   91.658">  7  8 -1 -1</clus>
<clus scale="  103.120">  5  6 -1 -1</clus>
<clus scale="  116.123">  1  7  2 -1</clus>
<clus scale="  342.546">  2  9  1 -1</clus>
<clus scale="  342.546">  2  5  1 -1</clus>
</clustering>
</event>
<event>
10    2  0.1671105E-006  0.1738106E+03  0.7546771E-02  0.1189762E+00
          2   -1    0    0  502    0 -0.00000000000E+00  0.00000000000E+00  0.27923134241E+03  0.27923134241E+03  0.00000000000E+00 0. -1.
         21   -1    0    0  503  502  0.00000000000E+00 -0.00000000000E+00 -0.29641874359E+03  0.29641874359E+03  0.00000000000E+00 0. -1.
         23    2    1    2    0    0 -0.80529624206E+02 -0.43969034578E+01  0.15206979239E+02  0.12284831621E+03  0.91411724865E+02 0.  0.
         23    2    1    2    0    0 -0.48845667156E+02  0.91974329742E+02  0.15132397585E+03  0.20594531062E+03  0.93109337713E+02 0.  0.
        -11    1    4    4    0    0 -0.21806264413E+02 -0.11604050657E+02  0.59476006027E+01  0.25407501102E+02  0.00000000000E+00 0.  1.
         11    1    4    4    0    0 -0.27039402743E+02  0.10357838040E+03  0.14537637524E+03  0.18053780952E+03  0.00000000000E+00 0. -1.
        -13    1    3    3    0    0 -0.88463379791E+02  0.18678297331E+02  0.28833822547E+02  0.94900145827E+02  0.00000000000E+00 0. -1.
         13    1    3    3    0    0  0.79337555852E+01 -0.23075200789E+02 -0.13626843308E+02  0.27948170381E+02  0.00000000000E+00 0.  1.
         21    1    1    2  503  501  0.22793290252E+02 -0.39229029645E+02 -0.71720832014E+02  0.84866533994E+02  0.00000000000E+00 0. -1.
          2    1    1    2  501    0  0.10658200111E+03 -0.48348396640E+02 -0.11199752426E+03  0.16198992517E+03  0.00000000000E+00 0. -1.
<scales pt_clust_5="13000.00000" pt_clust_6="13000.00000" pt_clust_7="13000.00000" pt_clust_8="13000.00000" pt_clust_9="32.81597" pt_clust_10="155.94443"></scales>
<clustering>
<clus scale="   32.816">  9 10 -1 -1</clus>
<clus scale="   91.412">  7  8 -1 -1</clus>
<clus scale="   93.109">  5  6 -1 -1</clus>
<clus scale="  121.903">  1  7  2 -1</clus>
<clus scale="  155.944">  2  9  1 -1</clus>
<clus scale="  155.944">  2  5  1 -1</clus>
</clustering>
</event>
<event>
10    2  0.1671105E-006  0.2130982E+03  0.7546771E-02  0.1139310E+00
          2   -1    0    0  502    0 -0.00000000000E+00  0.00000000000E+00  0.12922006305E+04  0.12922006305E+04  0.00000000000E+00 0. -1.
         21   -1    0    0  503  502  0.00000000000E+00 -0.00000000000E+00 -0.75577303811E+02  0.75577303811E+02  0.00000000000E+00 0.  1.
         23    2    1    2    0    0  0.97961860338E+02 -0.14706642805E+03  0.79423830473E+03  0.81876277331E+03  0.91284905171E+02 0.  0.
         23    2    1    2    0    0 -0.14853357594E+03  0.19335659142E+03  0.38873318687E+03  0.46745548990E+03  0.89174827352E+02 0.  0.
        -13    1    4    4    0    0 -0.13322451684E+03  0.15990502489E+03  0.37362754437E+03  0.42768672037E+03  0.00000000000E+00 0.  1.
         13    1    4    4    0    0 -0.15309059108E+02  0.33451566534E+02  0.15105642501E+02  0.39768769528E+02  0.00000000000E+00 0. -1.
        -13    1    3    3    0    0  0.26728245789E+02 -0.25936066007E+02  0.55897519365E+02  0.67168529194E+02  0.00000000000E+00 0.  1.
         13    1    3    3    0    0  0.71233614549E+02 -0.12113036204E+03  0.73834078537E+03  0.75159424411E+03  0.00000000000E+00 0. -1.
         21    1    1    2  503  501  0.32437440928E+02 -0.10523027584E+02  0.17472232641E+02  0.38317105801E+02  0.00000000000E+00 0. -1.
          2    1    1    2  501    0  0.18134274678E+02 -0.35767135789E+02  0.16179602485E+02  0.43242565341E+02  0.00000000000E+00 0. -1.
<scales pt_clust_5="13000.00000" pt_clust_6="13000.00000" pt_clust_7="13000.00000" pt_clust_8="13000.00000" pt_clust_9="26.39469" pt_clust_10="74.29357"></scales>
<clustering>
<clus scale="   26.395">  9 10 -1 -1</clus>
<clus scale="   74.294">  2  9  1 -1</clus>
<clus scale="   89.175">  5  6 -1 -1</clus>
<clus scale="   91.285">  7  8 -1 -1</clus>
<clus scale="  212.203">  2  5  1 -1</clus>
<clus scale="   74.294">  2  5  1 -1</clus>
</clustering>
</event>
<event>
10    2  0.1671105E-006  0.2918899E+03  0.7546771E-02  0.1116204E+00
         21   -1    0    0  503  502  0.00000000000E+00  0.00000000000E+00  0.18058498248E+04  0.18058498248E+04  0.00000000000E+00 0. -1.
          2   -1    0    0  502    0 -0.00000000000E+00 -0.00000000000E+00 -0.11475663532E+03  0.11475663532E+03  0.00000000000E+00 0. -1.
         23    2    1    2    0    0 -0.80675917719E+02  0.93134168125E+02  0.10854167839E+03  0.18762178014E+03  0.90763756319E+02 0.  0.
         23    2    1    2    0    0 -0.89285765439E+02 -0.29576975849E+03  0.82816898427E+03  0.88846059245E+03  0.89703176517E+02 0.  0.
        -13    1    4    4    0    0  0.71811945451E+01 -0.11047629717E+03  0.33679718028E+03  0.35452633533E+03  0.00000000000E+00 0.  1.
         13    1    4    4    0    0 -0.96466959984E+02 -0.18529346132E+03  0.49137180399E+03  0.53393425712E+03  0.00000000000E+00 0. -1.
        -13    1    3    3    0    0 -0.54676269227E+02 -0.58447760347E+00  0.28493883251E+02  0.61658230703E+02  0.00000000000E+00 0. -1.
         13    1    3    3    0    0 -0.25999648492E+02  0.93718645729E+02  0.80047795141E+02  0.12596354943E+03  0.00000000000E+00 0.  1.
         21    1    1    2  503  501  0.98168984080E+02 -0.25929382787E+02  0.42663229459E+03  0.43854828367E+03  0.00000000000E+00 0. -1.
          2    1    1    2  501    0  0.71792699079E+02  0.22856497316E+03  0.32775023220E+03  0.40597580384E+03  0.00000000000E+00 0. -1.
<scales pt_clust_5="13000.00000" pt_clust_6="13000.00000" pt_clust_7="13000.00000" pt_clust_8="13000.00000" pt_clust_9="101.53562" pt_clust_10="277.76455"></scales>
<clustering>
<clus scale="   89.703">  5  6 -1 -1</clus>
<clus scale="   90.764">  7  8 -1 -1</clus>
<clus scale="  101.536">  1  9  2 -1</clus>
<clus scale="  145.985">  2  7  1 -1</clus>
<clus scale="  277.765">  1 10  2 -1</clus>
<clus scale="  101.536">  1  5  2 -1</clus>
</clustering>
</event>
<event>
10    2  0.1671105E-006  0.5059599E+03  0.7546771E-02  0.1048774E+00
          1   -1    0    0  502    0 -0.00000000000E+00  0.00000000000E+00  0.73946876622E+03  0.73946876622E+03  0.00000000000E+00 0. -1.
         21   -1    0    0  503  502  0.00000000000E+00 -0.00000000000E+00 -0.76696723388E+03  0.76696723388E+03  0.00000000000E+00 0. -1.
         23    2    1    2    0    0  0.14490915092E+03  0.30825779303E+01  0.31384881397E+03  0.35716035814E+03  0.89745635484E+02 0.  0.
         23    2    1    2    0    0 -0.57249101847E+03  0.40673870040E+02 -0.38588538494E+03  0.69720555414E+03  0.88248084853E+02 0.  0.
        -11    1    4    4    0    0 -0.52864950087E+03  0.22459107383E+02 -0.37489314643E+03  0.64847480869E+03  0.00000000000E+00 0. -1.
         11    1    4    4    0    0 -0.43841517603E+02  0.18214762657E+02 -0.10992238517E+02  0.48730745449E+02  0.00000000000E+00 0.  1.
        -11    1    3    3    0    0  0.50645760910E+02 -0.40995935324E+02  0.10029414043E+03  0.11960173249E+03  0.00000000000E+00 0.  1.
         11    1    3    3    0    0  0.94263390014E+02  0.44078513255E+02  0.21355467354E+03  0.23755862564E+03  0.00000000000E+00 0. -1.
         21    1    1    2  503  501  0.29125667803E+02  0.31647688779E+02 -0.59163392219E+01  0.43415248472E+02  0.00000000000E+00 0.  1.
          1    1    1    2  501    0  0.39845619974E+03 -0.75404136750E+02  0.50454442537E+02  0.40865483935E+03  0.00000000000E+00 0. -1.
<scales pt_clust_5="13000.00000" pt_clust_6="13000.00000" pt_clust_7="13000.00000" pt_clust_8="13000.00000" pt_clust_9="43.01024" pt_clust_10="498.20476"></scales>
<clustering>
<clus scale="   43.010">  2  9  1 -1</clus>
<clus scale="   88.248">  5  6 -1 -1</clus>
<clus scale="   89.746">  7  8 -1 -1</clus>
<clus scale="  171.219">  1  7  2 -1</clus>
<clus scale="  498.205">  2 10  1 -1</clus>
<clus scale="   43.010">  2  5  1 -1</clus>
</clustering>
</event>
<event>
10    2  0.1671105E-006  0.1280365E+03  0.7546771E-02  0.1230756E+00
         -1   -1    0    0    0  501 -0.00000000000E+00  0.00000000000E+00  0.53153722518E+03  0.53153722518E+03  0.00000000000E+00 0.  1.
         21   -1    0    0  503  502  0.00000000000E+00 -0.00000000000E+00 -0.61730146253E+02  0.61730146253E+02  0.00000000000E+00 0. -1.
         23    2    1    2    0    0  0.74844628981E+02  0.78876639756E+01  0.16483606713E+03  0.20268763487E+03  0.90815277202E+02 0.  0.
         23    2    1    2    0    0 -0.89173929406E+02 -0.69444205750E+02  0.21139831558E+03  0.25680940324E+03  0.92126729921E+02 0.  0.
        -11    1    4    4    0    0  0.13069546803E+01 -0.54009344675E+02  0.78838651479E+02  0.95573272466E+02  0.00000000000E+00 0.  1.
         11    1    4    4    0    0 -0.90480884087E+02 -0.15434861075E+02  0.13255966410E+03  0.16123613078E+03  0.00000000000E+00 0. -1.
        -13    1    3    3    0    0  0.42303218849E+02  0.31836239967E+02  0.27759430719E+02  0.59780385530E+02  0.00000000000E+00 0. -1.
         13    1    3    3    0    0  0.32541410132E+02 -0.23948575991E+02  0.13707663641E+03  0.14290724934E+03  0.00000000000E+00 0.  1.
         21    1    1    2  503  501  0.41310625784E+02  0.47463887362E+02  0.48797399410E+02  0.79627725042E+02  0.00000000000E+00 0. -1.
         -1    1    1    2    0  502 -0.26981325359E+02  0.14092654412E+02  0.44775296804E+02  0.54142608271E+02  0.00000000000E+00 0.  1.
<scales pt_clust_5="13000.00000" pt_clust_6="13000.00000" pt_clust_7="13000.00000" pt_clust_8="13000.00000" pt_clust_9="61.53178" pt_clust_10="30.44004"></scales>
<clustering>
<clus scale="   30.440">  2 10  1 -1</clus>
<clus scale="   61.532">  2  9  1 -1</clus>
<clus scale="   90.815">  7  8 -1 -1</clus>
<clus scale="   92.127">  5  6 -1 -1</clus>
<clus scale="  127.096">  1  7  2 -1</clus>
<clus scale="   30.440">  2  5  1 -1</clus>
</clustering>
</event>
<event>
10    2  0.1671105E-006  0.1022100E+03  0.7546771E-02  0.1276802E+00
         21   -1    0    0  503  502  0.00000000000E+00  0.00000000000E+00  0.83178256582E+02  0.83178256582E+02  0.00000000000E+00 0.  1.
         -1   -1    0    0    0  501 -0.00000000000E+00 -0.00000000000E+00 -0.66967010026E+03  0.66967010026E+03  0.00000000000E+00 0.  1.
         23    2    1    2    0    0  0.70617053571E+02  0.72567926862E+02 -0.44176852338E+03  0.46261441384E+03  0.92735081680E+02 0.  0.
         23    2    1    2    0    0  0.25298911140E+02 -0.44900551886E+00 -0.87107214480E+02  0.12807132753E+03  0.90412176221E+02 0.  0.
        -13    1    4    4    0    0  0.25597594882E+02  0.27632509845E+02 -0.92139104460E+02  0.99540981684E+02  0.00000000000E+00 0.  1.
         13    1    4    4    0    0 -0.29868374166E+00 -0.28081515363E+02  0.50318899795E+01  0.28530345842E+02  0.00000000000E+00 0. -1.
        -13    1    3    3    0    0  0.76961339794E+02  0.15490534211E+02 -0.22222783810E+03  0.23568669139E+03  0.00000000000E+00 0.  1.
         13    1    3    3    0    0 -0.63442862234E+01  0.57077392651E+02 -0.21954068528E+03  0.22692772244E+03  0.00000000000E+00 0. -1.
         21    1    1    2  503  501 -0.42051915756E+02 -0.16562313325E+02 -0.70472984481E+02  0.83720459764E+02  0.00000000000E+00 0. -1.
         -1    1    1    2    0  502 -0.53864048955E+02 -0.55556608018E+02  0.12856878665E+02  0.78442155716E+02  0.00000000000E+00 0.  1.
<scales pt_clust_5="13000.00000" pt_clust_6="13000.00000" pt_clust_7="13000.00000" pt_clust_8="13000.00000" pt_clust_9="45.19595" pt_clust_10="79.66596"></scales>
<clustering>
<clus scale="   45.196">  2  9  1 -1</clus>
<clus scale="   79.666">  1 10  2 -1</clus>
<clus scale="   90.412">  5  6 -1 -1</clus>
<clus scale="   92.735">  7  8 -1 -1</clus>
<clus scale="  100.107">  1  5  2 -1</clus>
<clus scale="   79.666">  1  5  2 -1</clus>
</clustering>
</event>
<event>
10    2  0.1671105E-006  0.1148070E+03  0.7546771E-02  0.1252771E+00
         21   -1    0    0  501  502  0.00000000000E+00  0.00000000000E+00  0.79700546530E+02  0.79700546530E+02  0.00000000000E+00 0. -1.
          3   -1    0    0  503    0 -0.00000000000E+00 -0.00000000000E+00 -0.53560665175E+03  0.53560665175E+03  0.00000000000E+00 0. -1.
         23    2    1    2    0    0  0.29044248413E+02  0.35196415110E+02 -0.17470002275E+03  0.20204108583E+03  0.90653992805E+02 0.  0.
         23    2    1    2    0    0 -0.11747519551E+03 -0.35024845906E+02 -0.17475206980E+03  0.23285901636E+03  0.93047698556E+02 0.  0.
        -11    1    4    4    0    0 -0.73387714168E+01  0.24862364192E+02 -0.15576573333E+02  0.30242757082E+02  0.00000000000E+00 0.  1.
         11    1    4    4    0    0 -0.11013642409E+03 -0.59887210098E+02 -0.15917549647E+03  0.20261625927E+03  0.00000000000E+00 0. -1.
        -11    1    3    3    0    0 -0.40741905926E+01  0.55846178177E+02 -0.66034057207E+02  0.86578815869E+02  0.00000000000E+00 0. -1.
         11    1    3    3    0    0  0.33118439005E+02 -0.20649763068E+02 -0.10866596554E+03  0.11546226996E+03  0.00000000000E+00 0.  1.
         21    1    1    2  503  502  0.33468118297E+02 -0.57283839242E+02 -0.46315610182E+02  0.80911611819E+02  0.00000000000E+00 0. -1.
          3    1    1    2  501    0  0.54962828800E+02  0.57112270038E+02 -0.60138402488E+02  0.99495484282E+02  0.00000000000E+00 0. -1.
<scales pt_clust_5="13000.00000" pt_clust_6="13000.00000" pt_clust_7="13000.00000" pt_clust_8="13000.00000" pt_clust_9="66.34420" pt_clust_10="76.27063"></scales>
<clustering>
<clus scale="   66.344">  1  9  2 -1</clus>
<clus scale="   76.271">  1 10  2 -1</clus>
<clus scale="   90.654">  7  8 -1 -1</clus>
<clus scale="   93.048">  5  6 -1 -1</clus>
<clus scale="  112.876">  2  7  1 -1</clus>
<clus scale="   66.344">  1  5  2 -1</clus>
</clustering>
</event>
<event>
10    2  0.1671105E-006  0.1016833E+03  0.7546771E-02  0.1277659E+00
         21   -1    0    0  501  502  0.00000000000E+00  0.00000000000E+00  0.40938674306E+03  0.40938674306E+03  0.00000000000E+00 0.  1.
         -2   -1    0    0    0  501 -0.00000000000E+00 -0.00000000000E+00 -0.80958081799E+02  0.80958081799E+02  0.00000000000E+00 0.  1.
         23    2    1    2    0    0  0.25563652329E+02  0.35528304359E+02 -0.17434296977E+02  0.10032869485E+03  0.88578392224E+02 0.  0.
         23    2    1    2    0    0  0.22820507147E+01 -0.75370792256E+02  0.24264030167E+03  0.26970759646E+03  0.90453897183E+02 0.  0.
        -11    1    3    3    0    0  0.22532732432E+02 -0.27277066439E+02 -0.12571870281E+01  0.35402583290E+02  0.00000000000E+00 0. -1.
         11    1    3    3    0    0  0.30309198972E+01  0.62805370798E+02 -0.16177109949E+02  0.64926111564E+02  0.00000000000E+00 0.  1.
        -13    1    4    4    0    0  0.24755586555E+02 -0.58631843746E+02  0.23057651715E+03  0.23919879270E+03  0.00000000000E+00 0.  1.
         13    1    4    4    0    0 -0.22473535841E+02 -0.16738948509E+02  0.12063784520E+02  0.30508803767E+02  0.00000000000E+00 0. -1.
         21    1    1    2  503  502  0.40588305123E+01  0.27144368962E+02  0.47178642023E+02  0.54581270915E+02  0.00000000000E+00 0.  1.
         -2    1    1    2    0  503 -0.31904533556E+02  0.12698118935E+02  0.56044014548E+02  0.65727262628E+02  0.00000000000E+00 0.  1.
<scales pt_clust_5="13000.00000" pt_clust_6="13000.00000" pt_clust_7="13000.00000" pt_clust_8="13000.00000" pt_clust_9="27.44614" pt_clust_10="35.69257"></scales>
<clustering>
<clus scale="   27.446">  1  9  2 -1</clus>
<clus scale="   35.693">  1 10  2 -1</clus>
<clus scale="   88.578">  5  6 -1 -1</clus>
<clus scale="   90.454">  7  8 -1 -1</clus>
<clus scale="  100.019">  2  5  1 -1</clus>
<clus scale="   27.446">  1  5  2 -1</clus>
</clustering>
</event>
<event>
10    2  0.1671105E-006  0.9498371E+02  0.7546771E-02  0.1293114E+00
         -1   -1    0    0    0  501 -0.00000000000E+00  0.00000000000E+00  0.30411704294E+03  0.30411704294E+03  0.00000000000E+00 0.  1.
         21   -1    0    0  503  502  0.00000000000E+00 -0.00000000000E+00 -0.12903389223E+03  0.12903389223E+03  0.00000000000E+00 0.  1.
         23    2    1    2    0    0 -0.43887947755E+02 -0.10685689762E+02  0.12858527439E+03  0.16426624338E+03  0.91699999999E+02 0.  0.
         23    2    1    2    0    0 -0.34559346864E+01  0.12526915004E+02 -0.38998227129E+02  0.97368152837E+02  0.88265669338E+02 0.  0.
        -11    1    3    3    0    0 -0.59342857911E+02 -0.32509905029E+02  0.11692527494E+03  0.13509251878E+03  0.00000000000E+00 0.  1.
         11    1    3    3    0    0  0.15454910155E+02  0.21824215267E+02  0.11659999450E+02  0.29173724601E+02  0.00000000000E+00 0. -1.
        -11    1    4    4    0    0  0.33372735936E+02 -0.17141402570E+02 -0.32489695689E+02  0.49630106910E+02  0.00000000000E+00 0. -1.
         11    1    4    4    0    0 -0.36828670623E+02  0.29668317573E+02 -0.65085314399E+01  0.47738045927E+02  0.00000000000E+00 0.  1.
         21    1    1    2  503  501  0.15812548691E+02  0.18261676997E+02  0.11892792936E+03  0.12135640867E+03  0.00000000000E+00 0.  1.
         -1    1    1    2    0  502  0.31531333751E+02 -0.20102902239E+02 -0.33431825911E+02  0.50160130286E+02  0.00000000000E+00 0.  1.
<scales pt_clust_5="13000.00000" pt_clust_6="13000.00000" pt_clust_7="13000.00000" pt_clust_8="13000.00000" pt_clust_9="24.15627" pt_clust_10="37.57010"></scales>
<clustering>
<clus scale="   24.156">  1  9  2 -1</clus>
<clus scale="   37.570">  2 10  1 -1</clus>
<clus scale="   88.266">  7  8 -1 -1</clus>
<clus scale="   91.672">  2  7  1 -1</clus>
<clus scale="   91.700">  5  6 -1 -1</clus>
<clus scale="   37.570">  2  5  1 -1</clus>
</clustering>
</event>
<event>
10    2  0.1671105E-006  0.4272003E+03  0.7546771E-02  0.1066389E+00
          2   -1    0    0  502    0 -0.00000000000E+00  0.00000000000E+00  0.44798622412E+03  0.44798622412E+03  0.00000000000E+00 0. -1.
         21   -1    0    0  503  502  0.00000000000E+00 -0.00000000000E+00 -0.61568842027E+03  0.61568842027E+03  0.00000000000E+00 0.  1.
         23    2    1    2    0    0 -0.13374840772E+03  0.68510995792E+02  0.36697448375E+02  0.17718577648E+03  0.86404302886E+02 0.  0.
         23    2    1    2    0    0 -0.20992032841E+03  0.26911125548E+03 -0.77397784299E+01  0.35378123782E+03  0.92810818103E+02 0.  0.
        -11    1    3    3    0    0 -0.51831635100E+02 -0.60152091280E+01 -0.15950664361E+02  0.54563035396E+02  0.00000000000E+00 0.  1.
         11    1    3    3    0    0 -0.81916772621E+02  0.74526204920E+02  0.52648112736E+02  0.12262274108E+03  0.00000000000E+00 0. -1.
        -13    1    4    4    0    0 -0.18346638790E+03  0.25166222386E+03  0.19422265308E+02  0.31204328994E+03  0.00000000000E+00 0.  1.
         13    1    4    4    0    0 -0.26453940513E+02  0.17449031615E+02 -0.27162043737E+02  0.41737947877E+02  0.00000000000E+00 0. -1.
         21    1    1    2  503  501  0.43133998515E+02 -0.36317376055E+01 -0.33365730916E+02  0.54653484294E+02  0.00000000000E+00 0.  1.
          2    1    1    2  501    0  0.30053473762E+03 -0.33399051366E+03 -0.16329413517E+03  0.47805414580E+03  0.00000000000E+00 0. -1.
<scales pt_clust_5="13000.00000" pt_clust_6="13000.00000" pt_clust_7="13000.00000" pt_clust_8="13000.00000" pt_clust_9="35.39722" pt_clust_10="35.39722"></scales>
<clustering>
<clus scale="   35.397">  9 10 -1 -1</clus>
<clus scale="   86.404">  5  6 -1 -1</clus>
<clus scale="   92.811">  7  8 -1 -1</clus>
<clus scale="  173.344">  1  5  2 -1</clus>
<clus scale="  422.029">  1  7  2 -1</clus>
<clus scale="  427.200">  2  5  1 -1</clus>
</clustering>
</event>
<event>
10    2  0.1671105E-006  0.1829202E+03  0.7546771E-02  0.1191079E+00
          3   -1    0    0  502    0 -0.00000000000E+00  0.00000000000E+00  0.64878996786E+03  0.64878996786E+03  0.00000000000E+00 0. -1.
         21   -1    0    0  503  502  0.00000000000E+00 -0.00000000000E+00 -0.17622955847E+03  0.17622955847E+03  0.00000000000E+00 0. -1.
         23    2    1    2    0    0  0.36485697178E+02 -0.34022406915E+02 -0.26083202860E+02  0.10487962820E+03  0.88491088079E+02 0.  0.
         23    2    1    2    0    0  0.46284837849E+02  0.16783462304E+03  0.51590947712E+03  0.55204984194E+03  0.91025779311E+02 0.  0.
        -11    1    3    3    0    0  0.62674017869E+02 -0.30541604845E+02 -0.33626480135E+02  0.77405182698E+02  0.00000000000E+00 0. -1.
         11    1    3    3    0    0 -0.26188320691E+02 -0.34808020696E+01  0.75432772745E+01  0.27474445503E+02  0.00000000000E+00 0.  1.
        -13    1    4    4    0    0 -0.24014930813E+02  0.57722952263E+02  0.12275271039E+03  0.13775661156E+03  0.00000000000E+00 0.  1.
         13    1    4    4    0    0  0.70299768662E+02  0.11011167078E+03  0.39315676673E+03  0.41429323038E+03  0.00000000000E+00 0. -1.
         21    1    1    2  503  501 -0.12591661504E+02 -0.69761056575E+02  0.29488799634E+01  0.70949635989E+02  0.00000000000E+00 0. -1.
          3    1    1    2  501    0 -0.70178873522E+02 -0.64051159550E+02 -0.20214744836E+02  0.97140420204E+02  0.00000000000E+00 0. -1.
<scales pt_clust_5="13000.00000" pt_clust_6="13000.00000" pt_clust_7="13000.00000" pt_clust_8="13000.00000" pt_clust_9="48.85782" pt_clust_10="168.44467"></scales>
<clustering>
<clus scale="   48.858">  9 10 -1 -1</clus>
<clus scale="   88.491">  5  6 -1 -1</clus>
<clus scale="   91.026">  7  8 -1 -1</clus>
<clus scale="  101.585">  1  5  2 -1</clus>
<clus scale="  168.445">  2  9  1 -1</clus>
<clus scale="  168.445">  2  5  1 -1</clus>
</clustering>
</event>
<event>
10    2  0.1671105E-006  0.1030824E+03  0.7546771E-02  0.1275236E+00
         21   -1    0    0  501  502  0.00000000000E+00  0.00000000000E+00  0.14242664336E+03  0.14242664336E+03  0.00000000000E+00 0. -1.
          3   -1    0    0  503    0 -0.00000000000E+00 -0.00000000000E+00 -0.63460770063E+03  0.63460770063E+03  0.00000000000E+00 0. -1.
         23    2    1    2    0    0 -0.44306644585E+02  0.35827100967E+02 -0.35087768196E+03  0.36671786380E+03  0.90112063629E+02 0.  0.
         23    2    1    2    0    0  0.10236574574E+02 -0.32279432642E+02 -0.25248067872E+03  0.27115960613E+03  0.92920878378E+02 0.  0.
        -13    1    4    4    0    0  0.50472354284E+02 -0.59683117702E+01 -0.13006172942E+03  0.13963929516E+03  0.00000000000E+00 0.  1.
         13    1    4    4    0    0 -0.40235779710E+02 -0.26311120871E+02 -0.12241894930E+03  0.13152031097E+03  0.00000000000E+00 0. -1.
        -13    1    3    3    0    0  0.68315440447E+01  0.47227521786E+02 -0.10521985774E+03  0.11553496125E+03  0.00000000000E+00 0.  1.
         13    1    3    3    0    0 -0.51138188629E+02 -0.11400420820E+02 -0.24565782422E+03  0.25118290255E+03  0.00000000000E+00 0. -1.
         21    1    1    2  503  502 -0.18578915638E+02 -0.20419373455E+02  0.46427553017E+02  0.54015225611E+02  0.00000000000E+00 0. -1.
          3    1    1    2  501    0  0.52648985649E+02  0.16871705130E+02  0.64749750400E+02  0.85141648450E+02  0.00000000000E+00 0. -1.
<scales pt_clust_5="13000.00000" pt_clust_6="13000.00000" pt_clust_7="13000.00000" pt_clust_8="13000.00000" pt_clust_9="27.60665" pt_clust_10="37.54879"></scales>
<clustering>
<clus scale="   27.607">  1  9  2 -1</clus>
<clus scale="   37.549">  1 10  2 -1</clus>
<clus scale="   90.112">  7  8 -1 -1</clus>
<clus scale="   92.921">  5  6 -1 -1</clus>
<clus scale="  100.558">  2  7  1 -1</clus>
<clus scale="   27.607">  1  5  2 -1</clus>
</clustering>
</event>
<event>
10    2  0.1671105E-006  0.1441750E+03  0.7546771E-02  0.1223266E+00
          1   -1    0    0  503    0 -0.00000000000E+00  0.00000000000E+00  0.48113404021E+03  0.48113404021E+03  0.00000000000E+00 0. -1.
         21   -1    0    0  501  502  0.00000000000E+00 -0.00000000000E+00 -0.10874616093E+03  0.10874616093E+03  0.00000000000E+00 0. -1.
         23    2    1    2    0    0  0.86106686758E+01 -0.60867517886E+02  0.81699179874E+02  0.13709734062E+03  0.91334147311E+02 0.  0.
         23    2    1    2    0    0 -0.78659321186E+02 -0.48482275785E+02  0.26939731764E+03  0.29953665290E+03  0.92787239449E+02 0.  0.
        -11    1    3    3    0    0  0.79827143787E+01  0.23824605078E+02  0.22868901648E+02  0.33975317491E+02  0.00000000000E+00 0. -1.
         11    1    3    3    0    0  0.62795429713E+00 -0.84692122964E+02  0.58830278225E+02  0.10312202313E+03  0.00000000000E+00 0.  1.
        -11    1    4    4    0    0 -0.29104607209E+02 -0.26190496018E+02  0.19389172834E+02  0.43691649839E+02  0.00000000000E+00 0. -1.
         11    1    4    4    0    0 -0.49554713977E+02 -0.22291779768E+02  0.25000814481E+03  0.25584500306E+03  0.00000000000E+00 0.  1.
         21    1    1    2  503  502 -0.96771509631E+01  0.40200063766E+02  0.23745146902E+02  0.47681488850E+02  0.00000000000E+00 0. -1.
          1    1    1    2  501    0  0.79725803473E+02  0.69149729905E+02 -0.24537651402E+01  0.10556471877E+03  0.00000000000E+00 0. -1.
<scales pt_clust_5="13000.00000" pt_clust_6="13000.00000" pt_clust_7="13000.00000" pt_clust_8="13000.00000" pt_clust_9="41.34843" pt_clust_10="110.34924"></scales>
<clustering>
<clus scale="   41.348">  2  9  1 -1</clus>
<clus scale="   91.334">  5  6 -1 -1</clus>
<clus scale="   92.787">  7  8 -1 -1</clus>
<clus scale="  103.984">  1  5  2 -1</clus>
<clus scale="  110.349">  2 10  1 -1</clus>
<clus scale="   41.348">  2  5  1 -1</clus>
</clustering>
</event>
<event>
10    2  0.1671105E-006  0.2840197E+03  0.7546771E-02  0.1123208E+00
          2   -1    0    0  502    0 -0.00000000000E+00  0.00000000000E+00  0.18473820023E+03  0.18473820023E+03  0.00000000000E+00 0. -1.
         21   -1    0    0  503  502  0.00000000000E+00 -0.00000000000E+00 -0.89801586316E+03  0.89801586316E+03  0.00000000000E+00 0. -1.
         23    2    1    2    0    0  0.27048234414E+02 -0.93667099861E+02 -0.20298616323E+03  0.24266913235E+03  0.90442206680E+02 0.  0.
         23    2    1    2    0    0 -0.48690492184E+01  0.33699542010E+03 -0.12266780803E+03  0.37170642205E+03  0.97614815791E+02 0.  0.
        -11    1    4    4    0    0 -0.10987175730E+01  0.12135564661E+03  0.42975888880E+01  0.12143668892E+03  0.00000000000E+00 0.  1.
         11    1    4    4    0    0 -0.37703316454E+01  0.21563977349E+03 -0.12696539692E+03  0.25026973314E+03  0.00000000000E+00 0. -1.
        -13    1    3    3    0    0 -0.22320216114E+02 -0.57442813502E+02 -0.55333453333E+02  0.82823063986E+02  0.00000000000E+00 0.  1.
         13    1    3    3    0    0  0.49368450528E+02 -0.36224286360E+02 -0.14765270990E+03  0.15984606836E+03  0.00000000000E+00 0. -1.
         21    1    1    2  503  501  0.24860329040E+02 -0.51744134900E+02 -0.44687476750E+02  0.72749309514E+02  0.00000000000E+00 0.  1.
          2    1    1    2  501    0 -0.47039514236E+02 -0.19158418534E+03 -0.34293621492E+03  0.39562919947E+03  0.00000000000E+00 0. -1.
<scales pt_clust_5="13000.00000" pt_clust_6="13000.00000" pt_clust_7="13000.00000" pt_clust_8="13000.00000" pt_clust_9="52.37231" pt_clust_10="283.83847"></scales>
<clustering>
<clus scale="   52.372">  9 10 -1 -1</clus>
<clus scale="   90.442">  7  8 -1 -1</clus>
<clus scale="   97.615">  5  6 -1 -1</clus>
<clus scale="  132.985">  1  7  2 -1</clus>
<clus scale="  283.838">  2  9  1 -1</clus>
<clus scale="  283.838">  2  5  1 -1</clus>
</clustering>
</event>
<event>
10    2  0.1671105E-006  0.1206142E+03  0.7546771E-02  0.1243112E+00
         -3   -1    0    0    0  501 -0.00000000000E+00  0.00000000000E+00  0.16459370205E+03  0.16459370205E+03  0.00000000000E+00 0.  1.
         21   -1    0    0  501  502  0.00000000000E+00 -0.00000000000E+00 -0.31998717183E+03  0.31998717183E+03  0.00000000000E+00 0. -1.
         23    2    1    2    0    0  0.72174885099E+02  0.17822280010E+02  0.42490467130E+02  0.12598719484E+03  0.92414748619E+02 0.  0.
         23    2    1    2    0    0 -0.53289382651E+02 -0.12417657285E+03 -0.18496877240E+03  0.24581037231E+03  0.89161162084E+02 0.  0.
        -11    1    4    4    0    0 -0.24374550984E+02 -0.17034310311E+02 -0.10471927162E+03  0.10885959908E+03  0.00000000000E+00 0. -1.
         11    1    4    4    0    0 -0.28914831666E+02 -0.10714226254E+03 -0.80249500775E+02  0.13695077323E+03  0.00000000000E+00 0.  1.
        -11    1    3    3    0    0 -0.12518735849E+02  0.22708349530E+02  0.30941353699E+02  0.40370227327E+02  0.00000000000E+00 0. -1.
         11    1    3    3    0    0  0.84693620948E+02 -0.48860695203E+01  0.11549113431E+02  0.85616967511E+02  0.00000000000E+00 0.  1.
         21    1    1    2  503  502  0.97069053285E+00  0.70455916602E+02 -0.27375654701E+01  0.70515761990E+02  0.00000000000E+00 0.  1.
         -3    1    1    2    0  503 -0.19856192981E+02  0.35898376239E+02 -0.10177599037E+02  0.42267544742E+02  0.00000000000E+00 0.  1.
<scales pt_clust_5="13000.00000" pt_clust_6="13000.00000" pt_clust_7="13000.00000" pt_clust_8="13000.00000" pt_clust_9="22.70402" pt_clust_10="112.04144"></scales>
<clustering>
<clus scale="   22.704">  9 10 -1 -1</clus>
<clus scale="   89.161">  5  6 -1 -1</clus>
<clus scale="   92.415">  7  8 -1 -1</clus>
<clus scale="  112.041">  2  9  1 -1</clus>
<clus scale="  118.140">  2  5  1 -1</clus>
<clus scale="  112.041">  2  5  1 -1</clus>
</clustering>
</event>
<event>
10    2  0.1671105E-006  0.1802389E+03  0.7546771E-02  0.1167780E+00
          1   -1    0    0  503    0 -0.00000000000E+00  0.00000000000E+00  0.12174871725E+04  0.12174871725E+04  0.00000000000E+00 0. -1.
         21   -1    0    0  501  502  0.00000000000E+00 -0.00000000000E+00 -0.80764027201E+02  0.80764027201E+02  0.00000000000E+00 0. -1.
         23    2    1    2    0    0 -0.64382192322E+02  0.19397089785E+03  0.79308357960E+03  0.82390834085E+03  0.89853291428E+02 0.  0.
         23    2    1    2    0    0  0.89159534194E+02 -0.76559198475E+02  0.28134905089E+03  0.31835654685E+03  0.91558009341E+02 0.  0.
        -11    1    4    4    0    0 -0.18601209798E+02 -0.12187000166E+02  0.58550862925E+02  0.62631713438E+02  0.00000000000E+00 0.  1.
         11    1    4    4    0    0  0.10776074399E+03 -0.64372198309E+02  0.22279818797E+03  0.25572483341E+03  0.00000000000E+00 0. -1.
        -13    1    3    3    0    0  0.21463277939E+02  0.22224852029E+02  0.12688906096E+03  0.13059651656E+03  0.00000000000E+00 0. -1.
         13    1    3    3    0    0 -0.85845470261E+02  0.17174604582E+03  0.66619451865E+03  0.69331182429E+03  0.00000000000E+00 0.  1.
         21    1    1    2  503  502 -0.79559175807E+01 -0.31488823227E+02  0.60205852249E+02  0.68407508782E+02  0.00000000000E+00 0.  1.
          1    1    1    2  501    0 -0.16821424291E+02 -0.85922876150E+02  0.20846625840E+01  0.87578803253E+02  0.00000000000E+00 0. -1.
<scales pt_clust_5="13000.00000" pt_clust_6="13000.00000" pt_clust_7="13000.00000" pt_clust_8="13000.00000" pt_clust_9="32.47834" pt_clust_10="88.81481"></scales>
<clustering>
<clus scale="   32.478">  1  9  2 -1</clus>
<clus scale="   88.815">  2 10  1 -1</clus>
<clus scale="   89.853">  7  8 -1 -1</clus>
<clus scale="   91.558">  5  6 -1 -1</clus>
<clus scale="  179.379">  1  7  2 -1</clus>
<clus scale="   88.815">  2  5  1 -1</clus>
</clustering>
</event>
<event>
10    2  0.1671105E-006  0.1259372E+03  0.7546771E-02  0.1234192E+00
         21   -1    0    0  501  502  0.00000000000E+00  0.00000000000E+00  0.27028561256E+03  0.27028561256E+03  0.00000000000E+00 0.  1.
         -1   -1    0    0    0  501 -0.00000000000E+00 -0.00000000000E+00 -0.23705895880E+03  0.23705895880E+03  0.00000000000E+00 0.  1.
         23    2    1    2    0    0 -0.10782243463E+02 -0.10203293534E+03 -0.17373042642E+03  0.22078759876E+03  0.89654481377E+02 0.  0.
         23    2    1    2    0    0  0.10965285164E+02  0.57606712828E+01  0.95862902417E+02  0.13324455646E+03  0.91711465777E+02 0.  0.
        -11    1    4    4    0    0 -0.18889037845E+02 -0.10563953262E+02 -0.86690895783E+01  0.23314072432E+02  0.00000000000E+00 0.  1.
         11    1    4    4    0    0  0.29854323009E+02  0.16324624545E+02  0.10453199199E+03  0.10993048403E+03  0.00000000000E+00 0. -1.
        -13    1    3    3    0    0 -0.50295216356E+02 -0.53280272835E+02 -0.87172281149E+02  0.11387450488E+03  0.00000000000E+00 0.  1.
         13    1    3    3    0    0  0.39512972892E+02 -0.48752662510E+02 -0.86558145273E+02  0.10691309387E+03  0.00000000000E+00 0. -1.
         21    1    1    2  503  502 -0.36892232930E+01  0.23741381818E+02  0.59689268701E+02  0.64343394200E+02  0.00000000000E+00 0. -1.
         -1    1    1    2    0  503  0.35061815924E+01  0.72530882244E+02  0.51404909062E+02  0.88969021936E+02  0.00000000000E+00 0.  1.
<scales pt_clust_5="13000.00000" pt_clust_6="13000.00000" pt_clust_7="13000.00000" pt_clust_8="13000.00000" pt_clust_9="24.02631" pt_clust_10="80.56354"></scales>
<clustering>
<clus scale="   24.026">  1  9  2 -1</clus>
<clus scale="   80.564">  1 10  2 -1</clus>
<clus scale="   89.654">  7  8 -1 -1</clus>
<clus scale="   91.711">  5  6 -1 -1</clus>
<clus scale="  124.447">  2  7  1 -1</clus>
<clus scale="   24.026">  1  5  2 -1</clus>
</clustering>
</event>
<event>
10    2  0.1671105E-006  0.2561389E+03  0.7546771E-02  0.1139693E+00
         21   -1    0    0  503  502  0.00000000000E+00  0.00000000000E+00  0.21066048961E+04  0.21066048961E+04  0.00000000000E+00 0.  1.
         -2   -1    0    0    0  501 -0.00000000000E+00 -0.00000000000E+00 -0.81656612304E+02  0.81656612304E+02  0.00000000000E+00 0.  1.
         23    2    1    2    0    0  0.27177529629E+02 -0.73930956617E+02  0.92663808410E+02  0.15234188045E+03  0.91744551270E+02 0.  0.
         23    2    1    2    0    0 -0.25947394511E+03  0.17103693212E+03  0.89063070172E+03  0.94756738241E+03  0.89891807355E+02 0.  0.
        -11    1    3    3    0    0  0.57862030803E+02 -0.36088987832E+02  0.72737081027E+02  0.99705128292E+02  0.00000000000E+00 0.  1.
         11    1    3    3    0    0 -0.30684501174E+02 -0.37841968785E+02  0.19926727383E+02  0.52636752160E+02  0.00000000000E+00 0. -1.
        -13    1    4    4    0    0 -0.17453581159E+03  0.11738605152E+03  0.46692785122E+03  0.51211703044E+03  0.00000000000E+00 0.  1.
         13    1    4    4    0    0 -0.84938133521E+02  0.53650880590E+02  0.42370285049E+03  0.43545035197E+03  0.00000000000E+00 0. -1.
         21    1    1    2  503  501  0.12720660966E+03 -0.13756448263E+03  0.80148900203E+03  0.82309788530E+03  0.00000000000E+00 0.  1.
         -2    1    1    2    0  502  0.10508980583E+03  0.40458507135E+02  0.24016477167E+03  0.26525436027E+03  0.00000000000E+00 0.  1.
<scales pt_clust_5="13000.00000" pt_clust_6="13000.00000" pt_clust_7="13000.00000" pt_clust_8="13000.00000" pt_clust_9="239.84708" pt_clust_10="112.60893"></scales>
<clustering>
<clus scale="   89.892">  7  8 -1 -1</clus>
<clus scale="   91.745">  5  6 -1 -1</clus>
<clus scale="  112.609">  1 10  2 -1</clus>
<clus scale="  121.074">  2  5  1 -1</clus>
<clus scale="  239.847">  1  9  2 -1</clus>
<clus scale="  112.609">  1  5  2 -1</clus>
</clustering>
</event>
<event>
10    2  0.1671105E-006  0.2366698E+03  0.7546771E-02  0.1162038E+00
         21   -1    0    0  501  502  0.00000000000E+00  0.00000000000E+00  0.46515722993E+03  0.46515722993E+03  0.00000000000E+00 0.  1.
         -2   -1    0    0    0  501 -0.00000000000E+00 -0.00000000000E+00 -0.40092706245E+03  0.40092706245E+03  0.00000000000E+00 0.  1.
         23    2    1    2    0    0 -0.72760438649E+01  0.26882659840E+02 -0.11758666193E+03  0.14835420913E+03  0.86062361617E+02 0.  0.
         23    2    1    2    0    0 -0.12140464896E+03 -0.20097129332E+03 -0.16682848276E+03  0.30192178827E+03  0.90534380457E+02 0.  0.
        -11    1    3    3    0    0 -0.38372723727E+02  0.24584498252E+02 -0.10548189428E+03  0.11490558517E+03  0.00000000000E+00 0.  1.
         11    1    3    3    0    0  0.31096679862E+02  0.22981615881E+01 -0.12104767649E+02  0.33448623963E+02  0.00000000000E+00 0. -1.
        -13    1    4    4    0    0 -0.11113995288E+03 -0.11174197332E+03 -0.13203413115E+03  0.20560002314E+03  0.00000000000E+00 0.  1.
         13    1    4    4    0    0 -0.10264696084E+02 -0.89229320006E+02 -0.34794351606E+02  0.96321765132E+02  0.00000000000E+00 0. -1.
         21    1    1    2  503  502 -0.43772739645E+00  0.39740758016E+02  0.51155632753E+02  0.64779767021E+02  0.00000000000E+00 0.  1.
         -2    1    1    2    0  503  0.12911842022E+03  0.13434787547E+03  0.29748967941E+03  0.35102852796E+03  0.00000000000E+00 0.  1.
<scales pt_clust_5="13000.00000" pt_clust_6="13000.00000" pt_clust_7="13000.00000" pt_clust_8="13000.00000" pt_clust_9="30.90274" pt_clust_10="228.67775"></scales>
<clustering>
<clus scale="   30.903">  9 10 -1 -1</clus>
<clus scale="   86.062">  5  6 -1 -1</clus>
<clus scale="   90.456">  2  5  1 -1</clus>
<clus scale="   90.534">  7  8 -1 -1</clus>
<clus scale="  228.678">  1  9  2 -1</clus>
<clus scale="  228.678">  1  5  2 -1</clus>
</clustering>
</event>
<event>
10    2  0.1671105E-006  0.1046554E+03  0.7546771E-02  0.1272104E+00
          2   -1    0    0  502    0 -0.00000000000E+00  0.00000000000E+00  0.88159376784E+02  0.88159376784E+02  0.00000000000E+00 0. -1.
         21   -1    0    0  503  502  0.00000000000E+00 -0.00000000000E+00 -0.63199679173E+03  0.63199679173E+03  0.00000000000E+00 0. -1.
         23    2    1    2    0    0 -0.46213475578E+02  0.35949467561E+02 -0.11471608774E+02  0.10925903469E+03  0.91530810723E+02 0.  0.
         23    2    1    2    0    0 -0.23757247263E+02 -0.64421458994E+02 -0.51172979375E+02  0.12318047708E+03  0.88545044686E+02 0.  0.
        -11    1    4    4    0    0  0.31777184052E+02 -0.24608030199E+02 -0.34199218853E+02  0.52772446852E+02  0.00000000000E+00 0.  1.
         11    1    4    4    0    0 -0.55534431316E+02 -0.39813428795E+02 -0.16973760522E+02  0.70408030226E+02  0.00000000000E+00 0. -1.
        -13    1    3    3    0    0 -0.37876751241E+02  0.57817208160E+02 -0.33775338008E+02  0.76930171594E+02  0.00000000000E+00 0.  1.
         13    1    3    3    0    0 -0.83367243367E+01 -0.21867740599E+02  0.22303729235E+02  0.32328863100E+02  0.00000000000E+00 0. -1.
         21    1    1    2  503  501  0.34579169454E+02  0.12365342214E+01 -0.19126164131E+03  0.19436631245E+03  0.00000000000E+00 0. -1.
          2    1    1    2  501    0  0.35391553387E+02  0.27235457212E+02 -0.28993118549E+03  0.29335034429E+03  0.00000000000E+00 0. -1.
<scales pt_clust_5="13000.00000" pt_clust_6="13000.00000" pt_clust_7="13000.00000" pt_clust_8="13000.00000" pt_clust_9="21.81916" pt_clust_10="79.50472"></scales>
<clustering>
<clus scale="   21.819">  9 10 -1 -1</clus>
<clus scale="   79.505">  2  9  1 -1</clus>
<clus scale="   88.545">  5  6 -1 -1</clus>
<clus scale="   91.531">  7  8 -1 -1</clus>
<clus scale="  102.054">  2  5  1 -1</clus>
<clus scale="   79.505">  2  5  1 -1</clus>
</clustering>
</event>
<event>
10    2  0.1671105E-006  0.1435134E+03  0.7546771E-02  0.1227608E+00
          2   -1    0    0  503    0 -0.00000000000E+00  0.00000000000E+00  0.47383329487E+03  0.47383329487E+03  0.00000000000E+00 0. -1.
         21   -1    0    0  501  502  0.00000000000E+00 -0.00000000000E+00 -0.21667189130E+03  0.21667189130E+03  0.00000000000E+00 0.  1.
         23    2    1    2    0    0 -0.30336455025E+02 -0.34385896283E+01  0.53042137045E+02  0.11073421972E+03  0.92284748001E+02 0.  0.
         23    2    1    2    0    0 -0.47681955837E+01  0.97965214485E+02  0.30913557651E+03  0.33703234380E+03  0.91684661530E+02 0.  0.
        -13    1    3    3    0    0  0.97066832258E+01 -0.27618253757E+02 -0.11133481974E+02  0.31319994583E+02  0.00000000000E+00 0.  1.
         13    1    3    3    0    0 -0.40043138251E+02  0.24179664128E+02  0.64175619019E+02  0.79414225142E+02  0.00000000000E+00 0. -1.
        -13    1    4    4    0    0 -0.22078612177E+02  0.61347566107E+02  0.74821423204E+02  0.99243308859E+02  0.00000000000E+00 0.  1.
         13    1    4    4    0    0  0.17310416593E+02  0.36617648378E+02  0.23431415331E+03  0.23778903494E+03  0.00000000000E+00 0. -1.
         21    1    1    2  503  502  0.14143428526E+02 -0.15129299716E+03 -0.10024025675E+03  0.18203767916E+03  0.00000000000E+00 0.  1.
          2    1    1    2  501    0  0.20961222083E+02  0.56766372303E+02 -0.47760532345E+01  0.60700943487E+02  0.00000000000E+00 0. -1.
<scales pt_clust_5="13000.00000" pt_clust_6="13000.00000" pt_clust_7="13000.00000" pt_clust_8="13000.00000" pt_clust_9="110.40838" pt_clust_10="60.51276"></scales>
<clustering>
<clus scale="   60.513">  2 10  1 -1</clus>
<clus scale="   91.685">  7  8 -1 -1</clus>
<clus scale="   92.285">  5  6 -1 -1</clus>
<clus scale="   96.322">  1  5  2 -1</clus>
<clus scale="  110.408">  2  9  1 -1</clus>
<clus scale="   60.513">  2  5  1 -1</clus>
</clustering>
</event>
<event>
10    2  0.1671105E-006  0.1841895E+03  0.7546771E-02  0.1182618E+00
         -1   -1    0    0    0  501 -0.00000000000E+00  0.00000000000E+00  0.49690485412E+03  0.49690485412E+03  0.00000000000E+00 0.  1.
         21   -1    0    0  501  502  0.00000000000E+00 -0.00000000000E+00 -0.21051259646E+03  0.21051259646E+03  0.00000000000E+00 0.  1.
         23    2    1    2    0    0  0.62137859324E+02 -0.45679852436E+02  0.28804946882E+03  0.31207403674E+03  0.92032306520E+02 0.  0.
         23    2    1    2    0    0 -0.20556793675E+03  0.41840396019E+02  0.54123308936E+02  0.23497916364E+03  0.90978455762E+02 0.  0.
        -11    1    4    4    0    0 -0.81579529683E+02 -0.25806636520E+02  0.60393042372E+01  0.85776892853E+02  0.00000000000E+00 0.  1.
         11    1    4    4    0    0 -0.12398840707E+03  0.67647032539E+02  0.48084004699E+02  0.14920227078E+03  0.00000000000E+00 0. -1.
        -13    1    3    3    0    0 -0.15073701069E+01 -0.55464115189E+02  0.14225003191E+03  0.15268795570E+03  0.00000000000E+00 0.  1.
         13    1    3    3    0    0  0.63645229431E+02  0.97842627533E+01  0.14579943691E+03  0.15938608104E+03  0.00000000000E+00 0. -1.
         21    1    1    2  503  502  0.28812826888E+02  0.10597433849E+02  0.39287173648E+01  0.30950273304E+02  0.00000000000E+00 0.  1.
         -1    1    1    2    0  503  0.11461725054E+03 -0.67579774317E+01 -0.59709237453E+02  0.12941397690E+03  0.00000000000E+00 0.  1.
<scales pt_clust_5="13000.00000" pt_clust_6="13000.00000" pt_clust_7="13000.00000" pt_clust_8="13000.00000" pt_clust_9="23.23055" pt_clust_10="166.33402"></scales>
<clustering>
<clus scale="   23.231">  9 10 -1 -1</clus>
<clus scale="   90.978">  5  6 -1 -1</clus>
<clus scale="   92.032">  7  8 -1 -1</clus>
<clus scale="  120.074">  1  7  2 -1</clus>
<clus scale="  166.334">  2  9  1 -1</clus>
<clus scale="  166.334">  2  5  1 -1</clus>
</clustering>
</event>
<event>
10    2  0.1671105E-006  0.9488856E+02  0.7546771E-02  0.1291892E+00
          1   -1    0    0  503    0 -0.00000000000E+00  0.00000000000E+00  0.20243280825E+03  0.20243280825E+03  0.00000000000E+00 0. -1.
         21   -1    0    0  501  502  0.00000000000E+00 -0.00000000000E+00 -0.92643737088E+02  0.92643737088E+02  0.00000000000E+00 0. -1.
         23    2    1    2    0    0  0.35075724727E+02 -0.24164213739E+01  0.56554667297E+02  0.11230777943E+03  0.90434845996E+02 0.  0.
         23    2    1    2    0    0  0.10008795843E+02  0.44058317027E+02  0.45987859160E+02  0.11175757212E+03  0.91288336836E+02 0.  0.
        -13    1    4    4    0    0  0.32935163952E+02  0.46141185487E+02 -0.38903478382E+01  0.56823136388E+02  0.00000000000E+00 0. -1.
         13    1    4    4    0    0 -0.22926368109E+02 -0.20828684594E+01  0.49878206998E+02  0.54934435731E+02  0.00000000000E+00 0.  1.
        -13    1    3    3    0    0 -0.93361512300E+01  0.30286266152E+02  0.46457204675E+02  0.56237829825E+02  0.00000000000E+00 0.  1.
         13    1    3    3    0    0  0.44411875957E+02 -0.32702687526E+02  0.10097462622E+02  0.56069949606E+02  0.00000000000E+00 0. -1.
         21    1    1    2  503  502 -0.23404459902E+02 -0.28530983912E+02 -0.12421659759E+02  0.38936915869E+02  0.00000000000E+00 0. -1.
          1    1    1    2  501    0 -0.21680060668E+02 -0.13110911741E+02  0.19668204467E+02  0.32074277922E+02  0.00000000000E+00 0. -1.
<scales pt_clust_5="13000.00000" pt_clust_6="13000.00000" pt_clust_7="13000.00000" pt_clust_8="13000.00000" pt_clust_9="44.07000" pt_clust_10="25.33617"></scales>
<clustering>
<clus scale="   25.336">  2 10  1 -1</clus>
<clus scale="   44.070">  2  9  1 -1</clus>
<clus scale="   90.435">  7  8 -1 -1</clus>
<clus scale="   91.288">  5  6 -1 -1</clus>
<clus scale="   94.068">  1  7  2 -1</clus>
<clus scale="   25.336">  2  5  1 -1</clus>
</clustering>
</event>
<event>
10    2  0.1671105E-006  0.1269652E+03  0.7546771E-02  0.1233525E+00
         21   -1    0    0  501  502  0.00000000000E+00  0.00000000000E+00  0.10912410211E+03  0.10912410211E+03  0.00000000000E+00 0. -1.
         -1   -1    0    0    0  501 -0.00000000000E+00 -0.00000000000E+00 -0.66509535757E+03  0.66509535757E+03  0.00000000000E+00 0.  1.
         23    2    1    2    0    0 -0.89384796058E+02  0.98495552708E+01 -0.39680189981E+03  0.41697257842E+03  0.91256385840E+02 0.  0.
         23    2    1    2    0    0  0.55665012507E+02 -0.11343059647E+03  0.11075350933E+02  0.15314723842E+03  0.85827264917E+02 0.  0.
        -13    1    3    3    0    0 -0.26625064684E+02  0.46337118007E+02 -0.20622718472E+03  0.21303913794E+03  0.00000000000E+00 0.  1.
         13    1    3    3    0    0 -0.62759731375E+02 -0.36487562736E+02 -0.19057471508E+03  0.20393344048E+03  0.00000000000E+00 0. -1.
        -13    1    4    4    0    0  0.22353895449E+02 -0.47502269089E+01 -0.25017232835E+02  0.33883967243E+02  0.00000000000E+00 0.  1.
         13    1    4    4    0    0  0.33311117058E+02 -0.10868036956E+03  0.36092583767E+02  0.11926327117E+03  0.00000000000E+00 0. -1.
         21    1    1    2  503  502  0.39132470628E+01  0.57282537651E+02 -0.91128499717E+02  0.10770796666E+03  0.00000000000E+00 0.  1.
         -1    1    1    2    0  503  0.29806536489E+02  0.46298503551E+02 -0.79116206858E+02  0.96391676177E+02  0.00000000000E+00 0.  1.
<scales pt_clust_5="13000.00000" pt_clust_6="13000.00000" pt_clust_7="13000.00000" pt_clust_8="13000.00000" pt_clust_9="27.82566" pt_clust_10="112.57627"></scales>
<clustering>
<clus scale="   27.826">  9 10 -1 -1</clus>
<clus scale="   85.827">  7  8 -1 -1</clus>
<clus scale="   91.256">  5  6 -1 -1</clus>
<clus scale="  112.576">  1  9  2 -1</clus>
<clus scale="  123.121">  1  7  2 -1</clus>
<clus scale="  112.576">  1  5  2 -1</clus>
</clustering>
</event>
<event>
10    2  0.1671105E-006  0.2363649E+03  0.7546771E-02  0.1158126E+00
          2   -1    0    0  503    0 -0.00000000000E+00  0.00000000000E+00  0.40895135594E+03  0.40895135594E+03  0.00000000000E+00 0. -1.
         21   -1    0    0  501  502  0.00000000000E+00 -0.00000000000E+00 -0.34052848292E+03  0.34052848292E+03  0.00000000000E+00 0.  1.
         23    2    1    2    0    0 -0.51243579630E+02  0.11072314117E+02  0.62161900768E+02  0.11899888338E+03  0.86879984729E+02 0.  0.
         23    2    1    2    0    0  0.25004890620E+03 -0.27402018305E+02  0.14412985126E+03  0.29885492875E+03  0.72563960152E+02 0.  0.
        -13    1    4    4    0    0  0.39320148038E+02 -0.99002155225E+01 -0.39011685863E+01  0.40734597401E+02  0.00000000000E+00 0.  1.
         13    1    4    4    0    0  0.21072875816E+03 -0.17501802783E+02  0.14803101984E+03  0.25812033134E+03  0.00000000000E+00 0. -1.
        -13    1    3    3    0    0 -0.36237286904E+02  0.29176345397E+02 -0.59873659381E+01  0.46906808074E+02  0.00000000000E+00 0.  1.
         13    1    3    3    0    0 -0.15006292726E+02 -0.18104031279E+02  0.68149266706E+02  0.72092075310E+02  0.00000000000E+00 0. -1.
         21    1    1    2  503  502 -0.23655583756E+03  0.54073438055E+02 -0.13608955398E+03  0.27821388838E+03  0.00000000000E+00 0.  1.
          2    1    1    2  501    0  0.37750510987E+02 -0.37743733867E+02 -0.17793250318E+01  0.53412138355E+02  0.00000000000E+00 0. -1.
<scales pt_clust_5="13000.00000" pt_clust_6="13000.00000" pt_clust_7="13000.00000" pt_clust_8="13000.00000" pt_clust_9="224.95073" pt_clust_10="53.38249"></scales>
<clustering>
<clus scale="   53.382">  2 10  1 -1</clus>
<clus scale="   72.564">  5  6 -1 -1</clus>
<clus scale="   86.880">  7  8 -1 -1</clus>
<clus scale="   99.463">  1  7  2 -1</clus>
<clus scale="  224.951">  2  9  1 -1</clus>
<clus scale="   53.382">  2  5  1 -1</clus>
</clustering>
</event>
<event>
10    2  0.1671105E-006  0.1005996E+03  0.7546771E-02  0.1280821E+00
         21   -1    0    0  501  502  0.00000000000E+00  0.00000000000E+00  0.32708267304E+03  0.32708267304E+03  0.00000000000E+00 0. -1.
          1   -1    0    0  503    0 -0.00000000000E+00 -0.00000000000E+00 -0.27496416523E+03  0.27496416523E+03  0.00000000000E+00 0. -1.
         23    2    1    2    0    0 -0.35612573839E+02  0.33911934784E+02 -0.17678354162E+03  0.20162673868E+03  0.83562230867E+02 0.  0.
         23    2    1    2    0    0  0.47769107852E+02 -0.26748836105E+02  0.44021636084E+02  0.11216685768E+03  0.87442047205E+02 0.  0.
        -11    1    4    4    0    0  0.35432439292E+02  0.26178045255E+02  0.31482741840E+01  0.44166270364E+02  0.00000000000E+00 0. -1.
         11    1    4    4    0    0  0.12336668561E+02 -0.52926881360E+02  0.40873361900E+02  0.68000587311E+02  0.00000000000E+00 0.  1.
        -13    1    3    3    0    0 -0.75874422003E+01  0.24345241262E+02 -0.33922227132E+01  0.25724836757E+02  0.00000000000E+00 0.  1.
         13    1    3    3    0    0 -0.28025131638E+02  0.95666935216E+01 -0.17339131891E+03  0.17590190193E+03  0.00000000000E+00 0. -1.
         21    1    1    2  503  502  0.69212632466E+02  0.51124569187E+02  0.98291977734E+01  0.86606715653E+02  0.00000000000E+00 0. -1.
          1    1    1    2  501    0 -0.81369166479E+02 -0.58287667866E+02  0.17505121557E+03  0.20164652625E+03  0.00000000000E+00 0. -1.
<scales pt_clust_5="13000.00000" pt_clust_6="13000.00000" pt_clust_7="13000.00000" pt_clust_8="13000.00000" pt_clust_9="86.04714" pt_clust_10="41.98933"></scales>
<clustering>
<clus scale="   83.562">  7  8 -1 -1</clus>
<clus scale="   86.047">  1  9  2 -1</clus>
<clus scale="   41.989">  1 10  2 -1</clus>
<clus scale="   87.442">  5  6 -1 -1</clus>
<clus scale="   97.246">  2  7  1 -1</clus>
<clus scale="   86.047">  1  5  2 -1</clus>
</clustering>
</event>
<event>
10    2  0.1671105E-006  0.1652549E+03  0.7546771E-02  0.1183703E+00
         21   -1    0    0  501  502  0.00000000000E+00  0.00000000000E+00  0.12071249091E+03  0.12071249091E+03  0.00000000000E+00 0.  1.
          1   -1    0    0  503    0 -0.00000000000E+00 -0.00000000000E+00 -0.67935457889E+03  0.67935457889E+03  0.00000000000E+00 0. -1.
         23    2    1    2    0    0  0.13427807407E+03 -0.20475746004E+02 -0.37771064788E+03  0.41042553771E+03  0.85638374181E+02 0.  0.
         23    2    1    2    0    0 -0.12709278140E+03  0.68549353035E+02  0.26949690785E+02  0.17288323937E+03  0.91163258695E+02 0.  0.
        -11    1    4    4    0    0 -0.13274766044E+03  0.45375409238E+02  0.39750825631E+02  0.14581151276E+03  0.00000000000E+00 0.  1.
         11    1    4    4    0    0  0.56548790400E+01  0.23173943798E+02 -0.12801134846E+02  0.27071726606E+02  0.00000000000E+00 0. -1.
        -13    1    3    3    0    0  0.17630602170E+01  0.21130123688E+02 -0.61597561720E+02  0.65144839537E+02  0.00000000000E+00 0.  1.
         13    1    3    3    0    0  0.13251501386E+03 -0.41605869692E+02 -0.31611308616E+03  0.34528069817E+03  0.00000000000E+00 0. -1.
         21    1    1    2  503  502 -0.32726709949E+01 -0.23318573590E+02 -0.16809616535E+03  0.16973740617E+03  0.00000000000E+00 0.  1.
          1    1    1    2  501    0 -0.39126216772E+01 -0.24755033441E+02 -0.39784965540E+02  0.47020886552E+02  0.00000000000E+00 0. -1.
<scales pt_clust_5="13000.00000" pt_clust_6="13000.00000" pt_clust_7="13000.00000" pt_clust_8="13000.00000" pt_clust_9="23.54711" pt_clust_10="27.06429"></scales>
<clustering>
<clus scale="   23.547">  2  9  1 -1</clus>
<clus scale="   27.064">  1 10  2 -1</clus>
<clus scale="   85.638">  7  8 -1 -1</clus>
<clus scale="   91.163">  5  6 -1 -1</clus>
<clus scale="  162.273">  2  7  1 -1</clus>
<clus scale="   27.064">  1  5  2 -1</clus>
</clustering>
</event>
<event>
10    2  0.1671105E-006  0.1081019E+03  0.7546771E-02  0.1264932E+00
          1   -1    0    0  503    0 -0.00000000000E+00  0.00000000000E+00  0.73994818155E+03  0.73994818155E+03  0.00000000000E+00 0. -1.
         21   -1    0    0  501  502  0.00000000000E+00 -0.00000000000E+00 -0.35857177175E+02  0.35857177175E+02  0.00000000000E+00 0.  1.
         23    2    1    2    0    0 -0.27376423407E+02 -0.64725884560E+01  0.19892285934E+03  0.22145038338E+03  0.93159032691E+02 0.  0.
         23    2    1    2    0    0  0.81166305692E+02  0.92505285137E+01  0.32149855039E+03  0.34402246831E+03  0.91195391019E+02 0.  0.
        -11    1    4    4    0    0  0.32383055637E+02 -0.19355546953E+02  0.33278089177E+02  0.50306368478E+02  0.00000000000E+00 0.  1.
         11    1    4    4    0    0  0.48783250055E+02  0.28606075466E+02  0.28822046121E+03  0.29371609983E+03  0.00000000000E+00 0. -1.
        -13    1    3    3    0    0 -0.50098506429E+02  0.26753878972E+02  0.12438854423E+03  0.13674114348E+03  0.00000000000E+00 0. -1.
         13    1    3    3    0    0  0.22722083022E+02 -0.33226467428E+02  0.74534315118E+02  0.84709239901E+02  0.00000000000E+00 0.  1.
         21    1    1    2  503  502 -0.69212597571E+01  0.38529450540E+02  0.84465902006E+02  0.93096245881E+02  0.00000000000E+00 0. -1.
          1    1    1    2  501    0 -0.46868622528E+02 -0.41307390597E+02  0.99203692639E+02  0.11723626115E+03  0.00000000000E+00 0. -1.
<scales pt_clust_5="13000.00000" pt_clust_6="13000.00000" pt_clust_7="13000.00000" pt_clust_8="13000.00000" pt_clust_9="39.14617" pt_clust_10="57.47823"></scales>
<clustering>
<clus scale="   39.146">  2  9  1 -1</clus>
<clus scale="   57.478">  2 10  1 -1</clus>
<clus scale="   91.195">  5  6 -1 -1</clus>
<clus scale="   93.159">  7  8 -1 -1</clus>
<clus scale="  106.414">  2  5  1 -1</clus>
<clus scale="   39.146">  2  5  1 -1</clus>
</clustering>
</event>
<event>
10    2  0.1671105E-006  0.2327333E+03  0.7546771E-02  0.1124775E+00
          1   -1    0    0  502    0 -0.00000000000E+00  0.00000000000E+00  0.16816747212E+04  0.16816747212E+04  0.00000000000E+00 0. -1.
         21   -1    0    0  503  502  0.00000000000E+00 -0.00000000000E+00 -0.68890483082E+02  0.68890483082E+02  0.00000000000E+00 0. -1.
         23    2    1    2    0    0  0.23503571809E+03 -0.12245651518E+03  0.11673706109E+04  0.12004513228E+04  0.89954702437E+02 0.  0.
         23    2    1    2    0    0 -0.13755084405E+03  0.21799458946E+02  0.23124590965E+03  0.28432681459E+03  0.89283904812E+02 0.  0.
        -11    1    3    3    0    0  0.80469503286E+02 -0.90923293543E+02  0.55033304918E+03  0.56356796510E+03  0.00000000000E+00 0.  1.
         11    1    3    3    0    0  0.15456621480E+03 -0.31533221635E+02  0.61703756168E+03  0.63688335773E+03  0.00000000000E+00 0. -1.
        -13    1    4    4    0    0 -0.61937084840E+02  0.34920390892E+02  0.17584282017E+03  0.18967428288E+03  0.00000000000E+00 0.  1.
         13    1    4    4    0    0 -0.75613759210E+02 -0.13120931946E+02  0.55403089476E+02  0.94652531717E+02  0.00000000000E+00 0. -1.
         21    1    1    2  503  501 -0.61924555302E+02  0.38141554719E+02  0.55192626033E+02  0.91299806758E+02  0.00000000000E+00 0.  1.
          1    1    1    2  501    0 -0.35560318735E+02  0.62515501513E+02  0.15897509161E+03  0.17448726014E+03  0.00000000000E+00 0. -1.
<scales pt_clust_5="13000.00000" pt_clust_6="13000.00000" pt_clust_7="13000.00000" pt_clust_8="13000.00000" pt_clust_9="71.29370" pt_clust_10="157.40062"></scales>
<clustering>
<clus scale="   71.294">  9 10 -1 -1</clus>
<clus scale="   89.284">  7  8 -1 -1</clus>
<clus scale="   89.955">  5  6 -1 -1</clus>
<clus scale="  157.401">  2  9  1 -1</clus>
<clus scale="  232.475">  2  7  1 -1</clus>
<clus scale="  157.401">  2  5  1 -1</clus>
</clustering>
</event>
<event>
10    2  0.1671105E-006  0.1442631E+03  0.7546771E-02  0.1222216E+00
         21   -1    0    0  503  502  0.00000000000E+00  0.00000000000E+00  0.59396364317E+03  0.59396364317E+03  0.00000000000E+00 0.  1.
         -2   -1    0    0    0  501 -0.00000000000E+00 -0.00000000000E+00 -0.16468631077E+03  0.16468631077E+03  0.00000000000E+00 0.  1.
         23    2    1    2    0    0  0.17564544732E+02  0.52948141958E+02 -0.98414806873E+02  0.14566488489E+03  0.91764729112E+02 0.  0.
         23    2    1    2    0    0 -0.57579494192E+02  0.56826320281E+02  0.12647388200E+03  0.17536664706E+03  0.90626647537E+02 0.  0.
        -11    1    4    4    0    0 -0.26521940045E+02 -0.76509057011E+01  0.91765064295E+02  0.95826805680E+02  0.00000000000E+00 0. -1.
         11    1    4    4    0    0 -0.31057554148E+02  0.64477225982E+02  0.34708817709E+02  0.79539841380E+02  0.00000000000E+00 0.  1.
        -13    1    3    3    0    0  0.42992807408E+02  0.62671920564E+02 -0.88587425979E+02  0.11672139117E+03  0.00000000000E+00 0.  1.
         13    1    3    3    0    0 -0.25428262676E+02 -0.97237786057E+01 -0.98273808932E+01  0.28943493713E+02  0.00000000000E+00 0. -1.
         21    1    1    2  503  501 -0.20699641193E+02  0.36810352202E+00  0.41588028599E+01  0.21116493244E+02  0.00000000000E+00 0. -1.
         -2    1    1    2    0  502  0.60714590653E+02 -0.11014256576E+03  0.39705945441E+03  0.41650192875E+03  0.00000000000E+00 0.  1.
<scales pt_clust_5="13000.00000" pt_clust_6="13000.00000" pt_clust_7="13000.00000" pt_clust_8="13000.00000" pt_clust_9="20.70291" pt_clust_10="112.24375"></scales>
<clustering>
<clus scale="   20.703">  2  9  1 -1</clus>
<clus scale="   90.627">  5  6 -1 -1</clus>
<clus scale="   91.765">  7  8 -1 -1</clus>
<clus scale="  106.098">  2  7  1 -1</clus>
<clus scale="  112.244">  1 10  2 -1</clus>
<clus scale="  112.244">  1  5  2 -1</clus>
</clustering>
</event>
<event>
10    2  0.1671105E-006  0.1026791E+03  0.7546771E-02  0.1275475E+00
          1   -1    0    0  503    0 -0.00000000000E+00  0.00000000000E+00  0.27854128046E+03  0.27854128046E+03  0.00000000000E+00 0. -1.
         21   -1    0    0  501  502  0.00000000000E+00 -0.00000000000E+00 -0.95568781946E+02  0.95568781946E+02  0.00000000000E+00 0. -1.
         23    2    1    2    0    0  0.51957566294E+02  0.36714858788E+02  0.83171800279E+02  0.13913785682E+03  0.91620004841E+02 0.  0.
         23    2    1    2    0    0 -0.49928946403E+02 -0.75772037927E-01 -0.75750286860E+01  0.10324475346E+03  0.90051055666E+02 0.  0.
        -11    1    3    3    0    0  0.27797337509E+02 -0.25344055671E+02  0.75400335711E+01  0.38364895890E+02  0.00000000000E+00 0.  1.
         11    1    3    3    0    0  0.24160228784E+02  0.62058914458E+02  0.75631766708E+02  0.10077296093E+03  0.00000000000E+00 0. -1.
        -11    1    4    4    0    0  0.15788929817E+02  0.26341412624E+02  0.55551300598E+01  0.31209290184E+02  0.00000000000E+00 0.  1.
         11    1    4    4    0    0 -0.65717876220E+02 -0.26417184662E+02 -0.13130158746E+02  0.72035463273E+02  0.00000000000E+00 0. -1.
         21    1    1    2  503  502 -0.34097274827E+02 -0.15476200383E+02  0.60054371274E+02  0.70771918429E+02  0.00000000000E+00 0. -1.
          1    1    1    2  501    0  0.32068654936E+02 -0.21162886367E+02  0.47321355652E+02  0.60955533707E+02  0.00000000000E+00 0. -1.
<scales pt_clust_5="13000.00000" pt_clust_6="13000.00000" pt_clust_7="13000.00000" pt_clust_8="13000.00000" pt_clust_9="37.44512" pt_clust_10="34.31645"></scales>
<clustering>
<clus scale="   37.445">  1  9  2 -1</clus>
<clus scale="   34.316">  2 10  1 -1</clus>
<clus scale="   90.051">  7  8 -1 -1</clus>
<clus scale="   91.620">  5  6 -1 -1</clus>
<clus scale="  101.282">  2  7  1 -1</clus>
<clus scale="   34.316">  2  5  1 -1</clus>
</clustering>
</event>
<event>
10    2  0.1671105E-006  0.9419350E+02  0.7546771E-02  0.1294913E+00
         -3   -1    0    0    0  501 -0.00000000000E+00  0.00000000000E+00  0.27914110732E+03  0.27914110732E+03  0.00000000000E+00 0.  1.
         21   -1    0    0  503  502  0.00000000000E+00 -0.00000000000E+00 -0.10598266339E+03  0.10598266339E+03  0.00000000000E+00 0. -1.
         23    2    1    2    0    0  0.34074505069E+02  0.12644076427E+02  0.46191170464E+02  0.11058914924E+03  0.93677057685E+02 0.  0.
         23    2    1    2    0    0 -0.22035601745E+01 -0.65903056055E+01 -0.12044868230E+02  0.91432555832E+02  0.90368941622E+02 0.  0.
        -13    1    3    3    0    0  0.14519103078E+02 -0.36464005774E+02  0.42123426263E+02  0.57574396318E+02  0.00000000000E+00 0.  1.
         13    1    3    3    0    0  0.19555401991E+02  0.49108082201E+02  0.40677442009E+01  0.53014752922E+02  0.00000000000E+00 0. -1.
        -13    1    4    4    0    0 -0.35363867316E+02  0.22873376072E+02 -0.19567838539E+02  0.46440227708E+02  0.00000000000E+00 0. -1.
         13    1    4    4    0    0  0.33160307142E+02 -0.29463681677E+02  0.75229703090E+01  0.44992328124E+02  0.00000000000E+00 0.  1.
         21    1    1    2  503  501 -0.51588169999E+02 -0.37150032298E+02  0.13072092718E+03  0.14535964016E+03  0.00000000000E+00 0.  1.
         -3    1    1    2    0  502  0.19717225105E+02  0.31096261476E+02  0.82912145175E+01  0.37742425489E+02  0.00000000000E+00 0.  1.
<scales pt_clust_5="13000.00000" pt_clust_6="13000.00000" pt_clust_7="13000.00000" pt_clust_8="13000.00000" pt_clust_9="60.84165" pt_clust_10="36.82046"></scales>
<clustering>
<clus scale="   36.820">  2 10  1 -1</clus>
<clus scale="   60.842">  1  9  2 -1</clus>
<clus scale="   90.369">  7  8 -1 -1</clus>
<clus scale="   90.904">  2  7  1 -1</clus>
<clus scale="   93.677">  5  6 -1 -1</clus>
<clus scale="   36.820">  2  5  1 -1</clus>
</clustering>
</event>
<event>
10    2  0.1671105E-006  0.1138061E+03  0.7546771E-02  0.1257365E+00
         -1   -1    0    0    0  501 -0.00000000000E+00  0.00000000000E+00  0.40940946833E+03  0.40940946833E+03  0.00000000000E+00 0.  1.
         21   -1    0    0  503  502  0.00000000000E+00 -0.00000000000E+00 -0.10656829867E+03  0.10656829867E+03  0.00000000000E+00 0. -1.
         23    2    1    2    0    0  0.56017513261E+02  0.91481380467E+02  0.25809455390E+03  0.29332523706E+03  0.88994894120E+02 0.  0.
         23    2    1    2    0    0  0.36241144181E+02 -0.58613572684E+02  0.26336238678E+02  0.10772166007E+03  0.78494503924E+02 0.  0.
        -11    1    3    3    0    0 -0.13606199636E+02  0.58310453131E+02  0.14014337436E+03  0.15239882870E+03  0.00000000000E+00 0.  1.
         11    1    3    3    0    0  0.69623712897E+02  0.33170927336E+02  0.11795117955E+03  0.14092640836E+03  0.00000000000E+00 0. -1.
        -11    1    4    4    0    0 -0.14952547466E+02 -0.39982490562E+02  0.31423954264E+02  0.53006066906E+02  0.00000000000E+00 0.  1.
         11    1    4    4    0    0  0.51193691647E+02 -0.18631082122E+02 -0.50877155861E+01  0.54715593164E+02  0.00000000000E+00 0. -1.
         21    1    1    2  503  501 -0.28217819028E+02 -0.25519261102E+02  0.31212585919E+02  0.49210806919E+02  0.00000000000E+00 0. -1.
         -1    1    1    2    0  502 -0.64040838414E+02 -0.73485466810E+01 -0.12802208840E+02  0.65720062951E+02  0.00000000000E+00 0.  1.
<scales pt_clust_5="13000.00000" pt_clust_6="13000.00000" pt_clust_7="13000.00000" pt_clust_8="13000.00000" pt_clust_9="38.04574" pt_clust_10="66.69751"></scales>
<clustering>
<clus scale="   38.046">  1  9  2 -1</clus>
<clus scale="   66.698">  2 10  1 -1</clus>
<clus scale="   78.495">  7  8 -1 -1</clus>
<clus scale="   88.995">  5  6 -1 -1</clus>
<clus scale="  105.798">  2  7  1 -1</clus>
<clus scale="   66.698">  2  5  1 -1</clus>
</clustering>
</event>
<event>
10    2  0.1671105E-006  0.1705277E+03  0.7546771E-02  0.1177576E+00
         21   -1    0    0  501  502  0.00000000000E+00  0.00000000000E+00  0.44115484285E+03  0.44115484285E+03  0.00000000000E+00 0. -1.
          2   -1    0    0  503    0 -0.00000000000E+00 -0.00000000000E+00 -0.26978692269E+03  0.26978692269E+03  0.00000000000E+00 0. -1.
         23    2    1    2    0    0 -0.17428101037E+02 -0.98161580727E+02 -0.17900263693E+03  0.22377935547E+03  0.89976781837E+02 0.  0.
         23    2    1    2    0    0  0.11303896914E+03  0.95370640389E+02  0.27429703051E+03  0.32491605791E+03  0.91968560672E+02 0.  0.
        -11    1    4    4    0    0  0.55048353058E+02  0.39868525999E+01  0.15144678845E+03  0.16119040263E+03  0.00000000000E+00 0.  1.
         11    1    4    4    0    0  0.57990616077E+02  0.91383787789E+02  0.12285024206E+03  0.16372565528E+03  0.00000000000E+00 0. -1.
        -13    1    3    3    0    0 -0.34294514609E+02 -0.31248139484E+02 -0.13296098040E+03  0.14082323055E+03  0.00000000000E+00 0.  1.
         13    1    3    3    0    0  0.16866413571E+02 -0.66913441244E+02 -0.46041656533E+02  0.82956124922E+02  0.00000000000E+00 0. -1.
         21    1    1    2  503  502 -0.49599287040E+02 -0.43569768866E+02  0.57498132202E+01  0.66268200413E+02  0.00000000000E+00 0.  1.
          2    1    1    2  501    0 -0.46011581058E+02  0.46360709205E+02  0.70323713367E+02  0.95978151739E+02  0.00000000000E+00 0. -1.
<scales pt_clust_5="13000.00000" pt_clust_6="13000.00000" pt_clust_7="13000.00000" pt_clust_8="13000.00000" pt_clust_9="66.74073" pt_clust_10="65.31754"></scales>
<clustering>
<clus scale="   65.318">  1 10  2 -1</clus>
<clus scale="   66.741">  2  9  1 -1</clus>
<clus scale="   89.977">  7  8 -1 -1</clus>
<clus scale="   91.969">  5  6 -1 -1</clus>
<clus scale="  169.462">  2  7  1 -1</clus>
<clus scale="   65.318">  1  5  2 -1</clus>
</clustering>
</event>
<event>
10    2  0.1671105E-006  0.1127569E+03  0.7546771E-02  0.1256408E+00
         21   -1    0    0  503  502  0.00000000000E+00  0.00000000000E+00  0.47492258460E+03  0.47492258460E+03  0.00000000000E+00 0. -1.
          1   -1    0    0  502    0 -0.00000000000E+00 -0.00000000000E+00 -0.17890933716E+03  0.17890933716E+03  0.00000000000E+00 0. -1.
         23    2    1    2    0    0 -0.34425089443E+02  0.67844710340E+02 -0.92145142354E+02  0.15186767712E+03  0.93728718060E+02 0.  0.
         23    2    1    2    0    0  0.85860998686E+02  0.45317810028E+02  0.62530906296E+02  0.14729466403E+03  0.91431880708E+02 0.  0.
        -11    1    4    4    0    0  0.40665241003E+02 -0.82735127465E+01  0.65032840976E+02  0.77145208824E+02  0.00000000000E+00 0.  1.
         11    1    4    4    0    0  0.45195757683E+02  0.53591322774E+02 -0.25019346804E+01  0.70149455211E+02  0.00000000000E+00 0. -1.
        -13    1    3    3    0    0 -0.41817254469E+02 -0.93923338477E+01 -0.37707449472E+02  0.57085466207E+02  0.00000000000E+00 0. -1.
         13    1    3    3    0    0  0.73921650258E+01  0.77237044188E+02 -0.54437692883E+02  0.94782210910E+02  0.00000000000E+00 0.  1.
         21    1    1    2  503  501 -0.18785631720E+02 -0.18074245900E+02  0.15045124058E+03  0.15269300611E+03  0.00000000000E+00 0. -1.
          1    1    1    2  501    0 -0.32650277522E+02 -0.95088274469E+02  0.17517624292E+03  0.20197657450E+03  0.00000000000E+00 0. -1.
<scales pt_clust_5="13000.00000" pt_clust_6="13000.00000" pt_clust_7="13000.00000" pt_clust_8="13000.00000" pt_clust_9="26.06872" pt_clust_10="114.27591"></scales>
<clustering>
<clus scale="   26.069">  1  9  2 -1</clus>
<clus scale="   91.432">  5  6 -1 -1</clus>
<clus scale="   93.729">  7  8 -1 -1</clus>
<clus scale="  114.276">  1 10  2 -1</clus>
<clus scale="  110.855">  1  5  2 -1</clus>
<clus scale="   26.069">  1  5  2 -1</clus>
</clustering>
</event>
<event>
10    2  0.1671105E-006  0.2442057E+03  0.7546771E-02  0.1117082E+00
          1   -1    0    0  503    0 -0.00000000000E+00  0.00000000000E+00  0.21443447875E+04  0.21443447875E+04  0.00000000000E+00 0. -1.
         21   -1    0    0  501  502  0.00000000000E+00 -0.00000000000E+00 -0.84876188691E+02  0.84876188691E+02  0.00000000000E+00 0.  1.
         23    2    1    2    0    0 -0.13352196432E+03 -0.96019761536E+02  0.59834338267E+03  0.62738588416E+03  0.92468018766E+02 0.  0.
         23    2    1    2    0    0  0.24074470611E+03  0.28237882262E+03  0.10756815446E+04  0.11415600677E+04  0.91502949042E+02 0.  0.
        -11    1    3    3    0    0 -0.12046432077E+03 -0.35592391229E+02  0.36585767191E+03  0.38682076856E+03  0.00000000000E+00 0.  1.
         11    1    3    3    0    0 -0.13057643559E+02 -0.60427370307E+02  0.23248571076E+03  0.24056511561E+03  0.00000000000E+00 0. -1.
        -13    1    4    4    0    0  0.63404048400E+02  0.12358161429E+03  0.49123765667E+03  0.51049674248E+03  0.00000000000E+00 0.  1.
         13    1    4    4    0    0  0.17734065771E+03  0.15879720833E+03  0.58444388795E+03  0.63106332520E+03  0.00000000000E+00 0. -1.
         21    1    1    2  503  502 -0.46562766306E+02 -0.16241572300E+03  0.34330962266E+03  0.38263357837E+03  0.00000000000E+00 0. -1.
          1    1    1    2  501    0 -0.60659975480E+02 -0.23943338084E+02  0.42134048880E+02  0.77641446012E+02  0.00000000000E+00 0. -1.
<scales pt_clust_5="13000.00000" pt_clust_6="13000.00000" pt_clust_7="13000.00000" pt_clust_8="13000.00000" pt_clust_9="181.23156" pt_clust_10="65.21439"></scales>
<clustering>
<clus scale="   65.214">  2 10  1 -1</clus>
<clus scale="   91.503">  7  8 -1 -1</clus>
<clus scale="   92.468">  5  6 -1 -1</clus>
<clus scale="  181.232">  2  9  1 -1</clus>
<clus scale="  243.842">  2  7  1 -1</clus>
<clus scale="   65.214">  2  5  1 -1</clus>
</clustering>
</event>
<event>
10    2  0.1671105E-006  0.1500972E+03  0.7546771E-02  0.1217338E+00
          2   -1    0    0  502    0 -0.00000000000E+00  0.00000000000E+00  0.34127917232E+03  0.34127917232E+03  0.00000000000E+00 0. -1.
         21   -1    0    0  503  502  0.00000000000E+00 -0.00000000000E+00 -0.13465685577E+03  0.13465685577E+03  0.00000000000E+00 0. -1.
         23    2    1    2    0    0 -0.11062471697E+02 -0.46469545076E+02  0.13754196463E+03  0.17265445196E+03  0.92789928586E+02 0.  0.
         23    2    1    2    0    0 -0.79223773647E+02 -0.45500125330E+02  0.97305882232E+02  0.16337605546E+03  0.94215885422E+02 0.  0.
        -11    1    4    4    0    0  0.14749492605E+02 -0.20568878028E+02 -0.70836518982E+00  0.25320506644E+02  0.00000000000E+00 0.  1.
         11    1    4    4    0    0 -0.93973266252E+02 -0.24931247302E+02  0.98014247422E+02  0.13805554882E+03  0.00000000000E+00 0. -1.
        -11    1    3    3    0    0  0.34820548489E+02  0.42277123301E+01  0.36237735421E+02  0.50433298693E+02  0.00000000000E+00 0.  1.
         11    1    3    3    0    0 -0.45883020186E+02 -0.50697257406E+02  0.10130422921E+03  0.12222115326E+03  0.00000000000E+00 0. -1.
         21    1    1    2  503  501  0.25236275286E+02  0.14304676519E+01 -0.18573024874E+01  0.25344928498E+02  0.00000000000E+00 0. -1.
          2    1    1    2  501    0  0.65049970058E+02  0.90539202754E+02 -0.26368227824E+02  0.11456059217E+03  0.00000000000E+00 0. -1.
<scales pt_clust_5="13000.00000" pt_clust_6="13000.00000" pt_clust_7="13000.00000" pt_clust_8="13000.00000" pt_clust_9="22.16498" pt_clust_10="125.77517"></scales>
<clustering>
<clus scale="   22.165">  9 10 -1 -1</clus>
<clus scale="   92.790">  7  8 -1 -1</clus>
<clus scale="   94.216">  5  6 -1 -1</clus>
<clus scale="  104.364">  1  7  2 -1</clus>
<clus scale="  125.775">  2  9  1 -1</clus>
<clus scale="  125.775">  2  5  1 -1</clus>
</clustering>
</event>
<event>
10    2  0.1671105E-006  0.1239655E+03  0.7546771E-02  0.1237195E+00
         21   -1    0    0  501  502  0.00000000000E+00  0.00000000000E+00  0.48125985347E+03  0.48125985347E+03  0.00000000000E+00 0. -1.
          3   -1    0    0  503    0 -0.00000000000E+00 -0.00000000000E+00 -0.16818349221E+03  0.16818349221E+03  0.00000000000E+00 0. -1.
         23    2    1    2    0    0  0.19157058372E+02 -0.10843489261E+03 -0.55161735264E+02  0.15310629555E+03  0.90959341892E+02 0.  0.
         23    2    1    2    0    0 -0.80064468399E+02 -0.52544003149E+02  0.17250315232E+03  0.21797363594E+03  0.92649754641E+02 0.  0.
        -11    1    3    3    0    0 -0.32486462980E+01 -0.46153485776E+02  0.22179517807E+02  0.51309150863E+02  0.00000000000E+00 0.  1.
         11    1    3    3    0    0  0.22405704670E+02 -0.62281406834E+02 -0.77341253071E+02  0.10179714468E+03  0.00000000000E+00 0. -1.
        -13    1    4    4    0    0 -0.34930031458E+02  0.24093268234E+02  0.39498996847E+02  0.57972091767E+02  0.00000000000E+00 0.  1.
         13    1    4    4    0    0 -0.45134436941E+02 -0.76637271383E+02  0.13300415548E+03  0.16000154417E+03  0.00000000000E+00 0. -1.
         21    1    1    2  503  502  0.75052178128E+02  0.68918048330E+02  0.12580081134E+03  0.16188999648E+03  0.00000000000E+00 0. -1.
          3    1    1    2  501    0 -0.14144768100E+02  0.92060847430E+02  0.69934132857E+02  0.11647341771E+03  0.00000000000E+00 0. -1.
<scales pt_clust_5="13000.00000" pt_clust_6="13000.00000" pt_clust_7="13000.00000" pt_clust_8="13000.00000" pt_clust_9="124.46374" pt_clust_10="93.14115"></scales>
<clustering>
<clus scale="   90.959">  5  6 -1 -1</clus>
<clus scale="   92.650">  7  8 -1 -1</clus>
<clus scale="   93.141">  1 10  2 -1</clus>
<clus scale="  124.464">  1  9  2 -1</clus>
<clus scale="  122.707">  2  5  1 -1</clus>
<clus scale="   93.141">  1  5  2 -1</clus>
</clustering>
</event>
<event>
10    2  0.1671105E-006  0.1028677E+03  0.7546771E-02  0.1274854E+00
         21   -1    0    0  503  502  0.00000000000E+00  0.00000000000E+00  0.32765063908E+03  0.32765063908E+03  0.00000000000E+00 0. -1.
          1   -1    0    0  502    0 -0.00000000000E+00 -0.00000000000E+00 -0.72700675379E+02  0.72700675379E+02  0.00000000000E+00 0. -1.
         23    2    1    2    0    0  0.14996102778E+02 -0.15617081351E+02  0.81317627525E+02  0.12324837994E+03  0.90049043768E+02 0.  0.
         23    2    1    2    0    0 -0.88979062152E+02  0.13965435939E+02  0.11891893349E+03  0.17479770159E+03  0.91105525821E+02 0.  0.
        -11    1    3    3    0    0  0.24275613922E+02 -0.48956693695E+02  0.33069143788E+02  0.63871993548E+02  0.00000000000E+00 0. -1.
         11    1    3    3    0    0 -0.92795111440E+01  0.33339612344E+02  0.48248483738E+02  0.59376386395E+02  0.00000000000E+00 0.  1.
        -11    1    4    4    0    0  0.79451711238E+01  0.27764967339E+02  0.17173956814E+02  0.33600058753E+02  0.00000000000E+00 0.  1.
         11    1    4    4    0    0 -0.96924233276E+02 -0.13799531400E+02  0.10174497668E+03  0.14119764284E+03  0.00000000000E+00 0. -1.
         21    1    1    2  503  501  0.35922566990E+02 -0.45681726116E+01  0.52367987876E+02  0.63668714251E+02  0.00000000000E+00 0. -1.
          1    1    1    2  501    0  0.38060392384E+02  0.62198180240E+01  0.23454148032E+01  0.38636518674E+02  0.00000000000E+00 0. -1.
<scales pt_clust_5="13000.00000" pt_clust_6="13000.00000" pt_clust_7="13000.00000" pt_clust_8="13000.00000" pt_clust_9="36.21186" pt_clust_10="41.21096"></scales>
<clustering>
<clus scale="   36.212">  1  9  2 -1</clus>
<clus scale="   41.211">  1 10  2 -1</clus>
<clus scale="   90.049">  5  6 -1 -1</clus>
<clus scale="   91.106">  7  8 -1 -1</clus>
<clus scale="  101.933">  2  5  1 -1</clus>
<clus scale="   36.212">  1  5  2 -1</clus>
</clustering>
</event>
<event>
10    2  0.1671105E-006  0.2024293E+03  0.7546771E-02  0.1147752E+00
         21   -1    0    0  503  502  0.00000000000E+00  0.00000000000E+00  0.85204879818E+02  0.85204879818E+02  0.00000000000E+00 0.  1.
         -1   -1    0    0    0  501 -0.00000000000E+00 -0.00000000000E+00 -0.13882391051E+04  0.13882391051E+04  0.00000000000E+00 0.  1.
         23    2    1    2    0    0  0.23480777523E+02  0.12824917115E+03 -0.40060597807E+03  0.43121302456E+03  0.91980030831E+02 0.  0.
         23    2    1    2    0    0 -0.10501970471E+03 -0.22780398946E+03 -0.83873740197E+03  0.88031496324E+03  0.92467340489E+02 0.  0.
        -11    1    3    3    0    0 -0.23436515099E+02  0.63080781123E+00 -0.65713328767E+02  0.69770407309E+02  0.00000000000E+00 0.  1.
         11    1    3    3    0    0  0.46917292621E+02  0.12761836334E+03 -0.33489264930E+03  0.36144261725E+03  0.00000000000E+00 0. -1.
        -13    1    4    4    0    0 -0.29184878482E+01 -0.26457708891E+02 -0.27586175140E+02  0.38334383912E+02  0.00000000000E+00 0. -1.
         13    1    4    4    0    0 -0.10210121687E+03 -0.20134628056E+03 -0.81115122683E+03  0.84198057933E+03  0.00000000000E+00 0.  1.
         21    1    1    2  503  501  0.73264981509E+02  0.41102567569E+02 -0.14878013469E+02  0.85314323892E+02  0.00000000000E+00 0.  1.
         -1    1    1    2    0  502  0.82739456819E+01  0.58452250734E+02 -0.48812831744E+02  0.76601673192E+02  0.00000000000E+00 0.  1.
<scales pt_clust_5="13000.00000" pt_clust_6="13000.00000" pt_clust_7="13000.00000" pt_clust_8="13000.00000" pt_clust_9="104.30281" pt_clust_10="59.03494"></scales>
<clustering>
<clus scale="   59.035">  1 10  2 -1</clus>
<clus scale="   91.980">  5  6 -1 -1</clus>
<clus scale="   92.467">  7  8 -1 -1</clus>
<clus scale="  104.303">  1  9  2 -1</clus>
<clus scale="  202.207">  2  5  1 -1</clus>
<clus scale="   59.035">  1  5  2 -1</clus>
</clustering>
</event>
<event>
10    2  0.1671105E-006  0.1061978E+03  0.7546771E-02  0.1269561E+00
          2   -1    0    0  503    0 -0.00000000000E+00  0.00000000000E+00  0.15826629555E+03  0.15826629555E+03  0.00000000000E+00 0. -1.
         21   -1    0    0  501  502  0.00000000000E+00 -0.00000000000E+00 -0.15611392775E+03  0.15611392775E+03  0.00000000000E+00 0. -1.
         23    2    1    2    0    0 -0.15801780943E+02  0.49933292407E+02  0.81822758180E+02  0.13487764888E+03  0.93562740661E+02 0.  0.
         23    2    1    2    0    0  0.40494123776E+02 -0.29150399905E+02 -0.79845409033E+02  0.12986682311E+03  0.89445975457E+02 0.  0.
        -11    1    3    3    0    0  0.23127714803E+02 -0.13784963059E+02  0.42960936483E+02  0.50700675164E+02  0.00000000000E+00 0.  1.
         11    1    3    3    0    0 -0.38929495746E+02  0.63718255466E+02  0.38861821697E+02  0.84176973718E+02  0.00000000000E+00 0. -1.
        -11    1    4    4    0    0 -0.22958500148E+02 -0.20433041037E+02 -0.46380953318E+01  0.31082371585E+02  0.00000000000E+00 0.  1.
         11    1    4    4    0    0  0.63452623924E+02 -0.87173588679E+01 -0.75207313701E+02  0.98784451522E+02  0.00000000000E+00 0. -1.
         21    1    1    2  503  502 -0.35833985208E+01 -0.23532671812E+02 -0.10268925711E+02  0.25924471505E+02  0.00000000000E+00 0.  1.
          2    1    1    2  501    0 -0.21108944312E+02  0.27497793093E+01  0.10443944357E+02  0.23711279804E+02  0.00000000000E+00 0. -1.
<scales pt_clust_5="13000.00000" pt_clust_6="13000.00000" pt_clust_7="13000.00000" pt_clust_8="13000.00000" pt_clust_9="23.99825" pt_clust_10="21.28730"></scales>
<clustering>
<clus scale="   21.287">  2 10  1 -1</clus>
<clus scale="   23.998">  2  9  1 -1</clus>
<clus scale="   89.446">  7  8 -1 -1</clus>
<clus scale="   93.563">  5  6 -1 -1</clus>
<clus scale="  102.589">  2  7  1 -1</clus>
<clus scale="   21.287">  2  5  1 -1</clus>
</clustering>
</event>
<event>
10    2  0.1671105E-006  0.1000051E+03  0.7546771E-02  0.1282939E+00
          2   -1    0    0  502    0 -0.00000000000E+00  0.00000000000E+00  0.71316082533E+03  0.71316082533E+03  0.00000000000E+00 0. -1.
         21   -1    0    0  503  502  0.00000000000E+00 -0.00000000000E+00 -0.33432290215E+02  0.33432290215E+02  0.00000000000E+00 0. -1.
         23    2    1    2    0    0 -0.90202056893E+01 -0.22186413821E+02  0.30624880362E+03  0.32160818550E+03  0.95235992140E+02 0.  0.
         23    2    1    2    0    0  0.71211990120E+02 -0.20049516567E+01  0.14529862970E+03  0.18519777382E+03  0.90063068275E+02 0.  0.
        -13    1    4    4    0    0 -0.39032261032E+01  0.20967268572E+02  0.15448713335E+01  0.21383361588E+02  0.00000000000E+00 0.  1.
         13    1    4    4    0    0  0.75115216223E+02 -0.22972220228E+02  0.14375375837E+03  0.16381441223E+03  0.00000000000E+00 0. -1.
        -13    1    3    3    0    0  0.13792438423E+02  0.32918596175E+02  0.79447480878E+02  0.87096311917E+02  0.00000000000E+00 0.  1.
         13    1    3    3    0    0 -0.22812644112E+02 -0.55105009996E+02  0.22680132274E+03  0.23451187359E+03  0.00000000000E+00 0. -1.
         21    1    1    2  503  501 -0.21167585469E+02 -0.34688029626E+01  0.10244141216E+03  0.10466299344E+03  0.00000000000E+00 0. -1.
          2    1    1    2  501    0 -0.41024198961E+02  0.27660168441E+02  0.12573968964E+03  0.13512416278E+03  0.00000000000E+00 0. -1.
<scales pt_clust_5="13000.00000" pt_clust_6="13000.00000" pt_clust_7="13000.00000" pt_clust_8="13000.00000" pt_clust_9="20.59332" pt_clust_10="73.69715"></scales>
<clustering>
<clus scale="   20.593">  9 10 -1 -1</clus>
<clus scale="   73.697">  2  9  1 -1</clus>
<clus scale="   90.063">  5  6 -1 -1</clus>
<clus scale="   95.092">  2  5  1 -1</clus>
<clus scale="   95.236">  7  8 -1 -1</clus>
<clus scale="   73.697">  2  5  1 -1</clus>
</clustering>
</event>
<event>
10    2  0.1671105E-006  0.3474985E+03  0.7546771E-02  0.1063704E+00
          1   -1    0    0  502    0 -0.00000000000E+00  0.00000000000E+00  0.13358279840E+04  0.13358279840E+04  0.00000000000E+00 0. -1.
         21   -1    0    0  503  502  0.00000000000E+00 -0.00000000000E+00 -0.19818678735E+03  0.19818678735E+03  0.00000000000E+00 0. -1.
         23    2    1    2    0    0 -0.23471118323E+03  0.29107661662E+03  0.83933897596E+03  0.92358287709E+03  0.93276352922E+02 0.  0.
         23    2    1    2    0    0  0.97837840659E+02 -0.27448730940E+03  0.34486397707E+03  0.46061121951E+03  0.91192142050E+02 0.  0.
        -11    1    4    4    0    0  0.91725717898E+02 -0.12184170446E+03  0.16766656191E+03  0.22665190106E+03  0.00000000000E+00 0. -1.
         11    1    4    4    0    0  0.61121227614E+01 -0.15264560494E+03  0.17719741516E+03  0.23395931845E+03  0.00000000000E+00 0.  1.
        -13    1    3    3    0    0 -0.18160229030E+02  0.75744586418E+02  0.13444289398E+03  0.15537672938E+03  0.00000000000E+00 0.  1.
         13    1    3    3    0    0 -0.21655095420E+03  0.21533203020E+03  0.70489608198E+03  0.76820614771E+03  0.00000000000E+00 0. -1.
         21    1    1    2  503  501  0.65034626863E+02  0.67048762806E+01 -0.32461831313E+02  0.72994715900E+02  0.00000000000E+00 0. -1.
          1    1    1    2  501    0  0.71838715703E+02 -0.23294183495E+02 -0.14099925098E+02  0.76825958805E+02  0.00000000000E+00 0. -1.
<scales pt_clust_5="13000.00000" pt_clust_6="13000.00000" pt_clust_7="13000.00000" pt_clust_8="13000.00000" pt_clust_9="33.14129" pt_clust_10="142.40168"></scales>
<clustering>
<clus scale="   33.141">  9 10 -1 -1</clus>
<clus scale="   91.192">  5  6 -1 -1</clus>
<clus scale="   93.276">  7  8 -1 -1</clus>
<clus scale="  142.402">  2  9  1 -1</clus>
<clus scale="  346.945">  2  5  1 -1</clus>
<clus scale="  142.402">  2  5  1 -1</clus>
</clustering>
</event>
<event>
10    2  0.1671105E-006  0.9155706E+02  0.7546771E-02  0.1299384E+00
         21   -1    0    0  503  502  0.00000000000E+00  0.00000000000E+00  0.70172666172E+03  0.70172666172E+03  0.00000000000E+00 0.  1.
         -1   -1    0    0    0  501 -0.00000000000E+00 -0.00000000000E+00 -0.14273377532E+03  0.14273377532E+03  0.00000000000E+00 0.  1.
         23    2    1    2    0    0  0.10232474289E+02  0.31914048462E+02 -0.62969978692E+02  0.11522825298E+03  0.90493768016E+02 0.  0.
         23    2    1    2    0    0  0.23115714833E+02  0.24209796649E+02  0.13576996449E+02  0.97025450097E+02  0.90050833467E+02 0.  0.
        -13    1    3    3    0    0 -0.35801360654E+02 -0.63794069841E+01 -0.19765581730E+02  0.41389762977E+02  0.00000000000E+00 0. -1.
         13    1    3    3    0    0  0.46033834943E+02  0.38293455446E+02 -0.43204396961E+02  0.73838490006E+02  0.00000000000E+00 0.  1.
        -13    1    4    4    0    0 -0.27297378561E+02  0.35033240879E+02  0.84504779859E+01  0.45209351035E+02  0.00000000000E+00 0.  1.
         13    1    4    4    0    0  0.50413093394E+02 -0.10823444231E+02  0.51265184629E+01  0.51816099063E+02  0.00000000000E+00 0. -1.
         21    1    1    2  503  501  0.12532040918E+02  0.47440884804E+02  0.10045064824E+03  0.11179455413E+03  0.00000000000E+00 0.  1.
         -1    1    1    2    0  502 -0.45880230039E+02 -0.10356472991E+03  0.50793522040E+03  0.52041217983E+03  0.00000000000E+00 0.  1.
<scales pt_clust_5="13000.00000" pt_clust_6="13000.00000" pt_clust_7="13000.00000" pt_clust_8="13000.00000" pt_clust_9="49.06821" pt_clust_10="71.75872"></scales>
<clustering>
<clus scale="   49.068">  1  9  2 -1</clus>
<clus scale="   71.759">  1 10  2 -1</clus>
<clus scale="   90.051">  7  8 -1 -1</clus>
<clus scale="   90.494">  5  6 -1 -1</clus>
<clus scale="   91.119">  1  7  2 -1</clus>
<clus scale="   49.068">  1  5  2 -1</clus>
</clustering>
</event>
<event>
10    2  0.1671105E-006  0.9297391E+02  0.7546771E-02  0.1300968E+00
          2   -1    0    0  503    0 -0.00000000000E+00  0.00000000000E+00  0.39282353438E+03  0.39282353438E+03  0.00000000000E+00 0. -1.
         21   -1    0    0  501  502  0.00000000000E+00 -0.00000000000E+00 -0.83425937450E+02  0.83425937450E+02  0.00000000000E+00 0.  1.
         23    2    1    2    0    0 -0.19782405895E+02 -0.62599620147E+01  0.25024501096E+03  0.26712880052E+03  0.91130125924E+02 0.  0.
         23    2    1    2    0    0  0.68284129205E+01 -0.58940096211E+02  0.39227238158E+02  0.10891432857E+03  0.82480255757E+02 0.  0.
        -11    1    4    4    0    0 -0.71051443369E+01 -0.31392100322E+02 -0.22926032878E+02  0.39516452551E+02  0.00000000000E+00 0.  1.
         11    1    4    4    0    0  0.13933557257E+02 -0.27547995889E+02  0.62153271036E+02  0.69397876018E+02  0.00000000000E+00 0. -1.
        -11    1    3    3    0    0  0.25828794818E+02  0.26133083812E+02  0.11643623714E+03  0.12209611800E+03  0.00000000000E+00 0.  1.
         11    1    3    3    0    0 -0.45611200714E+02 -0.32393045827E+02  0.13380877382E+03  0.14503268252E+03  0.00000000000E+00 0. -1.
         21    1    1    2  503  502  0.34818084494E+02  0.12570703138E+02  0.22211491259E+02  0.43170266726E+02  0.00000000000E+00 0.  1.
          2    1    1    2  501    0 -0.21864091520E+02  0.52629355088E+02 -0.22861434481E+01  0.57036076012E+02  0.00000000000E+00 0. -1.
<scales pt_clust_5="13000.00000" pt_clust_6="13000.00000" pt_clust_7="13000.00000" pt_clust_8="13000.00000" pt_clust_9="37.01785" pt_clust_10="58.25280"></scales>
<clustering>
<clus scale="   37.018">  2  9  1 -1</clus>
<clus scale="   58.253">  2 10  1 -1</clus>
<clus scale="   82.480">  5  6 -1 -1</clus>
<clus scale="   84.513">  2  5  1 -1</clus>
<clus scale="   91.130">  7  8 -1 -1</clus>
<clus scale="   37.018">  2  5  1 -1</clus>
</clustering>
</event>
<event>
10    2  0.1671105E-006  0.1150577E+03  0.7546771E-02  0.1252078E+00
         21   -1    0    0  503  502  0.00000000000E+00  0.00000000000E+00  0.26637510326E+02  0.26637510326E+02  0.00000000000E+00 0.  1.
          1   -1    0    0  502    0 -0.00000000000E+00 -0.00000000000E+00 -0.80806629744E+03  0.80806629744E+03  0.00000000000E+00 0. -1.
         23    2    1    2    0    0  0.54443467476E+02 -0.95470549809E+01 -0.28758214907E+03  0.30626335876E+03  0.89657766210E+02 0.  0.
         23    2    1    2    0    0 -0.88208591389E+02 -0.28483321382E+02 -0.35418102582E+03  0.37734126139E+03  0.91379282691E+02 0.  0.
        -11    1    3    3    0    0  0.13002561786E+02  0.38630054734E+02 -0.92235489865E+02  0.10084013751E+03  0.00000000000E+00 0. -1.
         11    1    3    3    0    0  0.41440905690E+02 -0.48177109715E+02 -0.19534665921E+03  0.20542322125E+03  0.00000000000E+00 0.  1.
        -13    1    4    4    0    0 -0.15587891218E+02  0.29905857699E+02 -0.13551639022E+03  0.13964968563E+03  0.00000000000E+00 0. -1.
         13    1    4    4    0    0 -0.72620700171E+02 -0.58389179081E+02 -0.21866463560E+03  0.23769157576E+03  0.00000000000E+00 0.  1.
         21    1    1    2  503  501  0.74552247777E+01  0.28650967630E+02 -0.76755067989E+02  0.82266632268E+02  0.00000000000E+00 0. -1.
          1    1    1    2  501    0  0.26309899135E+02  0.93794087328E+01 -0.62910544238E+02  0.68832555357E+02  0.00000000000E+00 0. -1.
<scales pt_clust_5="13000.00000" pt_clust_6="13000.00000" pt_clust_7="13000.00000" pt_clust_8="13000.00000" pt_clust_9="26.38886" pt_clust_10="57.65831"></scales>
<clustering>
<clus scale="   26.389">  9 10 -1 -1</clus>
<clus scale="   57.658">  1  9  2 -1</clus>
<clus scale="   89.658">  5  6 -1 -1</clus>
<clus scale="   91.379">  7  8 -1 -1</clus>
<clus scale="  113.695">  2  5  1 -1</clus>
<clus scale="   57.658">  1  5  2 -1</clus>
</clustering>
</event>
<event>
10    2  0.1671105E-006  0.1896902E+03  0.7546771E-02  0.1158948E+00
         21   -1    0    0  501  502  0.00000000000E+00  0.00000000000E+00  0.34070088840E+02  0.34070088840E+02  0.00000000000E+00 0.  1.
          2   -1    0    0  503    0 -0.00000000000E+00 -0.00000000000E+00 -0.17417793113E+04  0.17417793113E+04  0.00000000000E+00 0. -1.
         23    2    1    2    0    0  0.15532189428E+03 -0.21631406516E+02 -0.78564098164E+03  0.80658648741E+03  0.93579917974E+02 0.  0.
         23    2    1    2    0    0 -0.17248613051E+03  0.25092777662E+02 -0.80259106072E+03  0.82640445388E+03  0.91710402541E+02 0.  0.
        -11    1    4    4    0    0 -0.68385576209E+02 -0.30488614957E+02 -0.39679418580E+03  0.40379669211E+03  0.00000000000E+00 0. -1.
         11    1    4    4    0    0 -0.10410055430E+03  0.55581392619E+02 -0.40579687492E+03  0.42260776176E+03  0.00000000000E+00 0.  1.
        -11    1    3    3    0    0  0.29527518567E+02  0.51735320967E+01 -0.40285224903E+02  0.50214929379E+02  0.00000000000E+00 0.  1.
         11    1    3    3    0    0  0.12579437571E+03 -0.26804938612E+02 -0.74535575674E+03  0.75637155803E+03  0.00000000000E+00 0. -1.
         21    1    1    2  503  502  0.10804752861E+02 -0.32672100670E+02 -0.21865347886E+02  0.40771341464E+02  0.00000000000E+00 0.  1.
          2    1    1    2  501    0  0.63594833746E+01  0.29210729524E+02 -0.97611832196E+02  0.10208711737E+03  0.00000000000E+00 0. -1.
<scales pt_clust_5="13000.00000" pt_clust_6="13000.00000" pt_clust_7="13000.00000" pt_clust_8="13000.00000" pt_clust_9="27.14786" pt_clust_10="29.89498"></scales>
<clustering>
<clus scale="   29.895">  1 10  2 -1</clus>
<clus scale="   27.148">  1  9  2 -1</clus>
<clus scale="   91.710">  5  6 -1 -1</clus>
<clus scale="   93.580">  7  8 -1 -1</clus>
<clus scale="  188.775">  1  5  2 -1</clus>
<clus scale="   29.895">  1  5  2 -1</clus>
</clustering>
</event>
<event>
10    2  0.1671105E-006  0.1377054E+03  0.7546771E-02  0.1217191E+00
          1   -1    0    0  502    0 -0.00000000000E+00  0.00000000000E+00  0.58948495692E+03  0.58948495692E+03  0.00000000000E+00 0. -1.
         21   -1    0    0  503  502  0.00000000000E+00 -0.00000000000E+00 -0.17360923839E+03  0.17360923839E+03  0.00000000000E+00 0. -1.
         23    2    1    2    0    0  0.85413054356E+02  0.51053764441E+02  0.41888773343E+03  0.43978246930E+03  0.89664989668E+02 0.  0.
         23    2    1    2    0    0 -0.38403203939E+02 -0.16436510519E+03 -0.19060864388E+02  0.19359178967E+03  0.92864259004E+02 0.  0.
        -11    1    3    3    0    0  0.17515796479E+02  0.58880995154E+02  0.25332489676E+03  0.26066698686E+03  0.00000000000E+00 0. -1.
         11    1    3    3    0    0  0.67897257876E+02 -0.78272307135E+01  0.16556283667E+03  0.17911548245E+03  0.00000000000E+00 0.  1.
        -11    1    4    4    0    0 -0.48374050647E+02 -0.14210423201E+03  0.15911849909E+02  0.15095313345E+03  0.00000000000E+00 0. -1.
         11    1    4    4    0    0  0.99708467087E+01 -0.22260873174E+02 -0.34972714297E+02  0.42638656216E+02  0.00000000000E+00 0.  1.
         21    1    1    2  503  501 -0.17166983942E+02  0.42086846276E+02  0.25173665752E+02  0.51958843468E+02  0.00000000000E+00 0. -1.
          1    1    1    2  501    0 -0.29842866474E+02  0.71224494472E+02 -0.91248162575E+01  0.77761092867E+02  0.00000000000E+00 0. -1.
<scales pt_clust_5="13000.00000" pt_clust_6="13000.00000" pt_clust_7="13000.00000" pt_clust_8="13000.00000" pt_clust_9="29.91392" pt_clust_10="128.72333"></scales>
<clustering>
<clus scale="   29.914">  9 10 -1 -1</clus>
<clus scale="   89.665">  5  6 -1 -1</clus>
<clus scale="   92.864">  7  8 -1 -1</clus>
<clus scale="  128.723">  2  9  1 -1</clus>
<clus scale="  135.568">  1  5  2 -1</clus>
<clus scale="  128.723">  2  5  1 -1</clus>
</clustering>
</event>
<event>
10    2  0.1671105E-006  0.1024348E+03  0.7546771E-02  0.1275363E+00
         21   -1    0    0  501  502  0.00000000000E+00  0.00000000000E+00  0.30545561875E+03  0.30545561875E+03  0.00000000000E+00 0. -1.
          1   -1    0    0  503    0 -0.00000000000E+00 -0.00000000000E+00 -0.14911611421E+03  0.14911611421E+03  0.00000000000E+00 0. -1.
         23    2    1    2    0    0  0.73712392469E+01  0.55564636112E+02 -0.85898087388E+02  0.13720383638E+03  0.91129837843E+02 0.  0.
         23    2    1    2    0    0 -0.24417945790E+02 -0.13872803679E+02  0.50131038517E+02  0.10753617357E+03  0.90896737259E+02 0.  0.
        -11    1    4    4    0    0  0.25283701428E+02  0.21169534138E+02  0.26457416866E+02  0.42277767688E+02  0.00000000000E+00 0. -1.
         11    1    4    4    0    0 -0.49701647218E+02 -0.35042337817E+02  0.23673621651E+02  0.65258405879E+02  0.00000000000E+00 0.  1.
        -13    1    3    3    0    0 -0.20245968347E+02  0.71770464550E+02 -0.54559818398E+02  0.92399527054E+02  0.00000000000E+00 0. -1.
         13    1    3    3    0    0  0.27617207594E+02 -0.16205828438E+02 -0.31338268990E+02  0.44804309323E+02  0.00000000000E+00 0.  1.
         21    1    1    2  503  502  0.39589582338E+02 -0.33898321695E+02  0.81929523744E+02  0.97102410394E+02  0.00000000000E+00 0. -1.
          1    1    1    2  501    0 -0.22542875795E+02 -0.77935107379E+01  0.11017702966E+03  0.11272931262E+03  0.00000000000E+00 0. -1.
<scales pt_clust_5="13000.00000" pt_clust_6="13000.00000" pt_clust_7="13000.00000" pt_clust_8="13000.00000" pt_clust_9="47.51593" pt_clust_10="23.85205"></scales>
<clustering>
<clus scale="   23.852">  1 10  2 -1</clus>
<clus scale="   47.516">  1  9  2 -1</clus>
<clus scale="   90.897">  5  6 -1 -1</clus>
<clus scale="   91.130">  7  8 -1 -1</clus>
<clus scale="  102.227">  1  5  2 -1</clus>
<clus scale="   23.852">  1  5  2 -1</clus>
</clustering>
</event>
<event>
10    2  0.1671105E-006  0.1179082E+03  0.7546771E-02  0.1247015E+00
          1   -1    0    0  503    0 -0.00000000000E+00  0.00000000000E+00  0.80578395375E+02  0.80578395375E+02  0.00000000000E+00 0. -1.
         21   -1    0    0  501  502  0.00000000000E+00 -0.00000000000E+00 -0.43430616552E+03  0.43430616552E+03  0.00000000000E+00 0.  1.
         23    2    1    2    0    0 -0.79950951206E+02  0.26933028169E+02 -0.23654970870E+02  0.13103691739E+03  0.97434970451E+02 0.  0.
         23    2    1    2    0    0  0.33656893502E+02 -0.13423415457E+02 -0.10971434173E+03  0.15035818221E+03  0.96215235868E+02 0.  0.
        -11    1    4    4    0    0  0.91831093218E+01  0.41076632076E+02 -0.55722560299E+02  0.69832821265E+02  0.00000000000E+00 0. -1.
         11    1    4    4    0    0  0.24473784180E+02 -0.54500047532E+02 -0.53991781433E+02  0.80525360946E+02  0.00000000000E+00 0.  1.
        -11    1    3    3    0    0 -0.99390675089E+02  0.64063574572E+01 -0.25160697648E+02  0.10272588971E+03  0.00000000000E+00 0.  1.
         11    1    3    3    0    0  0.19439723882E+02  0.20526670711E+02  0.15057267780E+01  0.28311027679E+02  0.00000000000E+00 0. -1.
         21    1    1    2  503  502  0.25181922973E+02  0.21311361621E+02 -0.13415870663E+03  0.13815520962E+03  0.00000000000E+00 0.  1.
          1    1    1    2  501    0  0.21112134731E+02 -0.34820974333E+02 -0.86199750914E+02  0.95334251684E+02  0.00000000000E+00 0. -1.
<scales pt_clust_5="13000.00000" pt_clust_6="13000.00000" pt_clust_7="13000.00000" pt_clust_8="13000.00000" pt_clust_9="32.98944" pt_clust_10="40.38512"></scales>
<clustering>
<clus scale="   32.989">  2  9  1 -1</clus>
<clus scale="   40.385">  2 10  1 -1</clus>
<clus scale="   96.215">  5  6 -1 -1</clus>
<clus scale="   97.435">  7  8 -1 -1</clus>
<clus scale="  116.902">  2  5  1 -1</clus>
<clus scale="   32.989">  2  5  1 -1</clus>
</clustering>
</event>
<event>
10    2  0.1671105E-006  0.4846572E+03  0.7546771E-02  0.1048939E+00
         21   -1    0    0  503  502  0.00000000000E+00  0.00000000000E+00  0.58227682850E+03  0.58227682850E+03  0.00000000000E+00 0. -1.
          2   -1    0    0  502    0 -0.00000000000E+00 -0.00000000000E+00 -0.80085454872E+03  0.80085454872E+03  0.00000000000E+00 0. -1.
         23    2    1    2    0    0  0.17005697481E+03  0.25457131198E+02 -0.79877346529E+02  0.20969769920E+03  0.89584007222E+02 0.  0.
         23    2    1    2    0    0  0.42142917566E+03 -0.19396914187E+02  0.19711598536E+03  0.47476763785E+03  0.92578657815E+02 0.  0.
        -11    1    3    3    0    0  0.24371277210E+02  0.26846261880E+02  0.11116308547E+02  0.37924309427E+02  0.00000000000E+00 0.  1.
         11    1    3    3    0    0  0.14568569760E+03 -0.13891306824E+01 -0.90993655076E+02  0.17177338977E+03  0.00000000000E+00 0. -1.
        -13    1    4    4    0    0  0.11753497723E+03  0.31807831894E+02  0.76659118115E+02  0.14388477832E+03  0.00000000000E+00 0.  1.
         13    1    4    4    0    0  0.30389419843E+03 -0.51204746081E+02  0.12045686724E+03  0.33088285952E+03  0.00000000000E+00 0. -1.
         21    1    1    2  503  501 -0.74366393965E+02  0.79234590400E+01  0.11377238283E+02  0.75647758099E+02  0.00000000000E+00 0.  1.
          2    1    1    2  501    0 -0.51711975651E+03 -0.13983676051E+02 -0.34719359733E+03  0.62301828207E+03  0.00000000000E+00 0. -1.
<scales pt_clust_5="13000.00000" pt_clust_6="13000.00000" pt_clust_7="13000.00000" pt_clust_8="13000.00000" pt_clust_9="60.67994" pt_clust_10="60.67994"></scales>
<clustering>
<clus scale="   60.680">  9 10 -1 -1</clus>
<clus scale="   89.584">  5  6 -1 -1</clus>
<clus scale="   92.579">  7  8 -1 -1</clus>
<clus scale="  193.888">  2  5  1 -1</clus>
<clus scale="  466.899">  2  7  1 -1</clus>
<clus scale="  484.657">  1  5  2 -1</clus>
</clustering>
</event>
<event>
10    2  0.1671105E-006  0.9515969E+02  0.7546771E-02  0.1291374E+00
         21   -1    0    0  501  502  0.00000000000E+00  0.00000000000E+00  0.17493733862E+03  0.17493733862E+03  0.00000000000E+00 0. -1.
          2   -1    0    0  503    0 -0.00000000000E+00 -0.00000000000E+00 -0.36882008154E+03  0.36882008154E+03  0.00000000000E+00 0. -1.
         23    2    1    2    0    0  0.16631561066E+02  0.62387945899E+01 -0.28013653560E+03  0.29568304631E+03  0.92932523473E+02 0.  0.
         23    2    1    2    0    0 -0.32925393895E+02 -0.16665703345E+01 -0.39844463135E+02  0.10547139540E+03  0.91922657628E+02 0.  0.
        -11    1    4    4    0    0 -0.54575281665E+02 -0.22411646533E+02 -0.45694685942E+01  0.59174515734E+02  0.00000000000E+00 0.  1.
         11    1    4    4    0    0  0.21649887770E+02  0.20745076198E+02 -0.35274994541E+02  0.46296879666E+02  0.00000000000E+00 0. -1.
        -13    1    3    3    0    0 -0.32673256503E+02  0.59275211740E+01 -0.19057510047E+03  0.19344649419E+03  0.00000000000E+00 0.  1.
         13    1    3    3    0    0  0.49304817569E+02  0.31127341585E+00 -0.89561435131E+02  0.10223655212E+03  0.00000000000E+00 0. -1.
         21    1    1    2  503  502  0.55262213901E+01 -0.34236882953E+02  0.58632421057E+02  0.68120951816E+02  0.00000000000E+00 0. -1.
          2    1    1    2  501    0  0.10767611439E+02  0.29664658698E+02  0.67465834753E+02  0.74482026628E+02  0.00000000000E+00 0. -1.
<scales pt_clust_5="13000.00000" pt_clust_6="13000.00000" pt_clust_7="13000.00000" pt_clust_8="13000.00000" pt_clust_9="20.17665" pt_clust_10="31.55841"></scales>
<clustering>
<clus scale="   31.558">  1 10  2 -1</clus>
<clus scale="   20.177">  1  9  2 -1</clus>
<clus scale="   91.923">  5  6 -1 -1</clus>
<clus scale="   92.933">  7  8 -1 -1</clus>
<clus scale="   94.174">  1  5  2 -1</clus>
<clus scale="   31.558">  1  5  2 -1</clus>
</clustering>
</event>
<event>
10    2  0.3507122E-006  0.2353761E+03  0.7546771E-02  0.1137376E+00
         -2   -1    0    0    0  501 -0.00000000000E+00  0.00000000000E+00  0.10197934280E+04  0.10197934280E+04  0.00000000000E+00 0.  1.
         21   -1    0    0  503  502  0.00000000000E+00 -0.00000000000E+00 -0.12543184475E+04  0.12543184475E+04  0.00000000000E+00 0.  1.
         23    2    1    2    0    0  0.53638940424E+02  0.12713599420E+03  0.33680746354E+03  0.37498094072E+03  0.90170624150E+02 0.  0.
         23    2    1    2    0    0 -0.11810600846E+02 -0.33927101923E+03  0.59752781286E+03  0.69252703184E+03  0.85497882482E+02 0.  0.
        -11    1    3    3    0    0  0.39292854690E+02  0.24975383077E+01  0.79327206217E+02  0.88560554275E+02  0.00000000000E+00 0.  1.
         11    1    3    3    0    0  0.14346085733E+02  0.12463845589E+03  0.25748025732E+03  0.28642038645E+03  0.00000000000E+00 0. -1.
        -13    1    4    4    0    0 -0.28356190635E+02 -0.66261405220E+02  0.17428625192E+03  0.18860102062E+03  0.00000000000E+00 0. -1.
         13    1    4    4    0    0  0.16545589789E+02 -0.27300961401E+03  0.42324156094E+03  0.50392601123E+03  0.00000000000E+00 0.  1.
         21    1    1    2  503  501  0.19213338333E+02  0.69134342189E+01 -0.22890364904E+01  0.20547204935E+02  0.00000000000E+00 0.  1.
         -2    1    1    2    0  502 -0.61041677911E+02  0.20522159081E+03 -0.11665712593E+04  0.11860566980E+04  0.00000000000E+00 0.  1.
<scales pt_clust_5="13000.00000" pt_clust_6="13000.00000" pt_clust_7="13000.00000" pt_clust_8="13000.00000" pt_clust_9="20.41930" pt_clust_10="219.29896"></scales>
<clustering>
<clus scale="   20.419">  2  9  1 -1</clus>
<clus scale="   85.498">  7  8 -1 -1</clus>
<clus scale="   90.171">  5  6 -1 -1</clus>
<clus scale="  165.016">  1  5  2 -1</clus>
<clus scale="  219.299">  2 10  1 -1</clus>
<clus scale="   20.419">  2  5  1 -1</clus>
</clustering>
</event>
<event>
10    2  0.1671105E-006  0.1717470E+03  0.7546771E-02  0.1205339E+00
         21   -1    0    0  503  502  0.00000000000E+00  0.00000000000E+00  0.21752343789E+03  0.21752343789E+03  0.00000000000E+00 0. -1.
          1   -1    0    0  502    0 -0.00000000000E+00 -0.00000000000E+00 -0.32355293567E+03  0.32355293567E+03  0.00000000000E+00 0. -1.
         23    2    1    2    0    0 -0.69345126281E+01  0.19611587302E+02  0.18755213479E+02  0.91888627793E+02  0.87516056030E+02 0.  0.
         23    2    1    2    0    0  0.39523294479E+02 -0.15786628144E+03 -0.20708014479E+03  0.27888295554E+03  0.91704214186E+02 0.  0.
        -11    1    4    4    0    0 -0.21177911650E+02 -0.27895594011E+02 -0.12596477028E+02  0.37220146972E+02  0.00000000000E+00 0.  1.
         11    1    4    4    0    0  0.60701206129E+02 -0.12997068743E+03 -0.19448366776E+03  0.24166280856E+03  0.00000000000E+00 0. -1.
        -13    1    3    3    0    0 -0.17510493276E+02  0.50202316994E+02  0.25276360907E+02  0.58870913251E+02  0.00000000000E+00 0.  1.
         13    1    3    3    0    0  0.10575980648E+02 -0.30590729692E+02 -0.65211474277E+01  0.33017714542E+02  0.00000000000E+00 0. -1.
         21    1    1    2  503  501 -0.19113301546E+02  0.54493098533E+02  0.58479375095E+02  0.82186698407E+02  0.00000000000E+00 0. -1.
          1    1    1    2  501    0 -0.13475480305E+02  0.83761595607E+02  0.23816058437E+02  0.88118091829E+02  0.00000000000E+00 0. -1.
<scales pt_clust_5="13000.00000" pt_clust_6="13000.00000" pt_clust_7="13000.00000" pt_clust_8="13000.00000" pt_clust_9="37.39860" pt_clust_10="152.12546"></scales>
<clustering>
<clus scale="   37.399">  9 10 -1 -1</clus>
<clus scale="   87.516">  7  8 -1 -1</clus>
<clus scale="   89.954">  2  7  1 -1</clus>
<clus scale="   91.704">  5  6 -1 -1</clus>
<clus scale="  152.125">  1  9  2 -1</clus>
<clus scale="  152.125">  1  5  2 -1</clus>
</clustering>
</event>
<event>
10    2  0.1671105E-006  0.1606478E+03  0.7546771E-02  0.1188602E+00
         21   -1    0    0  503  502  0.00000000000E+00  0.00000000000E+00  0.41933688032E+02  0.41933688032E+02  0.00000000000E+00 0.  1.
          2   -1    0    0  502    0 -0.00000000000E+00 -0.00000000000E+00 -0.10323343989E+04  0.10323343989E+04  0.00000000000E+00 0. -1.
         23    2    1    2    0    0 -0.11669989662E+03  0.53555264111E+02 -0.63988049248E+03  0.65862344490E+03  0.88604544642E+02 0.  0.
         23    2    1    2    0    0  0.14340046303E+03 -0.17141954601E+02 -0.25367385904E+03  0.30622666251E+03  0.92557023844E+02 0.  0.
        -13    1    3    3    0    0 -0.84558293565E+02  0.63232145896E+02 -0.58374864668E+03  0.59322077829E+03  0.00000000000E+00 0. -1.
         13    1    3    3    0    0 -0.32141603050E+02 -0.96768817857E+01 -0.56131845799E+02  0.65402666616E+02  0.00000000000E+00 0.  1.
        -13    1    4    4    0    0  0.17467656496E+02  0.30589788644E+02 -0.36822159200E+02  0.50958076895E+02  0.00000000000E+00 0. -1.
         13    1    4    4    0    0  0.12593280654E+03 -0.47731743245E+02 -0.21685169984E+03  0.25526858561E+03  0.00000000000E+00 0.  1.
         21    1    1    2  503  501 -0.60444701717E+01 -0.26610347274E+02 -0.62007664828E+02  0.67746562268E+02  0.00000000000E+00 0.  1.
          2    1    1    2  501    0 -0.20656096246E+02 -0.98029622354E+01 -0.34838694528E+02  0.41671417268E+02  0.00000000000E+00 0. -1.
<scales pt_clust_5="13000.00000" pt_clust_6="13000.00000" pt_clust_7="13000.00000" pt_clust_8="13000.00000" pt_clust_9="21.54938" pt_clust_10="50.92226"></scales>
<clustering>
<clus scale="   21.549">  9 10 -1 -1</clus>
<clus scale="   50.922">  1  9  2 -1</clus>
<clus scale="   88.605">  5  6 -1 -1</clus>
<clus scale="   92.557">  7  8 -1 -1</clus>
<clus scale="  158.404">  2  5  1 -1</clus>
<clus scale="   50.922">  1  5  2 -1</clus>
</clustering>
</event>
<event>
10    2  0.1671105E-006  0.1392799E+03  0.7546771E-02  0.1217939E+00
         21   -1    0    0  501  502  0.00000000000E+00  0.00000000000E+00  0.10439121098E+03  0.10439121098E+03  0.00000000000E+00 0. -1.
          1   -1    0    0  503    0 -0.00000000000E+00 -0.00000000000E+00 -0.63685885222E+03  0.63685885222E+03  0.00000000000E+00 0. -1.
         23    2    1    2    0    0 -0.21675202830E+02 -0.80184121373E+02 -0.38313855157E+03  0.40543187702E+03  0.10334674388E+03 0.  0.
         23    2    1    2    0    0  0.10613099333E+03  0.92409262022E+02 -0.16802701044E+03  0.23654181254E+03  0.88970182580E+02 0.  0.
        -11    1    4    4    0    0  0.26598240444E+02 -0.45464872946E+01 -0.76980750897E+02  0.81573114137E+02  0.00000000000E+00 0. -1.
         11    1    4    4    0    0  0.79532752887E+02  0.96955749316E+02 -0.91046259548E+02  0.15496869840E+03  0.00000000000E+00 0.  1.
        -13    1    3    3    0    0 -0.48415248577E+02 -0.13760257943E+02 -0.84726275700E+02  0.98549088212E+02  0.00000000000E+00 0. -1.
         13    1    3    3    0    0  0.26740045746E+02 -0.66423863430E+02 -0.29841227587E+03  0.30688278881E+03  0.00000000000E+00 0.  1.
         21    1    1    2  503  502 -0.23025783259E+02 -0.44203824688E+01 -0.15913052304E+02  0.28336402550E+02  0.00000000000E+00 0.  1.
          1    1    1    2  501    0 -0.61430007242E+02 -0.78047581795E+01  0.34610973085E+02  0.70939971087E+02  0.00000000000E+00 0. -1.
<scales pt_clust_5="13000.00000" pt_clust_6="13000.00000" pt_clust_7="13000.00000" pt_clust_8="13000.00000" pt_clust_9="23.44625" pt_clust_10="74.50616"></scales>
<clustering>
<clus scale="   23.446">  1  9  2 -1</clus>
<clus scale="   74.506">  1 10  2 -1</clus>
<clus scale="   88.970">  5  6 -1 -1</clus>
<clus scale="  103.347">  7  8 -1 -1</clus>
<clus scale="  128.973">  1  5  2 -1</clus>
<clus scale="   23.446">  1  5  2 -1</clus>
</clustering>
</event>
<event>
10    2  0.1671105E-006  0.1003115E+03  0.7546771E-02  0.1279901E+00
         21   -1    0    0  501  502  0.00000000000E+00  0.00000000000E+00  0.19286325814E+03  0.19286325814E+03  0.00000000000E+00 0.  1.
          2   -1    0    0  503    0 -0.00000000000E+00 -0.00000000000E+00 -0.14258958826E+03  0.14258958826E+03  0.00000000000E+00 0. -1.
         23    2    1    2    0    0  0.68642547370E+02  0.13900753596E+02  0.40427449147E+02  0.12032804920E+03  0.89103482091E+02 0.  0.
         23    2    1    2    0    0 -0.43450128017E+01 -0.44056021921E+02  0.38670103931E+02  0.10628291915E+03  0.88548685822E+02 0.  0.
        -11    1    4    4    0    0  0.19035825896E+02 -0.59716672161E+02  0.45345959521E+02  0.77360840523E+02  0.00000000000E+00 0.  1.
         11    1    4    4    0    0 -0.23380838697E+02  0.15660650240E+02 -0.66758555905E+01  0.28922078625E+02  0.00000000000E+00 0. -1.
        -13    1    3    3    0    0 -0.19316690105E+01  0.38438900071E+02  0.16463245523E+02  0.41860707555E+02  0.00000000000E+00 0. -1.
         13    1    3    3    0    0  0.70574216380E+02 -0.24538146475E+02  0.23964203624E+02  0.78467341649E+02  0.00000000000E+00 0.  1.
         21    1    1    2  503  502 -0.58508520877E+02  0.54334630557E+02 -0.18769424160E+02  0.82023108794E+02  0.00000000000E+00 0. -1.
          2    1    1    2  501    0 -0.57890136912E+01 -0.24179362232E+02 -0.10054459044E+02  0.26818769251E+02  0.00000000000E+00 0. -1.
<scales pt_clust_5="13000.00000" pt_clust_6="13000.00000" pt_clust_7="13000.00000" pt_clust_8="13000.00000" pt_clust_9="77.84177" pt_clust_10="24.86272"></scales>
<clustering>
<clus scale="   24.863">  1 10  2 -1</clus>
<clus scale="   77.842">  2  9  1 -1</clus>
<clus scale="   88.549">  5  6 -1 -1</clus>
<clus scale="   89.103">  7  8 -1 -1</clus>
<clus scale="   99.819">  1  5  2 -1</clus>
<clus scale="   24.863">  1  5  2 -1</clus>
</clustering>
</event>
<event>
10    2  0.1671105E-006  0.2969521E+03  0.7546771E-02  0.1086777E+00
          1   -1    0    0  503    0 -0.00000000000E+00  0.00000000000E+00  0.29063589239E+03  0.29063589239E+03  0.00000000000E+00 0. -1.
         21   -1    0    0  501  502  0.00000000000E+00 -0.00000000000E+00 -0.42861859984E+03  0.42861859984E+03  0.00000000000E+00 0. -1.
         23    2    1    2    0    0  0.19218119932E+03  0.16272332362E+03 -0.82502387641E+02  0.28061086019E+03  0.92321814689E+02 0.  0.
         23    2    1    2    0    0 -0.24744637360E+03 -0.19631225576E+03 -0.85615291506E+02  0.34005000573E+03  0.92389494469E+02 0.  0.
        -11    1    3    3    0    0  0.64008365315E+02  0.99354386276E+01 -0.41736983014E+02  0.77056859021E+02  0.00000000000E+00 0. -1.
         11    1    3    3    0    0  0.12817283401E+03  0.15278788499E+03 -0.40765404627E+02  0.20355400117E+03  0.00000000000E+00 0.  1.
        -13    1    4    4    0    0 -0.11341355982E+03 -0.35258610970E+02 -0.19660705119E+02  0.12038417057E+03  0.00000000000E+00 0.  1.
         13    1    4    4    0    0 -0.13403281378E+03 -0.16105364479E+03 -0.65954586387E+02  0.21966583516E+03  0.00000000000E+00 0. -1.
         21    1    1    2  503  502  0.37774956365E+02 -0.11388943816E+02 -0.37415296240E+01  0.39631482606E+02  0.00000000000E+00 0. -1.
          1    1    1    2  501    0  0.17490217911E+02  0.44977875958E+02  0.33876501324E+02  0.58962143705E+02  0.00000000000E+00 0. -1.
<scales pt_clust_5="13000.00000" pt_clust_6="13000.00000" pt_clust_7="13000.00000" pt_clust_8="13000.00000" pt_clust_9="39.45447" pt_clust_10="49.23987"></scales>
<clustering>
<clus scale="   39.454">  1  9  2 -1</clus>
<clus scale="   49.240">  2 10  1 -1</clus>
<clus scale="   92.322">  5  6 -1 -1</clus>
<clus scale="   92.389">  7  8 -1 -1</clus>
<clus scale="  296.931">  1  5  2 -1</clus>
<clus scale="   49.240">  2  5  1 -1</clus>
</clustering>
</event>
<event>
10    2  0.1671105E-006  0.1449955E+03  0.7546771E-02  0.1206933E+00
         -1   -1    0    0    0  501 -0.00000000000E+00  0.00000000000E+00  0.30979522390E+03  0.30979522390E+03  0.00000000000E+00 0.  1.
         21   -1    0    0  501  502  0.00000000000E+00 -0.00000000000E+00 -0.15318119033E+03  0.15318119033E+03  0.00000000000E+00 0.  1.
         23    2    1    2    0    0  0.42863988352E+02  0.10411624980E+03  0.11270169360E+03  0.18332840359E+03  0.90719991468E+02 0.  0.
         23    2    1    2    0    0  0.57240752545E+02 -0.12809711890E+03  0.24291337924E+02  0.16929303923E+03  0.91567944234E+02 0.  0.
        -13    1    3    3    0    0  0.66384105057E+02  0.46968550250E+02  0.50934445381E+02  0.95954217433E+02  0.00000000000E+00 0.  1.
         13    1    3    3    0    0 -0.23520116705E+02  0.57147699551E+02  0.61767248224E+02  0.87374186159E+02  0.00000000000E+00 0. -1.
        -13    1    4    4    0    0  0.82160401499E+02 -0.95686981752E+02  0.24140843310E+02  0.12840993095E+03  0.00000000000E+00 0.  1.
         13    1    4    4    0    0 -0.24919648954E+02 -0.32410137147E+02  0.15049461377E+00  0.40883108278E+02  0.00000000000E+00 0. -1.
         21    1    1    2  503  502 -0.52128834435E+02 -0.52584732441E+01  0.10510816337E+02  0.53437292039E+02  0.00000000000E+00 0. -1.
         -1    1    1    2    0  503 -0.47975906462E+02  0.29239342342E+02  0.91101857108E+01  0.56917679373E+02  0.00000000000E+00 0.  1.
<scales pt_clust_5="13000.00000" pt_clust_6="13000.00000" pt_clust_7="13000.00000" pt_clust_8="13000.00000" pt_clust_9="33.41295" pt_clust_10="108.59667"></scales>
<clustering>
<clus scale="   33.413">  9 10 -1 -1</clus>
<clus scale="   90.720">  5  6 -1 -1</clus>
<clus scale="   91.568">  7  8 -1 -1</clus>
<clus scale="  108.597">  2  9  1 -1</clus>
<clus scale="  144.462">  1  5  2 -1</clus>
<clus scale="  108.597">  2  5  1 -1</clus>
</clustering>
</event>
<event>
10    2  0.1671105E-006  0.1205492E+03  0.7546771E-02  0.1243114E+00
         21   -1    0    0  503  502  0.00000000000E+00  0.00000000000E+00  0.49255127485E+03  0.49255127485E+03  0.00000000000E+00 0.  1.
         -1   -1    0    0    0  501 -0.00000000000E+00 -0.00000000000E+00 -0.24317683320E+03  0.24317683320E+03  0.00000000000E+00 0.  1.
         23    2    1    2    0    0  0.60556455094E+02 -0.42000321640E+02 -0.18153820497E+03  0.21661534002E+03  0.92384925157E+02 0.  0.
         23    2    1    2    0    0 -0.77645021111E+02  0.74876764360E+02  0.10114961670E+03  0.17283103162E+03  0.89465308295E+02 0.  0.
        -11    1    4    4    0    0 -0.31336055328E+02  0.56186756054E+02  0.50518948697E+01  0.64532329581E+02  0.00000000000E+00 0.  1.
         11    1    4    4    0    0 -0.46308965784E+02  0.18690008306E+02  0.96097721835E+02  0.10829870204E+03  0.00000000000E+00 0. -1.
        -13    1    3    3    0    0 -0.24899508393E+02 -0.10431053256E+02 -0.44941160278E+02  0.52426141164E+02  0.00000000000E+00 0. -1.
         13    1    3    3    0    0  0.85455963487E+02 -0.31569268384E+02 -0.13659704469E+03  0.16418919885E+03  0.00000000000E+00 0.  1.
         21    1    1    2  503  501  0.24048265613E+02  0.23842580488E+02  0.47761917297E+02  0.58549026185E+02  0.00000000000E+00 0.  1.
         -1    1    1    2    0  502 -0.69596995958E+01 -0.56719023209E+02  0.28200111262E+03  0.28773271022E+03  0.00000000000E+00 0.  1.
<scales pt_clust_5="13000.00000" pt_clust_6="13000.00000" pt_clust_7="13000.00000" pt_clust_8="13000.00000" pt_clust_9="33.86425" pt_clust_10="42.15459"></scales>
<clustering>
<clus scale="   33.864">  1  9  2 -1</clus>
<clus scale="   42.155">  1 10  2 -1</clus>
<clus scale="   89.465">  5  6 -1 -1</clus>
<clus scale="   92.385">  7  8 -1 -1</clus>
<clus scale="  118.327">  1  5  2 -1</clus>
<clus scale="   33.864">  1  5  2 -1</clus>
</clustering>
</event>
<event>
10    2  0.1671105E-006  0.1024947E+03  0.7546771E-02  0.1276572E+00
         -3   -1    0    0    0  501 -0.00000000000E+00  0.00000000000E+00  0.19903365547E+03  0.19903365547E+03  0.00000000000E+00 0.  1.
         21   -1    0    0  503  502  0.00000000000E+00 -0.00000000000E+00 -0.17048256607E+03  0.17048256607E+03  0.00000000000E+00 0. -1.
         23    2    1    2    0    0  0.37853872986E+02  0.62657564070E+02  0.92400332780E+02  0.14898559424E+03  0.91104334456E+02 0.  0.
         23    2    1    2    0    0 -0.22048585710E+02  0.20900038062E+02 -0.83249934476E+02  0.12486466817E+03  0.87964095198E+02 0.  0.
        -11    1    3    3    0    0 -0.28732552502E+02  0.30512464549E+02  0.24204353482E+02  0.48398561896E+02  0.00000000000E+00 0. -1.
         11    1    3    3    0    0  0.66586425488E+02  0.32145099521E+02  0.68195979298E+02  0.10058703234E+03  0.00000000000E+00 0.  1.
        -11    1    4    4    0    0 -0.47184207738E+02  0.15859729423E+02 -0.15046943922E+02  0.52002797988E+02  0.00000000000E+00 0.  1.
         11    1    4    4    0    0  0.25135622027E+02  0.50403086388E+01 -0.68202990553E+02  0.72861870181E+02  0.00000000000E+00 0. -1.
         21    1    1    2  503  501 -0.17611856920E+02 -0.10318520172E+02  0.46263424617E+01  0.20929701558E+02  0.00000000000E+00 0.  1.
         -3    1    1    2    0  502  0.18065696450E+01 -0.73239081960E+02  0.14774348634E+02  0.74736257585E+02  0.00000000000E+00 0.  1.
<scales pt_clust_5="13000.00000" pt_clust_6="13000.00000" pt_clust_7="13000.00000" pt_clust_8="13000.00000" pt_clust_9="20.41199" pt_clust_10="75.75739"></scales>
<clustering>
<clus scale="   20.412">  1  9  2 -1</clus>
<clus scale="   75.757">  2 10  1 -1</clus>
<clus scale="   87.964">  7  8 -1 -1</clus>
<clus scale="   91.104">  5  6 -1 -1</clus>
<clus scale="   99.714">  2  7  1 -1</clus>
<clus scale="   75.757">  2  5  1 -1</clus>
</clustering>
</event>
<event>
10    2  0.1671105E-006  0.1437552E+03  0.7546771E-02  0.1226586E+00
          2   -1    0    0  502    0 -0.00000000000E+00  0.00000000000E+00  0.12816580907E+03  0.12816580907E+03  0.00000000000E+00 0. -1.
         21   -1    0    0  503  502  0.00000000000E+00 -0.00000000000E+00 -0.31383635452E+03  0.31383635452E+03  0.00000000000E+00 0.  1.
         23    2    1    2    0    0  0.11247861951E+02  0.32093670674E+02  0.28250814747E+02  0.10188642842E+03  0.91794431563E+02 0.  0.
         23    2    1    2    0    0 -0.11425994783E+03 -0.37474563584E+02 -0.12303454616E+03  0.19566205496E+03  0.93201188882E+02 0.  0.
        -11    1    4    4    0    0 -0.96986895848E+02 -0.63357086621E+02 -0.73601635869E+02  0.13725078941E+03  0.00000000000E+00 0.  1.
         11    1    4    4    0    0 -0.17273051983E+02  0.25882523036E+02 -0.49432910289E+02  0.58411265550E+02  0.00000000000E+00 0. -1.
        -13    1    3    3    0    0  0.44589026346E+02 -0.39344398203E+01  0.27998504547E+02  0.52797512669E+02  0.00000000000E+00 0. -1.
         13    1    3    3    0    0 -0.33341164395E+02  0.36028110494E+02  0.25231020092E+00  0.49088915749E+02  0.00000000000E+00 0.  1.
         21    1    1    2  503  501  0.17964194349E+02 -0.15117827236E+02 -0.28901524440E+02  0.37236529026E+02  0.00000000000E+00 0. -1.
          2    1    1    2  501    0  0.85047891531E+02  0.20498720146E+02 -0.61985289605E+02  0.10721715119E+03  0.00000000000E+00 0. -1.
<scales pt_clust_5="13000.00000" pt_clust_6="13000.00000" pt_clust_7="13000.00000" pt_clust_8="13000.00000" pt_clust_9="22.97044" pt_clust_10="118.08939"></scales>
<clustering>
<clus scale="   22.970">  9 10 -1 -1</clus>
<clus scale="   91.794">  7  8 -1 -1</clus>
<clus scale="   93.201">  5  6 -1 -1</clus>
<clus scale="   97.891">  1  7  2 -1</clus>
<clus scale="  118.089">  2  9  1 -1</clus>
<clus scale="  118.089">  2  5  1 -1</clus>
</clustering>
</event>
<event>
10    2  0.1671105E-006  0.2606072E+03  0.7546771E-02  0.1128190E+00
         21   -1    0    0  503  502  0.00000000000E+00  0.00000000000E+00  0.66532453686E+02  0.66532453686E+02  0.00000000000E+00 0. -1.
          2   -1    0    0  502    0 -0.00000000000E+00 -0.00000000000E+00 -0.18464273626E+04  0.18464273626E+04  0.00000000000E+00 0. -1.
         23    2    1    2    0    0 -0.11906734545E+03  0.25746125217E+02 -0.52818047425E+03  0.54966517088E+03  0.91199183032E+02 0.  0.
         23    2    1    2    0    0 -0.16734270907E+03 -0.43940454587E+02 -0.81953327708E+03  0.84241814730E+03  0.89995537851E+02 0.  0.
        -11    1    4    4    0    0 -0.15241804503E+02  0.14315941476E+02 -0.32056124251E+02  0.38273409658E+02  0.00000000000E+00 0.  1.
         11    1    4    4    0    0 -0.15210090457E+03 -0.58256396063E+02 -0.78747715283E+03  0.80414473765E+03  0.00000000000E+00 0. -1.
        -13    1    3    3    0    0 -0.12563986268E+03  0.30664396438E+01 -0.47736299976E+03  0.49362963007E+03  0.00000000000E+00 0. -1.
         13    1    3    3    0    0  0.65725172243E+01  0.22679685573E+02 -0.50817474488E+02  0.56035540808E+02  0.00000000000E+00 0.  1.
         21    1    1    2  503  501  0.55718613911E+02  0.62665966339E+01 -0.54753593965E+02  0.78369574591E+02  0.00000000000E+00 0. -1.
          2    1    1    2  501    0  0.23069144061E+03  0.11927732736E+02 -0.37742756367E+03  0.44250692356E+03  0.00000000000E+00 0. -1.
<scales pt_clust_5="13000.00000" pt_clust_6="13000.00000" pt_clust_7="13000.00000" pt_clust_8="13000.00000" pt_clust_9="22.95045" pt_clust_10="248.97172"></scales>
<clustering>
<clus scale="   22.950">  9 10 -1 -1</clus>
<clus scale="   89.996">  5  6 -1 -1</clus>
<clus scale="   91.199">  7  8 -1 -1</clus>
<clus scale="  152.175">  2  7  1 -1</clus>
<clus scale="  248.972">  1  9  2 -1</clus>
<clus scale="  248.972">  1  5  2 -1</clus>
</clustering>
</event>
<event>
10    2  0.1671105E-006  0.2573612E+03  0.7546771E-02  0.1115786E+00
          1   -1    0    0  502    0 -0.00000000000E+00  0.00000000000E+00  0.20897909537E+04  0.20897909537E+04  0.00000000000E+00 0. -1.
         21   -1    0    0  503  502  0.00000000000E+00 -0.00000000000E+00 -0.11395436799E+03  0.11395436799E+03  0.00000000000E+00 0. -1.
         23    2    1    2    0    0 -0.16537351987E+00 -0.19638741422E+03  0.11414455403E+03  0.24362939750E+03  0.88080987139E+02 0.  0.
         23    2    1    2    0    0  0.22492666809E+03  0.23575756000E+03  0.14242459452E+04  0.14638028147E+04  0.89825023710E+02 0.  0.
        -11    1    3    3    0    0  0.33058530620E+02 -0.34426593964E+02  0.40663707133E+02  0.62702423370E+02  0.00000000000E+00 0.  1.
         11    1    3    3    0    0 -0.33223904139E+02 -0.16196082026E+03  0.73480846900E+02  0.18092697413E+03  0.00000000000E+00 0. -1.
        -13    1    4    4    0    0  0.58949839244E+02  0.12446952814E+03  0.54471326810E+03  0.56185433292E+03  0.00000000000E+00 0.  1.
         13    1    4    4    0    0  0.16597682885E+03  0.11128803187E+03  0.87953267706E+03  0.90194848177E+03  0.00000000000E+00 0. -1.
         21    1    1    2  503  501 -0.52253217839E+02  0.86908670963E+01  0.72407782346E+02  0.89715198766E+02  0.00000000000E+00 0. -1.
          1    1    1    2  501    0 -0.17250807673E+03 -0.48061012876E+02  0.36503830423E+03  0.40659791078E+03  0.00000000000E+00 0. -1.
<scales pt_clust_5="13000.00000" pt_clust_6="13000.00000" pt_clust_7="13000.00000" pt_clust_8="13000.00000" pt_clust_9="29.28838" pt_clust_10="247.11577"></scales>
<clustering>
<clus scale="   29.288">  9 10 -1 -1</clus>
<clus scale="   88.081">  5  6 -1 -1</clus>
<clus scale="   89.825">  7  8 -1 -1</clus>
<clus scale="  215.236">  1  5  2 -1</clus>
<clus scale="  247.116">  2  9  1 -1</clus>
<clus scale="  247.116">  2  5  1 -1</clus>
</clustering>
</event>
<event>
10    2  0.1671105E-006  0.9878098E+02  0.7546771E-02  0.1286055E+00
         21   -1    0    0  503  502  0.00000000000E+00  0.00000000000E+00  0.11214700251E+03  0.11214700251E+03  0.00000000000E+00 0. -1.
          2   -1    0    0  502    0 -0.00000000000E+00 -0.00000000000E+00 -0.25537325649E+03  0.25537325649E+03  0.00000000000E+00 0. -1.
         23    2    1    2    0    0 -0.23005460939E+02 -0.26918918977E+02 -0.16903215312E+03  0.19755567874E+03  0.95929651229E+02 0.  0.
         23    2    1    2    0    0  0.59802679728E+01 -0.33974030521E+02  0.49741643646E+01  0.96509262278E+02  0.89996094579E+02 0.  0.
        -13    1    3    3    0    0  0.21543432727E+01  0.34488140309E+02 -0.43426425658E+02  0.55497094179E+02  0.00000000000E+00 0.  1.
         13    1    3    3    0    0 -0.25159804212E+02 -0.61407059286E+02 -0.12560572746E+03  0.14205858456E+03  0.00000000000E+00 0. -1.
        -13    1    4    4    0    0 -0.37729930077E+02 -0.36576673215E+02  0.41706431503E+01  0.52714276163E+02  0.00000000000E+00 0. -1.
         13    1    4    4    0    0  0.43710198050E+02  0.26026426933E+01  0.80352121430E+00  0.43794986116E+02  0.00000000000E+00 0.  1.
         21    1    1    2  503  501  0.19045253922E+02  0.37451903699E+02 -0.21328312080E-01  0.42016273544E+02  0.00000000000E+00 0. -1.
          2    1    1    2  501    0 -0.20200609556E+01  0.23441045799E+02  0.20853063086E+02  0.31439044427E+02  0.00000000000E+00 0. -1.
<scales pt_clust_5="13000.00000" pt_clust_6="13000.00000" pt_clust_7="13000.00000" pt_clust_8="13000.00000" pt_clust_9="23.23284" pt_clust_10="70.43950"></scales>
<clustering>
<clus scale="   23.233">  9 10 -1 -1</clus>
<clus scale="   70.439">  1  9  2 -1</clus>
<clus scale="   89.996">  7  8 -1 -1</clus>
<clus scale="   93.029">  1  7  2 -1</clus>
<clus scale="   95.930">  5  6 -1 -1</clus>
<clus scale="   70.439">  1  5  2 -1</clus>
</clustering>
</event>
<event>
10    2  0.1671105E-006  0.1610052E+03  0.7546771E-02  0.1188281E+00
          1   -1    0    0  503    0 -0.00000000000E+00  0.00000000000E+00  0.30896940231E+03  0.30896940231E+03  0.00000000000E+00 0. -1.
         21   -1    0    0  501  502  0.00000000000E+00 -0.00000000000E+00 -0.15000846194E+03  0.15000846194E+03  0.00000000000E+00 0.  1.
         23    2    1    2    0    0 -0.10348815111E+03 -0.59273783942E+02  0.12550631585E+03  0.19809232327E+03  0.96257749500E+02 0.  0.
         23    2    1    2    0    0  0.96750562159E+02  0.11668734053E+03  0.62707253265E+02  0.18805782618E+03  0.91961620574E+02 0.  0.
        -11    1    4    4    0    0  0.79756158060E+02  0.57289048336E+02  0.76829153481E+02  0.12468279205E+03  0.00000000000E+00 0.  1.
         11    1    4    4    0    0  0.16994404099E+02  0.59398292191E+02 -0.14121900216E+02  0.63375034135E+02  0.00000000000E+00 0. -1.
        -13    1    3    3    0    0 -0.11104836290E+03 -0.19622058403E+02  0.95909144380E+02  0.14803826550E+03  0.00000000000E+00 0. -1.
         13    1    3    3    0    0  0.75602117811E+01 -0.39651725539E+02  0.29597171467E+02  0.50054057770E+02  0.00000000000E+00 0.  1.
         21    1    1    2  503  502  0.17028797544E+02 -0.14419126669E+02 -0.12306427623E+02  0.25482137283E+02  0.00000000000E+00 0. -1.
          1    1    1    2  501    0 -0.10291208588E+02 -0.42994429916E+02 -0.16946201119E+02  0.47345577517E+02  0.00000000000E+00 0. -1.
<scales pt_clust_5="13000.00000" pt_clust_6="13000.00000" pt_clust_7="13000.00000" pt_clust_8="13000.00000" pt_clust_9="22.31347" pt_clust_10="46.92989"></scales>
<clustering>
<clus scale="   22.313">  2  9  1 -1</clus>
<clus scale="   46.930">  2 10  1 -1</clus>
<clus scale="   91.962">  5  6 -1 -1</clus>
<clus scale="   96.258">  7  8 -1 -1</clus>
<clus scale="  158.474">  2  5  1 -1</clus>
<clus scale="   22.313">  2  5  1 -1</clus>
</clustering>
</event>
<event>
10    2  0.1671105E-006  0.1894573E+03  0.7546771E-02  0.1158978E+00
          2   -1    0    0  503    0 -0.00000000000E+00  0.00000000000E+00  0.89694731675E+03  0.89694731675E+03  0.00000000000E+00 0. -1.
         21   -1    0    0  501  502  0.00000000000E+00 -0.00000000000E+00 -0.25981309139E+03  0.25981309139E+03  0.00000000000E+00 0. -1.
         23    2    1    2    0    0  0.99820794012E+02 -0.80494930891E+02  0.24416052648E+03  0.29032805954E+03  0.90732544591E+02 0.  0.
         23    2    1    2    0    0 -0.83820738356E+02  0.19721324723E+03  0.55614960600E+03  0.60290746657E+03  0.90972786729E+02 0.  0.
        -11    1    3    3    0    0  0.79494930626E+01 -0.23984604055E+02  0.21368818604E+01  0.25357877192E+02  0.00000000000E+00 0.  1.
         11    1    3    3    0    0  0.91871300949E+02 -0.56510326837E+02  0.24202364462E+03  0.26497018235E+03  0.00000000000E+00 0. -1.
        -11    1    4    4    0    0  0.65509596255E+01  0.32303979773E+02  0.31571000815E+02  0.45641979291E+02  0.00000000000E+00 0.  1.
         11    1    4    4    0    0 -0.90371697982E+02  0.16490926746E+03  0.52457860518E+03  0.55726548727E+03  0.00000000000E+00 0. -1.
         21    1    1    2  503  502 -0.80008741152E+02 -0.11828052694E+03 -0.10883808237E+03  0.17954779277E+03  0.00000000000E+00 0. -1.
          2    1    1    2  501    0  0.64008685496E+02  0.15622106012E+01 -0.54337824755E+02  0.83977089257E+02  0.00000000000E+00 0. -1.
<scales pt_clust_5="13000.00000" pt_clust_6="13000.00000" pt_clust_7="13000.00000" pt_clust_8="13000.00000" pt_clust_9="121.28757" pt_clust_10="64.02775"></scales>
<clustering>
<clus scale="   64.028">  2 10  1 -1</clus>
<clus scale="   90.733">  5  6 -1 -1</clus>
<clus scale="   90.973">  7  8 -1 -1</clus>
<clus scale="  121.288">  2  9  1 -1</clus>
<clus scale="  189.342">  1  5  2 -1</clus>
<clus scale="   64.028">  2  5  1 -1</clus>
</clustering>
</event>
<event>
10    2  0.1671105E-006  0.1634019E+03  0.7546771E-02  0.1185016E+00
          2   -1    0    0  503    0 -0.00000000000E+00  0.00000000000E+00  0.39336696570E+03  0.39336696570E+03  0.00000000000E+00 0. -1.
         21   -1    0    0  501  502  0.00000000000E+00 -0.00000000000E+00 -0.20492698487E+03  0.20492698487E+03  0.00000000000E+00 0.  1.
         23    2    1    2    0    0 -0.18575536272E+03  0.52842591733E+01  0.22248268359E+03  0.30439693914E+03  0.92876121204E+02 0.  0.
         23    2    1    2    0    0  0.12883969018E+03  0.37912819180E+02 -0.46144224741E+02  0.16930808569E+03  0.92189428789E+02 0.  0.
        -11    1    3    3    0    0 -0.32416417943E+02 -0.35612153706E+02  0.40375931507E+02  0.62843181722E+02  0.00000000000E+00 0.  1.
         11    1    3    3    0    0 -0.15333894477E+03  0.40896412880E+02  0.18210675208E+03  0.24155375742E+03  0.00000000000E+00 0. -1.
        -13    1    4    4    0    0  0.46336484372E+02  0.54844545653E+02 -0.45653991886E+02  0.85083964100E+02  0.00000000000E+00 0.  1.
         13    1    4    4    0    0  0.82503205807E+02 -0.16931726473E+02 -0.49023285525E+00  0.84224121592E+02  0.00000000000E+00 0. -1.
         21    1    1    2  503  502  0.69068865463E+02 -0.73319579640E+01  0.37556422918E+02  0.78960437475E+02  0.00000000000E+00 0.  1.
          2    1    1    2  501    0 -0.12153192925E+02 -0.35865120389E+02 -0.25454900936E+02  0.45628488255E+02  0.00000000000E+00 0. -1.
<scales pt_clust_5="13000.00000" pt_clust_6="13000.00000" pt_clust_7="13000.00000" pt_clust_8="13000.00000" pt_clust_9="68.59141" pt_clust_10="37.86828"></scales>
<clustering>
<clus scale="   37.868">  2 10  1 -1</clus>
<clus scale="   68.591">  1  9  2 -1</clus>
<clus scale="   92.189">  7  8 -1 -1</clus>
<clus scale="   92.876">  5  6 -1 -1</clus>
<clus scale="  163.013">  2  7  1 -1</clus>
<clus scale="   37.868">  2  5  1 -1</clus>
</clustering>
</event>
<event>
10    2  0.1671105E-006  0.1260356E+03  0.7546771E-02  0.1248268E+00
         21   -1    0    0  501  502  0.00000000000E+00  0.00000000000E+00  0.53879356085E+03  0.53879356085E+03  0.00000000000E+00 0.  1.
         -3   -1    0    0    0  501 -0.00000000000E+00 -0.00000000000E+00 -0.60174651140E+02  0.60174651140E+02  0.00000000000E+00 0.  1.
         23    2    1    2    0    0  0.93993079079E+01 -0.19210432220E+02  0.48133540551E+02  0.10501839918E+03  0.90855042491E+02 0.  0.
         23    2    1    2    0    0 -0.27467166013E+02 -0.97771068650E+02  0.23640114847E+03  0.26498724267E+03  0.63396440798E+02 0.  0.
        -11    1    3    3    0    0 -0.99432068015E+01  0.29219681538E+02  0.42556699443E+02  0.52571188099E+02  0.00000000000E+00 0. -1.
         11    1    3    3    0    0  0.19342514709E+02 -0.48430113758E+02  0.55768411078E+01  0.52447211085E+02  0.00000000000E+00 0.  1.
        -11    1    4    4    0    0  0.67642870309E+01 -0.73961006563E+02  0.18101947071E+03  0.19566306460E+03  0.00000000000E+00 0.  1.
         11    1    4    4    0    0 -0.34231453044E+02 -0.23810062087E+02  0.55381677762E+02  0.69324178075E+02  0.00000000000E+00 0. -1.
         21    1    1    2  503  502  0.20891336733E+02  0.49158682368E+02  0.79390809949E+02  0.95686596276E+02  0.00000000000E+00 0.  1.
         -3    1    1    2    0  503 -0.28234786279E+01  0.67822818502E+02  0.11469341074E+03  0.13327597386E+03  0.00000000000E+00 0.  1.
<scales pt_clust_5="13000.00000" pt_clust_6="13000.00000" pt_clust_7="13000.00000" pt_clust_8="13000.00000" pt_clust_9="24.19652" pt_clust_10="112.29391"></scales>
<clustering>
<clus scale="   24.197">  9 10 -1 -1</clus>
<clus scale="   63.396">  7  8 -1 -1</clus>
<clus scale="   90.855">  5  6 -1 -1</clus>
<clus scale="   93.338">  2  5  1 -1</clus>
<clus scale="  112.294">  1  9  2 -1</clus>
<clus scale="  112.294">  1  5  2 -1</clus>
</clustering>
</event>
<event>
10    2  0.1671105E-006  0.9727408E+02  0.7546771E-02  0.1289250E+00
          3   -1    0    0  503    0 -0.00000000000E+00  0.00000000000E+00  0.21413635729E+03  0.21413635729E+03  0.00000000000E+00 0. -1.
         21   -1    0    0  501  502  0.00000000000E+00 -0.00000000000E+00 -0.81015766164E+02  0.81015766164E+02  0.00000000000E+00 0.  1.
         23    2    1    2    0    0  0.13051930510E+01  0.20585469230E+02  0.78257942079E+02  0.12147595082E+03  0.90590485460E+02 0.  0.
         23    2    1    2    0    0 -0.21023996901E+02 -0.63385578573E+02  0.20795821509E+02  0.10978698493E+03  0.84622549310E+02 0.  0.
        -11    1    3    3    0    0 -0.30677164844E+02  0.42565804030E+02  0.33565574240E+02  0.62286305796E+02  0.00000000000E+00 0.  1.
         11    1    3    3    0    0  0.31982357895E+02 -0.21980334801E+02  0.44692367839E+02  0.59189645020E+02  0.00000000000E+00 0. -1.
        -11    1    4    4    0    0 -0.41772526939E+02 -0.72946380050E+02  0.22060153281E+02  0.86906666787E+02  0.00000000000E+00 0.  1.
         11    1    4    4    0    0  0.20748530038E+02  0.95608014773E+01 -0.12643317716E+01  0.22880318146E+02  0.00000000000E+00 0. -1.
         21    1    1    2  503  502  0.45799316707E+01  0.25235046187E+02  0.40601610155E+01  0.25966675521E+02  0.00000000000E+00 0.  1.
          3    1    1    2  501    0  0.15138872179E+02  0.17565063156E+02  0.30006666520E+02  0.37922512182E+02  0.00000000000E+00 0. -1.
<scales pt_clust_5="13000.00000" pt_clust_6="13000.00000" pt_clust_7="13000.00000" pt_clust_8="13000.00000" pt_clust_9="28.53717" pt_clust_10="23.18874"></scales>
<clustering>
<clus scale="   23.189">  2 10  1 -1</clus>
<clus scale="   28.537">  2  9  1 -1</clus>
<clus scale="   84.623">  7  8 -1 -1</clus>
<clus scale="   90.590">  5  6 -1 -1</clus>
<clus scale="   91.742">  2  7  1 -1</clus>
<clus scale="   23.189">  2  5  1 -1</clus>
</clustering>
</event>
<event>
10    2  0.1671105E-006  0.1363982E+03  0.7546771E-02  0.1233293E+00
         21   -1    0    0  503  502  0.00000000000E+00  0.00000000000E+00  0.92968930973E+03  0.92968930973E+03  0.00000000000E+00 0. -1.
         -3   -1    0    0    0  501 -0.00000000000E+00 -0.00000000000E+00 -0.13580388354E+03  0.13580388354E+03  0.00000000000E+00 0.  1.
         23    2    1    2    0    0 -0.17903655495E+02 -0.36440363678E+02 -0.93204696963E+02  0.13637984675E+03  0.90906028837E+02 0.  0.
         23    2    1    2    0    0  0.57684651197E+02 -0.45645783521E+02  0.29839847524E+03  0.32264583843E+03  0.98222352325E+02 0.  0.
        -11    1    4    4    0    0  0.29976876127E+01 -0.28435790073E+02  0.12761128319E+02  0.31311765905E+02  0.00000000000E+00 0.  1.
         11    1    4    4    0    0  0.54686963584E+02 -0.17209993448E+02  0.28563734692E+03  0.29133407253E+03  0.00000000000E+00 0. -1.
        -13    1    3    3    0    0  0.14237390213E+02 -0.34247572467E+02 -0.97087768861E+02  0.10393091149E+03  0.00000000000E+00 0.  1.
         13    1    3    3    0    0 -0.32141045708E+02 -0.21927912113E+01  0.38830718972E+01  0.32448935266E+02  0.00000000000E+00 0. -1.
         21    1    1    2  503  501 -0.48064908029E+02  0.10771311405E+03  0.45116067749E+03  0.46632425118E+03  0.00000000000E+00 0. -1.
         -3    1    1    2    0  502  0.82839123275E+01 -0.25626966854E+02  0.13753097042E+03  0.14014325691E+03  0.00000000000E+00 0.  1.
<scales pt_clust_5="13000.00000" pt_clust_6="13000.00000" pt_clust_7="13000.00000" pt_clust_8="13000.00000" pt_clust_9="94.64053" pt_clust_10="26.93259"></scales>
<clustering>
<clus scale="   26.933">  1 10  2 -1</clus>
<clus scale="   90.906">  7  8 -1 -1</clus>
<clus scale="   98.222">  5  6 -1 -1</clus>
<clus scale="   99.779">  2  7  1 -1</clus>
<clus scale="   94.641">  1  9  2 -1</clus>
<clus scale="   26.933">  1  5  2 -1</clus>
</clustering>
</event>
<event>
10    2  0.1671105E-006  0.2901881E+03  0.7546771E-02  0.1090257E+00
          1   -1    0    0  503    0 -0.00000000000E+00  0.00000000000E+00  0.35005827702E+03  0.35005827702E+03  0.00000000000E+00 0. -1.
         21   -1    0    0  501  502  0.00000000000E+00 -0.00000000000E+00 -0.46131213002E+03  0.46131213002E+03  0.00000000000E+00 0. -1.
         23    2    1    2    0    0  0.22705814898E+03 -0.36858836272E+02  0.73404033264E+01  0.24803394000E+03  0.92482306660E+02 0.  0.
         23    2    1    2    0    0 -0.36349137033E+03 -0.15271405455E+02 -0.70762576102E+02  0.38196011388E+03  0.92341725612E+02 0.  0.
        -11    1    3    3    0    0  0.10201599213E+03  0.25040458028E+02 -0.16973970591E+02  0.10640678017E+03  0.00000000000E+00 0.  1.
         11    1    3    3    0    0  0.12504215685E+03 -0.61899294301E+02  0.24314373917E+02  0.14162715983E+03  0.00000000000E+00 0. -1.
        -13    1    4    4    0    0 -0.14644083490E+03  0.31060291964E+02 -0.23575764778E+01  0.14971712671E+03  0.00000000000E+00 0.  1.
         13    1    4    4    0    0 -0.21705053543E+03 -0.46331697420E+02 -0.68404999624E+02  0.23224298717E+03  0.00000000000E+00 0. -1.
         21    1    1    2  503  502 -0.20950807458E+01  0.34973619563E+02 -0.14133897362E+02  0.37779762880E+02  0.00000000000E+00 0.  1.
          1    1    1    2  501    0  0.13852830210E+03  0.17156622165E+02 -0.33697782855E+02  0.14359659027E+03  0.00000000000E+00 0. -1.
<scales pt_clust_5="13000.00000" pt_clust_6="13000.00000" pt_clust_7="13000.00000" pt_clust_8="13000.00000" pt_clust_9="35.03632" pt_clust_10="140.21947"></scales>
<clustering>
<clus scale="   35.036">  2  9  1 -1</clus>
<clus scale="   92.342">  7  8 -1 -1</clus>
<clus scale="   92.482">  5  6 -1 -1</clus>
<clus scale="  140.219">  2 10  1 -1</clus>
<clus scale="  290.143">  2  7  1 -1</clus>
<clus scale="   35.036">  2  5  1 -1</clus>
</clustering>
</event>
<event>
10    2  0.1671105E-006  0.9410938E+02  0.7546771E-02  0.1293486E+00
         -3   -1    0    0    0  501 -0.00000000000E+00  0.00000000000E+00  0.20586436721E+03  0.20586436721E+03  0.00000000000E+00 0.  1.
         21   -1    0    0  503  502  0.00000000000E+00 -0.00000000000E+00 -0.13366807354E+03  0.13366807354E+03  0.00000000000E+00 0.  1.
         23    2    1    2    0    0  0.33395254010E+02 -0.25479916246E+02  0.69139252872E+02  0.12165393669E+03  0.90856892433E+02 0.  0.
         23    2    1    2    0    0 -0.33009283469E+02 -0.35841203452E+02 -0.42146380085E+02  0.11094955387E+03  0.90328741213E+02 0.  0.
        -11    1    3    3    0    0  0.60719204136E+02  0.26454623152E+01  0.39254648950E+02  0.72351556210E+02  0.00000000000E+00 0. -1.
         11    1    3    3    0    0 -0.27323950125E+02 -0.28125378561E+02  0.29884603922E+02  0.49302380483E+02  0.00000000000E+00 0.  1.
        -11    1    4    4    0    0 -0.57755014626E+02  0.15716861664E+01 -0.23614010222E+02  0.62415810422E+02  0.00000000000E+00 0. -1.
         11    1    4    4    0    0  0.24745731158E+02 -0.37412889618E+02 -0.18532369863E+02  0.48533743445E+02  0.00000000000E+00 0.  1.
         21    1    1    2  503  501 -0.22393347480E+02  0.14514339317E+02  0.48227560379E+02  0.55118287685E+02  0.00000000000E+00 0. -1.
         -3    1    1    2    0  502  0.22007376938E+02  0.46806780381E+02 -0.30241395026E+01  0.51810662504E+02  0.00000000000E+00 0.  1.
<scales pt_clust_5="13000.00000" pt_clust_6="13000.00000" pt_clust_7="13000.00000" pt_clust_8="13000.00000" pt_clust_9="26.68573" pt_clust_10="52.45996"></scales>
<clustering>
<clus scale="   26.686">  1  9  2 -1</clus>
<clus scale="   52.460">  2 10  1 -1</clus>
<clus scale="   90.329">  7  8 -1 -1</clus>
<clus scale="   90.857">  5  6 -1 -1</clus>
<clus scale="   93.600">  2  7  1 -1</clus>
<clus scale="   52.460">  2  5  1 -1</clus>
</clustering>
</event>
<event>
10    2  0.1671105E-006  0.2234412E+03  0.7546771E-02  0.1155107E+00
         21   -1    0    0  501  502  0.00000000000E+00  0.00000000000E+00  0.25607079796E+03  0.25607079796E+03  0.00000000000E+00 0.  1.
         -1   -1    0    0    0  501 -0.00000000000E+00 -0.00000000000E+00 -0.76103691452E+03  0.76103691452E+03  0.00000000000E+00 0.  1.
         23    2    1    2    0    0  0.53166255522E+02 -0.70515676037E+02  0.10838921624E+03  0.16648337724E+03  0.90384630371E+02 0.  0.
         23    2    1    2    0    0 -0.14381136189E+03  0.23720195350E+03 -0.57145203648E+03  0.64149510461E+03  0.89510137363E+02 0.  0.
        -11    1    3    3    0    0  0.36246538574E+02 -0.83833228980E+02  0.49724808442E+02  0.10399220362E+03  0.00000000000E+00 0. -1.
         11    1    3    3    0    0  0.16919716948E+02  0.13317552943E+02  0.58664407795E+02  0.62491173616E+02  0.00000000000E+00 0.  1.
        -13    1    4    4    0    0 -0.82315798214E+02  0.16916173845E+03 -0.46114150803E+03  0.49803923020E+03  0.00000000000E+00 0.  1.
         13    1    4    4    0    0 -0.61495563673E+02  0.68040215050E+02 -0.11031052844E+03  0.14345587440E+03  0.00000000000E+00 0. -1.
         21    1    1    2  503  502  0.78635586030E+01 -0.42183116612E+02 -0.41386754753E+02  0.59616393299E+02  0.00000000000E+00 0.  1.
         -1    1    1    2    0  503  0.82781547762E+02 -0.12450316085E+03 -0.51654156822E+00  0.14951283733E+03  0.00000000000E+00 0.  1.
<scales pt_clust_5="13000.00000" pt_clust_6="13000.00000" pt_clust_7="13000.00000" pt_clust_8="13000.00000" pt_clust_9="41.42181" pt_clust_10="218.84284"></scales>
<clustering>
<clus scale="   41.422">  9 10 -1 -1</clus>
<clus scale="   89.510">  7  8 -1 -1</clus>
<clus scale="   90.385">  5  6 -1 -1</clus>
<clus scale="  126.367">  2  5  1 -1</clus>
<clus scale="  218.843">  1  9  2 -1</clus>
<clus scale="  218.843">  1  5  2 -1</clus>
</clustering>
</event>
<event>
10    2  0.1671105E-006  0.1402004E+03  0.7546771E-02  0.1214397E+00
         21   -1    0    0  503  502  0.00000000000E+00  0.00000000000E+00  0.51314878185E+03  0.51314878185E+03  0.00000000000E+00 0. -1.
         -3   -1    0    0    0  501 -0.00000000000E+00 -0.00000000000E+00 -0.15225851677E+03  0.15225851677E+03  0.00000000000E+00 0.  1.
         23    2    1    2    0    0  0.75022681106E+02 -0.67116506211E+02 -0.57926847742E+02  0.15102701333E+03  0.96543311411E+02 0.  0.
         23    2    1    2    0    0 -0.14844703856E+03 -0.18214628489E+02  0.24699748802E+03  0.30267446724E+03  0.90751187787E+02 0.  0.
        -11    1    4    4    0    0 -0.13357963515E+03  0.35944477021E+01  0.24106048201E+03  0.27562038199E+03  0.00000000000E+00 0. -1.
         11    1    4    4    0    0 -0.14867403409E+02 -0.21809076191E+02  0.59370060062E+01  0.27054085250E+02  0.00000000000E+00 0.  1.
        -13    1    3    3    0    0  0.47805383187E+02 -0.73333113519E+02 -0.77512155841E+02  0.11692405443E+03  0.00000000000E+00 0. -1.
         13    1    3    3    0    0  0.27217297919E+02  0.62166073071E+01  0.19585308099E+02  0.34102958900E+02  0.00000000000E+00 0.  1.
         21    1    1    2  503  501  0.60343034874E+02  0.64382037345E+02  0.89189257951E+02  0.12546335052E+03  0.00000000000E+00 0.  1.
         -3    1    1    2    0  502  0.13081322577E+02  0.20949097355E+02  0.82630366851E+02  0.86242467534E+02  0.00000000000E+00 0.  1.
<scales pt_clust_5="13000.00000" pt_clust_6="13000.00000" pt_clust_7="13000.00000" pt_clust_8="13000.00000" pt_clust_9="94.31380" pt_clust_10="24.69789"></scales>
<clustering>
<clus scale="   24.698">  1 10  2 -1</clus>
<clus scale="   90.751">  5  6 -1 -1</clus>
<clus scale="   94.314">  1  9  2 -1</clus>
<clus scale="   96.543">  7  8 -1 -1</clus>
<clus scale="  136.277">  1  5  2 -1</clus>
<clus scale="   24.698">  1  5  2 -1</clus>
</clustering>
</event>
<event>
10    2  0.1671105E-006  0.1556757E+03  0.7546771E-02  0.1210214E+00
         21   -1    0    0  501  502  0.00000000000E+00  0.00000000000E+00  0.67040713579E+03  0.67040713579E+03  0.00000000000E+00 0.  1.
         -3   -1    0    0    0  501 -0.00000000000E+00 -0.00000000000E+00 -0.17894853198E+03  0.17894853198E+03  0.00000000000E+00 0.  1.
         23    2    1    2    0    0  0.22718337514E+02  0.48355741509E+02  0.10210273922E+03  0.14920948007E+03  0.94784487083E+02 0.  0.
         23    2    1    2    0    0  0.46501044953E+01  0.76927391363E+02 -0.12223175606E+03  0.17145462115E+03  0.92285632200E+02 0.  0.
        -11    1    3    3    0    0 -0.16144428284E+01 -0.28241884824E+02  0.30054075767E+02  0.41272968808E+02  0.00000000000E+00 0. -1.
         11    1    3    3    0    0  0.24332780343E+02  0.76597626332E+02  0.72048663451E+02  0.10793651126E+03  0.00000000000E+00 0.  1.
        -11    1    4    4    0    0  0.19981445277E+02 -0.73098475960E+01 -0.65185655745E+02  0.68570122810E+02  0.00000000000E+00 0.  1.
         11    1    4    4    0    0 -0.15331340781E+02  0.84237238959E+02 -0.57046100311E+02  0.10288449834E+03  0.00000000000E+00 0. -1.
         21    1    1    2  503  502 -0.21445390463E+02 -0.29469892847E+02  0.11427637759E+03  0.11994777960E+03  0.00000000000E+00 0. -1.
         -3    1    1    2    0  503 -0.59230515469E+01 -0.95813240024E+02  0.39731124306E+03  0.40874378694E+03  0.00000000000E+00 0.  1.
<scales pt_clust_5="13000.00000" pt_clust_6="13000.00000" pt_clust_7="13000.00000" pt_clust_8="13000.00000" pt_clust_9="22.62278" pt_clust_10="130.63798"></scales>
<clustering>
<clus scale="   22.623">  9 10 -1 -1</clus>
<clus scale="   92.286">  7  8 -1 -1</clus>
<clus scale="   94.784">  5  6 -1 -1</clus>
<clus scale="  108.805">  2  5  1 -1</clus>
<clus scale="  130.638">  1  9  2 -1</clus>
<clus scale="  130.638">  1  5  2 -1</clus>
</clustering>
</event>
<event>
10    2  0.1671105E-006  0.1483163E+03  0.7546771E-02  0.1218437E+00
         21   -1    0    0  503  502  0.00000000000E+00  0.00000000000E+00  0.94555332216E+02  0.94555332216E+02  0.00000000000E+00 0. -1.
          1   -1    0    0  502    0 -0.00000000000E+00 -0.00000000000E+00 -0.44536259210E+03  0.44536259210E+03  0.00000000000E+00 0. -1.
         23    2    1    2    0    0  0.36184165439E+02  0.39639641548E+02 -0.19825673902E+03  0.22466994386E+03  0.91050832476E+02 0.  0.
         23    2    1    2    0    0  0.21257020450E+02  0.83653168670E+02 -0.97724444939E+02  0.16165408452E+03  0.95562871223E+02 0.  0.
        -11    1    3    3    0    0  0.55767082755E+02 -0.31823370570E+01 -0.81782808917E+02  0.99037985755E+02  0.00000000000E+00 0. -1.
         11    1    3    3    0    0 -0.19582917317E+02  0.42821978605E+02 -0.11647393010E+03  0.12563195810E+03  0.00000000000E+00 0.  1.
        -11    1    4    4    0    0 -0.26500222634E+02 -0.12596666299E+01 -0.46819014754E+01  0.26940095789E+02  0.00000000000E+00 0.  1.
         11    1    4    4    0    0  0.47757243085E+02  0.84912835300E+02 -0.93042543464E+02  0.13471398873E+03  0.00000000000E+00 0. -1.
         21    1    1    2  503  501 -0.35050663880E+02 -0.29149872813E+02 -0.87695902989E+01  0.46423806796E+02  0.00000000000E+00 0. -1.
          1    1    1    2  501    0 -0.22390522009E+02 -0.94142937406E+02 -0.46056485629E+02  0.10717008915E+03  0.00000000000E+00 0. -1.
<scales pt_clust_5="13000.00000" pt_clust_6="13000.00000" pt_clust_7="13000.00000" pt_clust_8="13000.00000" pt_clust_9="31.33765" pt_clust_10="122.27035"></scales>
<clustering>
<clus scale="   31.338">  9 10 -1 -1</clus>
<clus scale="   91.051">  5  6 -1 -1</clus>
<clus scale="   95.563">  7  8 -1 -1</clus>
<clus scale="  105.692">  2  5  1 -1</clus>
<clus scale="  122.270">  1  9  2 -1</clus>
<clus scale="  122.270">  1  5  2 -1</clus>
</clustering>
</event>
<event>
10    2  0.1671105E-006  0.1505185E+03  0.7546771E-02  0.1227368E+00
         21   -1    0    0  501  502  0.00000000000E+00  0.00000000000E+00  0.59994239098E+03  0.59994239098E+03  0.00000000000E+00 0.  1.
         -3   -1    0    0    0  501 -0.00000000000E+00 -0.00000000000E+00 -0.98300590384E+02  0.98300590384E+02  0.00000000000E+00 0.  1.
         23    2    1    2    0    0 -0.22863817981E+02  0.36012411232E+02  0.16383105720E+01  0.83921737056E+02  0.72253207220E+02 0.  0.
         23    2    1    2    0    0  0.87152492197E+02  0.67380575685E+02  0.58397470706E+02  0.15502437236E+03  0.92122703847E+02 0.  0.
        -11    1    3    3    0    0 -0.19244916134E+02 -0.18909397524E+02  0.88856269406E+01  0.28405747268E+02  0.00000000000E+00 0. -1.
         11    1    3    3    0    0 -0.36189018468E+01  0.54921808756E+02 -0.72473163686E+01  0.55515989788E+02  0.00000000000E+00 0.  1.
        -11    1    4    4    0    0  0.65920601181E+02  0.70743547206E+02  0.42768499008E+01  0.96790839321E+02  0.00000000000E+00 0.  1.
         11    1    4    4    0    0  0.21231891016E+02 -0.33629715212E+01  0.54120620805E+02  0.58233533036E+02  0.00000000000E+00 0. -1.
         21    1    1    2  503  502 -0.30277145930E+02 -0.53669623806E+02  0.16315956518E+03  0.17440807836E+03  0.00000000000E+00 0.  1.
         -3    1    1    2    0  503 -0.34011528286E+02 -0.49723363112E+02  0.27844645413E+03  0.28488879359E+03  0.00000000000E+00 0.  1.
<scales pt_clust_5="13000.00000" pt_clust_6="13000.00000" pt_clust_7="13000.00000" pt_clust_8="13000.00000" pt_clust_9="33.01016" pt_clust_10="123.62782"></scales>
<clustering>
<clus scale="   33.010">  9 10 -1 -1</clus>
<clus scale="   72.253">  5  6 -1 -1</clus>
<clus scale="   83.906">  2  5  1 -1</clus>
<clus scale="   92.123">  7  8 -1 -1</clus>
<clus scale="  123.628">  1  9  2 -1</clus>
<clus scale="  123.628">  1  5  2 -1</clus>
</clustering>
</event>
<event>
10    2  0.1671105E-006  0.1592096E+03  0.7546771E-02  0.1191063E+00
         21   -1    0    0  503  502  0.00000000000E+00  0.00000000000E+00  0.49458352958E+02  0.49458352958E+02  0.00000000000E+00 0.  1.
          2   -1    0    0  502    0 -0.00000000000E+00 -0.00000000000E+00 -0.15543613213E+04  0.15543613213E+04  0.00000000000E+00 0. -1.
         23    2    1    2    0    0 -0.44249144151E+02 -0.57238586993E+02 -0.22650969971E+03  0.25422479769E+03  0.89940875570E+02 0.  0.
         23    2    1    2    0    0  0.82444205397E+02  0.20600071110E+03 -0.65576999823E+03  0.69696679138E+03  0.80592045106E+02 0.  0.
        -11    1    3    3    0    0 -0.18366468296E+02 -0.63710294613E+02 -0.21531315059E+03  0.22529110416E+03  0.00000000000E+00 0. -1.
         11    1    3    3    0    0 -0.25882675856E+02  0.64717076198E+01 -0.11196549121E+02  0.28933693528E+02  0.00000000000E+00 0.  1.
        -11    1    4    4    0    0  0.78416645967E+02  0.89885470689E+02 -0.35700641091E+03  0.37640688841E+03  0.00000000000E+00 0. -1.
         11    1    4    4    0    0  0.40275594297E+01  0.11611524041E+03 -0.29876358732E+03  0.32055990298E+03  0.00000000000E+00 0.  1.
         21    1    1    2  503  501  0.79394283669E+01 -0.69321813295E+02 -0.99662743926E+02  0.12166022706E+03  0.00000000000E+00 0. -1.
          2    1    1    2  501    0 -0.46134489613E+02 -0.79440310809E+02 -0.52296052645E+03  0.53096785810E+03  0.00000000000E+00 0. -1.
<scales pt_clust_5="13000.00000" pt_clust_6="13000.00000" pt_clust_7="13000.00000" pt_clust_8="13000.00000" pt_clust_9="69.77498" pt_clust_10="97.78658"></scales>
<clustering>
<clus scale="   69.775">  1  9  2 -1</clus>
<clus scale="   80.592">  7  8 -1 -1</clus>
<clus scale="   89.941">  5  6 -1 -1</clus>
<clus scale="   97.787">  1 10  2 -1</clus>
<clus scale="  154.121">  1  7  2 -1</clus>
<clus scale="   69.775">  1  5  2 -1</clus>
</clustering>
</event>
<event>
10    2  0.1671105E-006  0.3252390E+03  0.7546771E-02  0.1117962E+00
         21   -1    0    0  503  502  0.00000000000E+00  0.00000000000E+00  0.32979398520E+03  0.32979398520E+03  0.00000000000E+00 0. -1.
          2   -1    0    0  502    0 -0.00000000000E+00 -0.00000000000E+00 -0.52468946404E+03  0.52468946404E+03  0.00000000000E+00 0. -1.
         23    2    1    2    0    0  0.38928992244E+02  0.19590973168E+02 -0.30036868803E+02  0.10490807004E+03  0.90577132901E+02 0.  0.
         23    2    1    2    0    0 -0.20392889437E+03 -0.28180706919E+03 -0.18310768225E+03  0.40401687729E+03  0.93268406405E+02 0.  0.
        -11    1    3    3    0    0  0.52433197968E+02 -0.12555035346E+02  0.66161271630E+01  0.54319814988E+02  0.00000000000E+00 0. -1.
         11    1    3    3    0    0 -0.13504205724E+02  0.32146008514E+02 -0.36652995966E+02  0.50588255049E+02  0.00000000000E+00 0.  1.
        -11    1    4    4    0    0 -0.16963340296E+03 -0.24841490744E+03 -0.11781292387E+03  0.32305625310E+03  0.00000000000E+00 0. -1.
         11    1    4    4    0    0 -0.34295491408E+02 -0.33392161750E+02 -0.65294758377E+02  0.80960624187E+02  0.00000000000E+00 0.  1.
         21    1    1    2  503  501 -0.17725325644E+02  0.44591117200E+02  0.37270120344E+02  0.60758676522E+02  0.00000000000E+00 0. -1.
          2    1    1    2  501    0  0.18272522777E+03  0.21762497882E+03 -0.19021048127E+02  0.28479982539E+03  0.00000000000E+00 0. -1.
<scales pt_clust_5="13000.00000" pt_clust_6="13000.00000" pt_clust_7="13000.00000" pt_clust_8="13000.00000" pt_clust_9="47.98494" pt_clust_10="311.57887"></scales>
<clustering>
<clus scale="   47.985">  1  9  2 -1</clus>
<clus scale="   90.577">  5  6 -1 -1</clus>
<clus scale="   93.268">  7  8 -1 -1</clus>
<clus scale="  100.962">  2  5  1 -1</clus>
<clus scale="  311.579">  1 10  2 -1</clus>
<clus scale="   47.985">  1  5  2 -1</clus>
</clustering>
</event>
<event>
10    2  0.1671105E-006  0.1000275E+03  0.7546771E-02  0.1281047E+00
         21   -1    0    0  503  502  0.00000000000E+00  0.00000000000E+00  0.43013558401E+02  0.43013558401E+02  0.00000000000E+00 0.  1.
          4   -1    0    0  502    0 -0.00000000000E+00 -0.00000000000E+00 -0.41706976755E+03  0.41706976755E+03  0.00000000000E+00 0. -1.
         23    2    1    2    0    0 -0.22312750537E+02  0.18678134848E+02 -0.20034866058E+03  0.22235897981E+03  0.91963028149E+02 0.  0.
         23    2    1    2    0    0  0.43614985114E+02 -0.41709416069E+02 -0.10872363596E+03  0.15367787226E+03  0.90300150010E+02 0.  0.
        -13    1    4    4    0    0  0.26335672386E+02 -0.70368863687E+02 -0.76113782826E+02  0.10695163651E+03  0.00000000000E+00 0.  1.
         13    1    4    4    0    0  0.17279312728E+02  0.28659447617E+02 -0.32609853132E+02  0.46726235750E+02  0.00000000000E+00 0. -1.
        -13    1    3    3    0    0 -0.41721152055E+02 -0.18357767637E+02 -0.56707649537E+02  0.72755891015E+02  0.00000000000E+00 0.  1.
         13    1    3    3    0    0  0.19408401518E+02  0.37035902485E+02 -0.14364101104E+03  0.14960308879E+03  0.00000000000E+00 0. -1.
         21    1    1    2  503  501  0.20251498181E+01  0.21083900441E+02 -0.83534336971E+01  0.22768661448E+02  0.00000000000E+00 0.  1.
          4    1    1    2  501    0 -0.23327384395E+02  0.19473807805E+01 -0.56630478908E+02  0.61277812428E+02  0.00000000000E+00 0. -1.
<scales pt_clust_5="13000.00000" pt_clust_6="13000.00000" pt_clust_7="13000.00000" pt_clust_8="13000.00000" pt_clust_9="21.18094" pt_clust_10="23.43174"></scales>
<clustering>
<clus scale="   21.181">  1  9  2 -1</clus>
<clus scale="   23.432">  1 10  2 -1</clus>
<clus scale="   90.300">  5  6 -1 -1</clus>
<clus scale="   91.963">  7  8 -1 -1</clus>
<clus scale="   98.501">  1  5  2 -1</clus>
<clus scale="   21.181">  1  5  2 -1</clus>
</clustering>
</event>
<event>
10    2  0.1671105E-006  0.1376551E+03  0.7546771E-02  0.1216969E+00
         -3   -1    0    0    0  501 -0.00000000000E+00  0.00000000000E+00  0.20462543426E+03  0.20462543426E+03  0.00000000000E+00 0.  1.
         21   -1    0    0  503  502  0.00000000000E+00 -0.00000000000E+00 -0.28212908361E+03  0.28212908361E+03  0.00000000000E+00 0. -1.
         23    2    1    2    0    0 -0.56540667844E+02 -0.80318959362E+02  0.12197750036E+03  0.18195685242E+03  0.92638022415E+02 0.  0.
         23    2    1    2    0    0  0.97973716299E+02  0.71090133087E+02 -0.70550871656E+02  0.16690059531E+03  0.90695794363E+02 0.  0.
        -11    1    3    3    0    0 -0.69261908214E+00 -0.37056451484E+02  0.10202546443E+03  0.10854886324E+03  0.00000000000E+00 0.  1.
         11    1    3    3    0    0 -0.55848048762E+02 -0.43262507877E+02  0.19952035924E+02  0.73407989183E+02  0.00000000000E+00 0. -1.
        -13    1    4    4    0    0  0.28325669730E+02 -0.20023960519E+02 -0.57121582779E+01  0.35155814778E+02  0.00000000000E+00 0.  1.
         13    1    4    4    0    0  0.69648046569E+02  0.91114093606E+02 -0.64838713378E+02  0.13174478053E+03  0.00000000000E+00 0. -1.
         21    1    1    2  503  501 -0.20547721877E+02  0.16200023090E+02 -0.58023625897E+02  0.63650536405E+02  0.00000000000E+00 0. -1.
         -3    1    1    2    0  502 -0.20885326577E+02 -0.69711968159E+01 -0.70906652152E+02  0.74246533729E+02  0.00000000000E+00 0.  1.
<scales pt_clust_5="13000.00000" pt_clust_6="13000.00000" pt_clust_7="13000.00000" pt_clust_8="13000.00000" pt_clust_9="30.15154" pt_clust_10="22.01805"></scales>
<clustering>
<clus scale="   22.018">  2 10  1 -1</clus>
<clus scale="   30.152">  2  9  1 -1</clus>
<clus scale="   90.696">  7  8 -1 -1</clus>
<clus scale="   92.638">  5  6 -1 -1</clus>
<clus scale="  136.356">  2  7  1 -1</clus>
<clus scale="   22.018">  2  5  1 -1</clus>
</clustering>
</event>
<event>
10    2  0.1671105E-006  0.1037853E+03  0.7546771E-02  0.1272778E+00
         21   -1    0    0  501  502  0.00000000000E+00  0.00000000000E+00  0.14035350144E+03  0.14035350144E+03  0.00000000000E+00 0.  1.
          1   -1    0    0  503    0 -0.00000000000E+00 -0.00000000000E+00 -0.35721710743E+03  0.35721710743E+03  0.00000000000E+00 0. -1.
         23    2    1    2    0    0  0.16727328564E+02  0.19552017237E+02 -0.90344554628E+02  0.12977052645E+03  0.89533044659E+02 0.  0.
         23    2    1    2    0    0  0.15417590119E+02 -0.13012893149E+03  0.33171549253E+02  0.16244845066E+03  0.90099425897E+02 0.  0.
        -11    1    4    4    0    0 -0.33526737427E+02 -0.77949910122E+02  0.32922828806E+01  0.84918017741E+02  0.00000000000E+00 0.  1.
         11    1    4    4    0    0  0.48944327547E+02 -0.52179021365E+02  0.29879266372E+02  0.77530432919E+02  0.00000000000E+00 0. -1.
        -13    1    3    3    0    0  0.21491101896E+02 -0.48509694319E+01 -0.10051941360E+03  0.10290554832E+03  0.00000000000E+00 0. -1.
         13    1    3    3    0    0 -0.47637733317E+01  0.24402986669E+02  0.10174858973E+02  0.26864978129E+02  0.00000000000E+00 0.  1.
         21    1    1    2  503  502 -0.12207096462E+02  0.31522144548E+02 -0.96351547781E+02  0.10210915513E+03  0.00000000000E+00 0.  1.
          1    1    1    2  501    0 -0.19937822222E+02  0.79054769701E+02 -0.63339052835E+02  0.10324247663E+03  0.00000000000E+00 0. -1.
<scales pt_clust_5="13000.00000" pt_clust_6="13000.00000" pt_clust_7="13000.00000" pt_clust_8="13000.00000" pt_clust_9="33.80324" pt_clust_10="92.37152"></scales>
<clustering>
<clus scale="   33.803">  2  9  1 -1</clus>
<clus scale="   89.533">  7  8 -1 -1</clus>
<clus scale="   90.099">  5  6 -1 -1</clus>
<clus scale="   92.372">  1 10  2 -1</clus>
<clus scale="  103.294">  2  7  1 -1</clus>
<clus scale="   92.372">  1  5  2 -1</clus>
</clustering>
</event>
<event>
10    2  0.1671105E-006  0.1904207E+03  0.7546771E-02  0.1178885E+00
          1   -1    0    0  502    0 -0.00000000000E+00  0.00000000000E+00  0.77963740182E+03  0.77963740182E+03  0.00000000000E+00 0. -1.
         21   -1    0    0  503  502  0.00000000000E+00 -0.00000000000E+00 -0.86467110042E+02  0.86467110042E+02  0.00000000000E+00 0.  1.
         23    2    1    2    0    0 -0.82566366804E+02  0.20338062242E+02  0.11018017171E+03  0.16156489697E+03  0.82053055949E+02 0.  0.
         23    2    1    2    0    0  0.85235825989E+02 -0.17768471527E+03  0.39167635274E+03  0.44775618168E+03  0.90764689522E+02 0.  0.
        -11    1    4    4    0    0  0.75374687258E+02 -0.54898814168E+02  0.18450510557E+03  0.20673015566E+03  0.00000000000E+00 0.  1.
         11    1    4    4    0    0  0.98611387312E+01 -0.12278590110E+03  0.20717124717E+03  0.24102602603E+03  0.00000000000E+00 0. -1.
        -13    1    3    3    0    0 -0.27647062915E+02  0.10871724143E+02 -0.81181273267E+01  0.30797052862E+02  0.00000000000E+00 0.  1.
         13    1    3    3    0    0 -0.54919303889E+02  0.94663380986E+01  0.11829829904E+03  0.13076784410E+03  0.00000000000E+00 0. -1.
         21    1    1    2  503  501 -0.22138390528E+02  0.12610281407E+03  0.17419400956E+03  0.21618413684E+03  0.00000000000E+00 0.  1.
          1    1    1    2  501    0  0.19468931343E+02  0.31243838956E+02  0.17119757761E+02  0.40599296375E+02  0.00000000000E+00 0. -1.
<scales pt_clust_5="13000.00000" pt_clust_6="13000.00000" pt_clust_7="13000.00000" pt_clust_8="13000.00000" pt_clust_9="36.25617" pt_clust_10="180.53667"></scales>
<clustering>
<clus scale="   36.256">  9 10 -1 -1</clus>
<clus scale="   82.053">  7  8 -1 -1</clus>
<clus scale="   90.765">  5  6 -1 -1</clus>
<clus scale="  118.168">  1  7  2 -1</clus>
<clus scale="  180.537">  2  9  1 -1</clus>
<clus scale="  180.537">  2  5  1 -1</clus>
</clustering>
</event>
<event>
10    2  0.1671105E-006  0.2052499E+03  0.7546771E-02  0.1162015E+00
          2   -1    0    0  502    0 -0.00000000000E+00  0.00000000000E+00  0.84529844152E+03  0.84529844152E+03  0.00000000000E+00 0. -1.
         21   -1    0    0  503  502  0.00000000000E+00 -0.00000000000E+00 -0.33466909438E+03  0.33466909438E+03  0.00000000000E+00 0. -1.
         23    2    1    2    0    0  0.14050871586E+02 -0.10486925052E+03  0.11171905444E+03  0.17814077335E+03  0.89766370690E+02 0.  0.
         23    2    1    2    0    0  0.19949815140E+02  0.27169843553E+03  0.63736704512E+03  0.70147595908E+03  0.10776704489E+03 0.  0.
        -13    1    4    4    0    0  0.55382527096E+02  0.18757088242E+03  0.49634952691E+03  0.53349124932E+03  0.00000000000E+00 0. -1.
         13    1    4    4    0    0 -0.35432711956E+02  0.84127553114E+02  0.14101751821E+03  0.16798470975E+03  0.00000000000E+00 0.  1.
        -13    1    3    3    0    0  0.23821270641E+02  0.82101877646E+01  0.22310726798E+02  0.33654548702E+02  0.00000000000E+00 0.  1.
         13    1    3    3    0    0 -0.97703990549E+01 -0.11307943829E+03  0.89408327638E+02  0.14448622464E+03  0.00000000000E+00 0. -1.
         21    1    1    2  503  501  0.65499074470E+01 -0.11343845564E+03 -0.17045704429E+03  0.20485797142E+03  0.00000000000E+00 0. -1.
          2    1    1    2  501    0 -0.40550594172E+02 -0.53390729365E+02 -0.67999708123E+02  0.95492832059E+02  0.00000000000E+00 0. -1.
<scales pt_clust_5="13000.00000" pt_clust_6="13000.00000" pt_clust_7="13000.00000" pt_clust_8="13000.00000" pt_clust_9="50.72592" pt_clust_10="186.74779"></scales>
<clustering>
<clus scale="   50.726">  9 10 -1 -1</clus>
<clus scale="   89.766">  7  8 -1 -1</clus>
<clus scale="  107.767">  5  6 -1 -1</clus>
<clus scale="  138.755">  1  7  2 -1</clus>
<clus scale="  186.748">  2  9  1 -1</clus>
<clus scale="  186.748">  2  5  1 -1</clus>
</clustering>
</event>
<event>
10    2  0.1671105E-006  0.1146744E+03  0.7546771E-02  0.1253087E+00
         -1   -1    0    0    0  501 -0.00000000000E+00  0.00000000000E+00  0.42962203274E+02  0.42962203274E+02  0.00000000000E+00 0.  1.
         21   -1    0    0  503  502  0.00000000000E+00 -0.00000000000E+00 -0.10578731159E+04  0.10578731159E+04  0.00000000000E+00 0.  1.
         23    2    1    2    0    0  0.97136286703E+02  0.58734161753E+01 -0.15040339714E+03  0.20147704635E+03  0.92205548216E+02 0.  0.
         23    2    1    2    0    0 -0.22903016178E+02 -0.43989688386E+02 -0.20963929004E+03  0.23330079047E+03  0.89559957955E+02 0.  0.
        -11    1    3    3    0    0  0.45804780715E+02  0.48921859832E+02 -0.72529041556E+02  0.98751648973E+02  0.00000000000E+00 0. -1.
         11    1    3    3    0    0  0.51331505988E+02 -0.43048443657E+02 -0.77874355584E+02  0.10272539737E+03  0.00000000000E+00 0.  1.
        -13    1    4    4    0    0 -0.68135172460E+01  0.27308390541E+02 -0.74899251586E+02  0.80012937075E+02  0.00000000000E+00 0. -1.
         13    1    4    4    0    0 -0.16089498932E+02 -0.71298078927E+02 -0.13474003846E+03  0.15328785339E+03  0.00000000000E+00 0.  1.
         21    1    1    2  503  501 -0.59446605169E+02 -0.15530637637E+02 -0.43197972190E+03  0.43632737675E+03  0.00000000000E+00 0. -1.
         -1    1    1    2    0  502 -0.14786665357E+02  0.53646909847E+02 -0.22288850349E+03  0.22973010556E+03  0.00000000000E+00 0.  1.
<scales pt_clust_5="13000.00000" pt_clust_6="13000.00000" pt_clust_7="13000.00000" pt_clust_8="13000.00000" pt_clust_9="68.31585" pt_clust_10="55.64743"></scales>
<clustering>
<clus scale="   55.647">  2 10  1 -1</clus>
<clus scale="   68.316">  2  9  1 -1</clus>
<clus scale="   89.560">  7  8 -1 -1</clus>
<clus scale="   92.206">  5  6 -1 -1</clus>
<clus scale="  112.558">  2  7  1 -1</clus>
<clus scale="   55.647">  2  5  1 -1</clus>
</clustering>
</event>
<event>
10    2  0.1671105E-006  0.1123593E+03  0.7546771E-02  0.1257835E+00
         21   -1    0    0  503  502  0.00000000000E+00  0.00000000000E+00  0.18952672086E+03  0.18952672086E+03  0.00000000000E+00 0.  1.
         -3   -1    0    0    0  501 -0.00000000000E+00 -0.00000000000E+00 -0.27396801156E+03  0.27396801156E+03  0.00000000000E+00 0.  1.
         23    2    1    2    0    0 -0.59819095573E+02  0.62134374077E+02 -0.13761020056E+03  0.18843917323E+03  0.95570654875E+02 0.  0.
         23    2    1    2    0    0  0.14489925141E+01 -0.32656655775E+02 -0.40347621780E+02  0.10521242768E+03  0.91505014124E+02 0.  0.
        -11    1    4    4    0    0 -0.18466442910E+02  0.20802206669E+02 -0.39308512222E+02  0.48154962872E+02  0.00000000000E+00 0.  1.
         11    1    4    4    0    0  0.19915435424E+02 -0.53458862444E+02 -0.10391095582E+01  0.57057464811E+02  0.00000000000E+00 0. -1.
        -11    1    3    3    0    0 -0.17472823292E+02  0.42407521160E+02 -0.30124185886E+01  0.45964900419E+02  0.00000000000E+00 0.  1.
         11    1    3    3    0    0 -0.42346272281E+02  0.19726852917E+02 -0.13459778197E+03  0.14247427281E+03  0.00000000000E+00 0. -1.
         21    1    1    2  503  501 -0.25903615909E+02 -0.15701543663E+02 -0.13306068011E+02  0.33084546793E+02  0.00000000000E+00 0.  1.
         -3    1    1    2    0  502  0.84273718968E+02 -0.13776174639E+02  0.10682259965E+03  0.13675858471E+03  0.00000000000E+00 0.  1.
<scales pt_clust_5="13000.00000" pt_clust_6="13000.00000" pt_clust_7="13000.00000" pt_clust_8="13000.00000" pt_clust_9="30.29085" pt_clust_10="84.02582"></scales>
<clustering>
<clus scale="   30.291">  2  9  1 -1</clus>
<clus scale="   84.026">  1 10  2 -1</clus>
<clus scale="   91.505">  5  6 -1 -1</clus>
<clus scale="   95.571">  7  8 -1 -1</clus>
<clus scale="  108.922">  1  5  2 -1</clus>
<clus scale="   84.026">  1  5  2 -1</clus>
</clustering>
</event>
<event>
10    2  0.1671105E-006  0.1280239E+03  0.7546771E-02  0.1230766E+00
          2   -1    0    0  503    0 -0.00000000000E+00  0.00000000000E+00  0.40502775747E+03  0.40502775747E+03  0.00000000000E+00 0. -1.
         21   -1    0    0  501  502  0.00000000000E+00 -0.00000000000E+00 -0.10360595796E+03  0.10360595796E+03  0.00000000000E+00 0. -1.
         23    2    1    2    0    0  0.64313624625E+02  0.10254323437E+03  0.22885110514E+03  0.27452147242E+03  0.91311846265E+02 0.  0.
         23    2    1    2    0    0 -0.14776114957E+02 -0.50889346495E+02  0.84321341781E+02  0.13597796788E+03  0.92584339444E+02 0.  0.
        -11    1    4    4    0    0  0.28507059935E+02 -0.54894680019E+02  0.38701743015E+02  0.72965082560E+02  0.00000000000E+00 0.  1.
         11    1    4    4    0    0 -0.43283174892E+02  0.40053335248E+01  0.45619598767E+02  0.63012885325E+02  0.00000000000E+00 0. -1.
        -13    1    3    3    0    0  0.48313744773E+02  0.76401742994E+02  0.74450221794E+02  0.11710798347E+03  0.00000000000E+00 0. -1.
         13    1    3    3    0    0  0.15999879852E+02  0.26141491381E+02  0.15440088335E+03  0.15741348895E+03  0.00000000000E+00 0.  1.
         21    1    1    2  503  502 -0.32375941317E+02 -0.21498606011E+02  0.26078800585E+02  0.46802729371E+02  0.00000000000E+00 0. -1.
          2    1    1    2  501    0 -0.17161568351E+02 -0.30155281869E+02 -0.37829448001E+02  0.51331545749E+02  0.00000000000E+00 0. -1.
<scales pt_clust_5="13000.00000" pt_clust_6="13000.00000" pt_clust_7="13000.00000" pt_clust_8="13000.00000" pt_clust_9="44.38682" pt_clust_10="34.69669"></scales>
<clustering>
<clus scale="   34.697">  2 10  1 -1</clus>
<clus scale="   44.387">  2  9  1 -1</clus>
<clus scale="   91.312">  7  8 -1 -1</clus>
<clus scale="   92.584">  5  6 -1 -1</clus>
<clus scale="  127.107">  1  7  2 -1</clus>
<clus scale="   34.697">  2  5  1 -1</clus>
</clustering>
</event>
<event>
10    2  0.1671105E-006  0.1926028E+03  0.7546771E-02  0.1168511E+00
         21   -1    0    0  503  502  0.00000000000E+00  0.00000000000E+00  0.98396272940E+02  0.98396272940E+02  0.00000000000E+00 0. -1.
          2   -1    0    0  502    0 -0.00000000000E+00 -0.00000000000E+00 -0.11397773645E+04  0.11397773645E+04  0.00000000000E+00 0. -1.
         23    2    1    2    0    0 -0.10152405783E+03 -0.37143271616E+02 -0.85472744284E+02  0.16793756937E+03  0.95972288938E+02 0.  0.
         23    2    1    2    0    0  0.10396566522E+02  0.18358158151E+03 -0.79801118174E+03  0.82403605221E+03  0.91669425114E+02 0.  0.
        -11    1    4    4    0    0  0.14847524845E+02  0.14187867561E+03 -0.73241777387E+03  0.74618081124E+03  0.00000000000E+00 0. -1.
         11    1    4    4    0    0 -0.44509583224E+01  0.41702905902E+02 -0.65593407869E+02  0.77855240970E+02  0.00000000000E+00 0.  1.
        -13    1    3    3    0    0 -0.84764062781E+02 -0.63218417928E+02 -0.40319652388E+02  0.11316885204E+03  0.00000000000E+00 0.  1.
         13    1    3    3    0    0 -0.16759995053E+02  0.26075146312E+02 -0.45153091896E+02  0.54768717322E+02  0.00000000000E+00 0. -1.
         21    1    1    2  503  501  0.96205238408E+01 -0.86973391602E+02 -0.64420725200E+02  0.10865981392E+03  0.00000000000E+00 0.  1.
          2    1    1    2  501    0  0.81506967471E+02 -0.59464918294E+02 -0.93476440367E+02  0.13754020197E+03  0.00000000000E+00 0. -1.
<scales pt_clust_5="13000.00000" pt_clust_6="13000.00000" pt_clust_7="13000.00000" pt_clust_8="13000.00000" pt_clust_9="71.74237" pt_clust_10="186.08353"></scales>
<clustering>
<clus scale="   71.742">  9 10 -1 -1</clus>
<clus scale="   91.669">  5  6 -1 -1</clus>
<clus scale="   95.972">  7  8 -1 -1</clus>
<clus scale="  144.560">  2  7  1 -1</clus>
<clus scale="  186.084">  1  9  2 -1</clus>
<clus scale="  186.084">  1  5  2 -1</clus>
</clustering>
</event>
<event>
10    2  0.1671105E-006  0.1055380E+03  0.7546771E-02  0.1275538E+00
          4   -1    0    0  502    0 -0.00000000000E+00  0.00000000000E+00  0.22094679276E+02  0.22094679276E+02  0.00000000000E+00 0. -1.
         21   -1    0    0  503  502  0.00000000000E+00 -0.00000000000E+00 -0.12565983362E+04  0.12565983362E+04  0.00000000000E+00 0.  1.
         23    2    1    2    0    0 -0.25379350842E+01 -0.49989132426E+00 -0.18679446343E+03  0.20784761132E+03  0.91114032702E+02 0.  0.
         23    2    1    2    0    0 -0.24270814899E+02  0.79990200744E+02 -0.64114803481E+03  0.65484321770E+03  0.10373684280E+03 0.  0.
        -11    1    3    3    0    0  0.43135378381E+02 -0.44509699346E+01 -0.11224303881E+03  0.12032859911E+03  0.00000000000E+00 0. -1.
         11    1    3    3    0    0 -0.45673313466E+02  0.39510786103E+01 -0.74551424623E+02  0.87519012212E+02  0.00000000000E+00 0.  1.
        -13    1    4    4    0    0 -0.64911906064E+00 -0.22578651844E+02 -0.57444893818E+02  0.61726272368E+02  0.00000000000E+00 0. -1.
         13    1    4    4    0    0 -0.23621695838E+02  0.10256885259E+03 -0.58370314099E+03  0.59311694533E+03  0.00000000000E+00 0.  1.
         21    1    1    2  503  501  0.20403170898E+02 -0.49380798950E+02 -0.19398380708E+03  0.20120752992E+03  0.00000000000E+00 0. -1.
          4    1    1    2  501    0  0.64055790853E+01 -0.30109510470E+02 -0.21257735157E+03  0.21479465651E+03  0.00000000000E+00 0. -1.
<scales pt_clust_5="13000.00000" pt_clust_6="13000.00000" pt_clust_7="13000.00000" pt_clust_8="13000.00000" pt_clust_9="20.48605" pt_clust_10="88.12402"></scales>
<clustering>
<clus scale="   20.486">  9 10 -1 -1</clus>
<clus scale="   88.124">  2  9  1 -1</clus>
<clus scale="   91.114">  5  6 -1 -1</clus>
<clus scale="   93.160">  1  5  2 -1</clus>
<clus scale="  103.737">  7  8 -1 -1</clus>
<clus scale="   88.124">  2  5  1 -1</clus>
</clustering>
</event>
<event>
10    2  0.1671105E-006  0.1238860E+03  0.7546771E-02  0.1268188E+00
          3   -1    0    0  502    0 -0.00000000000E+00  0.00000000000E+00  0.60193320265E+03  0.60193320265E+03  0.00000000000E+00 0. -1.
         21   -1    0    0  503  502  0.00000000000E+00 -0.00000000000E+00 -0.32947958964E+02  0.32947958964E+02  0.00000000000E+00 0. -1.
         23    2    1    2    0    0 -0.17536964087E+02 -0.22867906760E+02  0.18406914333E+03  0.19566750280E+03  0.59781567857E+02 0.  0.
         23    2    1    2    0    0 -0.64949925751E+00  0.93781192623E+02  0.26344664616E+03  0.29540320408E+03  0.95202855364E+02 0.  0.
        -11    1    3    3    0    0  0.13061676028E+02 -0.27315733600E+02  0.12905796218E+03  0.13256211482E+03  0.00000000000E+00 0. -1.
         11    1    3    3    0    0 -0.30598640115E+02  0.44478268397E+01  0.55011181148E+02  0.63105387978E+02  0.00000000000E+00 0.  1.
        -13    1    4    4    0    0  0.23982318750E+02 -0.39096253128E+01  0.18479442859E+02  0.30527472727E+02  0.00000000000E+00 0.  1.
         13    1    4    4    0    0 -0.24631818008E+02  0.97690817935E+02  0.24496720330E+03  0.26487573136E+03  0.00000000000E+00 0. -1.
         21    1    1    2  503  501 -0.37156012601E+01 -0.32310930312E+02  0.54580857242E+02  0.63536382394E+02  0.00000000000E+00 0. -1.
          3    1    1    2  501    0  0.21902064604E+02 -0.38602355550E+02  0.66888596951E+02  0.80274072340E+02  0.00000000000E+00 0. -1.
<scales pt_clust_5="13000.00000" pt_clust_6="13000.00000" pt_clust_7="13000.00000" pt_clust_8="13000.00000" pt_clust_9="20.38696" pt_clust_10="82.77273"></scales>
<clustering>
<clus scale="   20.387">  9 10 -1 -1</clus>
<clus scale="   59.782">  5  6 -1 -1</clus>
<clus scale="   66.365">  1  5  2 -1</clus>
<clus scale="   82.773">  2  9  1 -1</clus>
<clus scale="   95.203">  7  8 -1 -1</clus>
<clus scale="   82.773">  2  5  1 -1</clus>
</clustering>
</event>
<event>
10    2  0.1671105E-006  0.1053287E+03  0.7546771E-02  0.1272366E+00
          1   -1    0    0  503    0 -0.00000000000E+00  0.00000000000E+00  0.41039612344E+03  0.41039612344E+03  0.00000000000E+00 0. -1.
         21   -1    0    0  501  502  0.00000000000E+00 -0.00000000000E+00 -0.25279991886E+03  0.25279991886E+03  0.00000000000E+00 0. -1.
         23    2    1    2    0    0  0.53690693761E+01 -0.51715151828E+02  0.31480096005E+03  0.33138506561E+03  0.89516107077E+02 0.  0.
         23    2    1    2    0    0  0.12355898257E+02  0.12059334625E+02  0.40507767754E+02  0.10547333689E+03  0.95841795543E+02 0.  0.
        -11    1    3    3    0    0 -0.90585458370E+01  0.23622771454E+02  0.55879965886E+02  0.61340550790E+02  0.00000000000E+00 0.  1.
         11    1    3    3    0    0  0.14427615213E+02 -0.75337923282E+02  0.25892099417E+03  0.27004451482E+03  0.00000000000E+00 0. -1.
        -11    1    4    4    0    0 -0.13919843452E+02 -0.38017476094E+02  0.21311911759E+02  0.45752465651E+02  0.00000000000E+00 0. -1.
         11    1    4    4    0    0  0.26275741709E+02  0.50076810719E+02  0.19195855995E+02  0.59720871239E+02  0.00000000000E+00 0.  1.
         21    1    1    2  503  502 -0.92152535261E+01 -0.31469129576E+02 -0.32053438469E+02  0.45854660958E+02  0.00000000000E+00 0. -1.
          1    1    1    2  501    0 -0.85097141066E+01  0.71124946779E+02 -0.16565908476E+03  0.18048297884E+03  0.00000000000E+00 0. -1.
<scales pt_clust_5="13000.00000" pt_clust_6="13000.00000" pt_clust_7="13000.00000" pt_clust_8="13000.00000" pt_clust_9="32.79065" pt_clust_10="48.36794"></scales>
<clustering>
<clus scale="   32.791">  2  9  1 -1</clus>
<clus scale="   48.368">  2 10  1 -1</clus>
<clus scale="   89.516">  5  6 -1 -1</clus>
<clus scale="   95.842">  7  8 -1 -1</clus>
<clus scale="   99.607">  1  5  2 -1</clus>
<clus scale="   32.791">  2  5  1 -1</clus>
</clustering>
</event>
<event>
10    2  0.1671105E-006  0.1278973E+03  0.7546771E-02  0.1231967E+00
         21   -1    0    0  503  502  0.00000000000E+00  0.00000000000E+00  0.94278358710E+02  0.94278358710E+02  0.00000000000E+00 0.  1.
          1   -1    0    0  502    0 -0.00000000000E+00 -0.00000000000E+00 -0.28165461793E+03  0.28165461793E+03  0.00000000000E+00 0. -1.
         23    2    1    2    0    0 -0.17141713023E+02  0.59844146502E+02 -0.60092268276E+02  0.12924345025E+03  0.96008481551E+02 0.  0.
         23    2    1    2    0    0 -0.10324725077E+02 -0.11239480421E+03 -0.94047815078E+02  0.17294984487E+03  0.91254947042E+02 0.  0.
        -11    1    3    3    0    0 -0.54480354648E+02  0.17081837568E+02 -0.23753801664E+02  0.61839641903E+02  0.00000000000E+00 0.  1.
         11    1    3    3    0    0  0.37338641625E+02  0.42762308934E+02 -0.36338466612E+02  0.67403808345E+02  0.00000000000E+00 0. -1.
        -13    1    4    4    0    0  0.77434795517E-01 -0.66500468405E+02 -0.10532232339E+03  0.12455966481E+03  0.00000000000E+00 0. -1.
         13    1    4    4    0    0 -0.10402159872E+02 -0.45894335803E+02  0.11274508308E+02  0.48390180062E+02  0.00000000000E+00 0.  1.
         21    1    1    2  503  501  0.12770808445E+02  0.20183212569E+02 -0.29559236276E+02  0.38002685000E+02  0.00000000000E+00 0. -1.
          1    1    1    2  501    0  0.14695629654E+02  0.32367445137E+02 -0.36769395919E+01  0.35736996522E+02  0.00000000000E+00 0. -1.
<scales pt_clust_5="13000.00000" pt_clust_6="13000.00000" pt_clust_7="13000.00000" pt_clust_8="13000.00000" pt_clust_9="23.42836" pt_clust_10="65.82475"></scales>
<clustering>
<clus scale="   23.428">  9 10 -1 -1</clus>
<clus scale="   65.825">  1  9  2 -1</clus>
<clus scale="   91.255">  7  8 -1 -1</clus>
<clus scale="   96.008">  5  6 -1 -1</clus>
<clus scale="  124.369">  1  7  2 -1</clus>
<clus scale="   65.825">  1  5  2 -1</clus>
</clustering>
</event>
<event>
10    2  0.1671105E-006  0.1306025E+03  0.7546771E-02  0.1227654E+00
         -3   -1    0    0    0  501 -0.00000000000E+00  0.00000000000E+00  0.10319996980E+03  0.10319996980E+03  0.00000000000E+00 0.  1.
         21   -1    0    0  503  502  0.00000000000E+00 -0.00000000000E+00 -0.53393725176E+03  0.53393725176E+03  0.00000000000E+00 0.  1.
         23    2    1    2    0    0 -0.94465021106E+02  0.48283028393E+02  0.25200506753E+02  0.14115998351E+03  0.89644767614E+02 0.  0.
         23    2    1    2    0    0  0.29402083111E+02 -0.19644469337E+02 -0.20145372649E+03  0.22499845281E+03  0.93756664755E+02 0.  0.
        -11    1    3    3    0    0 -0.87109862794E+02  0.71735453209E+02  0.28425458664E+02  0.11637057250E+03  0.00000000000E+00 0.  1.
         11    1    3    3    0    0 -0.73551583118E+01 -0.23452424816E+02 -0.32249519114E+01  0.24789411013E+02  0.00000000000E+00 0. -1.
        -11    1    4    4    0    0  0.59777069152E+02 -0.30585431740E+02 -0.14855662215E+03  0.16302710393E+03  0.00000000000E+00 0. -1.
         11    1    4    4    0    0 -0.30374986040E+02  0.10940962402E+02 -0.52897104341E+02  0.61971348887E+02  0.00000000000E+00 0.  1.
         21    1    1    2  503  501  0.32631921121E+02  0.15315516623E+02 -0.72392964310E+02  0.80871185270E+02  0.00000000000E+00 0.  1.
         -3    1    1    2    0  502  0.32431016873E+02 -0.43954075679E+02 -0.18209109792E+03  0.19010759997E+03  0.00000000000E+00 0.  1.
<scales pt_clust_5="13000.00000" pt_clust_6="13000.00000" pt_clust_7="13000.00000" pt_clust_8="13000.00000" pt_clust_9="36.04729" pt_clust_10="59.26516"></scales>
<clustering>
<clus scale="   36.047">  2  9  1 -1</clus>
<clus scale="   59.265">  2 10  1 -1</clus>
<clus scale="   89.645">  5  6 -1 -1</clus>
<clus scale="   93.757">  7  8 -1 -1</clus>
<clus scale="  127.683">  1  5  2 -1</clus>
<clus scale="   36.047">  2  5  1 -1</clus>
</clustering>
</event>
<event>
10    2  0.1671105E-006  0.1316950E+03  0.7546771E-02  0.1225617E+00
         -1   -1    0    0    0  501 -0.00000000000E+00  0.00000000000E+00  0.53529560388E+03  0.53529560388E+03  0.00000000000E+00 0.  1.
         21   -1    0    0  501  502  0.00000000000E+00 -0.00000000000E+00 -0.12210170777E+03  0.12210170777E+03  0.00000000000E+00 0.  1.
         23    2    1    2    0    0  0.50732026608E+02  0.66411158993E+02  0.33629553333E+03  0.35865672532E+03  0.92497461142E+02 0.  0.
         23    2    1    2    0    0 -0.11639936616E+02 -0.15365641256E+03  0.64216474992E+02  0.19207246232E+03  0.94985756169E+02 0.  0.
        -11    1    4    4    0    0 -0.29541819259E+02 -0.21693899049E+02 -0.12083229216E+02  0.38592081693E+02  0.00000000000E+00 0. -1.
         11    1    4    4    0    0  0.17901882643E+02 -0.13196251351E+03  0.76299704208E+02  0.15348038063E+03  0.00000000000E+00 0.  1.
        -11    1    3    3    0    0 -0.53018362348E+01  0.60214724025E+02  0.23583991000E+03  0.24346331470E+03  0.00000000000E+00 0.  1.
         11    1    3    3    0    0  0.56033862843E+02  0.61964349673E+01  0.10045562333E+03  0.11519341062E+03  0.00000000000E+00 0. -1.
         21    1    1    2  503  502 -0.23843832114E+02  0.82983408218E+01 -0.13533391448E+00  0.25246962303E+02  0.00000000000E+00 0. -1.
         -1    1    1    2    0  503 -0.15248257878E+02  0.78946912747E+02  0.12817221704E+02  0.81421161701E+02  0.00000000000E+00 0.  1.
<scales pt_clust_5="13000.00000" pt_clust_6="13000.00000" pt_clust_7="13000.00000" pt_clust_8="13000.00000" pt_clust_9="25.24660" pt_clust_10="84.65540"></scales>
<clustering>
<clus scale="   25.247">  2  9  1 -1</clus>
<clus scale="   84.655">  2 10  1 -1</clus>
<clus scale="   92.497">  7  8 -1 -1</clus>
<clus scale="   94.986">  5  6 -1 -1</clus>
<clus scale="  129.912">  1  7  2 -1</clus>
<clus scale="   25.247">  2  5  1 -1</clus>
</clustering>
</event>
<event>
10    2  0.1671105E-006  0.1014851E+03  0.7546771E-02  0.1278844E+00
          3   -1    0    0  503    0 -0.00000000000E+00  0.00000000000E+00  0.30834270272E+03  0.30834270272E+03  0.00000000000E+00 0. -1.
         21   -1    0    0  501  502  0.00000000000E+00 -0.00000000000E+00 -0.10073620270E+03  0.10073620270E+03  0.00000000000E+00 0. -1.
         23    2    1    2    0    0 -0.24949951694E+02  0.26668441342E+02  0.96060706970E+02  0.13691325709E+03  0.90464770444E+02 0.  0.
         23    2    1    2    0    0  0.30335589718E+02 -0.47339798363E+02 -0.33429883608E+02  0.11440217256E+03  0.93856248896E+02 0.  0.
        -13    1    3    3    0    0  0.51847277418E+01 -0.26914599739E+02  0.63088193551E+01  0.28126113890E+02  0.00000000000E+00 0. -1.
         13    1    3    3    0    0 -0.30134679436E+02  0.53583041082E+02  0.89751887615E+02  0.10878714321E+03  0.00000000000E+00 0.  1.
        -13    1    4    4    0    0 -0.27019278261E+02  0.94192084107E+01 -0.10948989035E+02  0.30637285221E+02  0.00000000000E+00 0.  1.
         13    1    4    4    0    0  0.57354867979E+02 -0.56759006774E+02 -0.22480894573E+02  0.83764887344E+02  0.00000000000E+00 0. -1.
         21    1    1    2  503  502 -0.97845979982E+01 -0.19262114037E+02  0.42063783934E+02  0.47287729000E+02  0.00000000000E+00 0. -1.
          3    1    1    2  501    0  0.43989599742E+01  0.39933471058E+02  0.10291189272E+03  0.11047574676E+03  0.00000000000E+00 0. -1.
<scales pt_clust_5="13000.00000" pt_clust_6="13000.00000" pt_clust_7="13000.00000" pt_clust_8="13000.00000" pt_clust_9="21.60480" pt_clust_10="32.14201"></scales>
<clustering>
<clus scale="   21.605">  1  9  2 -1</clus>
<clus scale="   32.142">  2 10  1 -1</clus>
<clus scale="   90.465">  5  6 -1 -1</clus>
<clus scale="   93.856">  7  8 -1 -1</clus>
<clus scale="   98.357">  1  5  2 -1</clus>
<clus scale="   32.142">  2  5  1 -1</clus>
</clustering>
</event>
<event>
10    2  0.1671105E-006  0.1779961E+03  0.7546771E-02  0.1169932E+00
          1   -1    0    0  503    0 -0.00000000000E+00  0.00000000000E+00  0.15892358328E+03  0.15892358328E+03  0.00000000000E+00 0. -1.
         21   -1    0    0  501  502  0.00000000000E+00 -0.00000000000E+00 -0.61019262431E+03  0.61019262431E+03  0.00000000000E+00 0. -1.
         23    2    1    2    0    0  0.12817344252E+03  0.86913556288E+01 -0.13486033084E+02  0.15856053238E+03  0.91954327310E+02 0.  0.
         23    2    1    2    0    0 -0.19168967069E+03  0.18174972274E+02 -0.58428413482E+02  0.22066190854E+03  0.90567869080E+02 0.  0.
        -11    1    3    3    0    0  0.48286106531E+02 -0.41210544059E+02 -0.10324104491E+02  0.64315193843E+02  0.00000000000E+00 0.  1.
         11    1    3    3    0    0  0.79887335988E+02  0.49901899688E+02 -0.31619285924E+01  0.94245338538E+02  0.00000000000E+00 0. -1.
        -13    1    4    4    0    0 -0.32274223946E+02  0.34055921719E+02 -0.35475935947E+02  0.58821538290E+02  0.00000000000E+00 0.  1.
         13    1    4    4    0    0 -0.15941544675E+03 -0.15880949445E+02 -0.22952477535E+02  0.16184037025E+03  0.00000000000E+00 0. -1.
         21    1    1    2  503  502  0.39299515340E+02 -0.36718168500E+01 -0.31368203563E+03  0.31615558452E+03  0.00000000000E+00 0. -1.
          1    1    1    2  501    0  0.24216712833E+02 -0.23194511053E+02 -0.65672558836E+02  0.73738182155E+02  0.00000000000E+00 0. -1.
<scales pt_clust_5="13000.00000" pt_clust_6="13000.00000" pt_clust_7="13000.00000" pt_clust_8="13000.00000" pt_clust_9="56.10658" pt_clust_10="33.53259"></scales>
<clustering>
<clus scale="   33.533">  2 10  1 -1</clus>
<clus scale="   56.107">  2  9  1 -1</clus>
<clus scale="   90.568">  7  8 -1 -1</clus>
<clus scale="   91.954">  5  6 -1 -1</clus>
<clus scale="  177.284">  2  7  1 -1</clus>
<clus scale="   33.533">  2  5  1 -1</clus>
</clustering>
</event>
<event>
10    2  0.1671105E-006  0.2215295E+03  0.7546771E-02  0.1132867E+00
          2   -1    0    0  503    0 -0.00000000000E+00  0.00000000000E+00  0.61089534554E+03  0.61089534554E+03  0.00000000000E+00 0. -1.
         21   -1    0    0  501  502  0.00000000000E+00 -0.00000000000E+00 -0.15994774663E+03  0.15994774663E+03  0.00000000000E+00 0. -1.
         23    2    1    2    0    0 -0.21450734681E+03 -0.14352225468E+02  0.39353599861E+03  0.45787820787E+03  0.92533684826E+02 0.  0.
         23    2    1    2    0    0  0.17683138647E+03 -0.27504546363E+02  0.11004818190E+03  0.22894212329E+03  0.90983812666E+02 0.  0.
        -11    1    3    3    0    0 -0.17970329633E+03 -0.14362230982E+01  0.37617306020E+03  0.41689508113E+03  0.00000000000E+00 0. -1.
         11    1    3    3    0    0 -0.34804050490E+02 -0.12916002369E+02  0.17362938414E+02  0.40983126748E+02  0.00000000000E+00 0.  1.
        -13    1    4    4    0    0  0.12307224122E+03  0.17854658740E+02  0.42501944134E+02  0.13142290764E+03  0.00000000000E+00 0. -1.
         13    1    4    4    0    0  0.53759145255E+02 -0.45359205103E+02  0.67546237765E+02  0.97519215657E+02  0.00000000000E+00 0.  1.
         21    1    1    2  503  502  0.34511960347E+02  0.16668909255E+02 -0.21841840560E+02  0.44113421334E+02  0.00000000000E+00 0.  1.
          2    1    1    2  501    0  0.31639999963E+01  0.25187862576E+02 -0.30794741045E+02  0.39909339673E+02  0.00000000000E+00 0. -1.
<scales pt_clust_5="13000.00000" pt_clust_6="13000.00000" pt_clust_7="13000.00000" pt_clust_8="13000.00000" pt_clust_9="42.35715" pt_clust_10="25.38581"></scales>
<clustering>
<clus scale="   25.386">  2 10  1 -1</clus>
<clus scale="   42.357">  2  9  1 -1</clus>
<clus scale="   90.984">  7  8 -1 -1</clus>
<clus scale="   92.534">  5  6 -1 -1</clus>
<clus scale="  220.887">  2  7  1 -1</clus>
<clus scale="   25.386">  2  5  1 -1</clus>
</clustering>
</event>
<event>
10    2  0.1671105E-006  0.1435815E+03  0.7546771E-02  0.1209541E+00
          2   -1    0    0  503    0 -0.00000000000E+00  0.00000000000E+00  0.57973234868E+02  0.57973234868E+02  0.00000000000E+00 0. -1.
         21   -1    0    0  501  502  0.00000000000E+00 -0.00000000000E+00 -0.81574455886E+03  0.81574455886E+03  0.00000000000E+00 0.  1.
         23    2    1    2    0    0 -0.98166936344E+02 -0.84105774198E+02 -0.18572396456E+03  0.24395119876E+03  0.91149699509E+02 0.  0.
         23    2    1    2    0    0  0.88191147206E+02  0.18519089428E+02 -0.21379871023E+03  0.25092012615E+03  0.95553053811E+02 0.  0.
        -11    1    3    3    0    0 -0.11302910623E+03 -0.67624993467E+02 -0.17572902286E+03  0.21961194883E+03  0.00000000000E+00 0. -1.
         11    1    3    3    0    0  0.14862169887E+02 -0.16480780731E+02 -0.99949416990E+01  0.24339249923E+02  0.00000000000E+00 0.  1.
        -13    1    4    4    0    0  0.31150053373E+02  0.32818797975E+02 -0.17430633066E+03  0.18008358125E+03  0.00000000000E+00 0.  1.
         13    1    4    4    0    0  0.57041093833E+02 -0.14299708547E+02 -0.39492379573E+02  0.70836544908E+02  0.00000000000E+00 0. -1.
         21    1    1    2  503  502  0.39006060700E+02  0.28030962284E+02 -0.29945417723E+03  0.30328206653E+03  0.00000000000E+00 0.  1.
          2    1    1    2  501    0 -0.29030271562E+02  0.37555722485E+02 -0.58794471975E+02  0.75564402288E+02  0.00000000000E+00 0. -1.
<scales pt_clust_5="13000.00000" pt_clust_6="13000.00000" pt_clust_7="13000.00000" pt_clust_8="13000.00000" pt_clust_9="51.07142" pt_clust_10="47.46779"></scales>
<clustering>
<clus scale="   47.468">  2 10  1 -1</clus>
<clus scale="   51.071">  2  9  1 -1</clus>
<clus scale="   91.150">  5  6 -1 -1</clus>
<clus scale="   95.553">  7  8 -1 -1</clus>
<clus scale="  140.690">  1  5  2 -1</clus>
<clus scale="   47.468">  2  5  1 -1</clus>
</clustering>
</event>
<event>
10    2  0.1671105E-006  0.9562856E+02  0.7546771E-02  0.1291330E+00
          1   -1    0    0  502    0 -0.00000000000E+00  0.00000000000E+00  0.17062609672E+03  0.17062609672E+03  0.00000000000E+00 0. -1.
         21   -1    0    0  503  502  0.00000000000E+00 -0.00000000000E+00 -0.34164495283E+03  0.34164495283E+03  0.00000000000E+00 0. -1.
         23    2    1    2    0    0  0.23736632757E+02 -0.38780423378E+02  0.72924544959E+02  0.12742313450E+03  0.94081438001E+02 0.  0.
         23    2    1    2    0    0  0.34355168914E+02 -0.13662542740E+02  0.23805418561E+02  0.10131774280E+03  0.91277841500E+02 0.  0.
        -11    1    4    4    0    0 -0.30786784548E+02  0.27784491825E+01  0.33763024038E+01  0.31095744092E+02  0.00000000000E+00 0. -1.
         11    1    4    4    0    0  0.65141953462E+02 -0.16440991923E+02  0.20429116157E+02  0.70221998713E+02  0.00000000000E+00 0.  1.
        -13    1    3    3    0    0  0.31181103011E+02  0.24738802766E+02  0.20752217049E+02  0.44887905495E+02  0.00000000000E+00 0.  1.
         13    1    3    3    0    0 -0.74444702535E+01 -0.63519226145E+02  0.52172327910E+02  0.82535229005E+02  0.00000000000E+00 0. -1.
         21    1    1    2  503  501 -0.88417324594E+01  0.33224406169E+02 -0.15818846057E+03  0.16188151981E+03  0.00000000000E+00 0.  1.
          1    1    1    2  501    0 -0.49250069212E+02  0.19218559949E+02 -0.10956035905E+03  0.12164865243E+03  0.00000000000E+00 0. -1.
<scales pt_clust_5="13000.00000" pt_clust_6="13000.00000" pt_clust_7="13000.00000" pt_clust_8="13000.00000" pt_clust_9="34.38077" pt_clust_10="68.12619"></scales>
<clustering>
<clus scale="   34.381">  2  9  1 -1</clus>
<clus scale="   68.126">  2 10  1 -1</clus>
<clus scale="   91.278">  5  6 -1 -1</clus>
<clus scale="   92.872">  2  5  1 -1</clus>
<clus scale="   94.081">  7  8 -1 -1</clus>
<clus scale="   34.381">  2  5  1 -1</clus>
</clustering>
</event>
<event>
10    2  0.1671105E-006  0.1139538E+03  0.7546771E-02  0.1253824E+00
         21   -1    0    0  501  502  0.00000000000E+00  0.00000000000E+00  0.78009772874E+03  0.78009772874E+03  0.00000000000E+00 0.  1.
         -3   -1    0    0    0  501 -0.00000000000E+00 -0.00000000000E+00 -0.44384227662E+02  0.44384227662E+02  0.00000000000E+00 0.  1.
         23    2    1    2    0    0  0.15826915314E+02 -0.10220091377E+03  0.13794933779E+03  0.19509374299E+03  0.91301865995E+02 0.  0.
         23    2    1    2    0    0 -0.20881918428E+02  0.22547328430E+02  0.18565277530E+03  0.20866237397E+03  0.90158731121E+02 0.  0.
        -13    1    4    4    0    0  0.66874576270E+00 -0.31653345621E+02  0.10111007642E+03  0.10595106919E+03  0.00000000000E+00 0. -1.
         13    1    4    4    0    0 -0.21550664191E+02  0.54200674051E+02  0.84542698886E+02  0.10271130478E+03  0.00000000000E+00 0.  1.
        -13    1    3    3    0    0 -0.26500191913E+02 -0.80214570590E+01  0.58804199957E+02  0.64996445113E+02  0.00000000000E+00 0. -1.
         13    1    3    3    0    0  0.42327107227E+02 -0.94179456714E+02  0.79145137832E+02  0.13009729788E+03  0.00000000000E+00 0.  1.
         21    1    1    2  503  502  0.93489123851E+01  0.44946563298E+02  0.16950774778E+03  0.17561455599E+03  0.00000000000E+00 0.  1.
         -3    1    1    2    0  503 -0.42939092716E+01  0.34707022046E+02  0.24260364020E+03  0.24511128345E+03  0.00000000000E+00 0.  1.
<scales pt_clust_5="13000.00000" pt_clust_6="13000.00000" pt_clust_7="13000.00000" pt_clust_8="13000.00000" pt_clust_9="24.75086" pt_clust_10="84.70204"></scales>
<clustering>
<clus scale="   24.751">  9 10 -1 -1</clus>
<clus scale="   84.702">  1  9  2 -1</clus>
<clus scale="   90.159">  5  6 -1 -1</clus>
<clus scale="   91.302">  7  8 -1 -1</clus>
<clus scale="  113.040">  1  5  2 -1</clus>
<clus scale="   84.702">  1  5  2 -1</clus>
</clustering>
</event>
<event>
10    2  0.8967180E-006  0.4527224E+03  0.7546771E-02  0.1078439E+00
         21   -1    0    0  501  502  0.00000000000E+00  0.00000000000E+00  0.81309855185E+03  0.81309855185E+03  0.00000000000E+00 0. -1.
          1   -1    0    0  503    0 -0.00000000000E+00 -0.00000000000E+00 -0.16296187948E+04  0.16296187948E+04  0.00000000000E+00 0. -1.
         23    2    1    2    0    0 -0.47256563479E+02  0.20063391151E+02 -0.10004090147E+03  0.14475353276E+03  0.91157450724E+02 0.  0.
         23    2    1    2    0    0 -0.38314313773E+03  0.93577464274E+02 -0.13860116015E+04  0.14439632075E+04  0.91903097628E+02 0.  0.
        -13    1    3    3    0    0 -0.28737104578E+02 -0.33590256161E+02 -0.25401302487E+02  0.50983847016E+02  0.00000000000E+00 0.  1.
         13    1    3    3    0    0 -0.18519458901E+02  0.53653647312E+02 -0.74639598980E+02  0.93769685740E+02  0.00000000000E+00 0. -1.
        -13    1    4    4    0    0 -0.27446261978E+03  0.61271756247E+02 -0.11206164121E+04  0.11553636228E+04  0.00000000000E+00 0. -1.
         13    1    4    4    0    0 -0.10868051794E+03  0.32305708027E+02 -0.26539518936E+03  0.28859958470E+03  0.00000000000E+00 0.  1.
         21    1    1    2  503  502 -0.25023057053E+02 -0.30066428428E+02 -0.10045551311E+01  0.39129945486E+02  0.00000000000E+00 0.  1.
          1    1    1    2  501    0  0.45542275826E+03 -0.83574426997E+02  0.67053681513E+03  0.81487066092E+03  0.00000000000E+00 0. -1.
<scales pt_clust_5="13000.00000" pt_clust_6="13000.00000" pt_clust_7="13000.00000" pt_clust_8="13000.00000" pt_clust_9="39.11705" pt_clust_10="443.29602"></scales>
<clustering>
<clus scale="   39.117">  1  9  2 -1</clus>
<clus scale="   91.157">  5  6 -1 -1</clus>
<clus scale="   91.903">  7  8 -1 -1</clus>
<clus scale="  104.782">  2  5  1 -1</clus>
<clus scale="  443.296">  1 10  2 -1</clus>
<clus scale="   39.117">  1  5  2 -1</clus>
</clustering>
</event>
<event>
10    2  0.1671105E-006  0.2792665E+03  0.7546771E-02  0.1096319E+00
         21   -1    0    0  503  502  0.00000000000E+00  0.00000000000E+00  0.30493440173E+03  0.30493440173E+03  0.00000000000E+00 0. -1.
          3   -1    0    0  502    0 -0.00000000000E+00 -0.00000000000E+00 -0.63339092282E+03  0.63339092282E+03  0.00000000000E+00 0. -1.
         23    2    1    2    0    0  0.49132272136E+02 -0.18764939248E+03 -0.11731493064E+03  0.24404722800E+03  0.90387952069E+02 0.  0.
         23    2    1    2    0    0 -0.71467003973E+02  0.33978772757E+03 -0.33606741229E+03  0.49254550059E+03  0.95375741585E+02 0.  0.
        -11    1    3    3    0    0  0.72139370706E+02 -0.13943486855E+03 -0.10603879522E+03  0.18944761140E+03  0.00000000000E+00 0.  1.
         11    1    3    3    0    0 -0.23007098570E+02 -0.48214523933E+02 -0.11276135414E+02  0.54599616597E+02  0.00000000000E+00 0. -1.
        -13    1    4    4    0    0 -0.24573967722E+02  0.17565298288E+02 -0.10213808745E+02  0.31886383969E+02  0.00000000000E+00 0.  1.
         13    1    4    4    0    0 -0.46893036251E+02  0.32222242928E+03 -0.32585360354E+03  0.46065911662E+03  0.00000000000E+00 0. -1.
         21    1    1    2  503  501 -0.95322809567E+01 -0.58374845197E+02  0.41636153923E+02  0.72332954077E+02  0.00000000000E+00 0. -1.
          3    1    1    2  501    0  0.31867012794E+02 -0.93763489891E+02  0.83289667912E+02  0.12939964189E+03  0.00000000000E+00 0. -1.
<scales pt_clust_5="13000.00000" pt_clust_6="13000.00000" pt_clust_7="13000.00000" pt_clust_8="13000.00000" pt_clust_9="29.37438" pt_clust_10="158.39690"></scales>
<clustering>
<clus scale="   29.374">  9 10 -1 -1</clus>
<clus scale="   90.388">  5  6 -1 -1</clus>
<clus scale="   95.376">  7  8 -1 -1</clus>
<clus scale="  158.397">  1  9  2 -1</clus>
<clus scale="  277.603">  2  5  1 -1</clus>
<clus scale="  158.397">  1  5  2 -1</clus>
</clustering>
</event>
<event>
10    2  0.1671105E-006  0.1756456E+03  0.7546771E-02  0.1172151E+00
          1   -1    0    0  503    0 -0.00000000000E+00  0.00000000000E+00  0.36775371996E+03  0.36775371996E+03  0.00000000000E+00 0. -1.
         21   -1    0    0  501  502  0.00000000000E+00 -0.00000000000E+00 -0.24749507833E+03  0.24749507833E+03  0.00000000000E+00 0. -1.
         23    2    1    2    0    0 -0.10199564160E+03 -0.12154705148E+03  0.14833633133E+03  0.23557683478E+03  0.91192002197E+02 0.  0.
         23    2    1    2    0    0  0.43626346047E+02  0.14011176549E+03  0.12213387056E+03  0.21180106859E+03  0.91697575863E+02 0.  0.
        -13    1    3    3    0    0 -0.69555934299E+02 -0.56659744539E+02  0.26095780171E+02  0.93430960555E+02  0.00000000000E+00 0.  1.
         13    1    3    3    0    0 -0.32439707299E+02 -0.64887306942E+02  0.12224055116E+03  0.14214587423E+03  0.00000000000E+00 0. -1.
        -13    1    4    4    0    0  0.21451505008E+02  0.25133272342E+02 -0.10691205926E+02  0.34729675062E+02  0.00000000000E+00 0. -1.
         13    1    4    4    0    0  0.22174841039E+02  0.11497849314E+03  0.13282507649E+03  0.17707139353E+03  0.00000000000E+00 0.  1.
         21    1    1    2  503  502  0.37766551777E+02 -0.73230735248E+01 -0.41227795726E+02  0.56388571355E+02  0.00000000000E+00 0.  1.
          1    1    1    2  501    0  0.20602743774E+02 -0.11241640481E+02 -0.10898376454E+03  0.11148232356E+03  0.00000000000E+00 0. -1.
<scales pt_clust_5="13000.00000" pt_clust_6="13000.00000" pt_clust_7="13000.00000" pt_clust_8="13000.00000" pt_clust_9="46.49183" pt_clust_10="23.47014"></scales>
<clustering>
<clus scale="   23.470">  2 10  1 -1</clus>
<clus scale="   46.492">  2  9  1 -1</clus>
<clus scale="   91.192">  5  6 -1 -1</clus>
<clus scale="   91.698">  7  8 -1 -1</clus>
<clus scale="  175.382">  1  5  2 -1</clus>
<clus scale="   23.470">  2  5  1 -1</clus>
</clustering>
</event>
<event>
10    2  0.1671105E-006  0.1965302E+03  0.7546771E-02  0.1173386E+00
          1   -1    0    0  502    0 -0.00000000000E+00  0.00000000000E+00  0.58276634699E+03  0.58276634699E+03  0.00000000000E+00 0. -1.
         21   -1    0    0  503  502  0.00000000000E+00 -0.00000000000E+00 -0.11075724091E+03  0.11075724091E+03  0.00000000000E+00 0. -1.
         23    2    1    2    0    0 -0.24671601854E+02  0.81934807398E+02  0.13938598294E+03  0.18505794040E+03  0.86579376666E+02 0.  0.
         23    2    1    2    0    0  0.99756575114E+02 -0.19248315366E+03  0.14822440621E+03  0.27782504719E+03  0.90637428953E+02 0.  0.
        -11    1    4    4    0    0  0.85825416337E+02 -0.69988659958E+02  0.82650428038E+02  0.13818649669E+03  0.00000000000E+00 0.  1.
         11    1    4    4    0    0  0.13931158777E+02 -0.12249449370E+03  0.65573978171E+02  0.13963855050E+03  0.00000000000E+00 0. -1.
        -13    1    3    3    0    0  0.86854750968E+01  0.33062942242E+02  0.60574966171E+00  0.34190094472E+02  0.00000000000E+00 0. -1.
         13    1    3    3    0    0 -0.33357076951E+02  0.48871865156E+02  0.13878023328E+03  0.15086784593E+03  0.00000000000E+00 0.  1.
         21    1    1    2  503  501 -0.64699085481E+02  0.73831619479E+02  0.14999239022E+03  0.17926181082E+03  0.00000000000E+00 0. -1.
          1    1    1    2  501    0 -0.10385887779E+02  0.36716726784E+02  0.34406326716E+02  0.51378789483E+02  0.00000000000E+00 0. -1.
<scales pt_clust_5="13000.00000" pt_clust_6="13000.00000" pt_clust_7="13000.00000" pt_clust_8="13000.00000" pt_clust_9="22.76674" pt_clust_10="178.16433"></scales>
<clustering>
<clus scale="   22.767">  9 10 -1 -1</clus>
<clus scale="   86.579">  7  8 -1 -1</clus>
<clus scale="   90.637">  5  6 -1 -1</clus>
<clus scale="  121.729">  1  7  2 -1</clus>
<clus scale="  178.164">  2  9  1 -1</clus>
<clus scale="  178.164">  2  5  1 -1</clus>
</clustering>
</event>
<event>
10    2  0.1671105E-006  0.1453419E+03  0.7546771E-02  0.1206497E+00
         21   -1    0    0  503  502  0.00000000000E+00  0.00000000000E+00  0.65062833262E+03  0.65062833262E+03  0.00000000000E+00 0.  1.
          4   -1    0    0  502    0 -0.00000000000E+00 -0.00000000000E+00 -0.10663072896E+03  0.10663072896E+03  0.00000000000E+00 0.  1.
         23    2    1    2    0    0 -0.10672201486E+03  0.49545630641E+02 -0.25744112504E+00  0.14861060441E+03  0.90778232499E+02 0.  0.
         23    2    1    2    0    0  0.37255332640E+02 -0.12337799983E+03  0.25687871888E+03  0.30166268331E+03  0.91671193036E+02 0.  0.
        -11    1    3    3    0    0 -0.10594452946E+03  0.73111972970E+01 -0.34128434105E+01  0.10625132671E+03  0.00000000000E+00 0.  1.
         11    1    3    3    0    0 -0.77748540171E+00  0.42234433344E+02  0.31554022855E+01  0.42359277697E+02  0.00000000000E+00 0. -1.
        -13    1    4    4    0    0 -0.10254296833E+02 -0.38874822669E+02  0.15860123055E+03  0.16361770311E+03  0.00000000000E+00 0. -1.
         13    1    4    4    0    0  0.47509629472E+02 -0.84503177162E+02  0.98277488337E+02  0.13804498019E+03  0.00000000000E+00 0.  1.
         21    1    1    2  503  501  0.66294876342E+02  0.49473378175E+02  0.23503557778E+03  0.24916731046E+03  0.00000000000E+00 0.  1.
          4    1    1    2  501    0  0.31718058795E+01  0.24358991016E+02  0.52340748122E+02  0.57818463399E+02  0.00000000000E+00 0.  1.
<scales pt_clust_5="13000.00000" pt_clust_6="13000.00000" pt_clust_7="13000.00000" pt_clust_8="13000.00000" pt_clust_9="20.23099" pt_clust_10="107.95885"></scales>
<clustering>
<clus scale="   20.231">  9 10 -1 -1</clus>
<clus scale="   90.778">  5  6 -1 -1</clus>
<clus scale="   91.671">  7  8 -1 -1</clus>
<clus scale="  107.959">  1  9  2 -1</clus>
<clus scale="  144.780">  2  5  1 -1</clus>
<clus scale="  107.959">  1  5  2 -1</clus>
</clustering>
</event>
<event>
10    2  0.1671105E-006  0.1532175E+03  0.7546771E-02  0.1196795E+00
         21   -1    0    0  501  502  0.00000000000E+00  0.00000000000E+00  0.64182473277E+02  0.64182473277E+02  0.00000000000E+00 0.  1.
          1   -1    0    0  503    0 -0.00000000000E+00 -0.00000000000E+00 -0.70264092491E+03  0.70264092491E+03  0.00000000000E+00 0. -1.
         23    2    1    2    0    0  0.10286422784E+03 -0.10981853329E+03 -0.40807221625E+03  0.44443079095E+03  0.91403690554E+02 0.  0.
         23    2    1    2    0    0 -0.66535354888E+02  0.64336580596E+02 -0.20776154955E+03  0.24558289183E+03  0.92627999219E+02 0.  0.
        -11    1    3    3    0    0  0.66103866863E+02 -0.86874220222E+01 -0.12643080891E+03  0.14293334795E+03  0.00000000000E+00 0. -1.
         11    1    3    3    0    0  0.36760360979E+02 -0.10113111127E+03 -0.28164140734E+03  0.30149744299E+03  0.00000000000E+00 0.  1.
        -13    1    4    4    0    0 -0.87834438317E+02  0.35511609746E+02 -0.15861986346E+03  0.18475990924E+03  0.00000000000E+00 0.  1.
         13    1    4    4    0    0  0.21299083429E+02  0.28824970849E+02 -0.49141686090E+02  0.60822982590E+02  0.00000000000E+00 0. -1.
         21    1    1    2  503  502 -0.16242799366E+02  0.26508933780E+02 -0.34757553140E+02  0.46633031230E+02  0.00000000000E+00 0.  1.
          1    1    1    2  501    0 -0.20086073588E+02  0.18973018913E+02  0.12132867300E+02  0.30176684174E+02  0.00000000000E+00 0. -1.
<scales pt_clust_5="13000.00000" pt_clust_6="13000.00000" pt_clust_7="13000.00000" pt_clust_8="13000.00000" pt_clust_9="34.78432" pt_clust_10="27.63016"></scales>
<clustering>
<clus scale="   27.630">  1 10  2 -1</clus>
<clus scale="   34.784">  1  9  2 -1</clus>
<clus scale="   91.404">  5  6 -1 -1</clus>
<clus scale="   92.628">  7  8 -1 -1</clus>
<clus scale="  152.480">  2  5  1 -1</clus>
<clus scale="   27.630">  1  5  2 -1</clus>
</clustering>
</event>
<event>
10    2  0.1671105E-006  0.1485477E+03  0.7546771E-02  0.1202317E+00
         21   -1    0    0  503  502  0.00000000000E+00  0.00000000000E+00  0.10851490521E+03  0.10851490521E+03  0.00000000000E+00 0. -1.
          3   -1    0    0  502    0 -0.00000000000E+00 -0.00000000000E+00 -0.38552903056E+03  0.38552903056E+03  0.00000000000E+00 0. -1.
         23    2    1    2    0    0 -0.53377566455E+02  0.69572654262E+02 -0.88086077429E+02  0.15382687900E+03  0.90631301675E+02 0.  0.
         23    2    1    2    0    0  0.11166652486E+03 -0.11754423777E+03 -0.13032398107E+03  0.22680181738E+03  0.90380660086E+02 0.  0.
        -11    1    3    3    0    0  0.37507289610E+01  0.67694459354E+02 -0.58059369415E+02  0.89260843441E+02  0.00000000000E+00 0. -1.
         11    1    3    3    0    0 -0.57128295416E+02  0.18781949089E+01 -0.30026708013E+02  0.64566035556E+02  0.00000000000E+00 0.  1.
        -13    1    4    4    0    0  0.63291545217E+02 -0.11868017988E+03 -0.11211211919E+03  0.17509977745E+03  0.00000000000E+00 0. -1.
         13    1    4    4    0    0  0.48374979644E+02  0.11359421104E+01 -0.18211861873E+02  0.51702039930E+02  0.00000000000E+00 0.  1.
         21    1    1    2  503  501 -0.67957191787E+01  0.19399438148E+02  0.10120082395E+02  0.22911483307E+02  0.00000000000E+00 0. -1.
          3    1    1    2  501    0 -0.51493239228E+02  0.28572145356E+02 -0.68724149248E+02  0.90503756089E+02  0.00000000000E+00 0. -1.
<scales pt_clust_5="13000.00000" pt_clust_6="13000.00000" pt_clust_7="13000.00000" pt_clust_8="13000.00000" pt_clust_9="20.55529" pt_clust_10="60.72814"></scales>
<clustering>
<clus scale="   20.555">  1  9  2 -1</clus>
<clus scale="   60.728">  1 10  2 -1</clus>
<clus scale="   90.381">  7  8 -1 -1</clus>
<clus scale="   90.631">  5  6 -1 -1</clus>
<clus scale="  148.395">  1  7  2 -1</clus>
<clus scale="   20.555">  1  5  2 -1</clus>
</clustering>
</event>
<event>
10    2  0.1671105E-006  0.1271736E+03  0.7546771E-02  0.1232191E+00
         21   -1    0    0  503  502  0.00000000000E+00  0.00000000000E+00  0.11512407190E+04  0.11512407190E+04  0.00000000000E+00 0. -1.
          1   -1    0    0  502    0 -0.00000000000E+00 -0.00000000000E+00 -0.43318031593E+02  0.43318031593E+02  0.00000000000E+00 0. -1.
         23    2    1    2    0    0  0.64448101839E+02 -0.88122481246E+02  0.12274795716E+03  0.18739701159E+03  0.90174549804E+02 0.  0.
         23    2    1    2    0    0  0.10354535247E+02  0.52278554595E+02  0.35027413496E+03  0.36603303150E+03  0.91912713237E+02 0.  0.
        -13    1    4    4    0    0  0.45109988445E+02  0.48025970646E+02  0.16864284088E+03  0.18105748450E+03  0.00000000000E+00 0. -1.
         13    1    4    4    0    0 -0.34755453198E+02  0.42525839493E+01  0.18163129408E+03  0.18497554700E+03  0.00000000000E+00 0.  1.
        -13    1    3    3    0    0 -0.20221796585E+02 -0.13040465838E+01  0.15607543371E+02  0.25577666131E+02  0.00000000000E+00 0.  1.
         13    1    3    3    0    0  0.84669898424E+02 -0.86818434662E+02  0.10714041379E+03  0.16181934545E+03  0.00000000000E+00 0. -1.
         21    1    1    2  503  501 -0.45744623791E+02  0.44425817369E+01  0.35918303314E+03  0.36211152762E+03  0.00000000000E+00 0. -1.
          1    1    1    2  501    0 -0.29058013295E+02  0.31401344914E+02  0.27571756217E+03  0.27901717992E+03  0.00000000000E+00 0. -1.
<scales pt_clust_5="13000.00000" pt_clust_6="13000.00000" pt_clust_7="13000.00000" pt_clust_8="13000.00000" pt_clust_9="31.51641" pt_clust_10="89.14737"></scales>
<clustering>
<clus scale="   31.516">  9 10 -1 -1</clus>
<clus scale="   89.147">  1  9  2 -1</clus>
<clus scale="   90.175">  7  8 -1 -1</clus>
<clus scale="   91.913">  5  6 -1 -1</clus>
<clus scale="  125.923">  2  7  1 -1</clus>
<clus scale="   89.147">  1  5  2 -1</clus>
</clustering>
</event>
<event>
10    2  0.1671105E-006  0.1434263E+03  0.7546771E-02  0.1209757E+00
          4   -1    0    0  503    0 -0.00000000000E+00  0.00000000000E+00  0.81106800920E+03  0.81106800920E+03  0.00000000000E+00 0. -1.
         21   -1    0    0  501  502  0.00000000000E+00 -0.00000000000E+00 -0.28169313508E+03  0.28169313508E+03  0.00000000000E+00 0. -1.
         23    2    1    2    0    0  0.13240811005E+03  0.31809812517E+02  0.54175587117E+03  0.56539269036E+03  0.87325246000E+02 0.  0.
         23    2    1    2    0    0 -0.65781281329E+02 -0.33628069664E+02  0.18694059645E+03  0.22104893132E+03  0.91966403629E+02 0.  0.
        -11    1    4    4    0    0 -0.81312181124E+02 -0.13984727072E+02  0.17464213957E+03  0.19315051205E+03  0.00000000000E+00 0.  1.
         11    1    4    4    0    0  0.15530899794E+02 -0.19643342592E+02  0.12298456878E+02  0.27898419277E+02  0.00000000000E+00 0. -1.
        -13    1    3    3    0    0  0.54533991769E+02 -0.28362166064E+02  0.16780407137E+03  0.17870807225E+03  0.00000000000E+00 0. -1.
         13    1    3    3    0    0  0.77874118281E+02  0.60171978581E+02  0.37395179980E+03  0.38668461811E+03  0.00000000000E+00 0.  1.
         21    1    1    2  503  502 -0.12334386572E+02  0.75708651848E+02  0.10419930438E+02  0.77411317048E+02  0.00000000000E+00 0. -1.
          4    1    1    2  501    0 -0.54292442149E+02 -0.73890394701E+02 -0.20974152394E+03  0.22890820555E+03  0.00000000000E+00 0. -1.
<scales pt_clust_5="13000.00000" pt_clust_6="13000.00000" pt_clust_7="13000.00000" pt_clust_8="13000.00000" pt_clust_9="76.70683" pt_clust_10="65.56553"></scales>
<clustering>
<clus scale="   76.707">  2  9  1 -1</clus>
<clus scale="   65.566">  2 10  1 -1</clus>
<clus scale="   87.325">  7  8 -1 -1</clus>
<clus scale="   91.966">  5  6 -1 -1</clus>
<clus scale="  140.496">  1  7  2 -1</clus>
<clus scale="   76.707">  2  5  1 -1</clus>
</clustering>
</event>
<event>
10    2  0.1671105E-006  0.1299044E+03  0.7546771E-02  0.1228790E+00
         21   -1    0    0  501  502  0.00000000000E+00  0.00000000000E+00  0.16404531287E+03  0.16404531287E+03  0.00000000000E+00 0.  1.
          2   -1    0    0  503    0 -0.00000000000E+00 -0.00000000000E+00 -0.26222039761E+03  0.26222039761E+03  0.00000000000E+00 0. -1.
         23    2    1    2    0    0 -0.87623591001E+02  0.74018570045E+01 -0.96491117258E+02  0.15621341374E+03  0.85787025449E+02 0.  0.
         23    2    1    2    0    0  0.97217363291E+02  0.65972026324E+02 -0.57170147986E+02  0.15888645958E+03  0.90404409375E+02 0.  0.
        -11    1    4    4    0    0 -0.79977961943E+01  0.38062055429E+02 -0.20872991919E+02  0.44140305834E+02  0.00000000000E+00 0.  1.
         11    1    4    4    0    0  0.10521515949E+03  0.27909970895E+02 -0.36297156067E+02  0.11474615375E+03  0.00000000000E+00 0. -1.
        -13    1    3    3    0    0 -0.59841254231E+02 -0.12419147531E+02 -0.10459002178E+03  0.12113745742E+03  0.00000000000E+00 0.  1.
         13    1    3    3    0    0 -0.27782336769E+02  0.19821004536E+02  0.80989045263E+01  0.35075956319E+02  0.00000000000E+00 0. -1.
         21    1    1    2  503  502  0.23317234864E+02 -0.24929828510E+02  0.63561696879E+01  0.34721616960E+02  0.00000000000E+00 0. -1.
          2    1    1    2  501    0 -0.32911007154E+02 -0.48444054819E+02  0.49130010816E+02  0.76444220199E+02  0.00000000000E+00 0. -1.
<scales pt_clust_5="13000.00000" pt_clust_6="13000.00000" pt_clust_7="13000.00000" pt_clust_8="13000.00000" pt_clust_9="34.13488" pt_clust_10="63.54759"></scales>
<clustering>
<clus scale="   34.135">  1  9  2 -1</clus>
<clus scale="   63.548">  1 10  2 -1</clus>
<clus scale="   85.787">  7  8 -1 -1</clus>
<clus scale="   90.404">  5  6 -1 -1</clus>
<clus scale="  126.734">  2  7  1 -1</clus>
<clus scale="   34.135">  1  5  2 -1</clus>
</clustering>
</event>
<event>
10    2  0.1671105E-006  0.1617339E+03  0.7546771E-02  0.1186784E+00
         21   -1    0    0  503  502  0.00000000000E+00  0.00000000000E+00  0.20860915806E+03  0.20860915806E+03  0.00000000000E+00 0.  1.
          2   -1    0    0  502    0 -0.00000000000E+00 -0.00000000000E+00 -0.19891955049E+03  0.19891955049E+03  0.00000000000E+00 0. -1.
         23    2    1    2    0    0  0.80435090994E+01 -0.13637691154E+03 -0.33714083388E+02  0.16800538467E+03  0.91792210013E+02 0.  0.
         23    2    1    2    0    0  0.38152828353E+02  0.12604916681E+03  0.74621372776E+02  0.17712751898E+03  0.91987922803E+02 0.  0.
        -13    1    3    3    0    0 -0.24915584673E+02 -0.72141228663E+02 -0.53427506445E+02  0.93164594550E+02  0.00000000000E+00 0. -1.
         13    1    3    3    0    0  0.32959093773E+02 -0.64235682875E+02  0.19713423058E+02  0.74840790117E+02  0.00000000000E+00 0.  1.
        -13    1    4    4    0    0 -0.16407726471E+02  0.96517657090E+02  0.53651227884E+02  0.11163926671E+03  0.00000000000E+00 0. -1.
         13    1    4    4    0    0  0.54560554824E+02  0.29531509718E+02  0.20970144892E+02  0.65488252272E+02  0.00000000000E+00 0.  1.
         21    1    1    2  503  501 -0.18848681442E+02  0.15866878116E+02 -0.21940071086E+02  0.32990867411E+02  0.00000000000E+00 0. -1.
          2    1    1    2  501    0 -0.27347656010E+02 -0.55391333865E+01 -0.92776107251E+01  0.29404937488E+02  0.00000000000E+00 0. -1.
<scales pt_clust_5="13000.00000" pt_clust_6="13000.00000" pt_clust_7="13000.00000" pt_clust_8="13000.00000" pt_clust_9="24.46636" pt_clust_10="54.02495"></scales>
<clustering>
<clus scale="   24.466">  9 10 -1 -1</clus>
<clus scale="   54.025">  1  9  2 -1</clus>
<clus scale="   91.792">  5  6 -1 -1</clus>
<clus scale="   91.988">  7  8 -1 -1</clus>
<clus scale="  161.623">  2  5  1 -1</clus>
<clus scale="   54.025">  1  5  2 -1</clus>
</clustering>
</event>
<event>
10    2  0.1671105E-006  0.9732760E+02  0.7546771E-02  0.1288028E+00
         21   -1    0    0  501  502  0.00000000000E+00  0.00000000000E+00  0.20664698774E+03  0.20664698774E+03  0.00000000000E+00 0. -1.
          2   -1    0    0  503    0 -0.00000000000E+00 -0.00000000000E+00 -0.23853935269E+03  0.23853935269E+03  0.00000000000E+00 0. -1.
         23    2    1    2    0    0 -0.32815553169E+01 -0.27573922319E+02 -0.13409419322E+03  0.16445321041E+03  0.91063252527E+02 0.  0.
         23    2    1    2    0    0 -0.38398080532E+02  0.44312642632E+02 -0.51807181107E+02  0.11715167337E+03  0.87192360178E+02 0.  0.
        -11    1    3    3    0    0 -0.27996801560E+02  0.24095586617E+02 -0.64418534144E+02  0.74257428809E+02  0.00000000000E+00 0.  1.
         11    1    3    3    0    0  0.24715246243E+02 -0.51669508936E+02 -0.69675659074E+02  0.90195781597E+02  0.00000000000E+00 0. -1.
        -11    1    4    4    0    0 -0.31300867596E+02  0.67479558300E+02 -0.55275841925E+02  0.92674990160E+02  0.00000000000E+00 0.  1.
         11    1    4    4    0    0 -0.70972129363E+01 -0.23166915668E+02  0.34686608181E+01  0.24476683209E+02  0.00000000000E+00 0. -1.
         21    1    1    2  503  502  0.19810649768E+02  0.86600410566E+01  0.60258562927E+02  0.64019938779E+02  0.00000000000E+00 0. -1.
          2    1    1    2  501    0  0.21868986081E+02 -0.25398761370E+02  0.93750446446E+02  0.99561517868E+02  0.00000000000E+00 0. -1.
<scales pt_clust_5="13000.00000" pt_clust_6="13000.00000" pt_clust_7="13000.00000" pt_clust_8="13000.00000" pt_clust_9="21.62078" pt_clust_10="40.22185"></scales>
<clustering>
<clus scale="   21.621">  1  9  2 -1</clus>
<clus scale="   40.222">  1 10  2 -1</clus>
<clus scale="   87.192">  7  8 -1 -1</clus>
<clus scale="   91.063">  5  6 -1 -1</clus>
<clus scale="   93.716">  1  7  2 -1</clus>
<clus scale="   21.621">  1  5  2 -1</clus>
</clustering>
</event>
<event>
10    2  0.1671105E-006  0.1986465E+03  0.7546771E-02  0.1167668E+00
          2   -1    0    0  503    0 -0.00000000000E+00  0.00000000000E+00  0.25760213940E+03  0.25760213940E+03  0.00000000000E+00 0. -1.
         21   -1    0    0  501  502  0.00000000000E+00 -0.00000000000E+00 -0.33509279260E+03  0.33509279260E+03  0.00000000000E+00 0. -1.
         23    2    1    2    0    0 -0.51500414599E+02  0.79063909286E+02  0.49265837496E+01  0.13036818258E+03  0.89823144825E+02 0.  0.
         23    2    1    2    0    0 -0.12375116514E+03  0.59863811073E+01  0.76147598599E+02  0.17187096682E+03  0.91602318912E+02 0.  0.
        -11    1    4    4    0    0 -0.95376468898E+02 -0.10951298920E+02  0.82477819678E+01  0.96356772854E+02  0.00000000000E+00 0. -1.
         11    1    4    4    0    0 -0.28374696246E+02  0.16937680028E+02  0.67899816632E+02  0.75514193966E+02  0.00000000000E+00 0.  1.
        -13    1    3    3    0    0  0.19376093237E+02  0.13392724653E+02 -0.19642379815E+02  0.30669547560E+02  0.00000000000E+00 0.  1.
         13    1    3    3    0    0 -0.70876507836E+02  0.65671184633E+02  0.24568963565E+02  0.99698635019E+02  0.00000000000E+00 0. -1.
         21    1    1    2  503  502 -0.81853870288E+01  0.27127882226E+02 -0.18262854529E+02  0.33711339494E+02  0.00000000000E+00 0. -1.
          2    1    1    2  501    0  0.18343696677E+03 -0.11217817262E+03 -0.14030198102E+03  0.25674444311E+03  0.00000000000E+00 0. -1.
<scales pt_clust_5="13000.00000" pt_clust_6="13000.00000" pt_clust_7="13000.00000" pt_clust_8="13000.00000" pt_clust_9="28.33589" pt_clust_10="176.26525"></scales>
<clustering>
<clus scale="   28.336">  2  9  1 -1</clus>
<clus scale="   89.823">  7  8 -1 -1</clus>
<clus scale="   91.602">  5  6 -1 -1</clus>
<clus scale="  134.336">  1  7  2 -1</clus>
<clus scale="  176.265">  2 10  1 -1</clus>
<clus scale="   28.336">  2  5  1 -1</clus>
</clustering>
</event>
<event>
10    2  0.1671105E-006  0.9668996E+02  0.7546771E-02  0.1288176E+00
         21   -1    0    0  503  502  0.00000000000E+00  0.00000000000E+00  0.21175476821E+03  0.21175476821E+03  0.00000000000E+00 0. -1.
          2   -1    0    0  502    0 -0.00000000000E+00 -0.00000000000E+00 -0.64157194344E+03  0.64157194344E+03  0.00000000000E+00 0. -1.
         23    2    1    2    0    0 -0.32192034048E+02 -0.37962990104E+02 -0.44051184423E+03  0.45283217635E+03  0.92351390631E+02 0.  0.
         23    2    1    2    0    0  0.83935256058E+00 -0.26079257325E+02 -0.15226204225E+03  0.17924669697E+03  0.90911037221E+02 0.  0.
        -11    1    4    4    0    0  0.12933652156E+02 -0.48253531283E+02 -0.39488092655E+02  0.63678819877E+02  0.00000000000E+00 0. -1.
         11    1    4    4    0    0 -0.12094299595E+02  0.22174273958E+02 -0.11277394960E+03  0.11556787709E+03  0.00000000000E+00 0.  1.
        -13    1    3    3    0    0 -0.63332449328E+02 -0.28777698457E+02 -0.34528556684E+03  0.35222333503E+03  0.00000000000E+00 0. -1.
         13    1    3    3    0    0  0.31140415280E+02 -0.91852916473E+01 -0.95226277391E+02  0.10060884132E+03  0.00000000000E+00 0.  1.
         21    1    1    2  503  501  0.23197769310E+01 -0.29772195061E+02 -0.12803529815E+01  0.29889868978E+02  0.00000000000E+00 0. -1.
          2    1    1    2  501    0  0.29032904556E+02  0.93814442490E+02  0.16423706424E+03  0.19135796936E+03  0.00000000000E+00 0. -1.
<scales pt_clust_5="13000.00000" pt_clust_6="13000.00000" pt_clust_7="13000.00000" pt_clust_8="13000.00000" pt_clust_9="29.86243" pt_clust_10="73.88034"></scales>
<clustering>
<clus scale="   29.862">  1  9  2 -1</clus>
<clus scale="   73.880">  1 10  2 -1</clus>
<clus scale="   90.911">  5  6 -1 -1</clus>
<clus scale="   92.351">  7  8 -1 -1</clus>
<clus scale="   95.315">  1  5  2 -1</clus>
<clus scale="   29.862">  1  5  2 -1</clus>
</clustering>
</event>
<event>
10    2  0.1671105E-006  0.2950454E+03  0.7546771E-02  0.1126735E+00
         21   -1    0    0  503  502  0.00000000000E+00  0.00000000000E+00  0.12104488060E+03  0.12104488060E+03  0.00000000000E+00 0. -1.
          1   -1    0    0  502    0 -0.00000000000E+00 -0.00000000000E+00 -0.11766684318E+04  0.11766684318E+04  0.00000000000E+00 0. -1.
         23    2    1    2    0    0  0.38141683057E+02  0.18308047565E+02 -0.26368889285E+02  0.11185102112E+03  0.10012671977E+03 0.  0.
         23    2    1    2    0    0  0.17730691306E+03 -0.19796688765E+03 -0.58915077487E+03  0.65226119552E+03  0.87848742906E+02 0.  0.
        -11    1    3    3    0    0  0.71817717249E+02  0.38283604267E+01 -0.19958979665E+02  0.74637803583E+02  0.00000000000E+00 0. -1.
         11    1    3    3    0    0 -0.33676034192E+02  0.14479687138E+02 -0.64099096204E+01  0.37213217542E+02  0.00000000000E+00 0.  1.
        -13    1    4    4    0    0  0.17404030714E+03 -0.15015579240E+03 -0.45416850253E+03  0.50902437976E+03  0.00000000000E+00 0. -1.
         13    1    4    4    0    0  0.32666059159E+01 -0.47811095245E+02 -0.13498227234E+03  0.14323681576E+03  0.00000000000E+00 0.  1.
         21    1    1    2  503  501 -0.14860947953E+03  0.69131202269E+02 -0.18162462768E+03  0.24464546984E+03  0.00000000000E+00 0. -1.
          1    1    1    2  501    0 -0.66839116589E+02  0.11052763782E+03 -0.25847925932E+03  0.28895562588E+03  0.00000000000E+00 0. -1.
<scales pt_clust_5="13000.00000" pt_clust_6="13000.00000" pt_clust_7="13000.00000" pt_clust_8="13000.00000" pt_clust_9="98.62734" pt_clust_10="98.62734"></scales>
<clustering>
<clus scale="   87.849">  7  8 -1 -1</clus>
<clus scale="   98.627">  9 10 -1 -1</clus>
<clus scale="  100.127">  5  6 -1 -1</clus>
<clus scale="  108.698">  2  5  1 -1</clus>
<clus scale="  287.099">  2  7  1 -1</clus>
<clus scale="  295.045">  1  5  2 -1</clus>
</clustering>
</event>
<event>
10    2  0.1671105E-006  0.2127324E+03  0.7546771E-02  0.1141851E+00
         21   -1    0    0  501  502  0.00000000000E+00  0.00000000000E+00  0.38054935514E+03  0.38054935514E+03  0.00000000000E+00 0. -1.
          1   -1    0    0  503    0 -0.00000000000E+00 -0.00000000000E+00 -0.41153865723E+03  0.41153865723E+03  0.00000000000E+00 0. -1.
         23    2    1    2    0    0  0.13921385245E+03  0.12004462311E+03  0.13448284109E+03  0.24539465879E+03  0.91332884335E+02 0.  0.
         23    2    1    2    0    0  0.10931178585E+03 -0.18286631750E+03 -0.77936029083E+02  0.24389225569E+03  0.89555854937E+02 0.  0.
        -11    1    4    4    0    0  0.59492610592E+02 -0.61561516666E+02 -0.73251581104E+02  0.11267202485E+03  0.00000000000E+00 0. -1.
         11    1    4    4    0    0  0.49819175262E+02 -0.12130480083E+03 -0.46844479791E+01  0.13122023084E+03  0.00000000000E+00 0.  1.
        -13    1    3    3    0    0  0.10023528251E+03  0.11378303505E+03  0.63960184228E+02  0.16457398364E+03  0.00000000000E+00 0. -1.
         13    1    3    3    0    0  0.38978569945E+02  0.62615880574E+01  0.70522656866E+02  0.80820675148E+02  0.00000000000E+00 0.  1.
         21    1    1    2  503  502 -0.50554790007E+02  0.11404832912E+02 -0.83435804780E+02  0.98221130749E+02  0.00000000000E+00 0. -1.
          1    1    1    2  501    0 -0.19797084830E+03  0.51416861477E+02 -0.41003093211E+01  0.20457996714E+03  0.00000000000E+00 0. -1.
<scales pt_clust_5="13000.00000" pt_clust_6="13000.00000" pt_clust_7="13000.00000" pt_clust_8="13000.00000" pt_clust_9="51.82525" pt_clust_10="192.96322"></scales>
<clustering>
<clus scale="   51.825">  2  9  1 -1</clus>
<clus scale="   89.556">  5  6 -1 -1</clus>
<clus scale="   91.333">  7  8 -1 -1</clus>
<clus scale="  200.631">  2  7  1 -1</clus>
<clus scale="  192.963">  1 10  2 -1</clus>
<clus scale="  192.963">  1  5  2 -1</clus>
</clustering>
</event>
<event>
10    2  0.1671105E-006  0.1239338E+03  0.7546771E-02  0.1236791E+00
         21   -1    0    0  501  502  0.00000000000E+00  0.00000000000E+00  0.80286298786E+02  0.80286298786E+02  0.00000000000E+00 0. -1.
          1   -1    0    0  503    0 -0.00000000000E+00 -0.00000000000E+00 -0.48931553959E+03  0.48931553959E+03  0.00000000000E+00 0. -1.
         23    2    1    2    0    0 -0.30099233018E+02 -0.32488372929E+02 -0.14709042461E+03  0.19156974306E+03  0.11446359789E+03 0.  0.
         23    2    1    2    0    0 -0.72364078266E+02  0.57359165135E+02 -0.18694364134E+03  0.23779714234E+03  0.11433688040E+03 0.  0.
        -11    1    3    3    0    0 -0.45134532017E+02 -0.63107206578E+02 -0.60133216512E+02  0.98161342853E+02  0.00000000000E+00 0.  1.
         11    1    3    3    0    0  0.15035298999E+02  0.30618833650E+02 -0.86957208094E+02  0.93408400209E+02  0.00000000000E+00 0. -1.
        -11    1    4    4    0    0 -0.34995090719E+02  0.12535334533E+02  0.46970077681E+01  0.37468024611E+02  0.00000000000E+00 0.  1.
         11    1    4    4    0    0 -0.37368987547E+02  0.44823830601E+02 -0.19164064911E+03  0.20032911773E+03  0.00000000000E+00 0. -1.
         21    1    1    2  503  502  0.19862018740E+02  0.15695120389E+02 -0.24674120011E+02  0.35350371862E+02  0.00000000000E+00 0.  1.
          1    1    1    2  501    0  0.82601292545E+02 -0.40565912595E+02 -0.50321054855E+02  0.10488458112E+03  0.00000000000E+00 0. -1.
<scales pt_clust_5="13000.00000" pt_clust_6="13000.00000" pt_clust_7="13000.00000" pt_clust_8="13000.00000" pt_clust_9="25.31475" pt_clust_10="96.35541"></scales>
<clustering>
<clus scale="   25.315">  1  9  2 -1</clus>
<clus scale="   96.355">  1 10  2 -1</clus>
<clus scale="  114.337">  7  8 -1 -1</clus>
<clus scale="  114.464">  5  6 -1 -1</clus>
<clus scale="  123.817">  1  7  2 -1</clus>
<clus scale="   25.315">  1  5  2 -1</clus>
</clustering>
</event>
<event>
10    2  0.1671105E-006  0.1106050E+03  0.7546771E-02  0.1262327E+00
         21   -1    0    0  501  502  0.00000000000E+00  0.00000000000E+00  0.56655384137E+03  0.56655384137E+03  0.00000000000E+00 0. -1.
          1   -1    0    0  503    0 -0.00000000000E+00 -0.00000000000E+00 -0.72217986775E+02  0.72217986775E+02  0.00000000000E+00 0. -1.
         23    2    1    2    0    0 -0.57438034798E+02 -0.23182425869E+02  0.12154648442E+03  0.16454845192E+03  0.92011371282E+02 0.  0.
         23    2    1    2    0    0 -0.94671409919E+01  0.73589288126E+02  0.35436013790E+03  0.37529576546E+03  0.98847327478E+02 0.  0.
        -11    1    4    4    0    0 -0.41382779384E+02 -0.11886075207E+01  0.14168037493E+03  0.14760513493E+03  0.00000000000E+00 0. -1.
         11    1    4    4    0    0  0.31915638392E+02  0.74777895647E+02  0.21267976297E+03  0.22769063053E+03  0.00000000000E+00 0.  1.
        -13    1    3    3    0    0  0.19340848846E+02  0.15287248584E+02  0.21618484561E+02  0.32789133537E+02  0.00000000000E+00 0.  1.
         13    1    3    3    0    0 -0.76778883644E+02 -0.38469674453E+02  0.99927999860E+02  0.13175931839E+03  0.00000000000E+00 0. -1.
         21    1    1    2  503  502  0.33804399906E+02 -0.95283470312E+01 -0.13235149048E+02  0.37532599437E+02  0.00000000000E+00 0.  1.
          1    1    1    2  501    0  0.33100775883E+02 -0.40878515226E+02  0.31664381313E+02  0.61395011321E+02  0.00000000000E+00 0. -1.
<scales pt_clust_5="13000.00000" pt_clust_6="13000.00000" pt_clust_7="13000.00000" pt_clust_8="13000.00000" pt_clust_9="35.12160" pt_clust_10="62.03684"></scales>
<clustering>
<clus scale="   35.122">  2  9  1 -1</clus>
<clus scale="   62.037">  1 10  2 -1</clus>
<clus scale="   92.011">  7  8 -1 -1</clus>
<clus scale="   98.847">  5  6 -1 -1</clus>
<clus scale="  104.541">  2  7  1 -1</clus>
<clus scale="   62.037">  1  5  2 -1</clus>
</clustering>
</event>
<event>
10    2  0.1671105E-006  0.1191249E+03  0.7546771E-02  0.1244688E+00
         21   -1    0    0  501  502  0.00000000000E+00  0.00000000000E+00  0.81669614212E+02  0.81669614212E+02  0.00000000000E+00 0. -1.
          1   -1    0    0  503    0 -0.00000000000E+00 -0.00000000000E+00 -0.99297012809E+03  0.99297012809E+03  0.00000000000E+00 0. -1.
         23    2    1    2    0    0  0.16763990467E+02 -0.64231831841E+02 -0.46667226953E+03  0.47993742044E+03  0.90278240967E+02 0.  0.
         23    2    1    2    0    0 -0.10155977955E+03 -0.58831858123E+02 -0.10395557726E+03  0.18114311296E+03  0.90722042400E+02 0.  0.
        -11    1    4    4    0    0 -0.22380806869E+02  0.22462498406E+02 -0.39434201140E+02  0.50601586638E+02  0.00000000000E+00 0.  1.
         11    1    4    4    0    0 -0.79178972686E+02 -0.81294356529E+02 -0.64521376121E+02  0.13054152633E+03  0.00000000000E+00 0. -1.
        -13    1    3    3    0    0 -0.83664274501E+01 -0.80158871055E+02 -0.37481319382E+03  0.38338019247E+03  0.00000000000E+00 0. -1.
         13    1    3    3    0    0  0.25130417917E+02  0.15927039214E+02 -0.91859075706E+02  0.96557227965E+02  0.00000000000E+00 0.  1.
         21    1    1    2  503  502  0.79687719501E+02  0.27826340527E+02 -0.29681697426E+03  0.30858508402E+03  0.00000000000E+00 0. -1.
          1    1    1    2  501    0  0.51080695864E+01  0.95237349438E+02 -0.43855692832E+02  0.10497412489E+03  0.00000000000E+00 0. -1.
<scales pt_clust_5="13000.00000" pt_clust_6="13000.00000" pt_clust_7="13000.00000" pt_clust_8="13000.00000" pt_clust_9="84.40639" pt_clust_10="99.18772"></scales>
<clustering>
<clus scale="   84.406">  2  9  1 -1</clus>
<clus scale="   90.278">  7  8 -1 -1</clus>
<clus scale="   90.722">  5  6 -1 -1</clus>
<clus scale="   99.188">  1 10  2 -1</clus>
<clus scale="  118.787">  2  7  1 -1</clus>
<clus scale="   99.188">  1  5  2 -1</clus>
</clustering>
</event>
<event>
10    2  0.1671105E-006  0.1585787E+03  0.7546771E-02  0.1190356E+00
          2   -1    0    0  502    0 -0.00000000000E+00  0.00000000000E+00  0.14687189573E+04  0.14687189573E+04  0.00000000000E+00 0. -1.
         21   -1    0    0  503  502  0.00000000000E+00 -0.00000000000E+00 -0.42538538220E+02  0.42538538220E+02  0.00000000000E+00 0. -1.
         23    2    1    2    0    0 -0.12156835495E+03 -0.21036727799E+02  0.56832849164E+03  0.58903705781E+03  0.93519902828E+02 0.  0.
         23    2    1    2    0    0  0.12719135213E+03 -0.10709958632E+03  0.61243291781E+03  0.64141903804E+03  0.93254180086E+02 0.  0.
        -11    1    4    4    0    0  0.53870759276E+02  0.57049421458E+01  0.21971941032E+03  0.22629897115E+03  0.00000000000E+00 0.  1.
         11    1    4    4    0    0  0.73320592853E+02 -0.11280452846E+03  0.39271350749E+03  0.41512006690E+03  0.00000000000E+00 0. -1.
        -11    1    3    3    0    0 -0.85263415960E+02  0.61240334502E+01  0.49852411811E+03  0.50580001011E+03  0.00000000000E+00 0. -1.
         11    1    3    3    0    0 -0.36304938992E+02 -0.27160761249E+02  0.69804373528E+02  0.83237047704E+02  0.00000000000E+00 0.  1.
         21    1    1    2  503  501 -0.17695377472E+02  0.72941519325E+02  0.17571938217E+03  0.19107823763E+03  0.00000000000E+00 0. -1.
          2    1    1    2  501    0  0.12072380295E+02  0.55194794790E+02  0.69699627482E+02  0.89723162054E+02  0.00000000000E+00 0. -1.
<scales pt_clust_5="13000.00000" pt_clust_6="13000.00000" pt_clust_7="13000.00000" pt_clust_8="13000.00000" pt_clust_9="40.40140" pt_clust_10="136.45122"></scales>
<clustering>
<clus scale="   40.401">  9 10 -1 -1</clus>
<clus scale="   93.254">  5  6 -1 -1</clus>
<clus scale="   93.520">  7  8 -1 -1</clus>
<clus scale="  136.451">  2  9  1 -1</clus>
<clus scale="  158.422">  2  5  1 -1</clus>
<clus scale="  136.451">  2  5  1 -1</clus>
</clustering>
</event>
<event>
10    2  0.1671105E-006  0.3455028E+03  0.7546771E-02  0.1064581E+00
         -1   -1    0    0    0  501 -0.00000000000E+00  0.00000000000E+00  0.92840550860E+03  0.92840550860E+03  0.00000000000E+00 0.  1.
         21   -1    0    0  503  502  0.00000000000E+00 -0.00000000000E+00 -0.30965925922E+03  0.30965925922E+03  0.00000000000E+00 0.  1.
         23    2    1    2    0    0 -0.20624227509E+03  0.26081804283E+03  0.65382766316E+03  0.73878443365E+03  0.88033509462E+02 0.  0.
         23    2    1    2    0    0  0.20512311921E+03 -0.26490055724E+03  0.51558379824E+02  0.35120796771E+03  0.91874756006E+02 0.  0.
        -11    1    3    3    0    0 -0.19763587775E+03  0.22021263772E+03  0.61241396346E+03  0.68015028385E+03  0.00000000000E+00 0.  1.
         11    1    3    3    0    0 -0.86063973451E+01  0.40605405109E+02  0.41413699694E+02  0.58634149791E+02  0.00000000000E+00 0. -1.
        -13    1    4    4    0    0  0.19172855426E+03 -0.18611329171E+03  0.33717024976E+02  0.26932291705E+03  0.00000000000E+00 0.  1.
         13    1    4    4    0    0  0.13394564947E+02 -0.78787265529E+02  0.17841354849E+02  0.81885050666E+02  0.00000000000E+00 0. -1.
         21    1    1    2  503  501 -0.27102609844E+02  0.26860383942E+02  0.14350678631E+02  0.40767311207E+02  0.00000000000E+00 0.  1.
         -1    1    1    2    0  502  0.28221765726E+02 -0.22777869529E+02 -0.10099047224E+03  0.10730505526E+03  0.00000000000E+00 0.  1.
<scales pt_clust_5="13000.00000" pt_clust_6="13000.00000" pt_clust_7="13000.00000" pt_clust_8="13000.00000" pt_clust_9="35.83995" pt_clust_10="36.26706"></scales>
<clustering>
<clus scale="   36.267">  2 10  1 -1</clus>
<clus scale="   35.840">  2  9  1 -1</clus>
<clus scale="   88.034">  5  6 -1 -1</clus>
<clus scale="   91.875">  7  8 -1 -1</clus>
<clus scale="  344.501">  1  5  2 -1</clus>
<clus scale="   36.267">  2  5  1 -1</clus>
</clustering>
</event>
<event>
10    2  0.1671105E-006  0.2600919E+03  0.7546771E-02  0.1107128E+00
         21   -1    0    0  503  502  0.00000000000E+00  0.00000000000E+00  0.81741246230E+03  0.81741246230E+03  0.00000000000E+00 0. -1.
          1   -1    0    0  502    0 -0.00000000000E+00 -0.00000000000E+00 -0.13909939112E+03  0.13909939112E+03  0.00000000000E+00 0. -1.
         23    2    1    2    0    0  0.18321932763E+03 -0.65032583292E+02  0.22585598191E+03  0.31167941148E+03  0.91293877515E+02 0.  0.
         23    2    1    2    0    0 -0.26491513934E+03  0.13545009419E+03  0.20991198738E+03  0.37558085950E+03  0.92039016222E+02 0.  0.
        -11    1    3    3    0    0  0.33857779679E+02  0.45001339881E+01  0.96023844315E+02  0.10191751139E+03  0.00000000000E+00 0.  1.
         11    1    3    3    0    0  0.14936154795E+03 -0.69532717280E+02  0.12983213759E+03  0.20976190009E+03  0.00000000000E+00 0. -1.
        -13    1    4    4    0    0 -0.17492732379E+03  0.75416659844E+02  0.80213186330E+02  0.20669154906E+03  0.00000000000E+00 0.  1.
         13    1    4    4    0    0 -0.89987815549E+02  0.60033434348E+02  0.12969880105E+03  0.16888931044E+03  0.00000000000E+00 0. -1.
         21    1    1    2  503  501  0.11615621090E+02 -0.21925070253E+02  0.23345519111E+02  0.34068234787E+02  0.00000000000E+00 0. -1.
          1    1    1    2  501    0  0.70080190621E+02 -0.48492440647E+02  0.21919958279E+03  0.23518334765E+03  0.00000000000E+00 0. -1.
<scales pt_clust_5="13000.00000" pt_clust_6="13000.00000" pt_clust_7="13000.00000" pt_clust_8="13000.00000" pt_clust_9="24.34366" pt_clust_10="116.91145"></scales>
<clustering>
<clus scale="   24.344">  9 10 -1 -1</clus>
<clus scale="   91.294">  5  6 -1 -1</clus>
<clus scale="   92.039">  7  8 -1 -1</clus>
<clus scale="  116.911">  1  9  2 -1</clus>
<clus scale="  259.829">  2  5  1 -1</clus>
<clus scale="  116.911">  1  5  2 -1</clus>
</clustering>
</event>
<event>
10    2  0.1671105E-006  0.1735270E+03  0.7546771E-02  0.1176573E+00
          2   -1    0    0  502    0 -0.00000000000E+00  0.00000000000E+00  0.13012058688E+04  0.13012058688E+04  0.00000000000E+00 0. -1.
         21   -1    0    0  503  502  0.00000000000E+00 -0.00000000000E+00 -0.50525562822E+02  0.50525562822E+02  0.00000000000E+00 0.  1.
         23    2    1    2    0    0 -0.97125877534E+02  0.26588912197E+02  0.27911044451E+03  0.31497885914E+03  0.10568176349E+03 0.  0.
         23    2    1    2    0    0  0.17182874244E+03  0.94932822239E+02  0.60376043343E+03  0.64123714497E+03  0.90116910999E+02 0.  0.
        -11    1    3    3    0    0 -0.50340928129E+02  0.65669935605E+02  0.18741848402E+03  0.20487175901E+03  0.00000000000E+00 0. -1.
         11    1    3    3    0    0 -0.46784949405E+02 -0.39081023408E+02  0.91691960493E+02  0.11010710014E+03  0.00000000000E+00 0.  1.
        -13    1    4    4    0    0  0.81039904633E+02  0.38146170938E+02  0.41179497796E+03  0.42142342172E+03  0.00000000000E+00 0. -1.
         13    1    4    4    0    0  0.90788837806E+02  0.56786651301E+02  0.19196545547E+03  0.21981372326E+03  0.00000000000E+00 0.  1.
         21    1    1    2  503  501 -0.29969995167E+02 -0.68295308415E+02  0.16370565741E+03  0.17989439133E+03  0.00000000000E+00 0. -1.
          2    1    1    2  501    0 -0.44732869737E+02 -0.53226426021E+02  0.20410377066E+03  0.21562103622E+03  0.00000000000E+00 0. -1.
<scales pt_clust_5="13000.00000" pt_clust_6="13000.00000" pt_clust_7="13000.00000" pt_clust_8="13000.00000" pt_clust_9="27.31979" pt_clust_10="145.42592"></scales>
<clustering>
<clus scale="   27.320">  9 10 -1 -1</clus>
<clus scale="   90.117">  7  8 -1 -1</clus>
<clus scale="  105.682">  5  6 -1 -1</clus>
<clus scale="  145.426">  2  9  1 -1</clus>
<clus scale="  164.511">  2  7  1 -1</clus>
<clus scale="  145.426">  2  5  1 -1</clus>
</clustering>
</event>
<event>
10    2  0.1671105E-006  0.1563342E+03  0.7546771E-02  0.1196689E+00
          1   -1    0    0  503    0 -0.00000000000E+00  0.00000000000E+00  0.67058617265E+03  0.67058617265E+03  0.00000000000E+00 0. -1.
         21   -1    0    0  501  502  0.00000000000E+00 -0.00000000000E+00 -0.84323205427E+02  0.84323205427E+02  0.00000000000E+00 0. -1.
         23    2    1    2    0    0 -0.10403881361E+03  0.93524323971E+02  0.42139503662E+03  0.45330676126E+03  0.91336569944E+02 0.  0.
         23    2    1    2    0    0  0.12166783218E+02 -0.12233733387E+03  0.11460963686E+03  0.18125038006E+03  0.67837139839E+02 0.  0.
        -13    1    4    4    0    0  0.36452517263E+02 -0.10330631245E+03  0.88447389412E+02  0.14079744635E+03  0.00000000000E+00 0. -1.
         13    1    4    4    0    0 -0.24285734045E+02 -0.19031021419E+02  0.26162247444E+02  0.40452933709E+02  0.00000000000E+00 0.  1.
        -13    1    3    3    0    0 -0.13129054066E+02  0.68823806497E+02  0.22166666359E+03  0.23247623136E+03  0.00000000000E+00 0.  1.
         13    1    3    3    0    0 -0.90909759544E+02  0.24700517474E+02  0.19972837303E+03  0.22083052990E+03  0.00000000000E+00 0. -1.
         21    1    1    2  503  502  0.37489421770E+02 -0.73700820451E+01  0.45149301229E+00  0.38209667624E+02  0.00000000000E+00 0. -1.
          1    1    1    2  501    0  0.54382608621E+02  0.36183091940E+02  0.49806800734E+02  0.82142569123E+02  0.00000000000E+00 0. -1.
<scales pt_clust_5="13000.00000" pt_clust_6="13000.00000" pt_clust_7="13000.00000" pt_clust_8="13000.00000" pt_clust_9="38.20700" pt_clust_10="72.32820"></scales>
<clustering>
<clus scale="   38.207">  2  9  1 -1</clus>
<clus scale="   67.837">  5  6 -1 -1</clus>
<clus scale="   72.328">  2 10  1 -1</clus>
<clus scale="   91.337">  7  8 -1 -1</clus>
<clus scale="  143.875">  2  5  1 -1</clus>
<clus scale="   38.207">  2  5  1 -1</clus>
</clustering>
</event>
<event>
10    2  0.1671105E-006  0.1823108E+03  0.7546771E-02  0.1165830E+00
         21   -1    0    0  501  502  0.00000000000E+00  0.00000000000E+00  0.54797590082E+03  0.54797590082E+03  0.00000000000E+00 0.  1.
          1   -1    0    0  503    0 -0.00000000000E+00 -0.00000000000E+00 -0.10899191118E+03  0.10899191118E+03  0.00000000000E+00 0. -1.
         23    2    1    2    0    0 -0.14829379166E+03 -0.11517604594E+03  0.10437803292E+03  0.23378867391E+03  0.92226894599E+02 0.  0.
         23    2    1    2    0    0  0.12193668111E+03  0.35272375409E+02  0.16980536436E+03  0.23038921154E+03  0.90181108662E+02 0.  0.
        -11    1    3    3    0    0 -0.88573735443E+02 -0.23791558928E+02  0.15495348963E+02  0.93013175014E+02  0.00000000000E+00 0. -1.
         11    1    3    3    0    0 -0.59720056218E+02 -0.91384487014E+02  0.88882683959E+02  0.14077549890E+03  0.00000000000E+00 0.  1.
        -13    1    4    4    0    0  0.26777721798E+02 -0.14923728604E+01  0.10762980882E+03  0.11092091466E+03  0.00000000000E+00 0.  1.
         13    1    4    4    0    0  0.95158959313E+02  0.36764748269E+02  0.62175555542E+02  0.11946829688E+03  0.00000000000E+00 0. -1.
         21    1    1    2  503  502  0.33342592190E+02  0.58465064235E+02  0.77599607578E+02  0.10272093889E+03  0.00000000000E+00 0. -1.
          1    1    1    2  501    0 -0.69854816388E+01  0.21438606298E+02  0.87200984770E+02  0.90068987663E+02  0.00000000000E+00 0. -1.
<scales pt_clust_5="13000.00000" pt_clust_6="13000.00000" pt_clust_7="13000.00000" pt_clust_8="13000.00000" pt_clust_9="70.35687" pt_clust_10="22.54797"></scales>
<clustering>
<clus scale="   22.548">  1 10  2 -1</clus>
<clus scale="   70.357">  1  9  2 -1</clus>
<clus scale="   90.181">  7  8 -1 -1</clus>
<clus scale="   92.227">  5  6 -1 -1</clus>
<clus scale="  181.284">  1  7  2 -1</clus>
<clus scale="   22.548">  1  5  2 -1</clus>
</clustering>
</event>
<event>
10    2  0.1671105E-006  0.1065042E+03  0.7546771E-02  0.1267762E+00
         -2   -1    0    0    0  501 -0.00000000000E+00  0.00000000000E+00  0.37161617850E+03  0.37161617850E+03  0.00000000000E+00 0.  1.
         21   -1    0    0  503  502  0.00000000000E+00 -0.00000000000E+00 -0.11151024784E+03  0.11151024784E+03  0.00000000000E+00 0. -1.
         23    2    1    2    0    0 -0.64145624883E+01  0.61018424923E+02  0.20775476247E+03  0.23457479907E+03  0.89993889999E+02 0.  0.
         23    2    1    2    0    0  0.51815796762E+02 -0.29860688956E+02  0.10497381312E+03  0.15148225042E+03  0.91382893436E+02 0.  0.
        -11    1    3    3    0    0 -0.41045385702E+02  0.39717241343E+01  0.94768169497E+02  0.10335136298E+03  0.00000000000E+00 0.  1.
         11    1    3    3    0    0  0.34630823213E+02  0.57046700789E+02  0.11298659298E+03  0.13122343609E+03  0.00000000000E+00 0. -1.
        -11    1    4    4    0    0 -0.17744154162E+02  0.17608416111E+02  0.23778899811E+02  0.34501411581E+02  0.00000000000E+00 0.  1.
         11    1    4    4    0    0  0.69559950924E+02 -0.47469105067E+02  0.81194913313E+02  0.11698083884E+03  0.00000000000E+00 0. -1.
         21    1    1    2  503  501 -0.36833238910E+02  0.36333875568E+01 -0.48135195729E+01  0.37323705127E+02  0.00000000000E+00 0. -1.
         -2    1    1    2    0  502 -0.85679953633E+01 -0.34791123524E+02 -0.47809125367E+02  0.59745671717E+02  0.00000000000E+00 0.  1.
<scales pt_clust_5="13000.00000" pt_clust_6="13000.00000" pt_clust_7="13000.00000" pt_clust_8="13000.00000" pt_clust_9="40.97486" pt_clust_10="35.83061"></scales>
<clustering>
<clus scale="   35.831">  2 10  1 -1</clus>
<clus scale="   40.975">  2  9  1 -1</clus>
<clus scale="   89.994">  5  6 -1 -1</clus>
<clus scale="   91.383">  7  8 -1 -1</clus>
<clus scale="  105.315">  1  5  2 -1</clus>
<clus scale="   35.831">  2  5  1 -1</clus>
</clustering>
</event>
<event>
10    2  0.1671105E-006  0.9764504E+02  0.7546771E-02  0.1285467E+00
          3   -1    0    0  503    0 -0.00000000000E+00  0.00000000000E+00  0.36100239153E+03  0.36100239153E+03  0.00000000000E+00 0. -1.
         21   -1    0    0  501  502  0.00000000000E+00 -0.00000000000E+00 -0.46618029217E+02  0.46618029217E+02  0.00000000000E+00 0.  1.
         23    2    1    2    0    0 -0.14438567809E+02 -0.22572889490E+02  0.14101111828E+03  0.17166231846E+03  0.94158422469E+02 0.  0.
         23    2    1    2    0    0  0.33756331981E+02  0.14642247785E+02  0.73799796784E+02  0.12496453366E+03  0.93892700988E+02 0.  0.
        -11    1    4    4    0    0 -0.29488745713E+02  0.11337494091E+02  0.59464871263E+01  0.32147870927E+02  0.00000000000E+00 0.  1.
         11    1    4    4    0    0  0.63245077695E+02  0.33047536943E+01  0.67853309658E+02  0.92816662734E+02  0.00000000000E+00 0. -1.
        -11    1    3    3    0    0 -0.39076636125E+02 -0.20848713137E+02  0.20784337623E+02  0.48924850748E+02  0.00000000000E+00 0.  1.
         11    1    3    3    0    0  0.24638068316E+02 -0.17241763532E+01  0.12022678065E+03  0.12273746771E+03  0.00000000000E+00 0. -1.
         21    1    1    2  503  502  0.57270971595E+01  0.20246418650E+02  0.39540938695E+02  0.44790656871E+02  0.00000000000E+00 0. -1.
          3    1    1    2  501    0 -0.25044861332E+02 -0.12315776945E+02  0.60032508556E+02  0.66202911751E+02  0.00000000000E+00 0. -1.
<scales pt_clust_5="13000.00000" pt_clust_6="13000.00000" pt_clust_7="13000.00000" pt_clust_8="13000.00000" pt_clust_9="21.04084" pt_clust_10="25.31325"></scales>
<clustering>
<clus scale="   21.041">  1  9  2 -1</clus>
<clus scale="   25.313">  2 10  1 -1</clus>
<clus scale="   93.893">  5  6 -1 -1</clus>
<clus scale="   94.158">  7  8 -1 -1</clus>
<clus scale="   97.389">  2  5  1 -1</clus>
<clus scale="   25.313">  2  5  1 -1</clus>
</clustering>
</event>
<event>
10    2  0.1671105E-006  0.2486840E+03  0.7546771E-02  0.1114348E+00
         21   -1    0    0  503  502  0.00000000000E+00  0.00000000000E+00  0.54011684725E+03  0.54011684725E+03  0.00000000000E+00 0.  1.
          2   -1    0    0  502    0 -0.00000000000E+00 -0.00000000000E+00 -0.19877039074E+03  0.19877039074E+03  0.00000000000E+00 0. -1.
         23    2    1    2    0    0  0.21200059321E+02 -0.19632534663E+03  0.71147941952E+02  0.22896465233E+03  0.91486054282E+02 0.  0.
         23    2    1    2    0    0  0.38695083485E+02  0.28168552581E+03  0.13557822899E+03  0.32900453619E+03  0.94965697629E+02 0.  0.
        -11    1    3    3    0    0 -0.21288282209E+02 -0.45086312102E+02  0.49724654156E+02  0.70416672239E+02  0.00000000000E+00 0.  1.
         11    1    3    3    0    0  0.42488341530E+02 -0.15123903453E+03  0.21423287797E+02  0.15854798009E+03  0.00000000000E+00 0. -1.
        -11    1    4    4    0    0  0.54519621760E+01  0.23115883193E+03  0.74206858803E+02  0.24283901532E+03  0.00000000000E+00 0.  1.
         11    1    4    4    0    0  0.33243121309E+02  0.50526693880E+02  0.61371370186E+02  0.86165520873E+02  0.00000000000E+00 0. -1.
         21    1    1    2  503  501 -0.27930298347E+02 -0.19113066671E+02  0.86850807273E+02  0.93211982102E+02  0.00000000000E+00 0.  1.
          2    1    1    2  501    0 -0.31964844459E+02 -0.66247112506E+02  0.47769478293E+02  0.87706067368E+02  0.00000000000E+00 0. -1.
<scales pt_clust_5="13000.00000" pt_clust_6="13000.00000" pt_clust_7="13000.00000" pt_clust_8="13000.00000" pt_clust_9="33.84392" pt_clust_10="78.01426"></scales>
<clustering>
<clus scale="   33.844">  1  9  2 -1</clus>
<clus scale="   78.014">  1 10  2 -1</clus>
<clus scale="   91.486">  5  6 -1 -1</clus>
<clus scale="   94.966">  7  8 -1 -1</clus>
<clus scale="  247.376">  2  5  1 -1</clus>
<clus scale="   33.844">  1  5  2 -1</clus>
</clustering>
</event>
<event>
10    2  0.1671105E-006  0.1094378E+03  0.7546771E-02  0.1263198E+00
         21   -1    0    0  501  502  0.00000000000E+00  0.00000000000E+00  0.58015229241E+03  0.58015229241E+03  0.00000000000E+00 0. -1.
          1   -1    0    0  503    0 -0.00000000000E+00 -0.00000000000E+00 -0.15930498905E+03  0.15930498905E+03  0.00000000000E+00 0. -1.
         23    2    1    2    0    0  0.42400517549E+01  0.53330411755E+02 -0.10227818194E+03  0.14878318538E+03  0.93880236976E+02 0.  0.
         23    2    1    2    0    0  0.50834969928E+02 -0.97850330765E+02  0.31755287965E+03  0.34798315260E+03  0.89964224670E+02 0.  0.
        -11    1    4    4    0    0  0.73934504039E+02 -0.78336460485E+02  0.27840413496E+03  0.29851595316E+03  0.00000000000E+00 0. -1.
         11    1    4    4    0    0 -0.23099534110E+02 -0.19513870280E+02  0.39148744686E+02  0.49467199435E+02  0.00000000000E+00 0.  1.
        -13    1    3    3    0    0 -0.19325424934E+02  0.31041403688E+02 -0.10959295438E+03  0.11553205807E+03  0.00000000000E+00 0. -1.
         13    1    3    3    0    0  0.23565476689E+02  0.22289008067E+02  0.73147724349E+01  0.33251127318E+02  0.00000000000E+00 0.  1.
         21    1    1    2  503  502 -0.55589790487E+02 -0.90846576581E+01  0.41169695099E+02  0.69768901423E+02  0.00000000000E+00 0. -1.
          1    1    1    2  501    0  0.51476880403E+00  0.53604576669E+02  0.16440291056E+03  0.17292204206E+03  0.00000000000E+00 0. -1.
<scales pt_clust_5="13000.00000" pt_clust_6="13000.00000" pt_clust_7="13000.00000" pt_clust_8="13000.00000" pt_clust_9="55.55150" pt_clust_10="53.60705"></scales>
<clustering>
<clus scale="   53.607">  1 10  2 -1</clus>
<clus scale="   55.552">  1  9  2 -1</clus>
<clus scale="   89.964">  5  6 -1 -1</clus>
<clus scale="   93.880">  7  8 -1 -1</clus>
<clus scale="  106.098">  1  5  2 -1</clus>
<clus scale="   53.607">  1  5  2 -1</clus>
</clustering>
</event>
<event>
10    2  0.1671105E-006  0.1336064E+03  0.7546771E-02  0.1222577E+00
         21   -1    0    0  501  502  0.00000000000E+00  0.00000000000E+00  0.45011374265E+02  0.45011374265E+02  0.00000000000E+00 0.  1.
          2   -1    0    0  503    0 -0.00000000000E+00 -0.00000000000E+00 -0.73222448858E+03  0.73222448858E+03  0.00000000000E+00 0. -1.
         23    2    1    2    0    0  0.57209365699E+02  0.91806229795E+02 -0.29439906744E+03  0.32684314667E+03  0.91947464682E+02 0.  0.
         23    2    1    2    0    0  0.15693591705E+02 -0.95313383266E+02 -0.26988265283E+03  0.30149821389E+03  0.93453714904E+02 0.  0.
        -11    1    4    4    0    0 -0.22278197873E+02 -0.42530375387E+02 -0.20148270975E+03  0.20712419767E+03  0.00000000000E+00 0. -1.
         11    1    4    4    0    0  0.37971789577E+02 -0.52783007879E+02 -0.68399943079E+02  0.94374016221E+02  0.00000000000E+00 0.  1.
        -13    1    3    3    0    0  0.79521313280E+02  0.78331457350E+02 -0.20143805138E+03  0.23029707992E+03  0.00000000000E+00 0.  1.
         13    1    3    3    0    0 -0.22311947581E+02  0.13474772444E+02 -0.92961016065E+02  0.96546066751E+02  0.00000000000E+00 0. -1.
         21    1    1    2  503  502 -0.14741676234E+02 -0.13684247123E+02 -0.50904212768E+02  0.54734034339E+02  0.00000000000E+00 0. -1.
          2    1    1    2  501    0 -0.58161281170E+02  0.17191400595E+02 -0.72027181282E+02  0.94160467953E+02  0.00000000000E+00 0. -1.
<scales pt_clust_5="13000.00000" pt_clust_6="13000.00000" pt_clust_7="13000.00000" pt_clust_8="13000.00000" pt_clust_9="20.11407" pt_clust_10="61.93958"></scales>
<clustering>
<clus scale="   20.114">  2  9  1 -1</clus>
<clus scale="   61.940">  1 10  2 -1</clus>
<clus scale="   91.947">  7  8 -1 -1</clus>
<clus scale="   93.454">  5  6 -1 -1</clus>
<clus scale="  132.557">  2  7  1 -1</clus>
<clus scale="   61.940">  1  5  2 -1</clus>
</clustering>
</event>
<event>
10    2  0.1671105E-006  0.1083277E+03  0.7546771E-02  0.1264807E+00
          2   -1    0    0  503    0 -0.00000000000E+00  0.00000000000E+00  0.18287893896E+03  0.18287893896E+03  0.00000000000E+00 0. -1.
         21   -1    0    0  501  502  0.00000000000E+00 -0.00000000000E+00 -0.18241336053E+03  0.18241336053E+03  0.00000000000E+00 0.  1.
         23    2    1    2    0    0  0.23678354540E+02  0.37084449592E+02  0.48014669522E+02  0.11248618869E+03  0.91715937987E+02 0.  0.
         23    2    1    2    0    0  0.16654905230E+02 -0.72168107513E+02  0.51954364303E+02  0.13074268031E+03  0.94386285410E+02 0.  0.
        -11    1    3    3    0    0 -0.21493890998E+02 -0.19435578100E+02  0.93473450853E+01  0.30448348172E+02  0.00000000000E+00 0.  1.
         11    1    3    3    0    0  0.45172245538E+02  0.56520027692E+02  0.38667324437E+02  0.82037840515E+02  0.00000000000E+00 0. -1.
        -13    1    4    4    0    0  0.17186318385E+02  0.11764286132E+02  0.41144346324E+02  0.46115346711E+02  0.00000000000E+00 0.  1.
         13    1    4    4    0    0 -0.53141315451E+00 -0.83932393645E+02  0.10810017979E+02  0.84627333596E+02  0.00000000000E+00 0. -1.
         21    1    1    2  503  502 -0.16829845688E+02  0.36299945159E+02 -0.34157744158E+02  0.52608756024E+02  0.00000000000E+00 0.  1.
          2    1    1    2  501    0 -0.23503414082E+02 -0.12162872383E+01 -0.65345711245E+02  0.69454674474E+02  0.00000000000E+00 0. -1.
<scales pt_clust_5="13000.00000" pt_clust_6="13000.00000" pt_clust_7="13000.00000" pt_clust_8="13000.00000" pt_clust_9="44.10036" pt_clust_10="23.53486"></scales>
<clustering>
<clus scale="   23.535">  2 10  1 -1</clus>
<clus scale="   44.100">  2  9  1 -1</clus>
<clus scale="   91.716">  5  6 -1 -1</clus>
<clus scale="   94.386">  7  8 -1 -1</clus>
<clus scale="  106.009">  1  5  2 -1</clus>
<clus scale="   23.535">  2  5  1 -1</clus>
</clustering>
</event>
<event>
10    2  0.1671105E-006  0.1152847E+03  0.7546771E-02  0.1251471E+00
         21   -1    0    0  501  502  0.00000000000E+00  0.00000000000E+00  0.11231740035E+03  0.11231740035E+03  0.00000000000E+00 0.  1.
         -1   -1    0    0    0  501 -0.00000000000E+00 -0.00000000000E+00 -0.38838085549E+03  0.38838085549E+03  0.00000000000E+00 0.  1.
         23    2    1    2    0    0  0.69432543229E+02 -0.63897151482E+02 -0.23949834305E+03  0.27310056161E+03  0.91218070592E+02 0.  0.
         23    2    1    2    0    0 -0.39884380902E+02  0.73904708137E+01 -0.93258126432E+02  0.13735459501E+03  0.92324556468E+02 0.  0.
        -11    1    3    3    0    0 -0.13507705573E+01 -0.51067713032E+02 -0.54954085175E+02  0.75031242645E+02  0.00000000000E+00 0.  1.
         11    1    3    3    0    0  0.70783313786E+02 -0.12829438450E+02 -0.18454425787E+03  0.19806931897E+03  0.00000000000E+00 0. -1.
        -13    1    4    4    0    0 -0.39518739315E+02 -0.28771835421E+02 -0.88197295666E+02  0.10083804953E+03  0.00000000000E+00 0.  1.
         13    1    4    4    0    0 -0.36564158793E+00  0.36162306234E+02 -0.50608307659E+01  0.36516545483E+02  0.00000000000E+00 0. -1.
         21    1    1    2  503  502  0.25881082318E+01  0.25241131216E+02  0.20130485020E+02  0.32389032657E+02  0.00000000000E+00 0. -1.
         -1    1    1    2    0  503 -0.32136270558E+02  0.31265549452E+02  0.36562529319E+02  0.57854066565E+02  0.00000000000E+00 0.  1.
<scales pt_clust_5="13000.00000" pt_clust_6="13000.00000" pt_clust_7="13000.00000" pt_clust_8="13000.00000" pt_clust_9="22.10739" pt_clust_10="70.21196"></scales>
<clustering>
<clus scale="   22.107">  9 10 -1 -1</clus>
<clus scale="   70.212">  1  9  2 -1</clus>
<clus scale="   91.218">  5  6 -1 -1</clus>
<clus scale="   92.325">  7  8 -1 -1</clus>
<clus scale="  114.401">  2  5  1 -1</clus>
<clus scale="   70.212">  1  5  2 -1</clus>
</clustering>
</event>
<event>
10    2  0.1671105E-006  0.1604104E+03  0.7546771E-02  0.1207548E+00
          1   -1    0    0  502    0 -0.00000000000E+00  0.00000000000E+00  0.32718428769E+03  0.32718428769E+03  0.00000000000E+00 0. -1.
         21   -1    0    0  503  502  0.00000000000E+00 -0.00000000000E+00 -0.14681264777E+03  0.14681264777E+03  0.00000000000E+00 0. -1.
         23    2    1    2    0    0 -0.23848270170E+02 -0.49092603579E+02  0.11196073405E+03  0.15369183956E+03  0.90039723798E+02 0.  0.
         23    2    1    2    0    0  0.18910370379E+02 -0.99294910884E+02  0.94378044269E+02  0.16550576134E+03  0.90927775522E+02 0.  0.
        -11    1    4    4    0    0  0.11993014459E+02  0.16246185216E+02  0.14986566194E+02  0.25146930154E+02  0.00000000000E+00 0.  1.
         11    1    4    4    0    0  0.69173559196E+01 -0.11554109610E+03  0.79391478075E+02  0.14035883119E+03  0.00000000000E+00 0. -1.
        -11    1    3    3    0    0 -0.35330580180E+01 -0.55587904182E+02  0.11886952377E+03  0.13127246959E+03  0.00000000000E+00 0. -1.
         11    1    3    3    0    0 -0.20315212152E+02  0.64953006033E+01 -0.69087897157E+01  0.22419369974E+02  0.00000000000E+00 0.  1.
         21    1    1    2  503  501 -0.13245042637E+02  0.87342973932E+02 -0.21664235665E+02  0.90959141138E+02  0.00000000000E+00 0. -1.
          1    1    1    2  501    0  0.18182942429E+02  0.61044540532E+02 -0.43029027296E+01  0.63840193421E+02  0.00000000000E+00 0. -1.
<scales pt_clust_5="13000.00000" pt_clust_6="13000.00000" pt_clust_7="13000.00000" pt_clust_8="13000.00000" pt_clust_9="29.96457" pt_clust_10="136.78062"></scales>
<clustering>
<clus scale="   29.965">  9 10 -1 -1</clus>
<clus scale="   90.040">  7  8 -1 -1</clus>
<clus scale="   90.928">  5  6 -1 -1</clus>
<clus scale="  105.290">  1  7  2 -1</clus>
<clus scale="  136.781">  2  9  1 -1</clus>
<clus scale="  136.781">  2  5  1 -1</clus>
</clustering>
</event>
<event>
10    2  0.1671105E-006  0.1370096E+03  0.7546771E-02  0.1227434E+00
         21   -1    0    0  501  502  0.00000000000E+00  0.00000000000E+00  0.54535587100E+03  0.54535587100E+03  0.00000000000E+00 0. -1.
          2   -1    0    0  503    0 -0.00000000000E+00 -0.00000000000E+00 -0.90177885130E+02  0.90177885130E+02  0.00000000000E+00 0. -1.
         23    2    1    2    0    0  0.26184574529E+02 -0.69789701557E+02  0.11469199453E+03  0.16046194210E+03  0.83890088020E+02 0.  0.
         23    2    1    2    0    0 -0.78859361277E+02 -0.42463173465E+02  0.28615935391E+03  0.31766142570E+03  0.10487938587E+03 0.  0.
        -11    1    3    3    0    0  0.22179643657E+02  0.14803468877E+02  0.19400752297E+02  0.32976786884E+02  0.00000000000E+00 0.  1.
         11    1    3    3    0    0  0.40049308727E+01 -0.84593170434E+02  0.95291242229E+02  0.12748515522E+03  0.00000000000E+00 0. -1.
        -13    1    4    4    0    0 -0.24801871557E+02  0.20957211493E+02  0.17896048249E+03  0.18188235714E+03  0.00000000000E+00 0.  1.
         13    1    4    4    0    0 -0.54057489719E+02 -0.63420384957E+02  0.10719887143E+03  0.13577906856E+03  0.00000000000E+00 0. -1.
         21    1    1    2  503  502  0.20301755814E+02  0.14289921744E+02 -0.18637458490E+02  0.31043807942E+02  0.00000000000E+00 0.  1.
          2    1    1    2  501    0  0.32373030933E+02  0.97962953277E+02  0.72964095922E+02  0.12636658039E+03  0.00000000000E+00 0. -1.
<scales pt_clust_5="13000.00000" pt_clust_6="13000.00000" pt_clust_7="13000.00000" pt_clust_8="13000.00000" pt_clust_9="24.82666" pt_clust_10="88.15869"></scales>
<clustering>
<clus scale="   24.827">  2  9  1 -1</clus>
<clus scale="   83.890">  5  6 -1 -1</clus>
<clus scale="  104.879">  7  8 -1 -1</clus>
<clus scale="  111.100">  2  5  1 -1</clus>
<clus scale="   88.159">  1 10  2 -1</clus>
<clus scale="   88.159">  1  5  2 -1</clus>
</clustering>
</event>
<event>
10    2  0.1671105E-006  0.1698813E+03  0.7546771E-02  0.1195655E+00
          1   -1    0    0  503    0 -0.00000000000E+00  0.00000000000E+00  0.33389619217E+03  0.33389619217E+03  0.00000000000E+00 0. -1.
         21   -1    0    0  501  502  0.00000000000E+00 -0.00000000000E+00 -0.17078351311E+03  0.17078351311E+03  0.00000000000E+00 0. -1.
         23    2    1    2    0    0  0.12477523374E+02  0.63052779145E+02  0.20930917367E+02  0.11402177189E+03  0.91823306492E+02 0.  0.
         23    2    1    2    0    0  0.98806986524E+02  0.37963750428E+02  0.14562751767E+03  0.20322715613E+03  0.94285927643E+02 0.  0.
        -11    1    4    4    0    0  0.64268888579E+02 -0.24992277733E+02  0.59385779744E+02  0.91004257161E+02  0.00000000000E+00 0.  1.
         11    1    4    4    0    0  0.34538097945E+02  0.62956028162E+02  0.86241737928E+02  0.11222289897E+03  0.00000000000E+00 0. -1.
        -13    1    3    3    0    0  0.10071218847E+02 -0.23436344068E+02  0.62406123353E+01  0.26260938952E+02  0.00000000000E+00 0.  1.
         13    1    3    3    0    0  0.24063045270E+01  0.86489123213E+02  0.14690305031E+02  0.87760832936E+02  0.00000000000E+00 0. -1.
         21    1    1    2  503  502 -0.83023633170E+01  0.22593062795E+02  0.98230513588E+01  0.25997462590E+02  0.00000000000E+00 0. -1.
          1    1    1    2  501    0 -0.10298214658E+03 -0.12360959237E+03 -0.13268807338E+02  0.16143331468E+03  0.00000000000E+00 0. -1.
<scales pt_clust_5="13000.00000" pt_clust_6="13000.00000" pt_clust_7="13000.00000" pt_clust_8="13000.00000" pt_clust_9="24.07022" pt_clust_10="141.31462"></scales>
<clustering>
<clus scale="   24.070">  1  9  2 -1</clus>
<clus scale="   91.823">  7  8 -1 -1</clus>
<clus scale="   94.286">  5  6 -1 -1</clus>
<clus scale="  114.689">  1  7  2 -1</clus>
<clus scale="  141.315">  2 10  1 -1</clus>
<clus scale="  141.315">  2  5  1 -1</clus>
</clustering>
</event>
<event>
10    2  0.1671105E-006  0.9148316E+02  0.7546771E-02  0.1299342E+00
          4   -1    0    0  502    0 -0.00000000000E+00  0.00000000000E+00  0.18359649408E+03  0.18359649408E+03  0.00000000000E+00 0. -1.
         21   -1    0    0  503  502  0.00000000000E+00 -0.00000000000E+00 -0.13426579740E+03  0.13426579740E+03  0.00000000000E+00 0.  1.
         23    2    1    2    0    0 -0.77195046398E+01  0.16592423332E+02  0.65487244922E+02  0.11365390299E+03  0.91069924525E+02 0.  0.
         23    2    1    2    0    0 -0.23820626366E+02  0.31935056961E+02  0.50920641658E+02  0.11174578387E+03  0.91142407047E+02 0.  0.
        -11    1    3    3    0    0  0.48009958859E+01  0.52588239084E+02  0.49315223838E+02  0.72253468800E+02  0.00000000000E+00 0.  1.
         11    1    3    3    0    0 -0.12520500526E+02 -0.35995815751E+02  0.16172021084E+02  0.41400434188E+02  0.00000000000E+00 0. -1.
        -13    1    4    4    0    0  0.33446511500E+02  0.19939006466E+02  0.31538438275E+02  0.50108943305E+02  0.00000000000E+00 0.  1.
         13    1    4    4    0    0 -0.57267137866E+02  0.11996050495E+02  0.19382203384E+02  0.61636840565E+02  0.00000000000E+00 0. -1.
         21    1    1    2  503  501  0.12458323436E+02 -0.31521289887E+02 -0.53988520575E+02  0.63746073548E+02  0.00000000000E+00 0. -1.
          4    1    1    2  501    0  0.19081807570E+02 -0.17006190406E+02 -0.13088669322E+02  0.28716531074E+02  0.00000000000E+00 0. -1.
<scales pt_clust_5="13000.00000" pt_clust_6="13000.00000" pt_clust_7="13000.00000" pt_clust_8="13000.00000" pt_clust_9="22.98050" pt_clust_10="63.63948"></scales>
<clustering>
<clus scale="   22.980">  9 10 -1 -1</clus>
<clus scale="   63.639">  2  9  1 -1</clus>
<clus scale="   91.070">  5  6 -1 -1</clus>
<clus scale="   91.142">  7  8 -1 -1</clus>
<clus scale="   91.411">  1  5  2 -1</clus>
<clus scale="   63.639">  2  5  1 -1</clus>
</clustering>
</event>
<event>
10    2  0.1671105E-006  0.1099285E+03  0.7546771E-02  0.1261952E+00
         21   -1    0    0  501  502  0.00000000000E+00  0.00000000000E+00  0.23324816733E+03  0.23324816733E+03  0.00000000000E+00 0. -1.
         -1   -1    0    0    0  501 -0.00000000000E+00 -0.00000000000E+00 -0.13241128108E+03  0.13241128108E+03  0.00000000000E+00 0.  1.
         23    2    1    2    0    0  0.40212429255E+01 -0.40418542852E+02 -0.11607296123E+02  0.99158560529E+02  0.89709875722E+02 0.  0.
         23    2    1    2    0    0 -0.57611644688E+02  0.92329816606E+02  0.15829934251E+02  0.13987207431E+03  0.86427505552E+02 0.  0.
        -13    1    4    4    0    0  0.14314103679E+02  0.23114009004E+02 -0.20069281461E+02  0.33792410904E+02  0.00000000000E+00 0.  1.
         13    1    4    4    0    0 -0.71925748367E+02  0.69215807601E+02  0.35899215712E+02  0.10607966341E+03  0.00000000000E+00 0. -1.
        -13    1    3    3    0    0 -0.12784597490E+01  0.25853454867E+02  0.12101386727E+02  0.28574099261E+02  0.00000000000E+00 0. -1.
         13    1    3    3    0    0  0.52997026745E+01 -0.66271997719E+02 -0.23708682849E+02  0.70584461268E+02  0.00000000000E+00 0.  1.
         21    1    1    2  503  502  0.19057015487E+02 -0.39680984691E+02  0.41835720249E+02  0.60728723633E+02  0.00000000000E+00 0. -1.
         -1    1    1    2    0  503  0.34533386275E+02 -0.12230289062E+02  0.54778527875E+02  0.65900089941E+02  0.00000000000E+00 0.  1.
<scales pt_clust_5="13000.00000" pt_clust_6="13000.00000" pt_clust_7="13000.00000" pt_clust_8="13000.00000" pt_clust_9="30.71842" pt_clust_10="81.85685"></scales>
<clustering>
<clus scale="   30.718">  9 10 -1 -1</clus>
<clus scale="   81.857">  1  9  2 -1</clus>
<clus scale="   86.428">  5  6 -1 -1</clus>
<clus scale="   89.710">  7  8 -1 -1</clus>
<clus scale="  107.267">  1  5  2 -1</clus>
<clus scale="   81.857">  1  5  2 -1</clus>
</clustering>
</event>
<event>
10    2  0.1671105E-006  0.2134798E+03  0.7546771E-02  0.1139007E+00
         21   -1    0    0  503  502  0.00000000000E+00  0.00000000000E+00  0.14170901771E+04  0.14170901771E+04  0.00000000000E+00 0.  1.
         -2   -1    0    0    0  501 -0.00000000000E+00 -0.00000000000E+00 -0.13120161465E+03  0.13120161465E+03  0.00000000000E+00 0.  1.
         23    2    1    2    0    0  0.22954591558E+03  0.16723500533E+03  0.17664506780E+03  0.34627990633E+03  0.89707408742E+02 0.  0.
         23    2    1    2    0    0 -0.72646409147E+02 -0.10489573856E+03  0.14859126802E+03  0.21627355556E+03  0.91729325598E+02 0.  0.
        -11    1    3    3    0    0  0.16074862283E+03  0.10962425616E+03  0.69704576869E+02  0.20667928130E+03  0.00000000000E+00 0.  1.
         11    1    3    3    0    0  0.68797292752E+02  0.57610749165E+02  0.10694049093E+03  0.13960062503E+03  0.00000000000E+00 0. -1.
        -13    1    4    4    0    0 -0.37913629249E+02  0.60181844969E+01  0.54886659909E+02  0.66979155440E+02  0.00000000000E+00 0.  1.
         13    1    4    4    0    0 -0.34732779898E+02 -0.11091392306E+03  0.93704608111E+02  0.14929440012E+03  0.00000000000E+00 0. -1.
         21    1    1    2  503  501 -0.46660892902E+02 -0.18108962501E+02  0.63974535492E+02  0.81227548533E+02  0.00000000000E+00 0.  1.
         -2    1    1    2    0  502 -0.11023861354E+03 -0.44230304268E+02  0.89667769114E+03  0.90451078132E+03  0.00000000000E+00 0.  1.
<scales pt_clust_5="13000.00000" pt_clust_6="13000.00000" pt_clust_7="13000.00000" pt_clust_8="13000.00000" pt_clust_9="50.05171" pt_clust_10="120.37993"></scales>
<clustering>
<clus scale="   50.052">  2  9  1 -1</clus>
<clus scale="   89.707">  5  6 -1 -1</clus>
<clus scale="   91.729">  7  8 -1 -1</clus>
<clus scale="  120.380">  1 10  2 -1</clus>
<clus scale="  212.619">  2  5  1 -1</clus>
<clus scale="  120.380">  1  5  2 -1</clus>
</clustering>
</event>
<event>
10    2  0.1671105E-006  0.1248123E+03  0.7546771E-02  0.1235555E+00
         21   -1    0    0  503  502  0.00000000000E+00  0.00000000000E+00  0.27992897550E+03  0.27992897550E+03  0.00000000000E+00 0.  1.
         -3   -1    0    0    0  501 -0.00000000000E+00 -0.00000000000E+00 -0.67074128177E+03  0.67074128177E+03  0.00000000000E+00 0.  1.
         23    2    1    2    0    0 -0.12314582842E+02  0.67587879968E+02 -0.35652274358E+03  0.37406995926E+03  0.90000540343E+02 0.  0.
         23    2    1    2    0    0  0.11038801869E+03  0.38056008740E+02  0.21799940577E+03  0.26340028297E+03  0.90676312685E+02 0.  0.
        -11    1    3    3    0    0  0.21940032416E+02 -0.11598620534E+02 -0.11364110306E+03  0.11631935920E+03  0.00000000000E+00 0. -1.
         11    1    3    3    0    0 -0.34254615258E+02  0.79186500502E+02 -0.24288164052E+03  0.25775060006E+03  0.00000000000E+00 0.  1.
        -13    1    4    4    0    0  0.32215605363E+02 -0.58060602444E+01  0.60681087176E+01  0.33292304033E+02  0.00000000000E+00 0. -1.
         13    1    4    4    0    0  0.78172413325E+02  0.43862068984E+02  0.21193129705E+03  0.23010797893E+03  0.00000000000E+00 0.  1.
         21    1    1    2  503  501 -0.62851772180E+02  0.14874270932E+01 -0.14276893098E+03  0.15599847870E+03  0.00000000000E+00 0.  1.
         -3    1    1    2    0  502 -0.35221663666E+02 -0.10713131580E+03 -0.10952003749E+03  0.15720153634E+03  0.00000000000E+00 0.  1.
<scales pt_clust_5="13000.00000" pt_clust_6="13000.00000" pt_clust_7="13000.00000" pt_clust_8="13000.00000" pt_clust_9="62.86937" pt_clust_10="118.43702"></scales>
<clustering>
<clus scale="   62.869">  2  9  1 -1</clus>
<clus scale="   90.001">  5  6 -1 -1</clus>
<clus scale="   90.676">  7  8 -1 -1</clus>
<clus scale="  118.437">  1 10  2 -1</clus>
<clus scale="  124.322">  2  5  1 -1</clus>
<clus scale="  118.437">  1  5  2 -1</clus>
</clustering>
</event>
<event>
10    2  0.1671105E-006  0.2206124E+03  0.7546771E-02  0.1139200E+00
          1   -1    0    0  502    0 -0.00000000000E+00  0.00000000000E+00  0.18040876682E+04  0.18040876682E+04  0.00000000000E+00 0. -1.
         21   -1    0    0  503  502  0.00000000000E+00 -0.00000000000E+00 -0.15258603456E+03  0.15258603456E+03  0.00000000000E+00 0. -1.
         23    2    1    2    0    0  0.15828654017E+03  0.54877497115E+02  0.68401477973E+03  0.71038582107E+03  0.93303951667E+02 0.  0.
         23    2    1    2    0    0 -0.33228334926E+03  0.15777246589E+02  0.98408906910E+03  0.10432208668E+04  0.96006953993E+02 0.  0.
        -11    1    3    3    0    0  0.26483659713E+02 -0.18508800399E+02  0.57412673455E+02  0.65880004533E+02  0.00000000000E+00 0.  1.
         11    1    3    3    0    0  0.13180288046E+03  0.73386297513E+02  0.62660210627E+03  0.64450581653E+03  0.00000000000E+00 0. -1.
        -13    1    4    4    0    0 -0.11391463568E+03  0.94365681783E+01  0.21238479064E+03  0.24119057265E+03  0.00000000000E+00 0.  1.
         13    1    4    4    0    0 -0.21836871358E+03  0.63406784108E+01  0.77170427846E+03  0.80203029411E+03  0.00000000000E+00 0. -1.
         21    1    1    2  503  501  0.42072761347E+02 -0.27138074335E+02  0.27750608672E+02  0.57242367244E+02  0.00000000000E+00 0.  1.
          1    1    1    2  501    0  0.13192404775E+03 -0.43516669369E+02 -0.44352823863E+02  0.14582464768E+03  0.00000000000E+00 0. -1.
<scales pt_clust_5="13000.00000" pt_clust_6="13000.00000" pt_clust_7="13000.00000" pt_clust_8="13000.00000" pt_clust_9="45.29895" pt_clust_10="212.47612"></scales>
<clustering>
<clus scale="   45.299">  9 10 -1 -1</clus>
<clus scale="   93.304">  5  6 -1 -1</clus>
<clus scale="   96.007">  7  8 -1 -1</clus>
<clus scale="  191.760">  1  5  2 -1</clus>
<clus scale="  212.476">  2  9  1 -1</clus>
<clus scale="  212.476">  2  5  1 -1</clus>
</clustering>
</event>
<event>
10    2  0.1671105E-006  0.3406515E+03  0.7546771E-02  0.1087677E+00
         21   -1    0    0  501  502  0.00000000000E+00  0.00000000000E+00  0.56188243265E+03  0.56188243265E+03  0.00000000000E+00 0. -1.
          2   -1    0    0  503    0 -0.00000000000E+00 -0.00000000000E+00 -0.93393807432E+03  0.93393807432E+03  0.00000000000E+00 0. -1.
         23    2    1    2    0    0 -0.77151792604E+02  0.15010785461E+03 -0.32891460663E+03  0.38064286106E+03  0.90660918275E+02 0.  0.
         23    2    1    2    0    0  0.17486041969E+03  0.18628664744E+03 -0.24383048904E+03  0.36499276572E+03  0.92127793074E+02 0.  0.
        -11    1    4    4    0    0  0.12382595865E+03  0.15686141239E+03 -0.22959328331E+03  0.30438700116E+03  0.00000000000E+00 0. -1.
         11    1    4    4    0    0  0.51034461047E+02  0.29425235043E+02 -0.14237205731E+02  0.60605764567E+02  0.00000000000E+00 0.  1.
        -13    1    3    3    0    0 -0.62140032870E+02  0.33691395954E+02 -0.89904210678E+02  0.11436459655E+03  0.00000000000E+00 0. -1.
         13    1    3    3    0    0 -0.15011759734E+02  0.11641645866E+03 -0.23901039595E+03  0.26627826451E+03  0.00000000000E+00 0.  1.
         21    1    1    2  503  502 -0.22833355161E+03 -0.41159427672E+03  0.31034625622E+03  0.56379150239E+03  0.00000000000E+00 0. -1.
          2    1    1    2  501    0  0.13062492452E+03  0.75199774672E+02 -0.10965680221E+03  0.18639337780E+03  0.00000000000E+00 0. -1.
<scales pt_clust_5="13000.00000" pt_clust_6="13000.00000" pt_clust_7="13000.00000" pt_clust_8="13000.00000" pt_clust_9="327.95722" pt_clust_10="150.72458"></scales>
<clustering>
<clus scale="   90.661">  7  8 -1 -1</clus>
<clus scale="   92.128">  5  6 -1 -1</clus>
<clus scale="  150.725">  1 10  2 -1</clus>
<clus scale="  192.040">  2  7  1 -1</clus>
<clus scale="  327.957">  1  9  2 -1</clus>
<clus scale="  150.725">  1  5  2 -1</clus>
</clustering>
</event>
<event>
10    2  0.1711674E-006  0.1025440E+03  0.7546771E-02  0.1275231E+00
          1   -1    0    0  503    0 -0.00000000000E+00  0.00000000000E+00  0.32680860783E+03  0.32680860783E+03  0.00000000000E+00 0. -1.
         21   -1    0    0  501  502  0.00000000000E+00 -0.00000000000E+00 -0.33096695862E+03  0.33096695862E+03  0.00000000000E+00 0. -1.
         23    2    1    2    0    0 -0.20743496361E+02  0.45892878564E+02  0.15523682763E+03  0.18778357422E+03  0.92885677869E+02 0.  0.
         23    2    1    2    0    0 -0.66983287018E+02 -0.32055153024E+02  0.10684991846E+03  0.16011718063E+03  0.93307624992E+02 0.  0.
        -11    1    3    3    0    0 -0.36978485740E+02  0.58490839588E+02  0.15196010739E+03  0.16697443206E+03  0.00000000000E+00 0. -1.
         11    1    3    3    0    0  0.16234989379E+02 -0.12597961025E+02  0.32767202334E+01  0.20809142164E+02  0.00000000000E+00 0.  1.
        -11    1    4    4    0    0 -0.60704297058E+01 -0.52463475615E+02  0.33177118574E+02  0.62369765009E+02  0.00000000000E+00 0.  1.
         11    1    4    4    0    0 -0.60912857312E+02  0.20408322591E+02  0.73672799886E+02  0.97747415618E+02  0.00000000000E+00 0. -1.
         21    1    1    2  503  502 -0.18945672732E+02 -0.23809171688E+02 -0.98277099920E+01  0.31974975456E+02  0.00000000000E+00 0.  1.
          1    1    1    2  501    0  0.10667245611E+03  0.99714461482E+01 -0.25641738689E+03  0.27789983614E+03  0.00000000000E+00 0. -1.
<scales pt_clust_5="13000.00000" pt_clust_6="13000.00000" pt_clust_7="13000.00000" pt_clust_8="13000.00000" pt_clust_9="30.42721" pt_clust_10="90.96156"></scales>
<clustering>
<clus scale="   30.427">  2  9  1 -1</clus>
<clus scale="   90.962">  2 10  1 -1</clus>
<clus scale="   92.886">  5  6 -1 -1</clus>
<clus scale="   93.308">  7  8 -1 -1</clus>
<clus scale="  102.160">  1  5  2 -1</clus>
<clus scale="   30.427">  2  5  1 -1</clus>
</clustering>
</event>
<event>
10    2  0.1671105E-006  0.3249983E+03  0.7546771E-02  0.1105270E+00
         21   -1    0    0  501  502  0.00000000000E+00  0.00000000000E+00  0.97680218796E+03  0.97680218796E+03  0.00000000000E+00 0. -1.
          2   -1    0    0  503    0 -0.00000000000E+00 -0.00000000000E+00 -0.62873374937E+03  0.62873374937E+03  0.00000000000E+00 0. -1.
         23    2    1    2    0    0  0.87302184891E+02  0.20560112615E+02 -0.48866745460E+03  0.50827197097E+03  0.10723863841E+03 0.  0.
         23    2    1    2    0    0  0.17085936681E+03 -0.22893058917E+03  0.49354286964E+03  0.57669712481E+03  0.85981810369E+02 0.  0.
        -13    1    4    4    0    0  0.10477825954E+03 -0.19798063442E+03  0.34747870540E+03  0.41342020510E+03  0.00000000000E+00 0. -1.
         13    1    4    4    0    0  0.66081107267E+02 -0.30949954745E+02  0.14606416424E+03  0.16327691971E+03  0.00000000000E+00 0.  1.
        -13    1    3    3    0    0 -0.13750535915E+02 -0.24495912592E+02 -0.75856122011E+02  0.80890532315E+02  0.00000000000E+00 0.  1.
         13    1    3    3    0    0  0.10105272081E+03  0.45056025207E+02 -0.41281133259E+03  0.42738143865E+03  0.00000000000E+00 0. -1.
         21    1    1    2  503  502 -0.11303859745E+02 -0.35955375437E+02  0.93898653718E+01  0.38842448940E+02  0.00000000000E+00 0. -1.
          2    1    1    2  501    0 -0.24685769196E+03  0.24432585199E+03  0.33380315818E+03  0.48172439261E+03  0.00000000000E+00 0. -1.
<scales pt_clust_5="13000.00000" pt_clust_6="13000.00000" pt_clust_7="13000.00000" pt_clust_8="13000.00000" pt_clust_9="37.69040" pt_clust_10="313.41847"></scales>
<clustering>
<clus scale="   37.690">  1  9  2 -1</clus>
<clus scale="   85.982">  5  6 -1 -1</clus>
<clus scale="  107.239">  7  8 -1 -1</clus>
<clus scale="  139.675">  2  7  1 -1</clus>
<clus scale="  313.418">  1 10  2 -1</clus>
<clus scale="   37.690">  1  5  2 -1</clus>
</clustering>
</event>
<event>
10    2  0.1671105E-006  0.3572364E+03  0.7546771E-02  0.1059745E+00
         21   -1    0    0  503  502  0.00000000000E+00  0.00000000000E+00  0.12750236307E+04  0.12750236307E+04  0.00000000000E+00 0. -1.
          2   -1    0    0  502    0 -0.00000000000E+00 -0.00000000000E+00 -0.17468651936E+03  0.17468651936E+03  0.00000000000E+00 0. -1.
         23    2    1    2    0    0 -0.27942151523E+03  0.12905925751E+03  0.26652841195E+03  0.41695226880E+03  0.89883952715E+02 0.  0.
         23    2    1    2    0    0  0.32617090385E+03 -0.28329409361E+03  0.63261767766E+03  0.77159754829E+03  0.92274852715E+02 0.  0.
        -11    1    4    4    0    0  0.12164913658E+03 -0.56268239340E+02  0.22928419656E+03  0.26558589944E+03  0.00000000000E+00 0.  1.
         11    1    4    4    0    0  0.20452176727E+03 -0.22702585427E+03  0.40333348110E+03  0.50601164885E+03  0.00000000000E+00 0. -1.
        -13    1    3    3    0    0 -0.23230263990E+03  0.10163534389E+03  0.16744993560E+03  0.30386467475E+03  0.00000000000E+00 0. -1.
         13    1    3    3    0    0 -0.47118875333E+02  0.27423913624E+02  0.99078476347E+02  0.11308759404E+03  0.00000000000E+00 0.  1.
         21    1    1    2  503  501 -0.12445519642E+02  0.79830892054E+02  0.12761719576E+03  0.15104307643E+03  0.00000000000E+00 0. -1.
          2    1    1    2  501    0 -0.34303868976E+02  0.74403944044E+02  0.73573825931E+02  0.11011725650E+03  0.00000000000E+00 0. -1.
<scales pt_clust_5="13000.00000" pt_clust_6="13000.00000" pt_clust_7="13000.00000" pt_clust_8="13000.00000" pt_clust_9="41.57762" pt_clust_10="166.51394"></scales>
<clustering>
<clus scale="   41.578">  9 10 -1 -1</clus>
<clus scale="   89.884">  7  8 -1 -1</clus>
<clus scale="   92.275">  5  6 -1 -1</clus>
<clus scale="  166.514">  1  9  2 -1</clus>
<clus scale="  356.626">  2  7  1 -1</clus>
<clus scale="  166.514">  1  5  2 -1</clus>
</clustering>
</event>
<event>
10    2  0.1671105E-006  0.1082983E+03  0.7546771E-02  0.1264802E+00
         21   -1    0    0  503  502  0.00000000000E+00  0.00000000000E+00  0.13550947647E+03  0.13550947647E+03  0.00000000000E+00 0. -1.
         -3   -1    0    0    0  501 -0.00000000000E+00 -0.00000000000E+00 -0.19262091659E+03  0.19262091659E+03  0.00000000000E+00 0.  1.
         23    2    1    2    0    0  0.31748078428E+01 -0.39886845277E+02 -0.42039426157E+02  0.10930654890E+03  0.92625959919E+02 0.  0.
         23    2    1    2    0    0  0.46608244568E+02  0.64312161691E+02 -0.32296531976E+02  0.12434138637E+03  0.90051828323E+02 0.  0.
        -11    1    4    4    0    0  0.11195379602E+02  0.64577923374E+02  0.13026745509E+02  0.66823205627E+02  0.00000000000E+00 0.  1.
         11    1    4    4    0    0  0.35412864966E+02 -0.26576168283E+00 -0.45323277484E+02  0.57518180746E+02  0.00000000000E+00 0. -1.
        -13    1    3    3    0    0 -0.23531196786E+02 -0.25594983197E+01 -0.56440721081E+02  0.61203131047E+02  0.00000000000E+00 0.  1.
         13    1    3    3    0    0  0.26706004629E+02 -0.37327346957E+02  0.14401294924E+02  0.48103417858E+02  0.00000000000E+00 0. -1.
         21    1    1    2  503  501 -0.14596559247E+02 -0.28101630050E+02 -0.24311084712E+02  0.39922299447E+02  0.00000000000E+00 0.  1.
         -3    1    1    2    0  502 -0.35186493164E+02  0.36763136362E+01  0.41535602733E+02  0.54560158335E+02  0.00000000000E+00 0.  1.
<scales pt_clust_5="13000.00000" pt_clust_6="13000.00000" pt_clust_7="13000.00000" pt_clust_8="13000.00000" pt_clust_9="31.66640" pt_clust_10="35.86850"></scales>
<clustering>
<clus scale="   31.666">  2  9  1 -1</clus>
<clus scale="   35.869">  1 10  2 -1</clus>
<clus scale="   90.052">  5  6 -1 -1</clus>
<clus scale="   92.626">  7  8 -1 -1</clus>
<clus scale="  106.105">  1  5  2 -1</clus>
<clus scale="   35.869">  1  5  2 -1</clus>
</clustering>
</event>
<event>
10    2  0.1671105E-006  0.9761810E+02  0.7546771E-02  0.1300295E+00
         21   -1    0    0  503  502  0.00000000000E+00  0.00000000000E+00  0.30817184013E+02  0.30817184013E+02  0.00000000000E+00 0.  1.
          1   -1    0    0  502    0 -0.00000000000E+00 -0.00000000000E+00 -0.53010270280E+03  0.53010270280E+03  0.00000000000E+00 0. -1.
         23    2    1    2    0    0 -0.65353360387E+01  0.22511417101E+02 -0.19699405150E+03  0.20839370425E+03  0.63810697594E+02 0.  0.
         23    2    1    2    0    0  0.19112971816E+01 -0.71408565403E+02 -0.23011988005E+03  0.25728206749E+03  0.90200148489E+02 0.  0.
        -11    1    3    3    0    0 -0.14761878168E+02 -0.19399880028E+02 -0.88476549121E+02  0.91773460960E+02  0.00000000000E+00 0.  1.
         11    1    3    3    0    0  0.82265421294E+01  0.41911297129E+02 -0.10851750238E+03  0.11662024329E+03  0.00000000000E+00 0. -1.
        -13    1    4    4    0    0 -0.38553653622E+02 -0.77798250190E+01 -0.88245885969E+02  0.96613903116E+02  0.00000000000E+00 0.  1.
         13    1    4    4    0    0  0.40464950803E+02 -0.63628740384E+02 -0.14187399408E+03  0.16066816437E+03  0.00000000000E+00 0. -1.
         21    1    1    2  503  501 -0.15823615194E+02  0.25169355791E+02 -0.26269480799E+02  0.39673276777E+02  0.00000000000E+00 0. -1.
          1    1    1    2  501    0  0.20447654051E+02  0.23727792511E+02 -0.45902106439E+02  0.55570838298E+02  0.00000000000E+00 0. -1.
<scales pt_clust_5="13000.00000" pt_clust_6="13000.00000" pt_clust_7="13000.00000" pt_clust_8="13000.00000" pt_clust_9="29.73017" pt_clust_10="33.56122"></scales>
<clustering>
<clus scale="   29.730">  1  9  2 -1</clus>
<clus scale="   33.561">  1 10  2 -1</clus>
<clus scale="   63.811">  5  6 -1 -1</clus>
<clus scale="   73.926">  2  5  1 -1</clus>
<clus scale="   90.200">  7  8 -1 -1</clus>
<clus scale="   29.730">  1  5  2 -1</clus>
</clustering>
</event>
<event>
10    2  0.1671105E-006  0.1800699E+03  0.7546771E-02  0.1195985E+00
         21   -1    0    0  501  502  0.00000000000E+00  0.00000000000E+00  0.59959155459E+02  0.59959155459E+02  0.00000000000E+00 0. -1.
          1   -1    0    0  503    0 -0.00000000000E+00 -0.00000000000E+00 -0.93411194905E+03  0.93411194905E+03  0.00000000000E+00 0. -1.
         23    2    1    2    0    0  0.25200775577E+02  0.95267289592E+01 -0.21074581341E+03  0.23113397643E+03  0.91012524059E+02 0.  0.
         23    2    1    2    0    0 -0.15853767130E+03 -0.83941606109E+02 -0.35312157712E+03  0.40544584256E+03  0.86666582741E+02 0.  0.
        -11    1    4    4    0    0 -0.14748725384E+03 -0.64242827152E+02 -0.34631554026E+03  0.38185610419E+03  0.00000000000E+00 0.  1.
         11    1    4    4    0    0 -0.11050417463E+02 -0.19698778958E+02 -0.68060368638E+01  0.23589738369E+02  0.00000000000E+00 0. -1.
        -11    1    3    3    0    0  0.23406124973E+02 -0.33675730042E+02 -0.49966360483E+02  0.64641617090E+02  0.00000000000E+00 0.  1.
         11    1    3    3    0    0  0.17946506037E+01  0.43202459001E+02 -0.16077945293E+03  0.16649235934E+03  0.00000000000E+00 0. -1.
         21    1    1    2  503  502 -0.29004682352E+01  0.25188785451E+02 -0.92635381119E+02  0.96042706457E+02  0.00000000000E+00 0.  1.
          1    1    1    2  501    0  0.13623736396E+03  0.49226091700E+02 -0.21765002194E+03  0.26144857906E+03  0.00000000000E+00 0. -1.
<scales pt_clust_5="13000.00000" pt_clust_6="13000.00000" pt_clust_7="13000.00000" pt_clust_8="13000.00000" pt_clust_9="25.35523" pt_clust_10="157.84195"></scales>
<clustering>
<clus scale="   25.355">  2  9  1 -1</clus>
<clus scale="   86.667">  5  6 -1 -1</clus>
<clus scale="   91.013">  7  8 -1 -1</clus>
<clus scale="   95.611">  2  7  1 -1</clus>
<clus scale="  157.842">  1 10  2 -1</clus>
<clus scale="  157.842">  1  5  2 -1</clus>
</clustering>
</event>
<event>
10    2  0.1671105E-006  0.1233464E+03  0.7546771E-02  0.1239163E+00
          2   -1    0    0  502    0 -0.00000000000E+00  0.00000000000E+00  0.28754078782E+03  0.28754078782E+03  0.00000000000E+00 0. -1.
         21   -1    0    0  503  502  0.00000000000E+00 -0.00000000000E+00 -0.23017193925E+03  0.23017193925E+03  0.00000000000E+00 0. -1.
         23    2    1    2    0    0 -0.13059274855E+02 -0.74566420451E+02  0.15924396525E+03  0.19624063285E+03  0.86145515233E+02 0.  0.
         23    2    1    2    0    0  0.10608708029E+03  0.12017908628E+03 -0.88604587477E+02  0.20460389968E+03  0.91183888163E+02 0.  0.
        -13    1    3    3    0    0  0.18660036105E+02 -0.74003512930E+02  0.13909872053E+03  0.15866055253E+03  0.00000000000E+00 0. -1.
         13    1    3    3    0    0 -0.31719310960E+02 -0.56290752139E+00  0.20145244717E+02  0.37580080327E+02  0.00000000000E+00 0.  1.
        -13    1    4    4    0    0  0.22988851843E+02  0.18351388529E+02  0.18765061399E+02  0.34891091976E+02  0.00000000000E+00 0.  1.
         13    1    4    4    0    0  0.83098228449E+02  0.10182769775E+03 -0.10736964888E+03  0.16971280771E+03  0.00000000000E+00 0. -1.
         21    1    1    2  503  501 -0.21130494625E+02  0.38914660942E+01 -0.19951842673E+02  0.29320936846E+02  0.00000000000E+00 0.  1.
          2    1    1    2  501    0 -0.71897310812E+02 -0.49504131921E+02  0.66813134621E+01  0.87547257688E+02  0.00000000000E+00 0. -1.
<scales pt_clust_5="13000.00000" pt_clust_6="13000.00000" pt_clust_7="13000.00000" pt_clust_8="13000.00000" pt_clust_9="21.48584" pt_clust_10="90.33094"></scales>
<clustering>
<clus scale="   21.486">  2  9  1 -1</clus>
<clus scale="   86.146">  5  6 -1 -1</clus>
<clus scale="   90.331">  2 10  1 -1</clus>
<clus scale="   91.184">  7  8 -1 -1</clus>
<clus scale="  119.670">  1  5  2 -1</clus>
<clus scale="   21.486">  2  5  1 -1</clus>
</clustering>
</event>
<event>
10    2  0.1671105E-006  0.1323593E+03  0.7546771E-02  0.1225506E+00
         21   -1    0    0  501  502  0.00000000000E+00  0.00000000000E+00  0.16570424176E+03  0.16570424176E+03  0.00000000000E+00 0.  1.
          2   -1    0    0  503    0 -0.00000000000E+00 -0.00000000000E+00 -0.40910480979E+03  0.40910480979E+03  0.00000000000E+00 0. -1.
         23    2    1    2    0    0 -0.33306422122E+02  0.81679797535E+02 -0.31974727847E+03  0.34596055451E+03  0.98333494348E+02 0.  0.
         23    2    1    2    0    0  0.66079031774E+02 -0.71359179529E+02  0.64225699927E+02  0.14894718403E+03  0.92745631471E+02 0.  0.
        -11    1    4    4    0    0  0.88612191803E+02 -0.63478844183E+02  0.60852238627E+02  0.12483861238E+03  0.00000000000E+00 0.  1.
         11    1    4    4    0    0 -0.22533160028E+02 -0.78803353458E+01  0.33734612998E+01  0.24108571653E+02  0.00000000000E+00 0. -1.
        -13    1    3    3    0    0 -0.55044003638E+02  0.46428694972E+02 -0.27792566178E+03  0.28710301205E+03  0.00000000000E+00 0. -1.
         13    1    3    3    0    0  0.21737581516E+02  0.35251102563E+02 -0.41821616687E+02  0.58857542460E+02  0.00000000000E+00 0.  1.
         21    1    1    2  503  502 -0.99734287071E+00 -0.36010273314E+02 -0.34168082499E+01  0.36185757635E+02  0.00000000000E+00 0.  1.
          2    1    1    2  501    0 -0.31775266781E+02  0.25689655308E+02  0.15537818760E+02  0.43715555363E+02  0.00000000000E+00 0. -1.
<scales pt_clust_5="13000.00000" pt_clust_6="13000.00000" pt_clust_7="13000.00000" pt_clust_8="13000.00000" pt_clust_9="36.02408" pt_clust_10="36.96204"></scales>
<clustering>
<clus scale="   36.024">  1  9  2 -1</clus>
<clus scale="   36.962">  1 10  2 -1</clus>
<clus scale="   92.746">  5  6 -1 -1</clus>
<clus scale="   98.333">  7  8 -1 -1</clus>
<clus scale="  128.262">  1  5  2 -1</clus>
<clus scale="   36.024">  1  5  2 -1</clus>
</clustering>
</event>
<event>
10    2  0.1671105E-006  0.1084338E+03  0.7546771E-02  0.1268928E+00
         21   -1    0    0  501  502  0.00000000000E+00  0.00000000000E+00  0.40335255959E+03  0.40335255959E+03  0.00000000000E+00 0.  1.
          1   -1    0    0  503    0 -0.00000000000E+00 -0.00000000000E+00 -0.14770720021E+03  0.14770720021E+03  0.00000000000E+00 0. -1.
         23    2    1    2    0    0 -0.16624771323E+02 -0.78686916352E+01 -0.10482142975E+03  0.14149838316E+03  0.93252136561E+02 0.  0.
         23    2    1    2    0    0  0.76866953379E+01 -0.39036687296E+02  0.27712047817E+03  0.29885518172E+03  0.10457395460E+03 0.  0.
        -11    1    4    4    0    0  0.15001702339E+02  0.34691731504E+02  0.93541696514E+02  0.10088912872E+03  0.00000000000E+00 0.  1.
         11    1    4    4    0    0 -0.73150070010E+01 -0.73728418800E+02  0.18357878165E+03  0.19796605300E+03  0.00000000000E+00 0. -1.
        -13    1    3    3    0    0 -0.15534699421E+02  0.41532892209E+02 -0.38043579442E+02  0.58426209513E+02  0.00000000000E+00 0.  1.
         13    1    3    3    0    0 -0.10900719024E+01 -0.49401583844E+02 -0.66777850307E+02  0.83072173649E+02  0.00000000000E+00 0. -1.
         21    1    1    2  503  502 -0.82490341333E+01  0.26209298404E+02  0.50760602065E+01  0.27941729979E+02  0.00000000000E+00 0.  1.
          1    1    1    2  501    0  0.17187110118E+02  0.20696080527E+02  0.78270250760E+02  0.82764464943E+02  0.00000000000E+00 0. -1.
<scales pt_clust_5="13000.00000" pt_clust_6="13000.00000" pt_clust_7="13000.00000" pt_clust_8="13000.00000" pt_clust_9="28.24611" pt_clust_10="26.90213"></scales>
<clustering>
<clus scale="   26.902">  1 10  2 -1</clus>
<clus scale="   28.246">  2  9  1 -1</clus>
<clus scale="   93.252">  7  8 -1 -1</clus>
<clus scale="   97.561">  2  7  1 -1</clus>
<clus scale="  104.574">  5  6 -1 -1</clus>
<clus scale="   26.902">  1  5  2 -1</clus>
</clustering>
</event>
<event>
10    2  0.1671105E-006  0.1716657E+03  0.7546771E-02  0.1176208E+00
          3   -1    0    0  503    0 -0.00000000000E+00  0.00000000000E+00  0.59579965589E+03  0.59579965589E+03  0.00000000000E+00 0. -1.
         21   -1    0    0  501  502  0.00000000000E+00 -0.00000000000E+00 -0.17624207101E+03  0.17624207101E+03  0.00000000000E+00 0.  1.
         23    2    1    2    0    0 -0.18840710923E+03 -0.35356110034E+01  0.44426515095E+03  0.49099238457E+03  0.90511093268E+02 0.  0.
         23    2    1    2    0    0  0.73681848539E+02 -0.17400163835E+02  0.47735540466E+02  0.12684028695E+03  0.89877672784E+02 0.  0.
        -13    1    3    3    0    0 -0.17242342934E+03 -0.23502960562E+02  0.42412857244E+03  0.45844004418E+03  0.00000000000E+00 0. -1.
         13    1    3    3    0    0 -0.15983679887E+02  0.19967349559E+02  0.20136578503E+02  0.32552340391E+02  0.00000000000E+00 0.  1.
        -13    1    4    4    0    0 -0.31753064581E+01 -0.37809760924E+02  0.13675215594E+02  0.40332023428E+02  0.00000000000E+00 0.  1.
         13    1    4    4    0    0  0.76857154997E+02  0.20409597089E+02  0.34060324873E+02  0.86508263525E+02  0.00000000000E+00 0. -1.
         21    1    1    2  503  502  0.28492051739E+02  0.72868801248E+01  0.12904876727E+02  0.32115906925E+02  0.00000000000E+00 0.  1.
          3    1    1    2  501    0  0.86233208952E+02  0.13648894714E+02 -0.85347983258E+02  0.12209314845E+03  0.00000000000E+00 0. -1.
<scales pt_clust_5="13000.00000" pt_clust_6="13000.00000" pt_clust_7="13000.00000" pt_clust_8="13000.00000" pt_clust_9="29.40911" pt_clust_10="105.54599"></scales>
<clustering>
<clus scale="   29.409">  2  9  1 -1</clus>
<clus scale="   89.878">  7  8 -1 -1</clus>
<clus scale="   90.511">  5  6 -1 -1</clus>
<clus scale="  105.546">  2 10  1 -1</clus>
<clus scale="  171.333">  2  7  1 -1</clus>
<clus scale="   29.409">  2  5  1 -1</clus>
</clustering>
</event>
<event>
10    2  0.1671105E-006  0.1133966E+03  0.7546771E-02  0.1255175E+00
         21   -1    0    0  503  502  0.00000000000E+00  0.00000000000E+00  0.21094555537E+03  0.21094555537E+03  0.00000000000E+00 0.  1.
         -1   -1    0    0    0  501 -0.00000000000E+00 -0.00000000000E+00 -0.36463430805E+03  0.36463430805E+03  0.00000000000E+00 0.  1.
         23    2    1    2    0    0 -0.80727305517E+02 -0.24377410923E+02 -0.20409262550E+03  0.23961254763E+03  0.93001167629E+02 0.  0.
         23    2    1    2    0    0 -0.63561361447E+01  0.62944202046E+02 -0.37839251599E+02  0.11703617606E+03  0.90902610019E+02 0.  0.
        -11    1    3    3    0    0 -0.22152808975E+02 -0.49586799211E+02 -0.13538587291E+03  0.14587300019E+03  0.00000000000E+00 0. -1.
         11    1    3    3    0    0 -0.58574496541E+02  0.25209388289E+02 -0.68706752590E+02  0.93739547441E+02  0.00000000000E+00 0.  1.
        -13    1    4    4    0    0  0.38513815250E+02  0.51633358448E+02 -0.23942374523E+02  0.68720848128E+02  0.00000000000E+00 0.  1.
         13    1    4    4    0    0 -0.44869951395E+02  0.11310843598E+02 -0.13896877076E+02  0.48315327936E+02  0.00000000000E+00 0. -1.
         21    1    1    2  503  501  0.11809651298E+03  0.29121539783E+02  0.32440810290E+02  0.12588588733E+03  0.00000000000E+00 0.  1.
         -1    1    1    2    0  502 -0.31013071316E+02 -0.67688330907E+02  0.55802314125E+02  0.93045252405E+02  0.00000000000E+00 0.  1.
<scales pt_clust_5="13000.00000" pt_clust_6="13000.00000" pt_clust_7="13000.00000" pt_clust_8="13000.00000" pt_clust_9="100.62432" pt_clust_10="74.45482"></scales>
<clustering>
<clus scale="   74.455">  1 10  2 -1</clus>
<clus scale="   90.903">  7  8 -1 -1</clus>
<clus scale="   93.001">  5  6 -1 -1</clus>
<clus scale="  100.624">  1  9  2 -1</clus>
<clus scale="  111.682">  1  7  2 -1</clus>
<clus scale="   74.455">  1  5  2 -1</clus>
</clustering>
</event>
<event>
10    2  0.1671105E-006  0.1024348E+03  0.7546771E-02  0.1278369E+00
         21   -1    0    0  501  502  0.00000000000E+00  0.00000000000E+00  0.15536776221E+03  0.15536776221E+03  0.00000000000E+00 0.  1.
          1   -1    0    0  503    0 -0.00000000000E+00 -0.00000000000E+00 -0.50299791594E+03  0.50299791594E+03  0.00000000000E+00 0. -1.
         23    2    1    2    0    0 -0.27519012779E+02 -0.12526501257E+02 -0.20054920409E+03  0.22187957513E+03  0.89979738261E+02 0.  0.
         23    2    1    2    0    0  0.33376093175E+02 -0.52568454008E+02 -0.25125879025E+03  0.27619250368E+03  0.96301160208E+02 0.  0.
        -13    1    4    4    0    0  0.83442268482E+01 -0.76264196989E+02 -0.20194233826E+03  0.21602444733E+03  0.00000000000E+00 0. -1.
         13    1    4    4    0    0  0.25031866327E+02  0.23695742981E+02 -0.49316451987E+02  0.60168056341E+02  0.00000000000E+00 0.  1.
        -13    1    3    3    0    0  0.23876601051E+02 -0.23665785839E+02 -0.12757810856E+03  0.13193307122E+03  0.00000000000E+00 0. -1.
         13    1    3    3    0    0 -0.51395613830E+02  0.11139284582E+02 -0.72971095531E+02  0.89946503907E+02  0.00000000000E+00 0.  1.
         21    1    1    2  503  502 -0.25037893293E+02  0.87950585635E+02  0.84822887823E+02  0.12472820015E+03  0.00000000000E+00 0.  1.
          1    1    1    2  501    0  0.19180812897E+02 -0.22855630370E+02  0.19354952784E+02  0.35565399201E+02  0.00000000000E+00 0. -1.
<scales pt_clust_5="13000.00000" pt_clust_6="13000.00000" pt_clust_7="13000.00000" pt_clust_8="13000.00000" pt_clust_9="69.85372" pt_clust_10="29.83762"></scales>
<clustering>
<clus scale="   29.838">  1 10  2 -1</clus>
<clus scale="   69.854">  1  9  2 -1</clus>
<clus scale="   89.980">  7  8 -1 -1</clus>
<clus scale="   96.301">  5  6 -1 -1</clus>
<clus scale="   96.516">  2  7  1 -1</clus>
<clus scale="   29.838">  1  5  2 -1</clus>
</clustering>
</event>
<event>
10    2  0.1671105E-006  0.3040590E+03  0.7546771E-02  0.1083299E+00
         21   -1    0    0  501  502  0.00000000000E+00  0.00000000000E+00  0.55250252877E+03  0.55250252877E+03  0.00000000000E+00 0.  1.
         -1   -1    0    0    0  501 -0.00000000000E+00 -0.00000000000E+00 -0.70720144220E+03  0.70720144220E+03  0.00000000000E+00 0.  1.
         23    2    1    2    0    0  0.31583723982E+03  0.99381668755E+01 -0.57949320219E+03  0.66629927269E+03  0.91051744545E+02 0.  0.
         23    2    1    2    0    0 -0.18713101428E+03  0.61124208197E+02  0.10610857414E+03  0.24074896831E+03  0.89145111500E+02 0.  0.
        -11    1    4    4    0    0 -0.15266927501E+03  0.52474585302E+02  0.12147898562E+03  0.20203621848E+03  0.00000000000E+00 0.  1.
         11    1    4    4    0    0 -0.34461739274E+02  0.86496228944E+01 -0.15370411480E+02  0.38712749826E+02  0.00000000000E+00 0. -1.
        -13    1    3    3    0    0  0.17530405348E+03  0.50748901949E+02 -0.31914181083E+03  0.36763903171E+03  0.00000000000E+00 0.  1.
         13    1    3    3    0    0  0.14053318634E+03 -0.40810735074E+02 -0.26035139136E+03  0.29866024098E+03  0.00000000000E+00 0. -1.
         21    1    1    2  503  502 -0.87551508376E+02 -0.56849026360E+02  0.18977868256E+03  0.21659415221E+03  0.00000000000E+00 0.  1.
         -1    1    1    2    0  503 -0.41154717168E+02 -0.14213348712E+02  0.12890703206E+03  0.13606157776E+03  0.00000000000E+00 0.  1.
<scales pt_clust_5="13000.00000" pt_clust_6="13000.00000" pt_clust_7="13000.00000" pt_clust_8="13000.00000" pt_clust_9="22.28176" pt_clust_10="151.01483"></scales>
<clustering>
<clus scale="   22.282">  9 10 -1 -1</clus>
<clus scale="   89.145">  5  6 -1 -1</clus>
<clus scale="   91.052">  7  8 -1 -1</clus>
<clus scale="  151.015">  1  9  2 -1</clus>
<clus scale="  303.493">  1  5  2 -1</clus>
<clus scale="  151.015">  1  5  2 -1</clus>
</clustering>
</event>
<event>
10    2  0.1671105E-006  0.9375876E+02  0.7546771E-02  0.1295109E+00
         -1   -1    0    0    0  501 -0.00000000000E+00  0.00000000000E+00  0.40535645010E+03  0.40535645010E+03  0.00000000000E+00 0.  1.
         21   -1    0    0  501  502  0.00000000000E+00 -0.00000000000E+00 -0.64092061349E+02  0.64092061349E+02  0.00000000000E+00 0. -1.
         23    2    1    2    0    0  0.10308631034E+02  0.23781775922E+02  0.21826423430E+03  0.23796719537E+03  0.91199064476E+02 0.  0.
         23    2    1    2    0    0 -0.90710489194E+01  0.24084790957E+02  0.14439333502E+03  0.17373974118E+03  0.93132708456E+02 0.  0.
        -11    1    3    3    0    0  0.32302934558E+02 -0.25107439453E+02  0.85359885679E+02  0.94658191299E+02  0.00000000000E+00 0. -1.
         11    1    3    3    0    0 -0.21994303524E+02  0.48889215374E+02  0.13290434862E+03  0.14330900407E+03  0.00000000000E+00 0.  1.
        -13    1    4    4    0    0 -0.39424045299E+02  0.35923781304E+02  0.12480537703E+03  0.13572455764E+03  0.00000000000E+00 0.  1.
         13    1    4    4    0    0  0.30352996379E+02 -0.11838990347E+02  0.19587957988E+02  0.38015183543E+02  0.00000000000E+00 0. -1.
         21    1    1    2  503  502  0.10922438468E+02 -0.29079390535E+02 -0.10025353345E+02  0.32640746402E+02  0.00000000000E+00 0. -1.
         -1    1    1    2    0  503 -0.12160020582E+02 -0.18787176343E+02 -0.11367827215E+02  0.25100828494E+02  0.00000000000E+00 0.  1.
<scales pt_clust_5="13000.00000" pt_clust_6="13000.00000" pt_clust_7="13000.00000" pt_clust_8="13000.00000" pt_clust_9="20.50631" pt_clust_10="53.63228"></scales>
<clustering>
<clus scale="   20.506">  9 10 -1 -1</clus>
<clus scale="   53.632">  2  9  1 -1</clus>
<clus scale="   91.199">  5  6 -1 -1</clus>
<clus scale="   91.838">  1  5  2 -1</clus>
<clus scale="   93.133">  7  8 -1 -1</clus>
<clus scale="   53.632">  2  5  1 -1</clus>
</clustering>
</event>
<event>
10    2  0.1671105E-006  0.9259912E+02  0.7546771E-02  0.1297792E+00
         21   -1    0    0  501  502  0.00000000000E+00  0.00000000000E+00  0.60370633311E+02  0.60370633311E+02  0.00000000000E+00 0.  1.
          1   -1    0    0  503    0 -0.00000000000E+00 -0.00000000000E+00 -0.49554357213E+03  0.49554357213E+03  0.00000000000E+00 0. -1.
         23    2    1    2    0    0  0.13890382860E+02 -0.72777506063E+01 -0.21923896973E+03  0.23808743446E+03  0.91509519770E+02 0.  0.
         23    2    1    2    0    0  0.30431030809E+02 -0.46071474128E+02 -0.84325938894E+02  0.13485769582E+03  0.89594116929E+02 0.  0.
        -13    1    4    4    0    0  0.22266734885E+02  0.25064796032E+02 -0.29813349090E+02  0.44865212208E+02  0.00000000000E+00 0. -1.
         13    1    4    4    0    0  0.81642959240E+01 -0.71136270159E+02 -0.54512589804E+02  0.89992483616E+02  0.00000000000E+00 0.  1.
        -13    1    3    3    0    0  0.14994936360E+02 -0.44992307859E+02 -0.72947062858E+02  0.87008217212E+02  0.00000000000E+00 0.  1.
         13    1    3    3    0    0 -0.11045535002E+01  0.37714557252E+02 -0.14629190687E+03  0.15107921724E+03  0.00000000000E+00 0. -1.
         21    1    1    2  503  502 -0.35330477600E+02 -0.38085825829E+01 -0.11840338178E+03  0.12362082659E+03  0.00000000000E+00 0. -1.
          1    1    1    2  501    0 -0.89909360685E+01  0.57157807317E+02 -0.13204648412E+02  0.59348248570E+02  0.00000000000E+00 0. -1.
<scales pt_clust_5="13000.00000" pt_clust_6="13000.00000" pt_clust_7="13000.00000" pt_clust_8="13000.00000" pt_clust_9="35.53516" pt_clust_10="58.12971"></scales>
<clustering>
<clus scale="   35.535">  2  9  1 -1</clus>
<clus scale="   58.130">  1 10  2 -1</clus>
<clus scale="   89.594">  5  6 -1 -1</clus>
<clus scale="   90.707">  1  5  2 -1</clus>
<clus scale="   91.510">  7  8 -1 -1</clus>
<clus scale="   58.130">  1  5  2 -1</clus>
</clustering>
</event>
<event>
10    2  0.1671105E-006  0.1374245E+03  0.7546771E-02  0.1235930E+00
          1   -1    0    0  503    0 -0.00000000000E+00  0.00000000000E+00  0.22428005548E+03  0.22428005548E+03  0.00000000000E+00 0. -1.
         21   -1    0    0  501  502  0.00000000000E+00 -0.00000000000E+00 -0.21728492909E+03  0.21728492909E+03  0.00000000000E+00 0.  1.
         23    2    1    2    0    0 -0.49666219559E+00  0.27339997170E+01 -0.93801345774E+00  0.91932311868E+02  0.91885519362E+02 0.  0.
         23    2    1    2    0    0 -0.39436274280E+02  0.10401844088E+03  0.43124543095E+02  0.14855733035E+03  0.88512701969E+02 0.  0.
        -11    1    3    3    0    0 -0.27307788538E+02 -0.34475238619E+02  0.92724251120E+01  0.44947027267E+02  0.00000000000E+00 0.  1.
         11    1    3    3    0    0  0.26811126342E+02  0.37209238336E+02 -0.10210438570E+02  0.46985284601E+02  0.00000000000E+00 0. -1.
        -13    1    4    4    0    0 -0.10785727730E+02  0.47570444070E+02  0.65278809372E+02  0.81489889095E+02  0.00000000000E+00 0. -1.
         13    1    4    4    0    0 -0.28650546549E+02  0.56447996811E+02 -0.22154266277E+02  0.67067441250E+02  0.00000000000E+00 0.  1.
         21    1    1    2  503  502 -0.29818399274E+02 -0.28232026084E+02  0.50810528601E+02  0.65329120986E+02  0.00000000000E+00 0. -1.
          1    1    1    2  501    0  0.69751335749E+02 -0.78520414514E+02 -0.86001931853E+02  0.13574622137E+03  0.00000000000E+00 0. -1.
<scales pt_clust_5="13000.00000" pt_clust_6="13000.00000" pt_clust_7="13000.00000" pt_clust_8="13000.00000" pt_clust_9="41.06317" pt_clust_10="105.12375"></scales>
<clustering>
<clus scale="   41.063">  1  9  2 -1</clus>
<clus scale="   88.513">  7  8 -1 -1</clus>
<clus scale="   91.886">  5  6 -1 -1</clus>
<clus scale="   92.428">  1  5  2 -1</clus>
<clus scale="  105.124">  2 10  1 -1</clus>
<clus scale="  105.124">  2  5  1 -1</clus>
</clustering>
</event>
<event>
10    2  0.1671105E-006  0.1094943E+03  0.7546771E-02  0.1263514E+00
         21   -1    0    0  503  502  0.00000000000E+00  0.00000000000E+00  0.14948012815E+03  0.14948012815E+03  0.00000000000E+00 0.  1.
         -4   -1    0    0    0  501 -0.00000000000E+00 -0.00000000000E+00 -0.22483020763E+03  0.22483020763E+03  0.00000000000E+00 0.  1.
         23    2    1    2    0    0  0.37309696550E+02 -0.16447164280E+02 -0.21799522563E+02  0.10591327618E+03  0.95288405473E+02 0.  0.
         23    2    1    2    0    0 -0.68321810876E+02 -0.19737324735E+01  0.27792460914E+01  0.11337620254E+03  0.90413901766E+02 0.  0.
        -11    1    3    3    0    0 -0.16770560386E+02  0.28634802256E+02 -0.85943858088E+01  0.34279251207E+02  0.00000000000E+00 0.  1.
         11    1    3    3    0    0  0.54080256936E+02 -0.45081966536E+02 -0.13205136754E+02  0.71634024972E+02  0.00000000000E+00 0. -1.
        -13    1    4    4    0    0 -0.13888854364E+02 -0.38139839041E+02 -0.18554581854E+02  0.44629811846E+02  0.00000000000E+00 0. -1.
         13    1    4    4    0    0 -0.54432956512E+02  0.36166106567E+02  0.21333827945E+02  0.68746390695E+02  0.00000000000E+00 0.  1.
         21    1    1    2  503  501  0.37023055353E+02  0.77049738360E+02 -0.33983289645E+02  0.91990395064E+02  0.00000000000E+00 0.  1.
         -4    1    1    2    0  502 -0.60109410274E+01 -0.58628841606E+02 -0.22346513355E+02  0.63030461995E+02  0.00000000000E+00 0.  1.
<scales pt_clust_5="13000.00000" pt_clust_6="13000.00000" pt_clust_7="13000.00000" pt_clust_8="13000.00000" pt_clust_9="73.16754" pt_clust_10="58.93620"></scales>
<clustering>
<clus scale="   58.936">  1 10  2 -1</clus>
<clus scale="   73.168">  2  9  1 -1</clus>
<clus scale="   90.414">  7  8 -1 -1</clus>
<clus scale="   95.288">  5  6 -1 -1</clus>
<clus scale="  105.280">  1  7  2 -1</clus>
<clus scale="   58.936">  1  5  2 -1</clus>
</clustering>
</event>
<event>
10    2  0.1671105E-006  0.9736358E+02  0.7546771E-02  0.1285954E+00
         21   -1    0    0  501  502  0.00000000000E+00  0.00000000000E+00  0.81237032978E+02  0.81237032978E+02  0.00000000000E+00 0. -1.
          1   -1    0    0  503    0 -0.00000000000E+00 -0.00000000000E+00 -0.33224914990E+03  0.33224914990E+03  0.00000000000E+00 0. -1.
         23    2    1    2    0    0  0.20903231662E+02  0.37110641468E+02 -0.23613305993E+03  0.25587440965E+03  0.88874893617E+02 0.  0.
         23    2    1    2    0    0 -0.43491961612E+02 -0.44517631145E+01 -0.26871829404E+02  0.10265198232E+03  0.88904248151E+02 0.  0.
        -13    1    3    3    0    0 -0.92918133598E+01 -0.24092558019E+02 -0.35115236187E+02  0.43587486276E+02  0.00000000000E+00 0.  1.
         13    1    3    3    0    0  0.30195045022E+02  0.61203199487E+02 -0.20101782375E+03  0.21228692337E+03  0.00000000000E+00 0. -1.
        -13    1    4    4    0    0 -0.29697455660E+02 -0.41805141436E+02  0.51730444142E+01  0.51539975860E+02  0.00000000000E+00 0.  1.
         13    1    4    4    0    0 -0.13794505952E+02  0.37353378322E+02 -0.32044873818E+02  0.51112006462E+02  0.00000000000E+00 0. -1.
         21    1    1    2  503  502  0.26839682332E+00 -0.24014902878E+02  0.18315186333E+02  0.30203205915E+02  0.00000000000E+00 0.  1.
          1    1    1    2  501    0  0.22320333127E+02 -0.86439754756E+01 -0.63224139216E+01  0.24756584997E+02  0.00000000000E+00 0. -1.
<scales pt_clust_5="13000.00000" pt_clust_6="13000.00000" pt_clust_7="13000.00000" pt_clust_8="13000.00000" pt_clust_9="28.02985" pt_clust_10="23.93566"></scales>
<clustering>
<clus scale="   23.936">  1 10  2 -1</clus>
<clus scale="   28.030">  1  9  2 -1</clus>
<clus scale="   88.875">  5  6 -1 -1</clus>
<clus scale="   88.904">  7  8 -1 -1</clus>
<clus scale="   97.337">  2  5  1 -1</clus>
<clus scale="   23.936">  1  5  2 -1</clus>
</clustering>
</event>
<event>
10    2  0.1671105E-006  0.1001676E+03  0.7546771E-02  0.1281596E+00
         -2   -1    0    0    0  501 -0.00000000000E+00  0.00000000000E+00  0.48085968777E+03  0.48085968777E+03  0.00000000000E+00 0.  1.
         21   -1    0    0  503  502  0.00000000000E+00 -0.00000000000E+00 -0.42243355173E+02  0.42243355173E+02  0.00000000000E+00 0. -1.
         23    2    1    2    0    0 -0.33762151328E+02  0.40789457529E+02  0.25566360742E+03  0.27641515102E+03  0.90762287582E+02 0.  0.
         23    2    1    2    0    0  0.11015262681E+02  0.76095101353E+01  0.10662125402E+03  0.14281454631E+03  0.94067327864E+02 0.  0.
        -11    1    3    3    0    0 -0.42527724482E+02 -0.17375781823E+02  0.10158075917E+03  0.11148621340E+03  0.00000000000E+00 0. -1.
         11    1    3    3    0    0  0.87655731540E+01  0.58165239352E+02  0.15408284824E+03  0.16492893762E+03  0.00000000000E+00 0.  1.
        -11    1    4    4    0    0 -0.14524533222E+02 -0.36507324838E+02  0.69204262135E+02  0.79580002072E+02  0.00000000000E+00 0.  1.
         11    1    4    4    0    0  0.25539795903E+02  0.44116834973E+02  0.37416991885E+02  0.63234544234E+02  0.00000000000E+00 0. -1.
         21    1    1    2  503  501  0.23063089081E+02 -0.15040025411E+01  0.30827656706E+02  0.38529372167E+02  0.00000000000E+00 0. -1.
         -2    1    1    2    0  502 -0.31620043379E+00 -0.46894965123E+02  0.45503814457E+02  0.65343973454E+02  0.00000000000E+00 0.  1.
<scales pt_clust_5="13000.00000" pt_clust_6="13000.00000" pt_clust_7="13000.00000" pt_clust_8="13000.00000" pt_clust_9="23.11208" pt_clust_10="47.61911"></scales>
<clustering>
<clus scale="   23.112">  2  9  1 -1</clus>
<clus scale="   47.619">  2 10  1 -1</clus>
<clus scale="   90.762">  5  6 -1 -1</clus>
<clus scale="   94.067">  7  8 -1 -1</clus>
<clus scale="   97.070">  1  5  2 -1</clus>
<clus scale="   23.112">  2  5  1 -1</clus>
</clustering>
</event>
<event>
10    2  0.1671105E-006  0.2020948E+03  0.7546771E-02  0.1160354E+00
         -2   -1    0    0    0  501 -0.00000000000E+00  0.00000000000E+00  0.13940616749E+03  0.13940616749E+03  0.00000000000E+00 0.  1.
         21   -1    0    0  501  502  0.00000000000E+00 -0.00000000000E+00 -0.75027923256E+03  0.75027923256E+03  0.00000000000E+00 0.  1.
         23    2    1    2    0    0 -0.11858639503E+03 -0.17439502112E+02 -0.40844970973E+01  0.15112935896E+03  0.91959397043E+02 0.  0.
         23    2    1    2    0    0 -0.12021404670E+02 -0.15815627918E+03 -0.23994642748E+03  0.30211140321E+03  0.92407191693E+02 0.  0.
        -11    1    3    3    0    0 -0.80345019232E+02  0.24430912162E+02 -0.29473565053E+02  0.88999340567E+02  0.00000000000E+00 0.  1.
         11    1    3    3    0    0 -0.38241375795E+02 -0.41870414274E+02  0.25389067956E+02  0.62130018395E+02  0.00000000000E+00 0. -1.
        -11    1    4    4    0    0 -0.34961424425E+02 -0.54390006098E+02 -0.14829388694E+03  0.16177654609E+03  0.00000000000E+00 0. -1.
         11    1    4    4    0    0  0.22940019754E+02 -0.10376627309E+03 -0.91652540533E+02  0.14033485712E+03  0.00000000000E+00 0.  1.
         21    1    1    2  503  502  0.37356123492E+02  0.36065847123E+02 -0.17009804543E+03  0.17784704201E+03  0.00000000000E+00 0. -1.
         -2    1    1    2    0  503  0.93251676205E+02  0.13952993417E+03 -0.19674409506E+03  0.25859759586E+03  0.00000000000E+00 0.  1.
<scales pt_clust_5="13000.00000" pt_clust_6="13000.00000" pt_clust_7="13000.00000" pt_clust_8="13000.00000" pt_clust_9="49.80924" pt_clust_10="200.80275"></scales>
<clustering>
<clus scale="   49.809">  9 10 -1 -1</clus>
<clus scale="   91.959">  5  6 -1 -1</clus>
<clus scale="   92.407">  7  8 -1 -1</clus>
<clus scale="  151.074">  1  5  2 -1</clus>
<clus scale="  200.803">  2  9  1 -1</clus>
<clus scale="  200.803">  2  5  1 -1</clus>
</clustering>
</event>
<event>
10    2  0.1671105E-006  0.1214392E+03  0.7546771E-02  0.1241474E+00
          1   -1    0    0  503    0 -0.00000000000E+00  0.00000000000E+00  0.53854464845E+03  0.53854464845E+03  0.00000000000E+00 0. -1.
         21   -1    0    0  501  502  0.00000000000E+00 -0.00000000000E+00 -0.61208552822E+02  0.61208552822E+02  0.00000000000E+00 0.  1.
         23    2    1    2    0    0 -0.96042562213E+02  0.21365386673E+02  0.31160302453E+03  0.33989584329E+03  0.93552583513E+02 0.  0.
         23    2    1    2    0    0  0.42456837163E+02  0.35630540042E+02  0.80738828097E+02  0.13383319025E+03  0.91216479016E+02 0.  0.
        -11    1    4    4    0    0  0.42893816346E+02 -0.22466289186E+02  0.32476555538E+02  0.58303861708E+02  0.00000000000E+00 0.  1.
         11    1    4    4    0    0 -0.43697918310E+00  0.58096829228E+02  0.48262272559E+02  0.75529328540E+02  0.00000000000E+00 0. -1.
        -13    1    3    3    0    0 -0.84466996823E+02 -0.21697322940E+02  0.24199823366E+03  0.25723256495E+03  0.00000000000E+00 0. -1.
         13    1    3    3    0    0 -0.11575565389E+02  0.43062709613E+02  0.69604790870E+02  0.82663278337E+02  0.00000000000E+00 0.  1.
         21    1    1    2  503  502  0.26185732163E+02 -0.31632790184E+02  0.10023377133E+02  0.42270487020E+02  0.00000000000E+00 0.  1.
          1    1    1    2  501    0  0.27399992887E+02 -0.25363136532E+02  0.74970865870E+02  0.83753680720E+02  0.00000000000E+00 0. -1.
<scales pt_clust_5="13000.00000" pt_clust_6="13000.00000" pt_clust_7="13000.00000" pt_clust_8="13000.00000" pt_clust_9="51.58648" pt_clust_10="37.33697"></scales>
<clustering>
<clus scale="   37.337">  2 10  1 -1</clus>
<clus scale="   51.586">  2  9  1 -1</clus>
<clus scale="   91.216">  5  6 -1 -1</clus>
<clus scale="   93.553">  7  8 -1 -1</clus>
<clus scale="  119.649">  2  5  1 -1</clus>
<clus scale="   37.337">  2  5  1 -1</clus>
</clustering>
</event>
<event>
10    2  0.1671105E-006  0.1111932E+03  0.7546771E-02  0.1260514E+00
          1   -1    0    0  503    0 -0.00000000000E+00  0.00000000000E+00  0.12164127785E+03  0.12164127785E+03  0.00000000000E+00 0. -1.
         21   -1    0    0  501  502  0.00000000000E+00 -0.00000000000E+00 -0.28372458836E+03  0.28372458836E+03  0.00000000000E+00 0.  1.
         23    2    1    2    0    0  0.20598098842E+02 -0.71704320640E+02  0.34784544002E+02  0.12326962292E+03  0.91758618993E+02 0.  0.
         23    2    1    2    0    0  0.79867694322E+01  0.22152612020E+02 -0.16704828230E+03  0.19462018869E+03  0.97043096210E+02 0.  0.
        -11    1    3    3    0    0  0.39655228805E+02 -0.75517115088E+01 -0.11412257688E+02  0.41950031512E+02  0.00000000000E+00 0.  1.
         11    1    3    3    0    0 -0.19057129963E+02 -0.64152609131E+02  0.46196801690E+02  0.81319591410E+02  0.00000000000E+00 0. -1.
        -13    1    4    4    0    0  0.39219927580E+02  0.43481745508E+02 -0.12517904907E+03  0.13819789882E+03  0.00000000000E+00 0.  1.
         13    1    4    4    0    0 -0.31233158148E+02 -0.21329133488E+02 -0.41869233225E+02  0.56422289869E+02  0.00000000000E+00 0. -1.
         21    1    1    2  503  502  0.17725650178E+02  0.22037765476E+02 -0.12192839670E+02  0.30798167488E+02  0.00000000000E+00 0. -1.
          1    1    1    2  501    0 -0.46310518453E+02  0.27513943144E+02 -0.17626732550E+02  0.56677887108E+02  0.00000000000E+00 0. -1.
<scales pt_clust_5="13000.00000" pt_clust_6="13000.00000" pt_clust_7="13000.00000" pt_clust_8="13000.00000" pt_clust_9="28.28183" pt_clust_10="53.39728"></scales>
<clustering>
<clus scale="   28.282">  1  9  2 -1</clus>
<clus scale="   53.397">  2 10  1 -1</clus>
<clus scale="   91.759">  5  6 -1 -1</clus>
<clus scale="   97.043">  7  8 -1 -1</clus>
<clus scale="  106.612">  1  5  2 -1</clus>
<clus scale="   53.397">  2  5  1 -1</clus>
</clustering>
</event>
<event>
10    2  0.1671105E-006  0.1055935E+03  0.7546771E-02  0.1270072E+00
          4   -1    0    0  502    0 -0.00000000000E+00  0.00000000000E+00  0.13293948582E+03  0.13293948582E+03  0.00000000000E+00 0. -1.
         21   -1    0    0  503  502  0.00000000000E+00 -0.00000000000E+00 -0.21688080487E+03  0.21688080487E+03  0.00000000000E+00 0. -1.
         23    2    1    2    0    0 -0.55936754656E+02  0.33727865425E+02  0.31232246359E+02  0.11499315014E+03  0.89339140017E+02 0.  0.
         23    2    1    2    0    0  0.42419060719E+02  0.19263666808E+02 -0.18332275973E+02  0.10468918269E+03  0.91941759057E+02 0.  0.
        -11    1    3    3    0    0 -0.13579109917E+02  0.47240991631E+02 -0.14462624291E+02  0.51237398624E+02  0.00000000000E+00 0. -1.
         11    1    3    3    0    0 -0.42357644739E+02 -0.13513126205E+02  0.45694870650E+02  0.63755751516E+02  0.00000000000E+00 0.  1.
        -13    1    4    4    0    0 -0.27232324988E+02 -0.78295052026E+01 -0.48498297049E+01  0.28747548141E+02  0.00000000000E+00 0. -1.
         13    1    4    4    0    0  0.69651385706E+02  0.27093172011E+02 -0.13482446268E+02  0.75941634548E+02  0.00000000000E+00 0.  1.
         21    1    1    2  503  501  0.32208040804E+02 -0.65122388607E+01 -0.20186679898E+02  0.38565129233E+02  0.00000000000E+00 0. -1.
          4    1    1    2  501    0 -0.18690346866E+02 -0.46479293373E+02 -0.76654609547E+02  0.91572828629E+02  0.00000000000E+00 0. -1.
<scales pt_clust_5="13000.00000" pt_clust_6="13000.00000" pt_clust_7="13000.00000" pt_clust_8="13000.00000" pt_clust_9="32.85981" pt_clust_10="49.58244"></scales>
<clustering>
<clus scale="   32.860">  2  9  1 -1</clus>
<clus scale="   49.582">  2 10  1 -1</clus>
<clus scale="   89.339">  5  6 -1 -1</clus>
<clus scale="   91.942">  7  8 -1 -1</clus>
<clus scale="  103.335">  1  5  2 -1</clus>
<clus scale="   32.860">  2  5  1 -1</clus>
</clustering>
</event>
<event>
10    2  0.1671105E-006  0.1290340E+03  0.7546771E-02  0.1243743E+00
          1   -1    0    0  503    0 -0.00000000000E+00  0.00000000000E+00  0.17636126976E+03  0.17636126976E+03  0.00000000000E+00 0. -1.
         21   -1    0    0  501  502  0.00000000000E+00 -0.00000000000E+00 -0.39468589378E+03  0.39468589378E+03  0.00000000000E+00 0. -1.
         23    2    1    2    0    0 -0.26503088864E+02  0.36612279787E+01 -0.52100447467E+02  0.10858372589E+03  0.91433859118E+02 0.  0.
         23    2    1    2    0    0 -0.13922383612E+02 -0.32404513857E+02  0.56328712963E+02  0.11284955631E+03  0.91204238782E+02 0.  0.
        -11    1    4    4    0    0  0.36023164937E+02  0.24800579776E+01  0.14301312401E+02  0.38837438587E+02  0.00000000000E+00 0.  1.
         11    1    4    4    0    0 -0.49945548549E+02 -0.34884571835E+02  0.42027400563E+02  0.74012117724E+02  0.00000000000E+00 0. -1.
        -13    1    3    3    0    0  0.17235329700E+02  0.14627791228E+02  0.15438834900E+02  0.27374924459E+02  0.00000000000E+00 0.  1.
         13    1    3    3    0    0 -0.43738418563E+02 -0.10966563250E+02 -0.67539282366E+02  0.81208801435E+02  0.00000000000E+00 0. -1.
         21    1    1    2  503  502 -0.10396604576E+03  0.59587887468E+02 -0.12179379141E+03  0.17086071119E+03  0.00000000000E+00 0. -1.
          1    1    1    2  501    0  0.14439151824E+03 -0.30844601589E+02 -0.10075909810E+03  0.17875317014E+03  0.00000000000E+00 0. -1.
<scales pt_clust_5="13000.00000" pt_clust_6="13000.00000" pt_clust_7="13000.00000" pt_clust_8="13000.00000" pt_clust_9="129.03402" pt_clust_10="13000.00000"></scales>
<clustering>
<clus scale="   91.204">  5  6 -1 -1</clus>
<clus scale="   91.434">  7  8 -1 -1</clus>
<clus scale="   95.268">  1  7  2 -1</clus>
<clus scale="  100.407">  1  5  2 -1</clus>
<clus scale="  129.034">  2  9  1 -1</clus>
<clus scale="  129.034">  2  5  1 -1</clus>
</clustering>
</event>
<event>
10    2  0.1671105E-006  0.1491608E+03  0.7546771E-02  0.1222899E+00
         21   -1    0    0  501  502  0.00000000000E+00  0.00000000000E+00  0.20052038864E+03  0.20052038864E+03  0.00000000000E+00 0.  1.
         -4   -1    0    0    0  501 -0.00000000000E+00 -0.00000000000E+00 -0.23210487018E+03  0.23210487018E+03  0.00000000000E+00 0.  1.
         23    2    1    2    0    0  0.24354560619E+02 -0.16857834037E+02 -0.46172666572E+02  0.10528763405E+03  0.89867900577E+02 0.  0.
         23    2    1    2    0    0 -0.27718773808E+02 -0.10515475449E+03 -0.85204182795E+02  0.16490041697E+03  0.90036336770E+02 0.  0.
        -11    1    4    4    0    0 -0.69945499539E+01 -0.87605364440E+02 -0.10068174408E+03  0.13364294668E+03  0.00000000000E+00 0.  1.
         11    1    4    4    0    0 -0.20724223854E+02 -0.17549390047E+02  0.15477561285E+02  0.31257470286E+02  0.00000000000E+00 0. -1.
        -13    1    3    3    0    0  0.58152988219E+02 -0.70208607279E+01 -0.21927262693E+02  0.62544922843E+02  0.00000000000E+00 0. -1.
         13    1    3    3    0    0 -0.33798427600E+02 -0.98369733093E+01 -0.24245403879E+02  0.42742711208E+02  0.00000000000E+00 0.  1.
         21    1    1    2  503  502  0.16436037501E+02  0.72111251686E+02  0.74526324998E+02  0.10499690027E+03  0.00000000000E+00 0. -1.
         -4    1    1    2    0  503 -0.13071824313E+02  0.49901336838E+02  0.25266042828E+02  0.57440307531E+02  0.00000000000E+00 0.  1.
<scales pt_clust_5="13000.00000" pt_clust_6="13000.00000" pt_clust_7="13000.00000" pt_clust_8="13000.00000" pt_clust_9="32.65553" pt_clust_10="125.18529"></scales>
<clustering>
<clus scale="   32.656">  9 10 -1 -1</clus>
<clus scale="   89.868">  7  8 -1 -1</clus>
<clus scale="   90.036">  5  6 -1 -1</clus>
<clus scale="   94.623">  2  7  1 -1</clus>
<clus scale="  125.185">  1  9  2 -1</clus>
<clus scale="  125.185">  1  5  2 -1</clus>
</clustering>
</event>
<event>
10    2  0.1671105E-006  0.1152557E+03  0.7546771E-02  0.1261706E+00
         21   -1    0    0  503  502  0.00000000000E+00  0.00000000000E+00  0.12394979139E+03  0.12394979139E+03  0.00000000000E+00 0. -1.
          2   -1    0    0  502    0 -0.00000000000E+00 -0.00000000000E+00 -0.75453482553E+03  0.75453482553E+03  0.00000000000E+00 0. -1.
         23    2    1    2    0    0  0.52000291495E+02 -0.19708236096E+02 -0.12161284704E+03  0.15341281353E+03  0.75188841619E+02 0.  0.
         23    2    1    2    0    0 -0.98314726679E+02  0.56591476826E+02 -0.48116121365E+03  0.50271840848E+03  0.91330739437E+02 0.  0.
        -13    1    3    3    0    0  0.31473352051E+02 -0.47661179950E+02 -0.60894789106E+02  0.83488533966E+02  0.00000000000E+00 0.  1.
         13    1    3    3    0    0  0.20526939443E+02  0.27952943854E+02 -0.60718057930E+02  0.69924279559E+02  0.00000000000E+00 0. -1.
        -13    1    4    4    0    0 -0.61178750912E+02 -0.12387039468E+02 -0.27927070703E+03  0.28616150355E+03  0.00000000000E+00 0.  1.
         13    1    4    4    0    0 -0.37135975767E+02  0.68978516293E+02 -0.20189050662E+03  0.21655690492E+03  0.00000000000E+00 0. -1.
         21    1    1    2  503  501  0.64053165162E+02  0.74109679639E+02 -0.46462374032E+02  0.10841496568E+03  0.00000000000E+00 0. -1.
          2    1    1    2  501    0 -0.17738729978E+02 -0.11099292037E+03  0.18651400587E+02  0.11393842924E+03  0.00000000000E+00 0. -1.
<scales pt_clust_5="13000.00000" pt_clust_6="13000.00000" pt_clust_7="13000.00000" pt_clust_8="13000.00000" pt_clust_9="100.56441" pt_clust_10="70.30337"></scales>
<clustering>
<clus scale="   75.189">  5  6 -1 -1</clus>
<clus scale="   91.331">  7  8 -1 -1</clus>
<clus scale="   93.519">  2  5  1 -1</clus>
<clus scale="  100.564">  1  9  2 -1</clus>
<clus scale="   70.303">  1 10  2 -1</clus>
<clus scale="  100.564">  1  5  2 -1</clus>
</clustering>
</event>
<event>
10    2  0.1671105E-006  0.2138845E+03  0.7546771E-02  0.1138818E+00
         21   -1    0    0  503  502  0.00000000000E+00  0.00000000000E+00  0.11721352915E+03  0.11721352915E+03  0.00000000000E+00 0. -1.
          1   -1    0    0  502    0 -0.00000000000E+00 -0.00000000000E+00 -0.90570873191E+03  0.90570873191E+03  0.00000000000E+00 0. -1.
         23    2    1    2    0    0 -0.11097495520E+03 -0.10530532597E+03 -0.30852763417E+03  0.35538785335E+03  0.87787088480E+02 0.  0.
         23    2    1    2    0    0  0.22941083819E+03  0.15285590408E+03 -0.40706725242E+03  0.50004624575E+03  0.91368702548E+02 0.  0.
        -11    1    4    4    0    0  0.18999682710E+03  0.15640303053E+03 -0.31422299861E+03  0.39912002596E+03  0.00000000000E+00 0. -1.
         11    1    4    4    0    0  0.39414011092E+02 -0.35471264425E+01 -0.92844253809E+02  0.10092621979E+03  0.00000000000E+00 0.  1.
        -11    1    3    3    0    0 -0.40439906077E+02 -0.84702149341E+02 -0.11539044321E+03  0.14874405700E+03  0.00000000000E+00 0.  1.
         11    1    3    3    0    0 -0.70535049118E+02 -0.20603176632E+02 -0.19313719096E+03  0.20664379636E+03  0.00000000000E+00 0. -1.
         21    1    1    2  503  501 -0.15018417334E+02 -0.22737529490E+02  0.13548903841E+02  0.30432234585E+02  0.00000000000E+00 0.  1.
          1    1    1    2  501    0 -0.10341746566E+03 -0.24813048621E+02 -0.86449220014E+02  0.13705592737E+03  0.00000000000E+00 0. -1.
<scales pt_clust_5="13000.00000" pt_clust_6="13000.00000" pt_clust_7="13000.00000" pt_clust_8="13000.00000" pt_clust_9="27.24974" pt_clust_10="111.75227"></scales>
<clustering>
<clus scale="   27.250">  1  9  2 -1</clus>
<clus scale="   87.787">  7  8 -1 -1</clus>
<clus scale="   91.369">  5  6 -1 -1</clus>
<clus scale="  111.752">  1 10  2 -1</clus>
<clus scale="  212.379">  2  7  1 -1</clus>
<clus scale="   27.250">  1  5  2 -1</clus>
</clustering>
</event>
<event>
10    2  0.1671105E-006  0.1037040E+03  0.7546771E-02  0.1273117E+00
          4   -1    0    0  503    0 -0.00000000000E+00  0.00000000000E+00  0.17390887486E+03  0.17390887486E+03  0.00000000000E+00 0. -1.
         21   -1    0    0  501  502  0.00000000000E+00 -0.00000000000E+00 -0.14174154156E+03  0.14174154156E+03  0.00000000000E+00 0.  1.
         23    2    1    2    0    0 -0.15614368236E+02 -0.15216174048E+02  0.34204876288E+02  0.10024814502E+03  0.91675386933E+02 0.  0.
         23    2    1    2    0    0  0.47897561937E+02  0.78660366851E+02  0.12774362973E+02  0.13123542064E+03  0.92617069312E+02 0.  0.
        -11    1    4    4    0    0  0.23114067057E+02  0.91097539519E+02  0.29922211261E+02  0.98632451704E+02  0.00000000000E+00 0. -1.
         11    1    4    4    0    0  0.24783494879E+02 -0.12437172668E+02 -0.17147848288E+02  0.32602968934E+02  0.00000000000E+00 0.  1.
        -13    1    3    3    0    0 -0.18861095643E+02  0.36586405900E+02  0.22986670839E+02  0.47145445823E+02  0.00000000000E+00 0. -1.
         13    1    3    3    0    0  0.32467274078E+01 -0.51802579948E+02  0.11218205449E+02  0.53102699193E+02  0.00000000000E+00 0.  1.
         21    1    1    2  503  502 -0.11528044893E+02 -0.52094533187E+02 -0.24365259800E+02  0.58654940901E+02  0.00000000000E+00 0. -1.
          4    1    1    2  501    0 -0.20755148808E+02 -0.11349659616E+02  0.95533538422E+01  0.25511909868E+02  0.00000000000E+00 0. -1.
<scales pt_clust_5="13000.00000" pt_clust_6="13000.00000" pt_clust_7="13000.00000" pt_clust_8="13000.00000" pt_clust_9="58.44736" pt_clust_10="23.65569"></scales>
<clustering>
<clus scale="   23.656">  2 10  1 -1</clus>
<clus scale="   58.447">  2  9  1 -1</clus>
<clus scale="   91.675">  7  8 -1 -1</clus>
<clus scale="   92.617">  5  6 -1 -1</clus>
<clus scale="  102.864">  1  7  2 -1</clus>
<clus scale="   23.656">  2  5  1 -1</clus>
</clustering>
</event>
<event>
10    2  0.1671105E-006  0.9729921E+02  0.7546771E-02  0.1291673E+00
         21   -1    0    0  503  502  0.00000000000E+00  0.00000000000E+00  0.15564276625E+03  0.15564276625E+03  0.00000000000E+00 0.  1.
         -1   -1    0    0    0  501 -0.00000000000E+00 -0.00000000000E+00 -0.12230812952E+03  0.12230812952E+03  0.00000000000E+00 0.  1.
         23    2    1    2    0    0 -0.30457587015E+02 -0.28234645574E+02 -0.12191588873E+02  0.92349574859E+02  0.81577872735E+02 0.  0.
         23    2    1    2    0    0 -0.13690040232E+02  0.31634401397E+02  0.10904665862E+02  0.98763720228E+02  0.91908694596E+02 0.  0.
        -11    1    4    4    0    0 -0.23575145843E+02 -0.24320352305E+02 -0.14093832782E+02  0.36686552853E+02  0.00000000000E+00 0.  1.
         11    1    4    4    0    0  0.98851056108E+01  0.55954753702E+02  0.24998498645E+02  0.62077167375E+02  0.00000000000E+00 0. -1.
        -11    1    3    3    0    0 -0.16420147446E+02 -0.47396199512E+02  0.18567792741E+02  0.53486296353E+02  0.00000000000E+00 0.  1.
         11    1    3    3    0    0 -0.14037439568E+02  0.19161553938E+02 -0.30759381614E+02  0.38863278506E+02  0.00000000000E+00 0. -1.
         21    1    1    2  503  501  0.28370386816E+02 -0.29573327728E+02  0.43651806796E+00  0.40983546808E+02  0.00000000000E+00 0.  1.
         -1    1    1    2    0  502  0.15777240431E+02  0.26173571905E+02  0.34185041673E+02  0.45854053867E+02  0.00000000000E+00 0.  1.
<scales pt_clust_5="13000.00000" pt_clust_6="13000.00000" pt_clust_7="13000.00000" pt_clust_8="13000.00000" pt_clust_9="39.90596" pt_clust_10="30.56104"></scales>
<clustering>
<clus scale="   30.561">  1 10  2 -1</clus>
<clus scale="   39.906">  1  9  2 -1</clus>
<clus scale="   81.578">  7  8 -1 -1</clus>
<clus scale="   87.606">  2  7  1 -1</clus>
<clus scale="   91.909">  5  6 -1 -1</clus>
<clus scale="   30.561">  1  5  2 -1</clus>
</clustering>
</event>
<event>
10    2  0.1671105E-006  0.9595000E+02  0.7546771E-02  0.1290589E+00
         21   -1    0    0  503  502  0.00000000000E+00  0.00000000000E+00  0.82468514001E+02  0.82468514001E+02  0.00000000000E+00 0.  1.
         -3   -1    0    0    0  501 -0.00000000000E+00 -0.00000000000E+00 -0.40145893541E+03  0.40145893541E+03  0.00000000000E+00 0.  1.
         23    2    1    2    0    0 -0.65523938450E+01 -0.10120981849E+01 -0.40207067641E+02  0.98918027474E+02  0.90134397781E+02 0.  0.
         23    2    1    2    0    0  0.39047955896E+02  0.32096361884E+02 -0.56598470156E+01  0.10595744769E+03  0.92951748492E+02 0.  0.
        -11    1    4    4    0    0  0.54137148374E+02 -0.67640260305E+01  0.18701127769E+02  0.57674214880E+02  0.00000000000E+00 0.  1.
         11    1    4    4    0    0 -0.15089192478E+02  0.38860387914E+02 -0.24360974785E+02  0.48283232814E+02  0.00000000000E+00 0. -1.
        -11    1    3    3    0    0  0.26627580384E+02 -0.33996590743E+02 -0.14609124007E+02  0.45587528157E+02  0.00000000000E+00 0.  1.
         11    1    3    3    0    0 -0.33179974229E+02  0.32984492558E+02 -0.25597943634E+02  0.53330499317E+02  0.00000000000E+00 0. -1.
         21    1    1    2  503  501 -0.47682707504E+01 -0.20886496961E+02 -0.56539932808E+02  0.60462766751E+02  0.00000000000E+00 0.  1.
         -3    1    1    2    0  502 -0.27727291300E+02 -0.10197766738E+02 -0.21658357394E+03  0.21858920749E+03  0.00000000000E+00 0.  1.
<scales pt_clust_5="13000.00000" pt_clust_6="13000.00000" pt_clust_7="13000.00000" pt_clust_8="13000.00000" pt_clust_9="21.42387" pt_clust_10="38.67264"></scales>
<clustering>
<clus scale="   21.424">  2  9  1 -1</clus>
<clus scale="   38.673">  1 10  2 -1</clus>
<clus scale="   90.134">  7  8 -1 -1</clus>
<clus scale="   92.952">  5  6 -1 -1</clus>
<clus scale="   93.223">  2  7  1 -1</clus>
<clus scale="   38.673">  1  5  2 -1</clus>
</clustering>
</event>
<event>
10    2  0.1671105E-006  0.2021252E+03  0.7546771E-02  0.1165562E+00
          1   -1    0    0  502    0 -0.00000000000E+00  0.00000000000E+00  0.16309901650E+04  0.16309901650E+04  0.00000000000E+00 0. -1.
         21   -1    0    0  503  502  0.00000000000E+00 -0.00000000000E+00 -0.66886196809E+02  0.66886196809E+02  0.00000000000E+00 0. -1.
         23    2    1    2    0    0  0.10420119452E+03  0.14939143309E+02  0.35724075761E+03  0.38149319260E+03  0.82674241212E+02 0.  0.
         23    2    1    2    0    0 -0.20968411703E+03  0.12078403699E+03  0.10382793318E+04  0.10698776765E+04  0.89766693452E+02 0.  0.
        -11    1    3    3    0    0  0.26441156329E+02 -0.31183437562E+02  0.79321547696E+02  0.89238161428E+02  0.00000000000E+00 0.  1.
         11    1    3    3    0    0  0.77760038186E+02  0.46122580871E+02  0.27791920992E+03  0.29225503117E+03  0.00000000000E+00 0. -1.
        -11    1    4    4    0    0 -0.25438645414E+01  0.32917272337E+02  0.12440134714E+03  0.12870786003E+03  0.00000000000E+00 0.  1.
         11    1    4    4    0    0 -0.20714025248E+03  0.87866764652E+02  0.91387798469E+03  0.94116981647E+03  0.00000000000E+00 0. -1.
         21    1    1    2  503  501  0.90966783806E+01 -0.32979484088E+02  0.12948638328E+02  0.36579545689E+02  0.00000000000E+00 0. -1.
          1    1    1    2  501    0  0.96386244130E+02 -0.10274369621E+03  0.15563524041E+03  0.20992594701E+03  0.00000000000E+00 0. -1.
<scales pt_clust_5="13000.00000" pt_clust_6="13000.00000" pt_clust_7="13000.00000" pt_clust_8="13000.00000" pt_clust_9="26.06204" pt_clust_10="188.66248"></scales>
<clustering>
<clus scale="   26.062">  9 10 -1 -1</clus>
<clus scale="   82.674">  5  6 -1 -1</clus>
<clus scale="   89.767">  7  8 -1 -1</clus>
<clus scale="  133.851">  1  5  2 -1</clus>
<clus scale="  188.662">  2  9  1 -1</clus>
<clus scale="  188.662">  2  5  1 -1</clus>
</clustering>
</event>
<event>
10    2  0.1671105E-006  0.2864253E+03  0.7546771E-02  0.1128873E+00
         21   -1    0    0  503  502  0.00000000000E+00  0.00000000000E+00  0.24348488228E+03  0.24348488228E+03  0.00000000000E+00 0. -1.
          1   -1    0    0  502    0 -0.00000000000E+00 -0.00000000000E+00 -0.66691820624E+03  0.66691820624E+03  0.00000000000E+00 0. -1.
         23    2    1    2    0    0  0.37794208100E+02  0.62276742402E+02 -0.14989819948E+03  0.18823199235E+03  0.87492959306E+02 0.  0.
         23    2    1    2    0    0  0.11897310581E+03  0.23301646152E+03 -0.32373177346E+02  0.27931316271E+03  0.92285150514E+02 0.  0.
        -11    1    4    4    0    0  0.59698046378E+02  0.16967313071E+03 -0.57772692293E+02  0.18891932670E+03  0.00000000000E+00 0.  1.
         11    1    4    4    0    0  0.59275059433E+02  0.63343330816E+02  0.25399514947E+02  0.90393836013E+02  0.00000000000E+00 0. -1.
        -13    1    3    3    0    0  0.22783762473E+02 -0.19754325494E+02 -0.33942185156E+02  0.45402699714E+02  0.00000000000E+00 0.  1.
         13    1    3    3    0    0  0.15010445626E+02  0.82031067896E+02 -0.11595601432E+03  0.14282929264E+03  0.00000000000E+00 0. -1.
         21    1    1    2  503  501  0.21894946494E+02 -0.38337599920E+02  0.53442452210E+01  0.44471577514E+02  0.00000000000E+00 0. -1.
          1    1    1    2  501    0 -0.17866226040E+03 -0.25695560401E+03 -0.24650619236E+03  0.39838635593E+03  0.00000000000E+00 0. -1.
<scales pt_clust_5="13000.00000" pt_clust_6="13000.00000" pt_clust_7="13000.00000" pt_clust_8="13000.00000" pt_clust_9="44.14930" pt_clust_10="271.15124"></scales>
<clustering>
<clus scale="   44.149">  1  9  2 -1</clus>
<clus scale="   87.493">  7  8 -1 -1</clus>
<clus scale="   92.285">  5  6 -1 -1</clus>
<clus scale="  112.708">  2  7  1 -1</clus>
<clus scale="  271.151">  1 10  2 -1</clus>
<clus scale="   44.149">  1  5  2 -1</clus>
</clustering>
</event>
<event>
10    2  0.1671105E-006  0.9157293E+02  0.7546771E-02  0.1299105E+00
          2   -1    0    0  503    0 -0.00000000000E+00  0.00000000000E+00  0.55609730681E+02  0.55609730681E+02  0.00000000000E+00 0. -1.
         21   -1    0    0  501  502  0.00000000000E+00 -0.00000000000E+00 -0.49837311626E+03  0.49837311626E+03  0.00000000000E+00 0. -1.
         23    2    1    2    0    0  0.17447125332E+02 -0.22290584982E+02 -0.45439700858E+02  0.10568503277E+03  0.91122375830E+02 0.  0.
         23    2    1    2    0    0  0.43370622108E+01 -0.33341809881E+02 -0.10052909677E+03  0.13976537047E+03  0.91092113221E+02 0.  0.
        -13    1    3    3    0    0  0.14145103468E+02 -0.55317150964E+02 -0.44653455982E+02  0.72484496784E+02  0.00000000000E+00 0. -1.
         13    1    3    3    0    0  0.33020218647E+01  0.33026565982E+02 -0.78624487687E+00  0.33200535989E+02  0.00000000000E+00 0.  1.
        -13    1    4    4    0    0 -0.20798694929E+02 -0.74707084241E+01  0.94400544730E+01  0.24031475684E+02  0.00000000000E+00 0.  1.
         13    1    4    4    0    0  0.25135757140E+02 -0.25871101457E+02 -0.10996915124E+03  0.11573389479E+03  0.00000000000E+00 0. -1.
         21    1    1    2  503  502 -0.34071086470E+02  0.29548270603E+02 -0.10080925842E+03  0.11043751995E+03  0.00000000000E+00 0. -1.
          2    1    1    2  501    0  0.12286898927E+02  0.26084124260E+02 -0.19598532952E+03  0.19809492374E+03  0.00000000000E+00 0. -1.
<scales pt_clust_5="13000.00000" pt_clust_6="13000.00000" pt_clust_7="13000.00000" pt_clust_8="13000.00000" pt_clust_9="48.81524" pt_clust_10="28.83313"></scales>
<clustering>
<clus scale="   28.833">  2 10  1 -1</clus>
<clus scale="   48.815">  2  9  1 -1</clus>
<clus scale="   91.092">  7  8 -1 -1</clus>
<clus scale="   91.122">  5  6 -1 -1</clus>
<clus scale="   91.543">  2  7  1 -1</clus>
<clus scale="   28.833">  2  5  1 -1</clus>
</clustering>
</event>
<event>
10    2  0.1671105E-006  0.2831785E+03  0.7546771E-02  0.1135738E+00
          1   -1    0    0  503    0 -0.00000000000E+00  0.00000000000E+00  0.64166381197E+03  0.64166381197E+03  0.00000000000E+00 0. -1.
         21   -1    0    0  501  502  0.00000000000E+00 -0.00000000000E+00 -0.23900124395E+03  0.23900124395E+03  0.00000000000E+00 0. -1.
         23    2    1    2    0    0 -0.27011571166E+02  0.33573791978E+02  0.22211613348E+02  0.10417757234E+03  0.92210554306E+02 0.  0.
         23    2    1    2    0    0 -0.26468066312E+03  0.20105522556E+02  0.29768573482E+03  0.41091878305E+03  0.98880554624E+02 0.  0.
        -11    1    3    3    0    0 -0.48381283345E+02  0.47532888763E+02  0.34221200075E+02  0.75968510759E+02  0.00000000000E+00 0. -1.
         11    1    3    3    0    0  0.21369712179E+02 -0.13959096785E+02 -0.12009586727E+02  0.28209061577E+02  0.00000000000E+00 0.  1.
        -13    1    4    4    0    0 -0.64597072896E+02  0.41892842864E+02  0.11924482390E+03  0.14194055142E+03  0.00000000000E+00 0.  1.
         13    1    4    4    0    0 -0.20008359022E+03 -0.21787320308E+02  0.17844091092E+03  0.26897823163E+03  0.00000000000E+00 0. -1.
         21    1    1    2  503  502  0.26241457464E+02 -0.73462879968E+02  0.59991508877E+02  0.98409298139E+02  0.00000000000E+00 0. -1.
          1    1    1    2  501    0  0.26545077682E+03  0.19783565434E+02  0.22773710982E+02  0.26715940239E+03  0.00000000000E+00 0. -1.
<scales pt_clust_5="13000.00000" pt_clust_6="13000.00000" pt_clust_7="13000.00000" pt_clust_8="13000.00000" pt_clust_9="78.00903" pt_clust_10="265.35394"></scales>
<clustering>
<clus scale="   78.009">  1  9  2 -1</clus>
<clus scale="   92.211">  5  6 -1 -1</clus>
<clus scale="   98.605">  1  5  2 -1</clus>
<clus scale="   98.881">  7  8 -1 -1</clus>
<clus scale="  265.354">  2 10  1 -1</clus>
<clus scale="  265.354">  2  5  1 -1</clus>
</clustering>
</event>
<event>
10    2  0.1671105E-006  0.9220358E+02  0.7546771E-02  0.1298006E+00
         -1   -1    0    0    0  501 -0.00000000000E+00  0.00000000000E+00  0.48351252697E+03  0.48351252697E+03  0.00000000000E+00 0.  1.
         21   -1    0    0  503  502  0.00000000000E+00 -0.00000000000E+00 -0.60565819788E+02  0.60565819788E+02  0.00000000000E+00 0.  1.
         23    2    1    2    0    0  0.12620944360E+02 -0.10306113064E+01  0.28834017936E+03  0.30264043266E+03  0.91053951313E+02 0.  0.
         23    2    1    2    0    0 -0.21795707908E+02  0.48459142634E+01  0.13492510170E+01  0.93085561409E+02  0.90357985238E+02 0.  0.
        -11    1    4    4    0    0 -0.33195653893E+02  0.42360461465E+02  0.22797155291E+01  0.53866104702E+02  0.00000000000E+00 0.  1.
         11    1    4    4    0    0  0.11399945986E+02 -0.37514547201E+02 -0.93046451215E+00  0.39219456707E+02  0.00000000000E+00 0. -1.
        -13    1    3    3    0    0  0.33043059426E+02  0.24695361735E+02  0.24398314815E+03  0.24744591581E+03  0.00000000000E+00 0.  1.
         13    1    3    3    0    0 -0.20422115066E+02 -0.25725973042E+02  0.44357031204E+02  0.55194516846E+02  0.00000000000E+00 0. -1.
         21    1    1    2  503  501 -0.11188951165E+02  0.25507574389E+02  0.42375257820E+02  0.50709875318E+02  0.00000000000E+00 0.  1.
         -1    1    1    2    0  502  0.20363714713E+02 -0.29322877346E+02  0.90882018989E+02  0.97642477376E+02  0.00000000000E+00 0.  1.
<scales pt_clust_5="13000.00000" pt_clust_6="13000.00000" pt_clust_7="13000.00000" pt_clust_8="13000.00000" pt_clust_9="27.85371" pt_clust_10="29.82648"></scales>
<clustering>
<clus scale="   27.854">  1  9  2 -1</clus>
<clus scale="   29.826">  2 10  1 -1</clus>
<clus scale="   90.358">  5  6 -1 -1</clus>
<clus scale="   91.054">  7  8 -1 -1</clus>
<clus scale="   91.516">  2  5  1 -1</clus>
<clus scale="   29.826">  2  5  1 -1</clus>
</clustering>
</event>
<event>
10    2  0.1671105E-006  0.1072458E+03  0.7546771E-02  0.1266414E+00
         21   -1    0    0  503  502  0.00000000000E+00  0.00000000000E+00  0.42328638485E+02  0.42328638485E+02  0.00000000000E+00 0. -1.
          1   -1    0    0  502    0 -0.00000000000E+00 -0.00000000000E+00 -0.65807733118E+03  0.65807733118E+03  0.00000000000E+00 0. -1.
         23    2    1    2    0    0  0.16955818085E+02 -0.75721824421E+02 -0.36035950841E+03  0.37990966791E+03  0.91929788510E+02 0.  0.
         23    2    1    2    0    0  0.42613180931E+02  0.19617763769E+02 -0.13848984194E+03  0.17187450758E+03  0.90336427819E+02 0.  0.
        -11    1    4    4    0    0  0.59456822974E+02 -0.29661713720E+01 -0.12912210736E+03  0.14218449487E+03  0.00000000000E+00 0. -1.
         11    1    4    4    0    0 -0.16843642043E+02  0.22583935141E+02 -0.93677345739E+01  0.29690012711E+02  0.00000000000E+00 0.  1.
        -11    1    3    3    0    0  0.42859078964E+02 -0.81786195519E+02 -0.30138498295E+03  0.31521229413E+03  0.00000000000E+00 0. -1.
         11    1    3    3    0    0 -0.25903260879E+02  0.60643710980E+01 -0.58974525461E+02  0.64697373782E+02  0.00000000000E+00 0.  1.
         21    1    1    2  503  501 -0.40240031485E+02  0.98042356419E+01 -0.48164226363E+02  0.63523034181E+02  0.00000000000E+00 0. -1.
          1    1    1    2  501    0 -0.19328967530E+02  0.46299825010E+02 -0.68735115985E+02  0.85098759986E+02  0.00000000000E+00 0. -1.
<scales pt_clust_5="13000.00000" pt_clust_6="13000.00000" pt_clust_7="13000.00000" pt_clust_8="13000.00000" pt_clust_9="37.75588" pt_clust_10="91.77680"></scales>
<clustering>
<clus scale="   37.756">  9 10 -1 -1</clus>
<clus scale="   90.336">  5  6 -1 -1</clus>
<clus scale="   91.777">  1  9  2 -1</clus>
<clus scale="   91.930">  7  8 -1 -1</clus>
<clus scale="  105.883">  1  5  2 -1</clus>
<clus scale="   91.777">  1  5  2 -1</clus>
</clustering>
</event>
<event>
10    2  0.1671105E-006  0.1797522E+03  0.7546771E-02  0.1203419E+00
          2   -1    0    0  503    0 -0.00000000000E+00  0.00000000000E+00  0.48254655877E+03  0.48254655877E+03  0.00000000000E+00 0. -1.
         21   -1    0    0  501  502  0.00000000000E+00 -0.00000000000E+00 -0.26326780355E+03  0.26326780355E+03  0.00000000000E+00 0. -1.
         23    2    1    2    0    0  0.58771940272E+01  0.13378545734E+02  0.40186225510E+02  0.91120378580E+02  0.80464052695E+02 0.  0.
         23    2    1    2    0    0 -0.46209287407E+01  0.69857658839E+02  0.21675250213E+03  0.24528392824E+03  0.91000619720E+02 0.  0.
        -13    1    4    4    0    0  0.36281531098E+02  0.26362392741E+02  0.45351889935E+02  0.63781809088E+02  0.00000000000E+00 0. -1.
         13    1    4    4    0    0 -0.40902459838E+02  0.43495266098E+02  0.17140061220E+03  0.18150211915E+03  0.00000000000E+00 0.  1.
        -13    1    3    3    0    0  0.80711306431E+01  0.46398194550E+02  0.32282242327E+02  0.57097099550E+02  0.00000000000E+00 0. -1.
         13    1    3    3    0    0 -0.21939366159E+01 -0.33019648816E+02  0.79039831833E+01  0.34023279030E+02  0.00000000000E+00 0.  1.
         21    1    1    2  503  502  0.17359164288E+03 -0.16523109230E+02  0.76257924630E+02  0.19032168212E+03  0.00000000000E+00 0. -1.
          2    1    1    2  501    0 -0.17484790817E+03 -0.66713095343E+02 -0.11391789706E+03  0.21908837338E+03  0.00000000000E+00 0. -1.
<scales pt_clust_5="13000.00000" pt_clust_6="13000.00000" pt_clust_7="13000.00000" pt_clust_8="13000.00000" pt_clust_9="179.75220" pt_clust_10="13000.00000"></scales>
<clustering>
<clus scale="   80.464">  7  8 -1 -1</clus>
<clus scale="   81.780">  1  7  2 -1</clus>
<clus scale="   91.001">  5  6 -1 -1</clus>
<clus scale="  119.389">  1  5  2 -1</clus>
<clus scale="  179.752">  1  9  2 -1</clus>
<clus scale="  179.752">  2  5  1 -1</clus>
</clustering>
</event>
<event>
10    2  0.1671105E-006  0.1003799E+03  0.7546771E-02  0.1282769E+00
         21   -1    0    0  501  502  0.00000000000E+00  0.00000000000E+00  0.36231999115E+02  0.36231999115E+02  0.00000000000E+00 0. -1.
          3   -1    0    0  503    0 -0.00000000000E+00 -0.00000000000E+00 -0.72870002560E+03  0.72870002560E+03  0.00000000000E+00 0. -1.
         23    2    1    2    0    0  0.41867130347E+02  0.13036420801E+02 -0.53540480006E+03  0.54538132673E+03  0.94125909038E+02 0.  0.
         23    2    1    2    0    0 -0.94030504176E+01  0.30628775972E+00 -0.12020374295E+03  0.14906377514E+03  0.87650202921E+02 0.  0.
        -11    1    3    3    0    0  0.36246535515E+02  0.52465739530E+02 -0.34738569622E+03  0.35319015714E+03  0.00000000000E+00 0.  1.
         11    1    3    3    0    0  0.56205948320E+01 -0.39429318730E+02 -0.18801910383E+03  0.19219116959E+03  0.00000000000E+00 0. -1.
        -13    1    4    4    0    0 -0.38720897312E+02  0.93595982383E+01 -0.10957440562E+03  0.11659099594E+03  0.00000000000E+00 0.  1.
         13    1    4    4    0    0  0.29317846894E+02 -0.90533104785E+01 -0.10629337330E+02  0.32472779203E+02  0.00000000000E+00 0. -1.
         21    1    1    2  503  502 -0.81481705633E+01 -0.27277244439E+02 -0.30553329828E+02  0.41760588014E+02  0.00000000000E+00 0. -1.
          3    1    1    2  501    0 -0.24315909366E+02  0.13934535879E+02 -0.63061536492E+01  0.28726334822E+02  0.00000000000E+00 0. -1.
<scales pt_clust_5="13000.00000" pt_clust_6="13000.00000" pt_clust_7="13000.00000" pt_clust_8="13000.00000" pt_clust_9="27.71878" pt_clust_10="28.02561"></scales>
<clustering>
<clus scale="   28.026">  1 10  2 -1</clus>
<clus scale="   27.719">  1  9  2 -1</clus>
<clus scale="   87.650">  7  8 -1 -1</clus>
<clus scale="   94.126">  5  6 -1 -1</clus>
<clus scale="   94.334">  1  7  2 -1</clus>
<clus scale="   28.026">  1  5  2 -1</clus>
</clustering>
</event>
<event>
10    2  0.1671105E-006  0.1771827E+03  0.7546771E-02  0.1171784E+00
         21   -1    0    0  501  502  0.00000000000E+00  0.00000000000E+00  0.54158043290E+03  0.54158043290E+03  0.00000000000E+00 0. -1.
          1   -1    0    0  503    0 -0.00000000000E+00 -0.00000000000E+00 -0.45061218653E+03  0.45061218653E+03  0.00000000000E+00 0. -1.
         23    2    1    2    0    0 -0.54128482188E+02 -0.12018667090E+03 -0.17404976484E+03  0.23254980018E+03  0.80070971499E+02 0.  0.
         23    2    1    2    0    0  0.29710940103E+02  0.23694257679E+03  0.37323099179E+03  0.45215739866E+03  0.90113346819E+02 0.  0.
        -13    1    4    4    0    0  0.36458211318E+02  0.20083282127E+03  0.35858821799E+03  0.41261184345E+03  0.00000000000E+00 0.  1.
         13    1    4    4    0    0 -0.67472712152E+01  0.36109755521E+02  0.14642773797E+02  0.39545555214E+02  0.00000000000E+00 0. -1.
        -13    1    3    3    0    0 -0.25666603923E+02 -0.11203633174E+03 -0.16593004624E+03  0.20185067359E+03  0.00000000000E+00 0.  1.
         13    1    3    3    0    0 -0.28461878264E+02 -0.81503391637E+01 -0.81197185980E+01  0.30699126582E+02  0.00000000000E+00 0. -1.
         21    1    1    2  503  502  0.13326674261E+03 -0.28086355480E+02 -0.95863753596E+02  0.16654947404E+03  0.00000000000E+00 0. -1.
          1    1    1    2  501    0 -0.10884920052E+03 -0.88669550412E+02 -0.12349226983E+02  0.14093594656E+03  0.00000000000E+00 0. -1.
<scales pt_clust_5="13000.00000" pt_clust_6="13000.00000" pt_clust_7="13000.00000" pt_clust_8="13000.00000" pt_clust_9="136.19423" pt_clust_10="122.52384"></scales>
<clustering>
<clus scale="   80.071">  7  8 -1 -1</clus>
<clus scale="   90.113">  5  6 -1 -1</clus>
<clus scale="  136.194">  2  9  1 -1</clus>
<clus scale="  122.524">  1 10  2 -1</clus>
<clus scale="  172.292">  2  7  1 -1</clus>
<clus scale="  122.524">  1  5  2 -1</clus>
</clustering>
</event>
<event>
10    2  0.1671105E-006  0.1178429E+03  0.7546771E-02  0.1247124E+00
         21   -1    0    0  501  502  0.00000000000E+00  0.00000000000E+00  0.70466241851E+03  0.70466241851E+03  0.00000000000E+00 0. -1.
          1   -1    0    0  503    0 -0.00000000000E+00 -0.00000000000E+00 -0.19031225303E+03  0.19031225303E+03  0.00000000000E+00 0. -1.
         23    2    1    2    0    0  0.50471355924E+02  0.58401444268E+02 -0.16100360308E+03  0.19989856916E+03  0.89884321695E+02 0.  0.
         23    2    1    2    0    0 -0.25333462940E+02 -0.96241937474E+01  0.38263225601E+03  0.39427969715E+03  0.91184575387E+02 0.  0.
        -11    1    3    3    0    0  0.46586949498E+02  0.10221123006E+02 -0.21610311945E+02  0.52362398736E+02  0.00000000000E+00 0.  1.
         11    1    3    3    0    0  0.38844064262E+01  0.48180321262E+02 -0.13939329114E+03  0.14753617043E+03  0.00000000000E+00 0. -1.
        -13    1    4    4    0    0 -0.44467242224E+02 -0.38102946025E+02  0.28021466436E+03  0.28626810554E+03  0.00000000000E+00 0.  1.
         13    1    4    4    0    0  0.19133779284E+02  0.28478752277E+02  0.10241759165E+03  0.10801159161E+03  0.00000000000E+00 0. -1.
         21    1    1    2  503  502 -0.20139973054E+02 -0.10143085202E+02  0.48482017971E+02  0.53469680741E+02  0.00000000000E+00 0.  1.
          1    1    1    2  501    0 -0.49979199300E+01 -0.38634165319E+02  0.24423949458E+03  0.24732672448E+03  0.00000000000E+00 0. -1.
<scales pt_clust_5="13000.00000" pt_clust_6="13000.00000" pt_clust_7="13000.00000" pt_clust_8="13000.00000" pt_clust_9="22.54996" pt_clust_10="44.27010"></scales>
<clustering>
<clus scale="   22.550">  1  9  2 -1</clus>
<clus scale="   44.270">  1 10  2 -1</clus>
<clus scale="   89.884">  5  6 -1 -1</clus>
<clus scale="   91.185">  7  8 -1 -1</clus>
<clus scale="  116.840">  2  5  1 -1</clus>
<clus scale="   22.550">  1  5  2 -1</clus>
</clustering>
</event>
<event>
10    2  0.1671105E-006  0.2190180E+03  0.7546771E-02  0.1167827E+00
          1   -1    0    0  502    0 -0.00000000000E+00  0.00000000000E+00  0.70240583992E+03  0.70240583992E+03  0.00000000000E+00 0. -1.
         21   -1    0    0  503  502  0.00000000000E+00 -0.00000000000E+00 -0.11434515537E+03  0.11434515537E+03  0.00000000000E+00 0. -1.
         23    2    1    2    0    0 -0.17309615079E+02  0.39825765698E+02  0.19614056961E+03  0.22010024042E+03  0.89929296675E+02 0.  0.
         23    2    1    2    0    0  0.14000461682E+03  0.12548480865E+03  0.30180940538E+03  0.36703064391E+03  0.90966183050E+02 0.  0.
        -11    1    4    4    0    0  0.34529864978E+02 -0.81470424391E+01  0.30779407923E+02  0.46968689868E+02  0.00000000000E+00 0.  1.
         11    1    4    4    0    0  0.10547475184E+03  0.13363185109E+03  0.27102999745E+03  0.32006195404E+03  0.00000000000E+00 0. -1.
        -13    1    3    3    0    0  0.51338534512E+01 -0.22367518334E+02  0.15378911570E+02  0.27625590469E+02  0.00000000000E+00 0.  1.
         13    1    3    3    0    0 -0.22443468530E+02  0.62193284032E+02  0.18076165804E+03  0.19247464996E+03  0.00000000000E+00 0. -1.
         21    1    1    2  503  501 -0.83107164267E+02 -0.85804822284E+02  0.32645971553E+02  0.12383467906E+03  0.00000000000E+00 0. -1.
          1    1    1    2  501    0 -0.39587837474E+02 -0.79505752066E+02  0.57464738006E+02  0.10578543190E+03  0.00000000000E+00 0. -1.
<scales pt_clust_5="13000.00000" pt_clust_6="13000.00000" pt_clust_7="13000.00000" pt_clust_8="13000.00000" pt_clust_9="40.66256" pt_clust_10="204.73851"></scales>
<clustering>
<clus scale="   40.663">  9 10 -1 -1</clus>
<clus scale="   89.929">  7  8 -1 -1</clus>
<clus scale="   90.966">  5  6 -1 -1</clus>
<clus scale="   99.865">  1  7  2 -1</clus>
<clus scale="  204.739">  2  9  1 -1</clus>
<clus scale="  204.739">  2  5  1 -1</clus>
</clustering>
</event>
<event>
10    2  0.1671105E-006  0.1470257E+03  0.7546771E-02  0.1204521E+00
         21   -1    0    0  501  502  0.00000000000E+00  0.00000000000E+00  0.65034126206E+02  0.65034126206E+02  0.00000000000E+00 0. -1.
          1   -1    0    0  503    0 -0.00000000000E+00 -0.00000000000E+00 -0.62982850389E+03  0.62982850389E+03  0.00000000000E+00 0. -1.
         23    2    1    2    0    0  0.11644465051E+03 -0.66872139029E+01 -0.25269005283E+03  0.29318374223E+03  0.92197442723E+02 0.  0.
         23    2    1    2    0    0 -0.97354214529E+02  0.80000712563E+02 -0.14925719384E+03  0.21526144859E+03  0.90453436852E+02 0.  0.
        -13    1    3    3    0    0  0.34006087026E+02 -0.12561467598E+02 -0.17842817543E+03  0.18207366149E+03  0.00000000000E+00 0. -1.
         13    1    3    3    0    0  0.82438563480E+02  0.58742536947E+01 -0.74261877405E+02  0.11111008073E+03  0.00000000000E+00 0.  1.
        -13    1    4    4    0    0 -0.15515377139E+02 -0.19837257572E+02 -0.33179938007E+02  0.41655155766E+02  0.00000000000E+00 0.  1.
         13    1    4    4    0    0 -0.81838837391E+02  0.99837970135E+02 -0.11607725583E+03  0.17360629282E+03  0.00000000000E+00 0. -1.
         21    1    1    2  503  502  0.13367485579E+01 -0.21912541150E+02 -0.10489611380E+02  0.24330604251E+02  0.00000000000E+00 0.  1.
          1    1    1    2  501    0 -0.20427184534E+02 -0.51400957511E+02 -0.15235751964E+03  0.16208683504E+03  0.00000000000E+00 0. -1.
<scales pt_clust_5="13000.00000" pt_clust_6="13000.00000" pt_clust_7="13000.00000" pt_clust_8="13000.00000" pt_clust_9="21.95328" pt_clust_10="56.97987"></scales>
<clustering>
<clus scale="   21.953">  1  9  2 -1</clus>
<clus scale="   56.980">  1 10  2 -1</clus>
<clus scale="   90.453">  7  8 -1 -1</clus>
<clus scale="   92.197">  5  6 -1 -1</clus>
<clus scale="  145.938">  1  7  2 -1</clus>
<clus scale="   21.953">  1  5  2 -1</clus>
</clustering>
</event>
<event>
10    2  0.1671105E-006  0.1055431E+03  0.7546771E-02  0.1269099E+00
         21   -1    0    0  501  502  0.00000000000E+00  0.00000000000E+00  0.90023282288E+02  0.90023282288E+02  0.00000000000E+00 0.  1.
          2   -1    0    0  503    0 -0.00000000000E+00 -0.00000000000E+00 -0.44450263378E+03  0.44450263378E+03  0.00000000000E+00 0. -1.
         23    2    1    2    0    0 -0.58140084206E+02  0.27169677013E+02 -0.29303811705E+03  0.31396964609E+03  0.92666821920E+02 0.  0.
         23    2    1    2    0    0 -0.32526486636E+02 -0.31392943342E+02 -0.78505180272E+01  0.10349937042E+03  0.92773917773E+02 0.  0.
        -13    1    3    3    0    0 -0.43749848039E+02  0.61497607101E+02 -0.19310937030E+03  0.20733362916E+03  0.00000000000E+00 0.  1.
         13    1    3    3    0    0 -0.14390236167E+02 -0.34327930088E+02 -0.99928746748E+02  0.10663601693E+03  0.00000000000E+00 0. -1.
        -13    1    4    4    0    0  0.13098576471E+02  0.24246571730E+02  0.10081161179E+02  0.29344484267E+02  0.00000000000E+00 0.  1.
         13    1    4    4    0    0 -0.45625063107E+02 -0.55639515071E+02 -0.17931679206E+02  0.74154886151E+02  0.00000000000E+00 0. -1.
         21    1    1    2  503  502  0.68530930365E+02  0.20216022434E+02 -0.54295179147E+02  0.89739302751E+02  0.00000000000E+00 0. -1.
          2    1    1    2  501    0  0.22135640478E+02 -0.15992756105E+02  0.70446273562E+00  0.27317596800E+02  0.00000000000E+00 0. -1.
<scales pt_clust_5="13000.00000" pt_clust_6="13000.00000" pt_clust_7="13000.00000" pt_clust_8="13000.00000" pt_clust_9="75.51367" pt_clust_10="27.30851"></scales>
<clustering>
<clus scale="   27.309">  1 10  2 -1</clus>
<clus scale="   75.514">  1  9  2 -1</clus>
<clus scale="   92.667">  5  6 -1 -1</clus>
<clus scale="   92.774">  7  8 -1 -1</clus>
<clus scale="  105.449">  2  5  1 -1</clus>
<clus scale="   27.309">  1  5  2 -1</clus>
</clustering>
</event>
<event>
10    2  0.1671105E-006  0.2576419E+03  0.7546771E-02  0.1127328E+00
         21   -1    0    0  503  502  0.00000000000E+00  0.00000000000E+00  0.63044979588E+03  0.63044979588E+03  0.00000000000E+00 0. -1.
          2   -1    0    0  502    0 -0.00000000000E+00 -0.00000000000E+00 -0.23116132165E+03  0.23116132165E+03  0.00000000000E+00 0. -1.
         23    2    1    2    0    0 -0.53643827460E+02  0.12061396830E+03  0.11096380566E+03  0.19542993457E+03  0.91948374577E+02 0.  0.
         23    2    1    2    0    0  0.15800665915E+03 -0.30069991682E+03  0.66074457752E+02  0.36038335560E+03  0.10061702002E+03 0.  0.
        -13    1    3    3    0    0  0.87167687916E+01  0.91575046534E+02  0.60190112921E+02  0.10993098244E+03  0.00000000000E+00 0.  1.
         13    1    3    3    0    0 -0.62360596251E+02  0.29038921763E+02  0.50773692740E+02  0.85498952136E+02  0.00000000000E+00 0. -1.
        -13    1    4    4    0    0  0.13126517807E+03 -0.26048687219E+03  0.91630795467E+02  0.30574525383E+03  0.00000000000E+00 0. -1.
         13    1    4    4    0    0  0.26741481079E+02 -0.40213044626E+02 -0.25556337715E+02  0.54638101777E+02  0.00000000000E+00 0.  1.
         21    1    1    2  503  501 -0.38276017865E+02  0.62994284057E+02  0.98791110236E+02  0.12325995631E+03  0.00000000000E+00 0. -1.
          2    1    1    2  501    0 -0.66086813828E+02  0.11709166447E+03  0.12345910058E+03  0.18253787105E+03  0.00000000000E+00 0. -1.
<scales pt_clust_5="13000.00000" pt_clust_6="13000.00000" pt_clust_7="13000.00000" pt_clust_8="13000.00000" pt_clust_9="20.87158" pt_clust_10="238.85179"></scales>
<clustering>
<clus scale="   20.872">  9 10 -1 -1</clus>
<clus scale="   91.948">  5  6 -1 -1</clus>
<clus scale="  100.617">  7  8 -1 -1</clus>
<clus scale="  160.872">  2  5  1 -1</clus>
<clus scale="  238.852">  1  9  2 -1</clus>
<clus scale="  238.852">  1  5  2 -1</clus>
</clustering>
</event>
<event>
10    2  0.1671105E-006  0.1431826E+03  0.7546771E-02  0.1209570E+00
         21   -1    0    0  503  502  0.00000000000E+00  0.00000000000E+00  0.55142304147E+03  0.55142304147E+03  0.00000000000E+00 0. -1.
          1   -1    0    0  502    0 -0.00000000000E+00 -0.00000000000E+00 -0.17117556287E+03  0.17117556287E+03  0.00000000000E+00 0. -1.
         23    2    1    2    0    0  0.79942823246E+02  0.79133710374E+02 -0.11179925022E+03  0.18387699859E+03  0.93052023910E+02 0.  0.
         23    2    1    2    0    0 -0.16015489341E+02 -0.80206892511E+02  0.38632215340E+03  0.40520744485E+03  0.90876980863E+02 0.  0.
        -11    1    4    4    0    0  0.37352922276E+02 -0.38893982683E+02  0.19553996122E+03  0.20283949104E+03  0.00000000000E+00 0. -1.
         11    1    4    4    0    0 -0.53368411617E+02 -0.41312909827E+02  0.19078219218E+03  0.20236795381E+03  0.00000000000E+00 0.  1.
        -13    1    3    3    0    0  0.99738745874E+01  0.69822176466E+02 -0.32334186217E+02  0.77589394244E+02  0.00000000000E+00 0.  1.
         13    1    3    3    0    0  0.69968948659E+02  0.93115339076E+01 -0.79465064006E+02  0.10628760435E+03  0.00000000000E+00 0. -1.
         21    1    1    2  503  501 -0.12797162599E+02 -0.20001598248E+02  0.17934195419E+02  0.29756791971E+02  0.00000000000E+00 0.  1.
          1    1    1    2  501    0 -0.51130171306E+02  0.21074780385E+02  0.87790380002E+02  0.10375736893E+03  0.00000000000E+00 0. -1.
<scales pt_clust_5="13000.00000" pt_clust_6="13000.00000" pt_clust_7="13000.00000" pt_clust_8="13000.00000" pt_clust_9="23.74513" pt_clust_10="56.22759"></scales>
<clustering>
<clus scale="   23.745">  1  9  2 -1</clus>
<clus scale="   56.228">  1 10  2 -1</clus>
<clus scale="   90.877">  5  6 -1 -1</clus>
<clus scale="   93.052">  7  8 -1 -1</clus>
<clus scale="  141.779">  1  5  2 -1</clus>
<clus scale="   23.745">  1  5  2 -1</clus>
</clustering>
</event>
<event>
10    2  0.1671105E-006  0.1287683E+03  0.7546771E-02  0.1229986E+00
         21   -1    0    0  501  502  0.00000000000E+00  0.00000000000E+00  0.19692733258E+03  0.19692733258E+03  0.00000000000E+00 0. -1.
          2   -1    0    0  503    0 -0.00000000000E+00 -0.00000000000E+00 -0.43262472662E+03  0.43262472662E+03  0.00000000000E+00 0. -1.
         23    2    1    2    0    0 -0.37964542919E+02  0.27726573905E+02 -0.22294435549E+03  0.24622582420E+03  0.93342923884E+02 0.  0.
         23    2    1    2    0    0  0.16953484224E+03 -0.16062822678E+02 -0.77329671100E+02  0.20790845031E+03  0.90807316177E+02 0.  0.
        -13    1    4    4    0    0  0.13422139776E+03 -0.50168141108E+02 -0.64671866407E+02  0.15720902106E+03  0.00000000000E+00 0. -1.
         13    1    4    4    0    0  0.35313444487E+02  0.34105318430E+02 -0.12657804693E+02  0.50699429251E+02  0.00000000000E+00 0.  1.
        -13    1    3    3    0    0  0.26032409125E+02  0.14802068649E+02 -0.12484497749E+03  0.12838635428E+03  0.00000000000E+00 0.  1.
         13    1    3    3    0    0 -0.63996952044E+02  0.12924505256E+02 -0.98099377996E+02  0.11783946992E+03  0.00000000000E+00 0. -1.
         21    1    1    2  503  502 -0.37216833121E+02 -0.23506704880E+02 -0.19818629093E+02  0.48274588564E+02  0.00000000000E+00 0.  1.
          2    1    1    2  501    0 -0.94353466203E+02  0.11842953654E+02  0.84395261638E+02  0.12714319613E+03  0.00000000000E+00 0. -1.
<scales pt_clust_5="13000.00000" pt_clust_6="13000.00000" pt_clust_7="13000.00000" pt_clust_8="13000.00000" pt_clust_9="44.01884" pt_clust_10="96.92865"></scales>
<clustering>
<clus scale="   44.019">  2  9  1 -1</clus>
<clus scale="   90.807">  5  6 -1 -1</clus>
<clus scale="   93.343">  7  8 -1 -1</clus>
<clus scale="   96.929">  1 10  2 -1</clus>
<clus scale="  126.942">  1  5  2 -1</clus>
<clus scale="   96.929">  1  5  2 -1</clus>
</clustering>
</event>
<event>
10    2  0.1671105E-006  0.1061090E+03  0.7546771E-02  0.1268730E+00
         21   -1    0    0  503  502  0.00000000000E+00  0.00000000000E+00  0.49651790458E+03  0.49651790458E+03  0.00000000000E+00 0.  1.
         -3   -1    0    0    0  501 -0.00000000000E+00 -0.00000000000E+00 -0.11332577089E+03  0.11332577089E+03  0.00000000000E+00 0.  1.
         23    2    1    2    0    0  0.56724917826E+02 -0.29226982961E+02 -0.21308888470E+02  0.11139877912E+03  0.88790125730E+02 0.  0.
         23    2    1    2    0    0 -0.31288982045E+02  0.32735534056E+02  0.16444887555E+02  0.10266620363E+03  0.90660352157E+02 0.  0.
        -11    1    4    4    0    0  0.16480631658E+02  0.28687853007E+02 -0.23239703069E+02  0.40431274141E+02  0.00000000000E+00 0.  1.
         11    1    4    4    0    0 -0.47769613703E+02  0.40476810495E+01  0.39684590624E+02  0.62234929486E+02  0.00000000000E+00 0. -1.
        -11    1    3    3    0    0  0.33437682156E+02 -0.61153769547E+02 -0.11021434456E+02  0.70564397079E+02  0.00000000000E+00 0.  1.
         11    1    3    3    0    0  0.23287235670E+02  0.31926786586E+02 -0.10287454015E+02  0.40834382044E+02  0.00000000000E+00 0. -1.
         21    1    1    2  503  501  0.21330183139E+02  0.83775141558E+01  0.60633786539E+02  0.64819869841E+02  0.00000000000E+00 0.  1.
         -3    1    1    2    0  502 -0.46766118919E+02 -0.11886065251E+02  0.32742234807E+03  0.33095882288E+03  0.00000000000E+00 0.  1.
<scales pt_clust_5="13000.00000" pt_clust_6="13000.00000" pt_clust_7="13000.00000" pt_clust_8="13000.00000" pt_clust_9="22.91636" pt_clust_10="31.07506"></scales>
<clustering>
<clus scale="   22.916">  1  9  2 -1</clus>
<clus scale="   31.075">  1 10  2 -1</clus>
<clus scale="   88.790">  7  8 -1 -1</clus>
<clus scale="   90.660">  5  6 -1 -1</clus>
<clus scale="  104.516">  2  7  1 -1</clus>
<clus scale="   22.916">  1  5  2 -1</clus>
</clustering>
</event>
<event>
10    2  0.1671105E-006  0.1055842E+03  0.7546771E-02  0.1272674E+00
         21   -1    0    0  501  502  0.00000000000E+00  0.00000000000E+00  0.59857664386E+03  0.59857664386E+03  0.00000000000E+00 0. -1.
          1   -1    0    0  503    0 -0.00000000000E+00 -0.00000000000E+00 -0.54985174297E+02  0.54985174297E+02  0.00000000000E+00 0. -1.
         23    2    1    2    0    0 -0.99470315738E+01 -0.88247387021E+01  0.22009481826E+03  0.24156768072E+03  0.98673177167E+02 0.  0.
         23    2    1    2    0    0  0.38520806716E+02 -0.72897391607E+02  0.26085094231E+03  0.28825733284E+03  0.90836080814E+02 0.  0.
        -11    1    3    3    0    0 -0.23492758590E+01  0.43152606234E+02  0.13313433262E+03  0.13997291539E+03  0.00000000000E+00 0.  1.
         11    1    3    3    0    0 -0.75977557148E+01 -0.51977344936E+02  0.86960485641E+02  0.10159476532E+03  0.00000000000E+00 0. -1.
        -13    1    4    4    0    0 -0.26481360431E+02 -0.44246767046E+01  0.41211718257E+02  0.49185830642E+02  0.00000000000E+00 0.  1.
         13    1    4    4    0    0  0.65002167147E+02 -0.68472714902E+02  0.21963922405E+03  0.23907150220E+03  0.00000000000E+00 0. -1.
         21    1    1    2  503  502 -0.23387002679E+02  0.24433543976E+01  0.29314296636E+02  0.37579913016E+02  0.00000000000E+00 0. -1.
          1    1    1    2  501    0 -0.51867724628E+01  0.79278775911E+02  0.33331412364E+02  0.86156891592E+02  0.00000000000E+00 0. -1.
<scales pt_clust_5="13000.00000" pt_clust_6="13000.00000" pt_clust_7="13000.00000" pt_clust_8="13000.00000" pt_clust_9="23.51429" pt_clust_10="82.39194"></scales>
<clustering>
<clus scale="   23.514">  2  9  1 -1</clus>
<clus scale="   82.392">  1 10  2 -1</clus>
<clus scale="   90.836">  7  8 -1 -1</clus>
<clus scale="   98.300">  1  7  2 -1</clus>
<clus scale="   98.673">  5  6 -1 -1</clus>
<clus scale="   82.392">  1  5  2 -1</clus>
</clustering>
</event>
<event>
10    2  0.1671105E-006  0.1822799E+03  0.7546771E-02  0.1165621E+00
         -2   -1    0    0    0  501 -0.00000000000E+00  0.00000000000E+00  0.68166110563E+03  0.68166110563E+03  0.00000000000E+00 0.  1.
         21   -1    0    0  501  502  0.00000000000E+00 -0.00000000000E+00 -0.19191917613E+03  0.19191917613E+03  0.00000000000E+00 0.  1.
         23    2    1    2    0    0 -0.11582366796E+03 -0.42314332338E+02  0.25537425588E+03  0.29743180336E+03  0.89688585139E+02 0.  0.
         23    2    1    2    0    0  0.18997591706E+03  0.13017838726E+03  0.33760239308E+03  0.41838618804E+03  0.89634619192E+02 0.  0.
        -11    1    3    3    0    0 -0.88173641307E+02 -0.62712049582E+02  0.23166048754E+03  0.25568334648E+03  0.00000000000E+00 0. -1.
         11    1    3    3    0    0 -0.27650026650E+02  0.20397717244E+02  0.23713768345E+02  0.41748456877E+02  0.00000000000E+00 0.  1.
        -11    1    4    4    0    0  0.10660161834E+03  0.46761007251E+02  0.23421023866E+03  0.26154336682E+03  0.00000000000E+00 0. -1.
         11    1    4    4    0    0  0.83374298717E+02  0.83417380007E+02  0.10339215442E+03  0.15684282122E+03  0.00000000000E+00 0.  1.
         21    1    1    2  503  502 -0.29999471112E+02 -0.31028946529E+02 -0.59639375036E+02  0.73618060586E+02  0.00000000000E+00 0.  1.
         -2    1    1    2    0  503 -0.44152777986E+02 -0.56835108391E+02 -0.43595344416E+02  0.84144229775E+02  0.00000000000E+00 0.  1.
<scales pt_clust_5="13000.00000" pt_clust_6="13000.00000" pt_clust_7="13000.00000" pt_clust_8="13000.00000" pt_clust_9="24.64583" pt_clust_10="119.29599"></scales>
<clustering>
<clus scale="   24.646">  9 10 -1 -1</clus>
<clus scale="   89.635">  7  8 -1 -1</clus>
<clus scale="   89.689">  5  6 -1 -1</clus>
<clus scale="  119.296">  2  9  1 -1</clus>
<clus scale="  182.253">  2  7  1 -1</clus>
<clus scale="  119.296">  2  5  1 -1</clus>
</clustering>
</event>
<event>
10    2  0.1671105E-006  0.1081797E+03  0.7546771E-02  0.1265293E+00
         -1   -1    0    0    0  501 -0.00000000000E+00  0.00000000000E+00  0.31079162334E+03  0.31079162334E+03  0.00000000000E+00 0.  1.
         21   -1    0    0  503  502  0.00000000000E+00 -0.00000000000E+00 -0.88289135169E+02  0.88289135169E+02  0.00000000000E+00 0. -1.
         23    2    1    2    0    0  0.91274152928E+02  0.46390478743E+01  0.18006381213E+03  0.22255387434E+03  0.93566868013E+02 0.  0.
         23    2    1    2    0    0 -0.35198102392E+02 -0.89786079231E+01 -0.31683985469E+01  0.97463281234E+02  0.90385455840E+02 0.  0.
        -11    1    3    3    0    0  0.52532968898E+02  0.34513915610E+02  0.15568262957E+03  0.16789283589E+03  0.00000000000E+00 0.  1.
         11    1    3    3    0    0  0.38741184029E+02 -0.29874867736E+02  0.24381182555E+02  0.54661038456E+02  0.00000000000E+00 0. -1.
        -11    1    4    4    0    0 -0.61693065921E+02  0.88598635680E+01  0.96080444892E+01  0.63062239764E+02  0.00000000000E+00 0. -1.
         11    1    4    4    0    0  0.26494963529E+02 -0.17838471491E+02 -0.12776443036E+02  0.34401041470E+02  0.00000000000E+00 0.  1.
         21    1    1    2  503  501 -0.42335150236E+02 -0.11201681112E+02  0.32342636296E+02  0.54440690001E+02  0.00000000000E+00 0. -1.
         -1    1    1    2    0  502 -0.13740900300E+02  0.15541241161E+02  0.13264438291E+02  0.24622912927E+02  0.00000000000E+00 0.  1.
<scales pt_clust_5="13000.00000" pt_clust_6="13000.00000" pt_clust_7="13000.00000" pt_clust_8="13000.00000" pt_clust_9="45.10524" pt_clust_10="20.74470"></scales>
<clustering>
<clus scale="   20.745">  2 10  1 -1</clus>
<clus scale="   45.105">  1  9  2 -1</clus>
<clus scale="   90.385">  7  8 -1 -1</clus>
<clus scale="   93.567">  5  6 -1 -1</clus>
<clus scale="  105.440">  2  7  1 -1</clus>
<clus scale="   20.745">  2  5  1 -1</clus>
</clustering>
</event>
<event>
10    2  0.1671105E-006  0.1017056E+03  0.7546771E-02  0.1278874E+00
          2   -1    0    0  503    0 -0.00000000000E+00  0.00000000000E+00  0.72752143011E+03  0.72752143011E+03  0.00000000000E+00 0. -1.
         21   -1    0    0  501  502  0.00000000000E+00 -0.00000000000E+00 -0.70418761982E+02  0.70418761982E+02  0.00000000000E+00 0. -1.
         23    2    1    2    0    0  0.70165548045E+01 -0.34200220944E+02  0.29514720989E+03  0.30941620888E+03  0.86067576118E+02 0.  0.
         23    2    1    2    0    0 -0.26490857796E+02  0.56452362199E+02  0.29873600277E+03  0.31834854083E+03  0.90630896244E+02 0.  0.
        -11    1    4    4    0    0 -0.37355425269E+02 -0.10222191889E+02  0.15121356444E+03  0.15609440436E+03  0.00000000000E+00 0. -1.
         11    1    4    4    0    0  0.10864567473E+02  0.66674554087E+02  0.14752243834E+03  0.16225413647E+03  0.00000000000E+00 0.  1.
        -11    1    3    3    0    0 -0.33587697961E+02 -0.90425139956E+00  0.62952804003E+02  0.71358297743E+02  0.00000000000E+00 0. -1.
         11    1    3    3    0    0  0.40604252765E+02 -0.33295969544E+02  0.23219440589E+03  0.23805791114E+03  0.00000000000E+00 0.  1.
         21    1    1    2  503  502  0.83414771002E+01 -0.84407143867E+02  0.61130087017E+01  0.85038315196E+02  0.00000000000E+00 0. -1.
          2    1    1    2  501    0  0.11132825891E+02  0.62155002612E+02  0.57106446755E+02  0.85137127172E+02  0.00000000000E+00 0. -1.
<scales pt_clust_5="13000.00000" pt_clust_6="13000.00000" pt_clust_7="13000.00000" pt_clust_8="13000.00000" pt_clust_9="43.98493" pt_clust_10="63.14415"></scales>
<clustering>
<clus scale="   63.144">  2 10  1 -1</clus>
<clus scale="   43.985">  2  9  1 -1</clus>
<clus scale="   86.068">  7  8 -1 -1</clus>
<clus scale="   90.631">  5  6 -1 -1</clus>
<clus scale="   97.661">  1  7  2 -1</clus>
<clus scale="   63.144">  2  5  1 -1</clus>
</clustering>
</event>
<event>
10    2  0.1671105E-006  0.4761659E+03  0.7546771E-02  0.1048226E+00
         21   -1    0    0  501  502  0.00000000000E+00  0.00000000000E+00  0.47291376250E+03  0.47291376250E+03  0.00000000000E+00 0. -1.
          1   -1    0    0  503    0 -0.00000000000E+00 -0.00000000000E+00 -0.14115338579E+04  0.14115338579E+04  0.00000000000E+00 0. -1.
         23    2    1    2    0    0  0.15701152993E+03  0.98402943517E+02 -0.61798143279E+03  0.65184674868E+03  0.93098725398E+02 0.  0.
         23    2    1    2    0    0  0.16908566392E+03 -0.45727870677E+03 -0.43685187366E+03  0.66108240600E+03  0.92177061123E+02 0.  0.
        -11    1    3    3    0    0  0.40880424429E+02  0.66206453014E+02 -0.34133243953E+03  0.35008904267E+03  0.00000000000E+00 0.  1.
         11    1    3    3    0    0  0.11613110550E+03  0.32196490502E+02 -0.27664899326E+03  0.30175770601E+03  0.00000000000E+00 0. -1.
        -11    1    4    4    0    0  0.19101038239E+02 -0.15719440810E+03 -0.11082754175E+03  0.19328133797E+03  0.00000000000E+00 0.  1.
         11    1    4    4    0    0  0.14998462568E+03 -0.30008429867E+03 -0.32602433191E+03  0.46780106803E+03  0.00000000000E+00 0. -1.
         21    1    1    2  503  502 -0.33555951769E+03  0.30032536542E+03  0.17949959424E+03  0.48478409562E+03  0.00000000000E+00 0. -1.
          1    1    1    2  501    0  0.94623238430E+01  0.58550397825E+02 -0.63286383186E+02  0.86734370089E+02  0.00000000000E+00 0. -1.
<scales pt_clust_5="13000.00000" pt_clust_6="13000.00000" pt_clust_7="13000.00000" pt_clust_8="13000.00000" pt_clust_9="467.15877" pt_clust_10="59.31010"></scales>
<clustering>
<clus scale="   59.310">  1 10  2 -1</clus>
<clus scale="   92.177">  7  8 -1 -1</clus>
<clus scale="   93.099">  5  6 -1 -1</clus>
<clus scale="  208.663">  2  5  1 -1</clus>
<clus scale="  467.159">  1  9  2 -1</clus>
<clus scale="   59.310">  1  5  2 -1</clus>
</clustering>
</event>
<event>
10    2  0.1671105E-006  0.1795308E+03  0.7546771E-02  0.1168271E+00
         21   -1    0    0  503  502  0.00000000000E+00  0.00000000000E+00  0.11795739142E+04  0.11795739142E+04  0.00000000000E+00 0. -1.
          2   -1    0    0  502    0 -0.00000000000E+00 -0.00000000000E+00 -0.57036678290E+02  0.57036678290E+02  0.00000000000E+00 0. -1.
         23    2    1    2    0    0 -0.95848513896E+02  0.15273853610E+03  0.23604620733E+03  0.31044780169E+03  0.90244266034E+02 0.  0.
         23    2    1    2    0    0 -0.48677777885E+01 -0.12298665070E+03  0.51155338669E+03  0.53385379694E+03  0.90352628987E+02 0.  0.
        -11    1    4    4    0    0 -0.32784940073E+02 -0.11605222294E+03  0.45052593751E+03  0.46638673986E+03  0.00000000000E+00 0. -1.
         11    1    4    4    0    0  0.27917162285E+02 -0.69344277607E+01  0.61027449180E+02  0.67467057085E+02  0.00000000000E+00 0.  1.
        -13    1    3    3    0    0 -0.20854660221E+02  0.11606504762E+03  0.14560143124E+03  0.18736538878E+03  0.00000000000E+00 0. -1.
         13    1    3    3    0    0 -0.74993853674E+02  0.36673488479E+02  0.90444776089E+02  0.12308241291E+03  0.00000000000E+00 0.  1.
         21    1    1    2  503  501  0.56692134088E+02 -0.24668277400E+02  0.28986688871E+03  0.29638713729E+03  0.00000000000E+00 0. -1.
          2    1    1    2  501    0  0.44024157596E+02 -0.50836080000E+01  0.85070753181E+02  0.95921856577E+02  0.00000000000E+00 0. -1.
<scales pt_clust_5="13000.00000" pt_clust_6="13000.00000" pt_clust_7="13000.00000" pt_clust_8="13000.00000" pt_clust_9="40.59582" pt_clust_10="115.44744"></scales>
<clustering>
<clus scale="   40.596">  9 10 -1 -1</clus>
<clus scale="   90.244">  7  8 -1 -1</clus>
<clus scale="   90.353">  5  6 -1 -1</clus>
<clus scale="  115.447">  1  9  2 -1</clus>
<clus scale="  179.476">  2  7  1 -1</clus>
<clus scale="  115.447">  1  5  2 -1</clus>
</clustering>
</event>
<event>
10    2  0.1671105E-006  0.1512251E+03  0.7546771E-02  0.1215015E+00
          1   -1    0    0  502    0 -0.00000000000E+00  0.00000000000E+00  0.14038737507E+03  0.14038737507E+03  0.00000000000E+00 0. -1.
         21   -1    0    0  503  502  0.00000000000E+00 -0.00000000000E+00 -0.43336448460E+03  0.43336448460E+03  0.00000000000E+00 0.  1.
         23    2    1    2    0    0 -0.23406354709E+02 -0.28867309201E+02 -0.10245347831E+03  0.14827159096E+03  0.10053144030E+03 0.  0.
         23    2    1    2    0    0  0.93975809823E+02  0.12275225687E+03  0.23029864797E+02  0.17966847055E+03  0.88604826273E+02 0.  0.
        -11    1    3    3    0    0 -0.59453977840E+01  0.34650596771E+02 -0.61100678554E+02  0.70493294229E+02  0.00000000000E+00 0.  1.
         11    1    3    3    0    0 -0.17460956925E+02 -0.63517905972E+02 -0.41352799752E+02  0.77778296736E+02  0.00000000000E+00 0. -1.
        -13    1    4    4    0    0  0.40837942762E+02  0.93426272876E+02 -0.21735047362E+02  0.10425266575E+03  0.00000000000E+00 0.  1.
         13    1    4    4    0    0  0.53137867061E+02  0.29325983998E+02  0.44764912159E+02  0.75415804802E+02  0.00000000000E+00 0. -1.
         21    1    1    2  503  501 -0.27034177734E+02 -0.29657277945E+02 -0.45235043988E+02  0.60469910744E+02  0.00000000000E+00 0. -1.
          1    1    1    2  501    0 -0.43535277380E+02 -0.64227669729E+02 -0.16831845203E+03  0.18534188741E+03  0.00000000000E+00 0. -1.
<scales pt_clust_5="13000.00000" pt_clust_6="13000.00000" pt_clust_7="13000.00000" pt_clust_8="13000.00000" pt_clust_9="23.01212" pt_clust_10="126.65754"></scales>
<clustering>
<clus scale="   23.012">  9 10 -1 -1</clus>
<clus scale="   88.605">  7  8 -1 -1</clus>
<clus scale="  100.531">  5  6 -1 -1</clus>
<clus scale="  107.181">  1  5  2 -1</clus>
<clus scale="  126.658">  2  9  1 -1</clus>
<clus scale="  126.658">  2  5  1 -1</clus>
</clustering>
</event>
<event>
10    2  0.1671105E-006  0.9432524E+02  0.7546771E-02  0.1295220E+00
          2   -1    0    0  503    0 -0.00000000000E+00  0.00000000000E+00  0.46801901956E+03  0.46801901956E+03  0.00000000000E+00 0. -1.
         21   -1    0    0  501  502  0.00000000000E+00 -0.00000000000E+00 -0.11744215279E+03  0.11744215279E+03  0.00000000000E+00 0.  1.
         23    2    1    2    0    0 -0.89646918310E+01 -0.26736753335E+02  0.32128840856E+03  0.33352143087E+03  0.84941648783E+02 0.  0.
         23    2    1    2    0    0  0.15180568832E+02  0.10321365712E+02  0.76659315151E+02  0.11926633365E+03  0.89503226103E+02 0.  0.
        -11    1    4    4    0    0  0.18446784888E+02 -0.23974881823E+02 -0.49782075744E+01  0.30657158736E+02  0.00000000000E+00 0.  1.
         11    1    4    4    0    0 -0.32662160561E+01  0.34296247535E+02  0.81637522726E+02  0.88609174915E+02  0.00000000000E+00 0. -1.
        -13    1    3    3    0    0 -0.35461600678E+02  0.12351806884E+02  0.91040331111E+02  0.98480628272E+02  0.00000000000E+00 0.  1.
         13    1    3    3    0    0  0.26496908847E+02 -0.39088560220E+02  0.23024807744E+03  0.23504080260E+03  0.00000000000E+00 0. -1.
         21    1    1    2  503  502  0.23208442857E+02 -0.20328910318E+02  0.29401285966E+02  0.42618447074E+02  0.00000000000E+00 0.  1.
          2    1    1    2  501    0 -0.29424319858E+02  0.36744297941E+02 -0.76772142904E+02  0.90054960753E+02  0.00000000000E+00 0. -1.
<scales pt_clust_5="13000.00000" pt_clust_6="13000.00000" pt_clust_7="13000.00000" pt_clust_8="13000.00000" pt_clust_9="30.85282" pt_clust_10="46.60682"></scales>
<clustering>
<clus scale="   30.853">  1  9  2 -1</clus>
<clus scale="   46.607">  2 10  1 -1</clus>
<clus scale="   84.942">  7  8 -1 -1</clus>
<clus scale="   89.503">  5  6 -1 -1</clus>
<clus scale="   90.008">  1  7  2 -1</clus>
<clus scale="   46.607">  2  5  1 -1</clus>
</clustering>
</event>
<event>
10    2  0.1671105E-006  0.1649358E+03  0.7546771E-02  0.1184581E+00
          2   -1    0    0  503    0 -0.00000000000E+00  0.00000000000E+00  0.29627726218E+03  0.29627726218E+03  0.00000000000E+00 0. -1.
         21   -1    0    0  501  502  0.00000000000E+00 -0.00000000000E+00 -0.20160003491E+03  0.20160003491E+03  0.00000000000E+00 0.  1.
         23    2    1    2    0    0 -0.89730483838E+02 -0.10235974031E+03  0.13456491770E+03  0.21244155871E+03  0.92166277050E+02 0.  0.
         23    2    1    2    0    0  0.79854389096E+02  0.11299518388E+03  0.33781737076E+02  0.16490140286E+03  0.83106148193E+02 0.  0.
        -13    1    3    3    0    0 -0.73106474621E+01 -0.48827215722E+02  0.47198989072E+01  0.49596572535E+02  0.00000000000E+00 0.  1.
         13    1    3    3    0    0 -0.82419836376E+02 -0.53532524584E+02  0.12984501879E+03  0.16284498617E+03  0.00000000000E+00 0. -1.
        -13    1    4    4    0    0  0.87683617597E+02  0.80829431984E+02  0.48412805173E+02  0.12870747288E+03  0.00000000000E+00 0.  1.
         13    1    4    4    0    0 -0.78292285013E+01  0.32165751895E+02 -0.14631068097E+02  0.36193929982E+02  0.00000000000E+00 0. -1.
         21    1    1    2  503  502 -0.26845096604E+02  0.30235900574E+02 -0.32535631997E+02  0.51898326029E+02  0.00000000000E+00 0.  1.
          2    1    1    2  501    0  0.36721191346E+02 -0.40871344147E+02 -0.41133795513E+02  0.68636009496E+02  0.00000000000E+00 0. -1.
<scales pt_clust_5="13000.00000" pt_clust_6="13000.00000" pt_clust_7="13000.00000" pt_clust_8="13000.00000" pt_clust_9="40.43351" pt_clust_10="41.02134"></scales>
<clustering>
<clus scale="   40.434">  2  9  1 -1</clus>
<clus scale="   41.021">  2 10  1 -1</clus>
<clus scale="   83.106">  7  8 -1 -1</clus>
<clus scale="   92.166">  5  6 -1 -1</clus>
<clus scale="  160.049">  2  7  1 -1</clus>
<clus scale="   40.434">  2  5  1 -1</clus>
</clustering>
</event>
<event>
10    2  0.1671105E-006  0.1487975E+03  0.7546771E-02  0.1202828E+00
         21   -1    0    0  503  502  0.00000000000E+00  0.00000000000E+00  0.69860899722E+02  0.69860899722E+02  0.00000000000E+00 0. -1.
         -4   -1    0    0    0  501 -0.00000000000E+00 -0.00000000000E+00 -0.86378140718E+03  0.86378140718E+03  0.00000000000E+00 0.  1.
         23    2    1    2    0    0 -0.59476347808E+02 -0.83170526351E+02 -0.41382774515E+03  0.43749596664E+03  0.98460884463E+02 0.  0.
         23    2    1    2    0    0  0.99660191400E+02  0.76610857505E+02 -0.41061759585E+03  0.43964245995E+03  0.94219453038E+02 0.  0.
        -11    1    4    4    0    0  0.91663421619E+02  0.12576269834E+02 -0.24678441725E+03  0.26355814163E+03  0.00000000000E+00 0.  1.
         11    1    4    4    0    0  0.79967697806E+01  0.64034587671E+02 -0.16383317860E+03  0.17608431832E+03  0.00000000000E+00 0. -1.
        -11    1    3    3    0    0 -0.39375017244E+02  0.65413622743E+01 -0.61087514142E+02  0.72971677981E+02  0.00000000000E+00 0. -1.
         11    1    3    3    0    0 -0.20101330564E+02 -0.89711888626E+02 -0.35274023101E+03  0.36452428866E+03  0.00000000000E+00 0.  1.
         21    1    1    2  503  501 -0.20016293239E+02 -0.91205197068E+01  0.14602745125E+02  0.26402197635E+02  0.00000000000E+00 0. -1.
         -4    1    1    2    0  502 -0.20167550352E+02  0.15680188553E+02  0.15922088419E+02  0.30101682675E+02  0.00000000000E+00 0.  1.
<scales pt_clust_5="13000.00000" pt_clust_6="13000.00000" pt_clust_7="13000.00000" pt_clust_8="13000.00000" pt_clust_9="21.99627" pt_clust_10="31.63578"></scales>
<clustering>
<clus scale="   21.996">  1  9  2 -1</clus>
<clus scale="   31.636">  1 10  2 -1</clus>
<clus scale="   94.219">  5  6 -1 -1</clus>
<clus scale="   98.461">  7  8 -1 -1</clus>
<clus scale="  146.026">  1  5  2 -1</clus>
<clus scale="   21.996">  1  5  2 -1</clus>
</clustering>
</event>
<event>
10    2  0.1671105E-006  0.1093529E+03  0.7546771E-02  0.1262600E+00
         -3   -1    0    0    0  501 -0.00000000000E+00  0.00000000000E+00  0.11177485750E+03  0.11177485750E+03  0.00000000000E+00 0.  1.
         21   -1    0    0  503  502  0.00000000000E+00 -0.00000000000E+00 -0.22749082884E+03  0.22749082884E+03  0.00000000000E+00 0.  1.
         23    2    1    2    0    0  0.38482577145E+02 -0.55188131512E+02  0.12297648031E+02  0.11588057483E+03  0.93543769817E+02 0.  0.
         23    2    1    2    0    0  0.22697938091E+02  0.51681170449E+02 -0.67164795736E+02  0.12675291388E+03  0.91482520836E+02 0.  0.
        -11    1    3    3    0    0  0.13078712264E+02 -0.74729640904E+02  0.27122033173E+02  0.80567838668E+02  0.00000000000E+00 0.  1.
         11    1    3    3    0    0  0.25403864881E+02  0.19541509392E+02 -0.14824385143E+02  0.35312736159E+02  0.00000000000E+00 0. -1.
        -13    1    4    4    0    0  0.48608221758E+02  0.30229433259E+02 -0.72839014130E+02  0.92639623472E+02  0.00000000000E+00 0.  1.
         13    1    4    4    0    0 -0.25910283667E+02  0.21451737190E+02  0.56742183934E+01  0.34113290409E+02  0.00000000000E+00 0. -1.
         21    1    1    2  503  501 -0.42906584770E+02  0.15238149033E+02 -0.59434531934E+02  0.74870820677E+02  0.00000000000E+00 0.  1.
         -3    1    1    2    0  502 -0.18273930466E+02 -0.11731187970E+02 -0.14142917060E+01  0.21761376953E+02  0.00000000000E+00 0.  1.
<scales pt_clust_5="13000.00000" pt_clust_6="13000.00000" pt_clust_7="13000.00000" pt_clust_8="13000.00000" pt_clust_9="49.95334" pt_clust_10="21.71538"></scales>
<clustering>
<clus scale="   21.715">  2 10  1 -1</clus>
<clus scale="   49.953">  2  9  1 -1</clus>
<clus scale="   91.483">  7  8 -1 -1</clus>
<clus scale="   93.544">  5  6 -1 -1</clus>
<clus scale="  107.595">  2  7  1 -1</clus>
<clus scale="   21.715">  2  5  1 -1</clus>
</clustering>
</event>
<event>
10    2  0.1671105E-006  0.1086527E+03  0.7546771E-02  0.1272151E+00
          1   -1    0    0  502    0 -0.00000000000E+00  0.00000000000E+00  0.17495976232E+03  0.17495976232E+03  0.00000000000E+00 0. -1.
         21   -1    0    0  503  502  0.00000000000E+00 -0.00000000000E+00 -0.11504272342E+03  0.11504272342E+03  0.00000000000E+00 0. -1.
         23    2    1    2    0    0 -0.27854973729E+02  0.10692576334E+02  0.45221306741E+02  0.12127850945E+03  0.10850474423E+03 0.  0.
         23    2    1    2    0    0 -0.20670320851E+02  0.19535574721E+02  0.23543940012E+02  0.98150914187E+02  0.90941651627E+02 0.  0.
        -13    1    3    3    0    0  0.30721190614E+02 -0.25926063675E+02  0.29854212250E+01  0.40309615110E+02  0.00000000000E+00 0.  1.
         13    1    3    3    0    0 -0.58576164343E+02  0.36618640009E+02  0.42235885516E+02  0.80968894339E+02  0.00000000000E+00 0. -1.
        -13    1    4    4    0    0 -0.29975114924E+02 -0.20560162529E+02 -0.17219156650E+02  0.40220979025E+02  0.00000000000E+00 0.  1.
         13    1    4    4    0    0  0.93047940733E+01  0.40095737251E+02  0.40763096662E+02  0.57929935163E+02  0.00000000000E+00 0. -1.
         21    1    1    2  503  501  0.14862999163E+02 -0.18849724592E+02 -0.22119855554E+02  0.32642133371E+02  0.00000000000E+00 0.  1.
          1    1    1    2  501    0  0.33662295417E+02 -0.11378426463E+02  0.13271647705E+02  0.37930928730E+02  0.00000000000E+00 0. -1.
<scales pt_clust_5="13000.00000" pt_clust_6="13000.00000" pt_clust_7="13000.00000" pt_clust_8="13000.00000" pt_clust_9="24.00460" pt_clust_10="38.40695"></scales>
<clustering>
<clus scale="   24.005">  2  9  1 -1</clus>
<clus scale="   38.407">  2 10  1 -1</clus>
<clus scale="   90.942">  7  8 -1 -1</clus>
<clus scale="   91.118">  2  7  1 -1</clus>
<clus scale="  108.505">  5  6 -1 -1</clus>
<clus scale="   24.005">  2  5  1 -1</clus>
</clustering>
</event>
<event>
10    2  0.1671105E-006  0.1289448E+03  0.7546771E-02  0.1229165E+00
          1   -1    0    0  503    0 -0.00000000000E+00  0.00000000000E+00  0.87501003193E+03  0.87501003193E+03  0.00000000000E+00 0. -1.
         21   -1    0    0  501  502  0.00000000000E+00 -0.00000000000E+00 -0.14449855800E+03  0.14449855800E+03  0.00000000000E+00 0.  1.
         23    2    1    2    0    0 -0.31873932192E+02 -0.10534642176E+03  0.74256835268E+03  0.75593962824E+03  0.89012061024E+02 0.  0.
         23    2    1    2    0    0  0.50954841849E+02  0.97811187493E-01  0.61423265363E+02  0.11993677210E+03  0.89529918460E+02 0.  0.
        -11    1    4    4    0    0  0.55019408467E+02  0.29872326139E+02  0.14576885576E+02  0.64280454028E+02  0.00000000000E+00 0.  1.
         11    1    4    4    0    0 -0.40645666177E+01 -0.29774514951E+02  0.46846379787E+02  0.55656318074E+02  0.00000000000E+00 0. -1.
        -11    1    3    3    0    0  0.28685632205E+02 -0.22046822743E+02  0.13807938092E+03  0.14274047542E+03  0.00000000000E+00 0. -1.
         11    1    3    3    0    0 -0.60559564398E+02 -0.83299599013E+02  0.60448897176E+03  0.61319915282E+03  0.00000000000E+00 0.  1.
         21    1    1    2  503  502  0.18955098561E+02  0.46040113843E+02 -0.14628398648E+02  0.51893909962E+02  0.00000000000E+00 0.  1.
          1    1    1    2  501    0 -0.38036008218E+02  0.59208496726E+02 -0.58851745467E+02  0.91738279634E+02  0.00000000000E+00 0. -1.
<scales pt_clust_5="13000.00000" pt_clust_6="13000.00000" pt_clust_7="13000.00000" pt_clust_8="13000.00000" pt_clust_9="49.78944" pt_clust_10="93.82159"></scales>
<clustering>
<clus scale="   49.789">  2  9  1 -1</clus>
<clus scale="   89.012">  7  8 -1 -1</clus>
<clus scale="   89.530">  5  6 -1 -1</clus>
<clus scale="   93.822">  2 10  1 -1</clus>
<clus scale="  128.586">  1  7  2 -1</clus>
<clus scale="   49.789">  2  5  1 -1</clus>
</clustering>
</event>
<event>
10    2  0.1671105E-006  0.2191571E+03  0.7546771E-02  0.1135866E+00
         21   -1    0    0  503  502  0.00000000000E+00  0.00000000000E+00  0.20271469732E+03  0.20271469732E+03  0.00000000000E+00 0. -1.
         -3   -1    0    0    0  501 -0.00000000000E+00 -0.00000000000E+00 -0.49664356871E+03  0.49664356871E+03  0.00000000000E+00 0.  1.
         23    2    1    2    0    0  0.50873321674E+02 -0.18433906390E+03 -0.28694087653E+03  0.35936527748E+03  0.10118967681E+03 0.  0.
         23    2    1    2    0    0 -0.12981860002E+00  0.21041101210E+03  0.95627196200E+01  0.22703342102E+03  0.84734395556E+02 0.  0.
        -11    1    4    4    0    0  0.12012368514E+02  0.50673723479E+02 -0.32523132358E+02  0.61399327251E+02  0.00000000000E+00 0.  1.
         11    1    4    4    0    0 -0.12142187114E+02  0.15973728862E+03  0.42085851978E+02  0.16563409377E+03  0.00000000000E+00 0. -1.
        -13    1    3    3    0    0  0.33765099845E+02 -0.15993339700E+03 -0.28615464687E+03  0.32955008021E+03  0.00000000000E+00 0.  1.
         13    1    3    3    0    0  0.17108221829E+02 -0.24405666902E+02 -0.78622966845E+00  0.29815197268E+02  0.00000000000E+00 0. -1.
         21    1    1    2  503  501 -0.20433144195E+02 -0.38741790939E+02  0.32066515875E+02  0.54283525929E+02  0.00000000000E+00 0.  1.
         -3    1    1    2    0  502 -0.30310358879E+02  0.12669842746E+02 -0.48617230350E+02  0.58676041597E+02  0.00000000000E+00 0.  1.
<scales pt_clust_5="13000.00000" pt_clust_6="13000.00000" pt_clust_7="13000.00000" pt_clust_8="13000.00000" pt_clust_9="45.01157" pt_clust_10="32.85185"></scales>
<clustering>
<clus scale="   32.852">  1 10  2 -1</clus>
<clus scale="   45.012">  1  9  2 -1</clus>
<clus scale="   84.734">  5  6 -1 -1</clus>
<clus scale="  101.190">  7  8 -1 -1</clus>
<clus scale="  212.062">  1  5  2 -1</clus>
<clus scale="   32.852">  1  5  2 -1</clus>
</clustering>
</event>
<event>
10    2  0.1671105E-006  0.1915564E+03  0.7546771E-02  0.1190394E+00
         21   -1    0    0  501  502  0.00000000000E+00  0.00000000000E+00  0.28811147905E+03  0.28811147905E+03  0.00000000000E+00 0. -1.
          3   -1    0    0  503    0 -0.00000000000E+00 -0.00000000000E+00 -0.44970864526E+03  0.44970864526E+03  0.00000000000E+00 0. -1.
         23    2    1    2    0    0 -0.49712431389E+02  0.15507270117E+02 -0.14088181211E+03  0.16861242507E+03  0.76620256097E+02 0.  0.
         23    2    1    2    0    0 -0.11186735665E+02  0.16426580162E+03 -0.20540737191E+03  0.27653776381E+03  0.84690907086E+02 0.  0.
        -13    1    3    3    0    0  0.28824510080E+01  0.21700761841E+02 -0.98156615024E+02  0.10056814934E+03  0.00000000000E+00 0.  1.
         13    1    3    3    0    0 -0.52594882397E+02 -0.61934917240E+01 -0.42725197083E+02  0.68044275732E+02  0.00000000000E+00 0. -1.
        -13    1    4    4    0    0  0.12512212198E+02  0.10959435695E+03 -0.18138184968E+03  0.21228955208E+03  0.00000000000E+00 0. -1.
         13    1    4    4    0    0 -0.23698947863E+02  0.54671444670E+02 -0.24025522226E+02  0.64248211728E+02  0.00000000000E+00 0.  1.
         21    1    1    2  503  502 -0.17352631967E+01 -0.15023851515E+03  0.89267026152E+02  0.17476619963E+03  0.00000000000E+00 0.  1.
          3    1    1    2  501    0  0.62634430251E+02 -0.29534556581E+02  0.95424991655E+02  0.11790373581E+03  0.00000000000E+00 0. -1.
<scales pt_clust_5="13000.00000" pt_clust_6="13000.00000" pt_clust_7="13000.00000" pt_clust_8="13000.00000" pt_clust_9="171.81765" pt_clust_10="69.24855"></scales>
<clustering>
<clus scale="   69.249">  1 10  2 -1</clus>
<clus scale="   76.620">  5  6 -1 -1</clus>
<clus scale="   84.691">  7  8 -1 -1</clus>
<clus scale="   89.803">  2  5  1 -1</clus>
<clus scale="  171.818">  1  9  2 -1</clus>
<clus scale="   69.249">  1  5  2 -1</clus>
</clustering>
</event>
<event>
10    2  0.1671105E-006  0.1537287E+03  0.7546771E-02  0.1196898E+00
         21   -1    0    0  501  502  0.00000000000E+00  0.00000000000E+00  0.35602851466E+03  0.35602851466E+03  0.00000000000E+00 0. -1.
          3   -1    0    0  503    0 -0.00000000000E+00 -0.00000000000E+00 -0.17028696494E+03  0.17028696494E+03  0.00000000000E+00 0. -1.
         23    2    1    2    0    0  0.63672845113E+02 -0.12866487983E+03 -0.45244281032E+02  0.17621590704E+03  0.91630335719E+02 0.  0.
         23    2    1    2    0    0  0.77204886711E+01  0.91814135062E+02  0.56432009671E+02  0.14496439325E+03  0.96647101619E+02 0.  0.
        -11    1    3    3    0    0 -0.19071663199E+02 -0.32633147599E+02  0.81514081717E+01  0.38666472746E+02  0.00000000000E+00 0.  1.
         11    1    3    3    0    0  0.82744508313E+02 -0.96031732226E+02 -0.53395689204E+02  0.13754943430E+03  0.00000000000E+00 0. -1.
        -11    1    4    4    0    0  0.45522111588E+02  0.82996005582E+02  0.41856878066E+02  0.10350168031E+03  0.00000000000E+00 0.  1.
         11    1    4    4    0    0 -0.37801622916E+02  0.88181294805E+01  0.14575131604E+02  0.41462712935E+02  0.00000000000E+00 0. -1.
         21    1    1    2  503  502 -0.99325027153E+01 -0.19613036921E+02  0.21198982353E+02  0.30540508841E+02  0.00000000000E+00 0. -1.
          3    1    1    2  501    0 -0.61460831069E+02  0.56463781685E+02  0.15335483873E+03  0.17459467048E+03  0.00000000000E+00 0. -1.
<scales pt_clust_5="13000.00000" pt_clust_6="13000.00000" pt_clust_7="13000.00000" pt_clust_8="13000.00000" pt_clust_9="21.98467" pt_clust_10="81.18603"></scales>
<clustering>
<clus scale="   21.985">  1  9  2 -1</clus>
<clus scale="   81.186">  1 10  2 -1</clus>
<clus scale="   91.630">  5  6 -1 -1</clus>
<clus scale="   96.647">  7  8 -1 -1</clus>
<clus scale="  150.625">  2  5  1 -1</clus>
<clus scale="   21.985">  1  5  2 -1</clus>
</clustering>
</event>
<event>
10    2  0.1671105E-006  0.9704255E+02  0.7546771E-02  0.1288694E+00
         21   -1    0    0  501  502  0.00000000000E+00  0.00000000000E+00  0.23996298218E+03  0.23996298218E+03  0.00000000000E+00 0. -1.
          2   -1    0    0  503    0 -0.00000000000E+00 -0.00000000000E+00 -0.27866186100E+03  0.27866186100E+03  0.00000000000E+00 0. -1.
         23    2    1    2    0    0 -0.47721711965E+01 -0.23385245953E+02 -0.17853949683E+03  0.20184746986E+03  0.91084607986E+02 0.  0.
         23    2    1    2    0    0  0.26494974382E+02 -0.81610158399E+01 -0.15805779981E+02  0.92818666570E+02  0.87160176319E+02 0.  0.
        -11    1    4    4    0    0  0.22660732521E+02  0.34100699526E+02  0.11288754545E+02  0.42471195954E+02  0.00000000000E+00 0.  1.
         11    1    4    4    0    0  0.38342418617E+01 -0.42261715366E+02 -0.27094534526E+02  0.50347470617E+02  0.00000000000E+00 0. -1.
        -13    1    3    3    0    0  0.40556013505E+01 -0.51250335228E+02 -0.15791726553E+03  0.16607500570E+03  0.00000000000E+00 0. -1.
         13    1    3    3    0    0 -0.88277725470E+01  0.27865089274E+02 -0.20622231300E+02  0.35772464162E+02  0.00000000000E+00 0.  1.
         21    1    1    2  503  502 -0.34597315337E+02 -0.25838686648E+02 -0.13207591389E+02  0.45155868130E+02  0.00000000000E+00 0.  1.
          2    1    1    2  501    0  0.12874512152E+02  0.57384948442E+02  0.16885398938E+03  0.17880283863E+03  0.00000000000E+00 0. -1.
<scales pt_clust_5="13000.00000" pt_clust_6="13000.00000" pt_clust_7="13000.00000" pt_clust_8="13000.00000" pt_clust_9="43.18115" pt_clust_10="58.16042"></scales>
<clustering>
<clus scale="   43.181">  2  9  1 -1</clus>
<clus scale="   58.160">  1 10  2 -1</clus>
<clus scale="   87.160">  5  6 -1 -1</clus>
<clus scale="   91.085">  7  8 -1 -1</clus>
<clus scale="   93.369">  1  5  2 -1</clus>
<clus scale="   58.160">  1  5  2 -1</clus>
</clustering>
</event>
<event>
10    2  0.1671105E-006  0.1086531E+03  0.7546771E-02  0.1263177E+00
         21   -1    0    0  503  502  0.00000000000E+00  0.00000000000E+00  0.21766260251E+03  0.21766260251E+03  0.00000000000E+00 0.  1.
          1   -1    0    0  502    0 -0.00000000000E+00 -0.00000000000E+00 -0.12143925716E+03  0.12143925716E+03  0.00000000000E+00 0. -1.
         23    2    1    2    0    0 -0.45848406785E+02 -0.54163402006E+02 -0.33405220395E+02  0.11853399351E+03  0.88874340205E+02 0.  0.
         23    2    1    2    0    0  0.56326446095E+02 -0.48794409611E+01  0.10718224514E+03  0.15013462536E+03  0.88633484552E+02 0.  0.
        -11    1    3    3    0    0  0.97641988061E+01 -0.25429208684E+02  0.21941688816E+02  0.34977449031E+02  0.00000000000E+00 0.  1.
         11    1    3    3    0    0 -0.55612605591E+02 -0.28734193323E+02 -0.55346909211E+02  0.83556544482E+02  0.00000000000E+00 0. -1.
        -11    1    4    4    0    0  0.79268554825E+02 -0.49891814599E+01  0.96045778697E+02  0.12463220820E+03  0.00000000000E+00 0.  1.
         11    1    4    4    0    0 -0.22942108729E+02  0.10974049876E+00  0.11136466445E+02  0.25502417156E+02  0.00000000000E+00 0. -1.
         21    1    1    2  503  501 -0.11533963099E+02  0.17044600066E+02 -0.37560573321E+01  0.20920293087E+02  0.00000000000E+00 0. -1.
          1    1    1    2  501    0  0.10559237883E+01  0.41998242902E+02  0.26202377938E+02  0.49512947715E+02  0.00000000000E+00 0. -1.
<scales pt_clust_5="13000.00000" pt_clust_6="13000.00000" pt_clust_7="13000.00000" pt_clust_8="13000.00000" pt_clust_9="20.53920" pt_clust_10="66.76080"></scales>
<clustering>
<clus scale="   20.539">  9 10 -1 -1</clus>
<clus scale="   66.761">  1  9  2 -1</clus>
<clus scale="   88.633">  7  8 -1 -1</clus>
<clus scale="   88.874">  5  6 -1 -1</clus>
<clus scale="  108.456">  1  7  2 -1</clus>
<clus scale="   66.761">  1  5  2 -1</clus>
</clustering>
</event>
<event>
10    2  0.1671105E-006  0.9508180E+02  0.7546771E-02  0.1294702E+00
          2   -1    0    0  502    0 -0.00000000000E+00  0.00000000000E+00  0.19372642610E+03  0.19372642610E+03  0.00000000000E+00 0. -1.
         21   -1    0    0  503  502  0.00000000000E+00 -0.00000000000E+00 -0.18074317618E+03  0.18074317618E+03  0.00000000000E+00 0. -1.
         23    2    1    2    0    0 -0.53761770081E+02 -0.15443608683E+02  0.58238737693E+02  0.11857534456E+03  0.86830460083E+02 0.  0.
         23    2    1    2    0    0 -0.32045322775E+02 -0.38972078081E+02  0.33785067264E+02  0.11133196482E+03  0.93314790029E+02 0.  0.
        -13    1    4    4    0    0  0.12600057521E+02 -0.52956085286E+02  0.34672993124E+02  0.64539328092E+02  0.00000000000E+00 0. -1.
         13    1    4    4    0    0 -0.44645380296E+02  0.13984007205E+02 -0.88792585986E+00  0.46792636724E+02  0.00000000000E+00 0.  1.
        -13    1    3    3    0    0  0.21417343321E+02 -0.87761752547E+01  0.30226307397E+02  0.38070375699E+02  0.00000000000E+00 0.  1.
         13    1    3    3    0    0 -0.75179113402E+02 -0.66674334286E+01  0.28012430295E+02  0.80504968862E+02  0.00000000000E+00 0. -1.
         21    1    1    2  503  501  0.55837942356E+02 -0.30729537324E+01 -0.41579301750E+02  0.69686133378E+02  0.00000000000E+00 0. -1.
          2    1    1    2  501    0  0.29969150500E+02  0.57488640496E+02 -0.37461253283E+02  0.74876159526E+02  0.00000000000E+00 0. -1.
<scales pt_clust_5="13000.00000" pt_clust_6="13000.00000" pt_clust_7="13000.00000" pt_clust_8="13000.00000" pt_clust_9="55.92244" pt_clust_10="78.59630"></scales>
<clustering>
<clus scale="   55.922">  2  9  1 -1</clus>
<clus scale="   78.596">  2 10  1 -1</clus>
<clus scale="   86.830">  7  8 -1 -1</clus>
<clus scale="   88.727">  1  7  2 -1</clus>
<clus scale="   93.315">  5  6 -1 -1</clus>
<clus scale="   55.922">  2  5  1 -1</clus>
</clustering>
</event>
<event>
10    2  0.1671105E-006  0.2161791E+03  0.7546771E-02  0.1166782E+00
          2   -1    0    0  503    0 -0.00000000000E+00  0.00000000000E+00  0.12977615924E+03  0.12977615924E+03  0.00000000000E+00 0. -1.
         21   -1    0    0  501  502  0.00000000000E+00 -0.00000000000E+00 -0.83760921669E+03  0.83760921669E+03  0.00000000000E+00 0. -1.
         23    2    1    2    0    0 -0.51585106425E+02  0.18881065298E+02 -0.45923325638E+02  0.11586510243E+03  0.91094743488E+02 0.  0.
         23    2    1    2    0    0 -0.17658982972E+03  0.48288967086E+02 -0.22749126827E+03  0.31379685949E+03  0.11489299188E+03 0.  0.
        -11    1    4    4    0    0 -0.15446067587E+03  0.23461593982E+02 -0.23254907390E+03  0.28015641801E+03  0.00000000000E+00 0. -1.
         11    1    4    4    0    0 -0.22129153843E+02  0.24827373104E+02  0.50578056214E+01  0.33640441477E+02  0.00000000000E+00 0.  1.
        -11    1    3    3    0    0 -0.67302176796E+02 -0.14857153304E+02 -0.26127650068E+02  0.73708697613E+02  0.00000000000E+00 0. -1.
         11    1    3    3    0    0  0.15717070371E+02  0.33738218602E+02 -0.19795675571E+02  0.42156404814E+02  0.00000000000E+00 0.  1.
         21    1    1    2  503  502  0.90857325447E+02  0.66845510727E+02 -0.93472317110E+02  0.14649385638E+03  0.00000000000E+00 0. -1.
          2    1    1    2  501    0  0.13731761070E+03 -0.13401554311E+03 -0.34094614643E+03  0.39122955763E+03  0.00000000000E+00 0. -1.
<scales pt_clust_5="13000.00000" pt_clust_6="13000.00000" pt_clust_7="13000.00000" pt_clust_8="13000.00000" pt_clust_9="105.09028" pt_clust_10="183.12024"></scales>
<clustering>
<clus scale="   91.095">  7  8 -1 -1</clus>
<clus scale="  106.376">  1  7  2 -1</clus>
<clus scale="  105.090">  1  9  2 -1</clus>
<clus scale="  114.893">  5  6 -1 -1</clus>
<clus scale="  183.120">  2 10  1 -1</clus>
<clus scale="  183.120">  2  5  1 -1</clus>
</clustering>
</event>
<event>
10    2  0.1671105E-006  0.1737926E+03  0.7546771E-02  0.1177296E+00
         -1   -1    0    0    0  501 -0.00000000000E+00  0.00000000000E+00  0.30005948606E+03  0.30005948606E+03  0.00000000000E+00 0.  1.
         21   -1    0    0  503  502  0.00000000000E+00 -0.00000000000E+00 -0.28974181779E+03  0.28974181779E+03  0.00000000000E+00 0. -1.
         23    2    1    2    0    0 -0.28073042969E+02  0.83356672558E+02  0.12401146242E+03  0.17445213379E+03  0.85546908601E+02 0.  0.
         23    2    1    2    0    0  0.99988826447E+02 -0.17238276245E+03 -0.15849814190E+03  0.26058548489E+03  0.55403535500E+02 0.  0.
        -11    1    4    4    0    0  0.90868411313E+01 -0.55575224508E+02 -0.26379608466E+02  0.62185689702E+02  0.00000000000E+00 0.  1.
         11    1    4    4    0    0  0.90901985316E+02 -0.11680753794E+03 -0.13211853343E+03  0.19839979519E+03  0.00000000000E+00 0. -1.
        -13    1    3    3    0    0 -0.57407045726E+02  0.55777380353E+02  0.65499222847E+02  0.10342549614E+03  0.00000000000E+00 0.  1.
         13    1    3    3    0    0  0.29334002758E+02  0.27579292205E+02  0.58512239570E+02  0.71026637649E+02  0.00000000000E+00 0. -1.
         21    1    1    2  503  501 -0.70004979198E+02  0.62527242437E+02 -0.94656726062E+01  0.94339557542E+02  0.00000000000E+00 0.  1.
         -1    1    1    2    0  502 -0.19108042803E+01  0.26498847457E+02  0.54270020355E+02  0.60424127622E+02  0.00000000000E+00 0.  1.
<scales pt_clust_5="13000.00000" pt_clust_6="13000.00000" pt_clust_7="13000.00000" pt_clust_8="13000.00000" pt_clust_9="97.37513" pt_clust_10="26.56766"></scales>
<clustering>
<clus scale="   26.568">  2 10  1 -1</clus>
<clus scale="   55.404">  5  6 -1 -1</clus>
<clus scale="   85.547">  7  8 -1 -1</clus>
<clus scale="   97.375">  1  9  2 -1</clus>
<clus scale="  161.106">  2  5  1 -1</clus>
<clus scale="   26.568">  2  5  1 -1</clus>
</clustering>
</event>
<event>
10    2  0.1671105E-006  0.9795405E+02  0.7546771E-02  0.1290054E+00
         21   -1    0    0  501  502  0.00000000000E+00  0.00000000000E+00  0.49280080677E+03  0.49280080677E+03  0.00000000000E+00 0.  1.
          1   -1    0    0  503    0 -0.00000000000E+00 -0.00000000000E+00 -0.75488693930E+02  0.75488693930E+02  0.00000000000E+00 0. -1.
         23    2    1    2    0    0  0.24197764599E+01  0.28376720877E+02 -0.15500309040E+02  0.10180070497E+03  0.96498861887E+02 0.  0.
         23    2    1    2    0    0  0.12945409489E+02  0.30145954128E+02  0.16286652752E+03  0.18748673883E+03  0.86887336659E+02 0.  0.
        -13    1    3    3    0    0 -0.28474376860E+02  0.20043262471E+02  0.30144851852E+02  0.46056862695E+02  0.00000000000E+00 0.  1.
         13    1    3    3    0    0  0.30894153320E+02  0.83334584059E+01 -0.45645160892E+02  0.55743842272E+02  0.00000000000E+00 0. -1.
        -13    1    4    4    0    0  0.66066907510E+01  0.60555092224E+02  0.95040983871E+02  0.11288647471E+03  0.00000000000E+00 0.  1.
         13    1    4    4    0    0  0.63387187380E+01 -0.30409138096E+02  0.67825543652E+02  0.74600264119E+02  0.00000000000E+00 0. -1.
         21    1    1    2  503  502 -0.54411192486E+01 -0.31300714684E+02  0.68813526146E+02  0.75793415935E+02  0.00000000000E+00 0. -1.
          1    1    1    2  501    0 -0.99240667002E+01 -0.27221960321E+02  0.20113236821E+03  0.20320864097E+03  0.00000000000E+00 0. -1.
<scales pt_clust_5="13000.00000" pt_clust_6="13000.00000" pt_clust_7="13000.00000" pt_clust_8="13000.00000" pt_clust_9="38.88605" pt_clust_10="28.97451"></scales>
<clustering>
<clus scale="   28.975">  1 10  2 -1</clus>
<clus scale="   38.886">  1  9  2 -1</clus>
<clus scale="   86.887">  7  8 -1 -1</clus>
<clus scale="   88.501">  1  7  2 -1</clus>
<clus scale="   96.499">  5  6 -1 -1</clus>
<clus scale="   28.975">  1  5  2 -1</clus>
</clustering>
</event>
<event>
10    2  0.1671105E-006  0.2257150E+03  0.7546771E-02  0.1134799E+00
          2   -1    0    0  502    0 -0.00000000000E+00  0.00000000000E+00  0.13817528739E+04  0.13817528739E+04  0.00000000000E+00 0. -1.
         21   -1    0    0  503  502  0.00000000000E+00 -0.00000000000E+00 -0.32629381540E+03  0.32629381540E+03  0.00000000000E+00 0. -1.
         23    2    1    2    0    0 -0.12700166505E+03  0.12266865586E+03  0.98682263676E+03  0.10067298480E+04  0.92244503050E+02 0.  0.
         23    2    1    2    0    0 -0.27295970425E+02 -0.25687264819E+03  0.27955051283E+03  0.39192464981E+03  0.93422773005E+02 0.  0.
        -11    1    3    3    0    0 -0.48430502428E+02 -0.51910507084E+01  0.21431385488E+03  0.21977918229E+03  0.00000000000E+00 0.  1.
         11    1    3    3    0    0 -0.78571162623E+02  0.12785970657E+03  0.77250878188E+03  0.78695066569E+03  0.00000000000E+00 0. -1.
        -11    1    4    4    0    0  0.23286436446E+02 -0.18542412536E+03  0.19839401262E+03  0.27255191915E+03  0.00000000000E+00 0. -1.
         11    1    4    4    0    0 -0.50582406870E+02 -0.71448522824E+02  0.81156500213E+02  0.11937273066E+03  0.00000000000E+00 0.  1.
         21    1    1    2  503  501  0.94310209521E+02  0.13635733928E+03 -0.16405236788E+03  0.23324004588E+03  0.00000000000E+00 0. -1.
          2    1    1    2  501    0  0.59987425955E+02 -0.21533469541E+01 -0.46861723227E+02  0.76152145601E+02  0.00000000000E+00 0. -1.
<scales pt_clust_5="13000.00000" pt_clust_6="13000.00000" pt_clust_7="13000.00000" pt_clust_8="13000.00000" pt_clust_9="58.40064" pt_clust_10="58.40064"></scales>
<clustering>
<clus scale="   58.401">  9 10 -1 -1</clus>
<clus scale="   92.245">  5  6 -1 -1</clus>
<clus scale="   93.423">  7  8 -1 -1</clus>
<clus scale="  199.214">  1  5  2 -1</clus>
<clus scale="  224.176">  1  7  2 -1</clus>
<clus scale="  225.715">  2  5  1 -1</clus>
</clustering>
</event>
<event>
10    2  0.1671105E-006  0.2094307E+03  0.7546771E-02  0.1142159E+00
         21   -1    0    0  501  502  0.00000000000E+00  0.00000000000E+00  0.16089844098E+03  0.16089844098E+03  0.00000000000E+00 0.  1.
         -1   -1    0    0    0  501 -0.00000000000E+00 -0.00000000000E+00 -0.69564378809E+03  0.69564378809E+03  0.00000000000E+00 0.  1.
         23    2    1    2    0    0  0.82695000503E+02 -0.17223938404E+03 -0.43150069880E+03  0.48013042169E+03  0.88473161125E+02 0.  0.
         23    2    1    2    0    0  0.35566018928E+02  0.20907881373E+03 -0.79245541082E+02  0.24368744027E+03  0.90137787359E+02 0.  0.
        -11    1    3    3    0    0  0.26876176324E+02 -0.12319513574E+03 -0.33765323558E+03  0.36042901911E+03  0.00000000000E+00 0.  1.
         11    1    3    3    0    0  0.55818824179E+02 -0.49044248304E+02 -0.93847463225E+02  0.11970140257E+03  0.00000000000E+00 0. -1.
        -11    1    4    4    0    0  0.62849872498E+02  0.16665732646E+03 -0.74359880738E+02  0.19301337466E+03  0.00000000000E+00 0.  1.
         11    1    4    4    0    0 -0.27283853571E+02  0.42421487276E+02 -0.48856603433E+01  0.50674065609E+02  0.00000000000E+00 0. -1.
         21    1    1    2  503  502 -0.91666246478E+02 -0.17945725162E+02 -0.20946593605E+01  0.93429852792E+02  0.00000000000E+00 0.  1.
         -1    1    1    2    0  503 -0.26594772952E+02 -0.18893704527E+02 -0.21904447865E+02  0.39294514317E+02  0.00000000000E+00 0.  1.
<scales pt_clust_5="13000.00000" pt_clust_6="13000.00000" pt_clust_7="13000.00000" pt_clust_8="13000.00000" pt_clust_9="24.34515" pt_clust_10="130.53659"></scales>
<clustering>
<clus scale="   24.345">  9 10 -1 -1</clus>
<clus scale="   88.473">  5  6 -1 -1</clus>
<clus scale="   90.138">  7  8 -1 -1</clus>
<clus scale="  130.537">  1  9  2 -1</clus>
<clus scale="  208.720">  2  5  1 -1</clus>
<clus scale="  130.537">  1  5  2 -1</clus>
</clustering>
</event>
<event>
10    2  0.1671105E-006  0.1050721E+03  0.7546771E-02  0.1270283E+00
          2   -1    0    0  503    0 -0.00000000000E+00  0.00000000000E+00  0.40892991819E+03  0.40892991819E+03  0.00000000000E+00 0. -1.
         21   -1    0    0  501  502  0.00000000000E+00 -0.00000000000E+00 -0.78621927212E+02  0.78621927212E+02  0.00000000000E+00 0. -1.
         23    2    1    2    0    0 -0.57961808427E+02  0.35272185932E+01  0.23379481492E+03  0.25718407190E+03  0.90064526015E+02 0.  0.
         23    2    1    2    0    0  0.38889445188E+02  0.55929506670E+02  0.10969816518E+03  0.15702251739E+03  0.89341394992E+02 0.  0.
        -11    1    3    3    0    0 -0.21770274200E+02  0.25744419905E+02  0.20024541306E+03  0.20306389498E+03  0.00000000000E+00 0.  1.
         11    1    3    3    0    0 -0.36191534227E+02 -0.22217201312E+02  0.33549401865E+02  0.54120176916E+02  0.00000000000E+00 0. -1.
        -13    1    4    4    0    0  0.11044694680E+02  0.67401782619E+02  0.10679403966E+03  0.12676731633E+03  0.00000000000E+00 0.  1.
         13    1    4    4    0    0  0.27844750507E+02 -0.11472275948E+02  0.29041255171E+01  0.30255201061E+02  0.00000000000E+00 0. -1.
         21    1    1    2  503  502  0.17997804257E+02 -0.16426914845E+02  0.76291485960E+01  0.25533671841E+02  0.00000000000E+00 0.  1.
          2    1    1    2  501    0  0.10745589824E+01 -0.43029810419E+02 -0.20814137723E+02  0.47811584274E+02  0.00000000000E+00 0. -1.
<scales pt_clust_5="13000.00000" pt_clust_6="13000.00000" pt_clust_7="13000.00000" pt_clust_8="13000.00000" pt_clust_9="24.36728" pt_clust_10="52.07735"></scales>
<clustering>
<clus scale="   24.367">  2  9  1 -1</clus>
<clus scale="   52.077">  2 10  1 -1</clus>
<clus scale="   89.341">  7  8 -1 -1</clus>
<clus scale="   90.065">  5  6 -1 -1</clus>
<clus scale="  104.453">  2  7  1 -1</clus>
<clus scale="   24.367">  2  5  1 -1</clus>
</clustering>
</event>
<event>
10    2  0.1671105E-006  0.1577475E+03  0.7546771E-02  0.1191543E+00
         21   -1    0    0  501  502  0.00000000000E+00  0.00000000000E+00  0.45823815053E+03  0.45823815053E+03  0.00000000000E+00 0. -1.
          1   -1    0    0  503    0 -0.00000000000E+00 -0.00000000000E+00 -0.22873869361E+03  0.22873869361E+03  0.00000000000E+00 0. -1.
         23    2    1    2    0    0 -0.15278755937E+03 -0.88832881306E+02 -0.10772239363E+03  0.22571161732E+03  0.90034998761E+02 0.  0.
         23    2    1    2    0    0  0.67440188421E+02  0.23964508379E+02  0.22230455610E+02  0.11844016789E+03  0.91713704198E+02 0.  0.
        -11    1    4    4    0    0  0.63096143282E+02  0.46139656536E+02  0.41716821329E+02  0.88601830591E+02  0.00000000000E+00 0.  1.
         11    1    4    4    0    0  0.43440451391E+01 -0.22175148157E+02 -0.19486365719E+02  0.29838337301E+02  0.00000000000E+00 0. -1.
        -11    1    3    3    0    0 -0.27930210821E+02 -0.94561685353E+01  0.15366736178E+02  0.33251351561E+02  0.00000000000E+00 0.  1.
         11    1    3    3    0    0 -0.12485734855E+03 -0.79376712771E+02 -0.12308912981E+03  0.19246026575E+03  0.00000000000E+00 0. -1.
         21    1    1    2  503  502  0.44255266263E+02  0.28626627400E+02  0.51475006941E+02  0.73672849327E+02  0.00000000000E+00 0.  1.
          1    1    1    2  501    0  0.41092104686E+02  0.36241745527E+02  0.26351638800E+03  0.26915220960E+03  0.00000000000E+00 0. -1.
<scales pt_clust_5="13000.00000" pt_clust_6="13000.00000" pt_clust_7="13000.00000" pt_clust_8="13000.00000" pt_clust_9="52.70685" pt_clust_10="90.03178"></scales>
<clustering>
<clus scale="   52.707">  1  9  2 -1</clus>
<clus scale="   90.032">  1 10  2 -1</clus>
<clus scale="   90.035">  7  8 -1 -1</clus>
<clus scale="   91.714">  5  6 -1 -1</clus>
<clus scale="  156.777">  2  7  1 -1</clus>
<clus scale="   52.707">  1  5  2 -1</clus>
</clustering>
</event>
<event>
10    2  0.1671105E-006  0.1059617E+03  0.7546771E-02  0.1268580E+00
         21   -1    0    0  501  502  0.00000000000E+00  0.00000000000E+00  0.38553406012E+03  0.38553406012E+03  0.00000000000E+00 0.  1.
          1   -1    0    0  503    0 -0.00000000000E+00 -0.00000000000E+00 -0.14874973117E+03  0.14874973117E+03  0.00000000000E+00 0. -1.
         23    2    1    2    0    0  0.45032852305E+02  0.32832711105E+01 -0.41465147959E+02  0.10998886818E+03  0.91320616358E+02 0.  0.
         23    2    1    2    0    0 -0.72350776654E+02 -0.16755665080E+02  0.36793579199E+02  0.12271947087E+03  0.90503667697E+02 0.  0.
        -11    1    3    3    0    0  0.54819922587E+02 -0.30047543516E+02 -0.41883556886E+02  0.75248329691E+02  0.00000000000E+00 0.  1.
         11    1    3    3    0    0 -0.97870702825E+01  0.33330814626E+02  0.41840892737E+00  0.34740538487E+02  0.00000000000E+00 0. -1.
        -13    1    4    4    0    0 -0.93916402730E+02 -0.10881039200E+02  0.27062477156E+02  0.98341575061E+02  0.00000000000E+00 0. -1.
         13    1    4    4    0    0  0.21565626076E+02 -0.58746258803E+01  0.97311020431E+01  0.24377895813E+02  0.00000000000E+00 0.  1.
         21    1    1    2  503  502  0.10287866434E+03  0.48105125123E+01  0.15859126613E+03  0.18909878451E+03  0.00000000000E+00 0.  1.
          1    1    1    2  501    0 -0.75560739994E+02  0.86618814571E+01  0.82864631570E+02  0.11247666773E+03  0.00000000000E+00 0. -1.
<scales pt_clust_5="13000.00000" pt_clust_6="13000.00000" pt_clust_7="13000.00000" pt_clust_8="13000.00000" pt_clust_9="58.12042" pt_clust_10="76.05560"></scales>
<clustering>
<clus scale="   76.056">  1 10  2 -1</clus>
<clus scale="   58.120">  1  9  2 -1</clus>
<clus scale="   90.504">  7  8 -1 -1</clus>
<clus scale="   91.321">  5  6 -1 -1</clus>
<clus scale="  105.258">  1  7  2 -1</clus>
<clus scale="   76.056">  1  5  2 -1</clus>
</clustering>
</event>
<event>
10    2  0.1671105E-006  0.1059358E+03  0.7546771E-02  0.1268368E+00
         21   -1    0    0  501  502  0.00000000000E+00  0.00000000000E+00  0.61512935321E+02  0.61512935321E+02  0.00000000000E+00 0. -1.
          2   -1    0    0  503    0 -0.00000000000E+00 -0.00000000000E+00 -0.69712446325E+03  0.69712446325E+03  0.00000000000E+00 0. -1.
         23    2    1    2    0    0 -0.34289142608E+02  0.23397078470E+02 -0.30750597097E+03  0.32334428527E+03  0.90930941124E+02 0.  0.
         23    2    1    2    0    0  0.29742068569E+02 -0.11284919163E+02  0.10959188822E+01  0.96156746994E+02  0.90735764233E+02 0.  0.
        -13    1    3    3    0    0  0.31387407512E+02  0.57214859881E+01 -0.93974362354E+02  0.99242559077E+02  0.00000000000E+00 0.  1.
         13    1    3    3    0    0 -0.65676550121E+02  0.17675592482E+02 -0.21353160862E+03  0.22410172620E+03  0.00000000000E+00 0. -1.
        -13    1    4    4    0    0  0.26068704478E+01 -0.34586216754E+02  0.33260258319E+02  0.48054624609E+02  0.00000000000E+00 0. -1.
         13    1    4    4    0    0  0.27135198121E+02  0.23301297591E+02 -0.32164339437E+02  0.48102122384E+02  0.00000000000E+00 0.  1.
         21    1    1    2  503  502 -0.37734594807E+02 -0.14908982792E+01 -0.14343720738E+03  0.14832516605E+03  0.00000000000E+00 0. -1.
          2    1    1    2  501    0  0.42281668847E+02 -0.10621261028E+02 -0.18576426846E+03  0.19081120026E+03  0.00000000000E+00 0. -1.
<scales pt_clust_5="13000.00000" pt_clust_6="13000.00000" pt_clust_7="13000.00000" pt_clust_8="13000.00000" pt_clust_9="37.76404" pt_clust_10="31.42960"></scales>
<clustering>
<clus scale="   37.764">  2  9  1 -1</clus>
<clus scale="   31.430">  1 10  2 -1</clus>
<clus scale="   90.736">  7  8 -1 -1</clus>
<clus scale="   90.931">  5  6 -1 -1</clus>
<clus scale="  105.768">  1  7  2 -1</clus>
<clus scale="   31.430">  1  5  2 -1</clus>
</clustering>
</event>
<event>
10    2  0.1671105E-006  0.1185178E+03  0.7546771E-02  0.1245612E+00
          2   -1    0    0  503    0 -0.00000000000E+00  0.00000000000E+00  0.29082924683E+03  0.29082924683E+03  0.00000000000E+00 0. -1.
         21   -1    0    0  501  502  0.00000000000E+00 -0.00000000000E+00 -0.82754772059E+02  0.82754772059E+02  0.00000000000E+00 0.  1.
         23    2    1    2    0    0 -0.60604900188E+02  0.66896425405E+02  0.13306072942E+03  0.18543691884E+03  0.92377527001E+02 0.  0.
         23    2    1    2    0    0  0.11909155977E+02 -0.53278856619E+02  0.32720242779E+02  0.11230545374E+03  0.92528028697E+02 0.  0.
        -11    1    4    4    0    0  0.26770069618E+02  0.47696273943E+01  0.43620334418E+02  0.51401551996E+02  0.00000000000E+00 0.  1.
         11    1    4    4    0    0 -0.14860913641E+02 -0.58048484013E+02 -0.10900091639E+02  0.60903901748E+02  0.00000000000E+00 0. -1.
        -11    1    3    3    0    0 -0.39115153594E+02  0.68498361437E+02  0.14173587722E+03  0.16220690384E+03  0.00000000000E+00 0.  1.
         11    1    3    3    0    0 -0.21489746594E+02 -0.16019360322E+01 -0.86751477979E+01  0.23230015003E+02  0.00000000000E+00 0. -1.
         21    1    1    2  503  502  0.31171903219E+02  0.11371663425E+01  0.43158921691E+01  0.31489801886E+02  0.00000000000E+00 0. -1.
          2    1    1    2  501    0  0.17523840992E+02 -0.14754735129E+02  0.37977610400E+02  0.44351844420E+02  0.00000000000E+00 0. -1.
<scales pt_clust_5="13000.00000" pt_clust_6="13000.00000" pt_clust_7="13000.00000" pt_clust_8="13000.00000" pt_clust_9="34.19223" pt_clust_10="22.90825"></scales>
<clustering>
<clus scale="   22.908">  2 10  1 -1</clus>
<clus scale="   34.192">  2  9  1 -1</clus>
<clus scale="   92.378">  7  8 -1 -1</clus>
<clus scale="   92.528">  5  6 -1 -1</clus>
<clus scale="  118.400">  1  7  2 -1</clus>
<clus scale="   22.908">  2  5  1 -1</clus>
</clustering>
</event>
<event>
10    2  0.1671105E-006  0.1231515E+03  0.7546771E-02  0.1238246E+00
          1   -1    0    0  502    0 -0.00000000000E+00  0.00000000000E+00  0.13299174825E+04  0.13299174825E+04  0.00000000000E+00 0. -1.
         21   -1    0    0  503  502  0.00000000000E+00 -0.00000000000E+00 -0.36122094033E+02  0.36122094033E+02  0.00000000000E+00 0. -1.
         23    2    1    2    0    0  0.16536810417E+02 -0.48041106523E+02  0.45888194456E+03  0.47080685010E+03  0.92222757763E+02 0.  0.
         23    2    1    2    0    0 -0.29809754871E+02  0.10978033608E+03  0.81125382875E+03  0.82446184099E+03  0.93081732400E+02 0.  0.
        -13    1    3    3    0    0  0.52980346782E+02 -0.19302630651E+02  0.19996555378E+03  0.20776364310E+03  0.00000000000E+00 0.  1.
         13    1    3    3    0    0 -0.36443536366E+02 -0.28738475872E+02  0.25891639078E+03  0.26304320701E+03  0.00000000000E+00 0. -1.
        -13    1    4    4    0    0 -0.51051287240E+02  0.21733295507E+02  0.26452001300E+03  0.27027653864E+03  0.00000000000E+00 0.  1.
         13    1    4    4    0    0  0.21241532370E+02  0.88047040576E+02  0.54673381575E+03  0.55418530235E+03  0.00000000000E+00 0. -1.
         21    1    1    2  503  501  0.17558202896E+02 -0.31002058056E+02  0.13796451807E+02  0.38206807968E+02  0.00000000000E+00 0.  1.
          1    1    1    2  501    0 -0.42852584424E+01 -0.30737171504E+02  0.98631633886E+01  0.32564077509E+02  0.00000000000E+00 0. -1.
<scales pt_clust_5="13000.00000" pt_clust_6="13000.00000" pt_clust_7="13000.00000" pt_clust_8="13000.00000" pt_clust_9="20.03525" pt_clust_10="66.69888"></scales>
<clustering>
<clus scale="   20.035">  9 10 -1 -1</clus>
<clus scale="   66.699">  2  9  1 -1</clus>
<clus scale="   92.223">  5  6 -1 -1</clus>
<clus scale="   93.082">  7  8 -1 -1</clus>
<clus scale="  122.504">  1  5  2 -1</clus>
<clus scale="   66.699">  2  5  1 -1</clus>
</clustering>
</event>
<event>
10    2  0.1671105E-006  0.1692389E+03  0.7546771E-02  0.1200395E+00
         -1   -1    0    0    0  501 -0.00000000000E+00  0.00000000000E+00  0.62997815025E+02  0.62997815025E+02  0.00000000000E+00 0.  1.
         21   -1    0    0  503  502  0.00000000000E+00 -0.00000000000E+00 -0.13016220667E+04  0.13016220667E+04  0.00000000000E+00 0.  1.
         23    2    1    2    0    0 -0.60474647675E+01 -0.69260283227E+02 -0.16795284627E+03  0.20112040375E+03  0.86067993891E+02 0.  0.
         23    2    1    2    0    0  0.24168825642E+02 -0.10701167094E+03 -0.17277745814E+03  0.22474239777E+03  0.92851846849E+02 0.  0.
        -11    1    3    3    0    0  0.17456483994E+02 -0.78970086219E+02 -0.10029661054E+03  0.12884259170E+03  0.00000000000E+00 0.  1.
         11    1    3    3    0    0 -0.23503948761E+02  0.97098029919E+01 -0.67656235731E+02  0.72277812050E+02  0.00000000000E+00 0. -1.
        -11    1    4    4    0    0 -0.13585732917E+02 -0.97653369782E+02 -0.90933470971E+02  0.13412549687E+03  0.00000000000E+00 0.  1.
         11    1    4    4    0    0  0.37754558559E+02 -0.93583011626E+01 -0.81843987169E+02  0.90616900898E+02  0.00000000000E+00 0. -1.
         21    1    1    2  503  501  0.58944259707E+01  0.29158865924E+02 -0.12155599796E+01  0.29773500056E+02  0.00000000000E+00 0. -1.
         -1    1    1    2    0  502 -0.24015786845E+02  0.14711308825E+03 -0.89667838727E+03  0.90898358013E+03  0.00000000000E+00 0.  1.
<scales pt_clust_5="13000.00000" pt_clust_6="13000.00000" pt_clust_7="13000.00000" pt_clust_8="13000.00000" pt_clust_9="29.74868" pt_clust_10="141.49330"></scales>
<clustering>
<clus scale="   29.749">  1  9  2 -1</clus>
<clus scale="   86.068">  5  6 -1 -1</clus>
<clus scale="   92.852">  7  8 -1 -1</clus>
<clus scale="  104.617">  1  5  2 -1</clus>
<clus scale="  141.493">  2 10  1 -1</clus>
<clus scale="  141.493">  2  5  1 -1</clus>
</clustering>
</event>
<event>
10    2  0.1671105E-006  0.3337034E+03  0.7546771E-02  0.1099050E+00
         21   -1    0    0  501  502  0.00000000000E+00  0.00000000000E+00  0.14327796686E+03  0.14327796686E+03  0.00000000000E+00 0. -1.
          2   -1    0    0  503    0 -0.00000000000E+00 -0.00000000000E+00 -0.27098406046E+04  0.27098406046E+04  0.00000000000E+00 0. -1.
         23    2    1    2    0    0 -0.65837912543E+02 -0.92472482221E+02 -0.55930176771E+03  0.57833948022E+03  0.93660537648E+02 0.  0.
         23    2    1    2    0    0 -0.89271579665E+02 -0.29305390421E+03 -0.14936197506E+03  0.35293641348E+03  0.91679368779E+02 0.  0.
        -11    1    4    4    0    0 -0.94484839606E+02 -0.15655587798E+03 -0.77691678645E+02  0.19867844567E+03  0.00000000000E+00 0.  1.
         11    1    4    4    0    0  0.52132599402E+01 -0.13649802623E+03 -0.71670296412E+02  0.15425796780E+03  0.00000000000E+00 0. -1.
        -13    1    3    3    0    0  0.19706925594E+02 -0.36573669448E+02 -0.22367654085E+03  0.22750206843E+03  0.00000000000E+00 0.  1.
         13    1    3    3    0    0 -0.85544838138E+02 -0.55898812773E+02 -0.33562522687E+03  0.35083741179E+03  0.00000000000E+00 0. -1.
         21    1    1    2  503  502 -0.62761149687E+02  0.19620736731E+02 -0.24511348147E+03  0.25378052333E+03  0.00000000000E+00 0.  1.
          2    1    1    2  501    0  0.21787064190E+03  0.36590564970E+03 -0.16127854135E+04  0.16680621544E+04  0.00000000000E+00 0. -1.
<scales pt_clust_5="13000.00000" pt_clust_6="13000.00000" pt_clust_7="13000.00000" pt_clust_8="13000.00000" pt_clust_9="65.75664" pt_clust_10="320.86288"></scales>
<clustering>
<clus scale="   65.757">  2  9  1 -1</clus>
<clus scale="   91.679">  5  6 -1 -1</clus>
<clus scale="   93.661">  7  8 -1 -1</clus>
<clus scale="  151.528">  2  7  1 -1</clus>
<clus scale="  320.863">  1 10  2 -1</clus>
<clus scale="  320.863">  1  5  2 -1</clus>
</clustering>
</event>
<event>
10    2  0.1671105E-006  0.9967763E+02  0.7546771E-02  0.1283086E+00
          1   -1    0    0  502    0 -0.00000000000E+00  0.00000000000E+00  0.33610718375E+03  0.33610718375E+03  0.00000000000E+00 0. -1.
         21   -1    0    0  503  502  0.00000000000E+00 -0.00000000000E+00 -0.68742539050E+02  0.68742539050E+02  0.00000000000E+00 0.  1.
         23    2    1    2    0    0  0.43454281918E+01  0.12939326098E+02  0.70479222376E+02  0.11549409237E+03  0.90472402860E+02 0.  0.
         23    2    1    2    0    0  0.65015578835E+02 -0.33961818328E+02  0.69903772018E+02  0.13862432331E+03  0.94603039461E+02 0.  0.
        -11    1    4    4    0    0  0.71907818176E+02  0.35251733634E+01  0.17967035332E+02  0.74202260887E+02  0.00000000000E+00 0. -1.
         11    1    4    4    0    0 -0.68922393413E+01 -0.37486991692E+02  0.51936736686E+02  0.64422062423E+02  0.00000000000E+00 0.  1.
        -11    1    3    3    0    0  0.37619616710E+02 -0.19485367465E+02  0.47543265351E+02  0.63681058305E+02  0.00000000000E+00 0.  1.
         11    1    3    3    0    0 -0.33274188518E+02  0.32424693563E+02  0.22935957025E+02  0.51813034064E+02  0.00000000000E+00 0. -1.
         21    1    1    2  503  501 -0.20939601700E+02  0.20996876870E+02  0.29198941523E+02  0.41616270180E+02  0.00000000000E+00 0. -1.
          1    1    1    2  501    0 -0.48421405327E+02  0.25615360466E-01  0.97782708788E+02  0.10911503695E+03  0.00000000000E+00 0. -1.
<scales pt_clust_5="13000.00000" pt_clust_6="13000.00000" pt_clust_7="13000.00000" pt_clust_8="13000.00000" pt_clust_9="28.67532" pt_clust_10="81.21326"></scales>
<clustering>
<clus scale="   28.675">  9 10 -1 -1</clus>
<clus scale="   81.213">  2  9  1 -1</clus>
<clus scale="   90.472">  7  8 -1 -1</clus>
<clus scale="   94.603">  5  6 -1 -1</clus>
<clus scale="   95.766">  1  7  2 -1</clus>
<clus scale="   81.213">  2  5  1 -1</clus>
</clustering>
</event>
<event>
10    2  0.1671105E-006  0.3473170E+03  0.7546771E-02  0.1063738E+00
         21   -1    0    0  503  502  0.00000000000E+00  0.00000000000E+00  0.12427254829E+03  0.12427254829E+03  0.00000000000E+00 0. -1.
          1   -1    0    0  502    0 -0.00000000000E+00 -0.00000000000E+00 -0.15122759908E+04  0.15122759908E+04  0.00000000000E+00 0. -1.
         23    2    1    2    0    0  0.28196061976E+03  0.92534711940E+02 -0.57046935500E+03  0.64954697116E+03  0.91714332254E+02 0.  0.
         23    2    1    2    0    0 -0.36536787443E+03 -0.98902620788E+02 -0.80186600729E+03  0.89138578389E+03  0.91126889593E+02 0.  0.
        -11    1    3    3    0    0  0.22603104417E+03  0.68186561634E+02 -0.36076284980E+03  0.43114878396E+03  0.00000000000E+00 0. -1.
         11    1    3    3    0    0  0.55929575595E+02  0.24348150307E+02 -0.20970650520E+03  0.21839818720E+03  0.00000000000E+00 0.  1.
        -13    1    4    4    0    0 -0.68532974680E+02  0.15889682993E+02 -0.16704882007E+03  0.18125826583E+03  0.00000000000E+00 0.  1.
         13    1    4    4    0    0 -0.29683489975E+03 -0.11479230378E+03 -0.63481718721E+03  0.71012751805E+03  0.00000000000E+00 0. -1.
         21    1    1    2  503  501  0.38895057616E+02  0.64432530154E+01  0.14318971717E+02  0.41944892030E+02  0.00000000000E+00 0. -1.
          1    1    1    2  501    0  0.44512197051E+02 -0.75344167723E-01 -0.29987051913E+02  0.53670891976E+02  0.00000000000E+00 0. -1.
<scales pt_clust_5="13000.00000" pt_clust_6="13000.00000" pt_clust_7="13000.00000" pt_clust_8="13000.00000" pt_clust_9="39.42513" pt_clust_10="49.30825"></scales>
<clustering>
<clus scale="   39.425">  1  9  2 -1</clus>
<clus scale="   49.308">  1 10  2 -1</clus>
<clus scale="   91.127">  7  8 -1 -1</clus>
<clus scale="   91.714">  5  6 -1 -1</clus>
<clus scale="  347.162">  1  7  2 -1</clus>
<clus scale="   39.425">  1  5  2 -1</clus>
</clustering>
</event>
<event>
10    2  0.1671105E-006  0.3104536E+03  0.7546771E-02  0.1080129E+00
          2   -1    0    0  503    0 -0.00000000000E+00  0.00000000000E+00  0.11366505428E+04  0.11366505428E+04  0.00000000000E+00 0. -1.
         21   -1    0    0  501  502  0.00000000000E+00 -0.00000000000E+00 -0.13392126987E+03  0.13392126987E+03  0.00000000000E+00 0. -1.
         23    2    1    2    0    0 -0.16963095949E+03  0.25828085810E+03  0.79775573589E+03  0.86039269049E+03  0.91529796362E+02 0.  0.
         23    2    1    2    0    0  0.13341373369E+03 -0.22539061801E+03  0.12852075528E+03  0.30577244123E+03  0.91537130454E+02 0.  0.
        -11    1    3    3    0    0 -0.10689089361E+03  0.21525276299E+03  0.52817541349E+03  0.58028327783E+03  0.00000000000E+00 0. -1.
         11    1    3    3    0    0 -0.62740065871E+02  0.43028095108E+02  0.26958032241E+03  0.28010941266E+03  0.00000000000E+00 0.  1.
        -13    1    4    4    0    0  0.34142155161E+02 -0.14703558187E+03  0.72346395679E+02  0.16738921729E+03  0.00000000000E+00 0. -1.
         13    1    4    4    0    0  0.99271578527E+02 -0.78355036136E+02  0.56174359603E+02  0.13838322394E+03  0.00000000000E+00 0.  1.
         21    1    1    2  503  502  0.42098901683E+01 -0.25457996096E+02  0.57431339082E+01  0.26435134339E+02  0.00000000000E+00 0. -1.
          2    1    1    2  501    0  0.32007335629E+02 -0.74322439928E+01  0.70709647888E+02  0.77971546665E+02  0.00000000000E+00 0. -1.
<scales pt_clust_5="13000.00000" pt_clust_6="13000.00000" pt_clust_7="13000.00000" pt_clust_8="13000.00000" pt_clust_9="25.80374" pt_clust_10="33.15601"></scales>
<clustering>
<clus scale="   25.804">  2  9  1 -1</clus>
<clus scale="   33.156">  2 10  1 -1</clus>
<clus scale="   91.530">  5  6 -1 -1</clus>
<clus scale="   91.537">  7  8 -1 -1</clus>
<clus scale="  310.451">  1  5  2 -1</clus>
<clus scale="   25.804">  2  5  1 -1</clus>
</clustering>
</event>
<event>
10    2  0.1671105E-006  0.1163255E+03  0.7546771E-02  0.1249676E+00
         21   -1    0    0  501  502  0.00000000000E+00  0.00000000000E+00  0.37507253889E+02  0.37507253889E+02  0.00000000000E+00 0.  1.
          1   -1    0    0  503    0 -0.00000000000E+00 -0.00000000000E+00 -0.84481415537E+03  0.84481415537E+03  0.00000000000E+00 0. -1.
         23    2    1    2    0    0 -0.10595713835E+03 -0.23267803927E+02 -0.26901286688E+03  0.30380064562E+03  0.90324990268E+02 0.  0.
         23    2    1    2    0    0  0.41648740612E+02 -0.14654799371E+02 -0.23329807524E+03  0.25445231856E+03  0.91480105882E+02 0.  0.
        -13    1    4    4    0    0  0.62379177550E+02  0.11291728026E+02 -0.11206541373E+03  0.12875294897E+03  0.00000000000E+00 0. -1.
         13    1    4    4    0    0 -0.20730436938E+02 -0.25946527396E+02 -0.12123266151E+03  0.12569936960E+03  0.00000000000E+00 0.  1.
        -13    1    3    3    0    0 -0.33778462273E+02  0.24604385588E+02 -0.35810904720E+02  0.55034363815E+02  0.00000000000E+00 0.  1.
         13    1    3    3    0    0 -0.72178676082E+02 -0.47872189515E+02 -0.23320196216E+03  0.24876628181E+03  0.00000000000E+00 0. -1.
         21    1    1    2  503  502  0.55580268360E+02  0.16859291445E+02 -0.29221338920E+03  0.29792963392E+03  0.00000000000E+00 0. -1.
          1    1    1    2  501    0  0.87281293832E+01  0.21063311853E+02 -0.12782570169E+02  0.26138811160E+02  0.00000000000E+00 0. -1.
<scales pt_clust_5="13000.00000" pt_clust_6="13000.00000" pt_clust_7="13000.00000" pt_clust_8="13000.00000" pt_clust_9="59.44461" pt_clust_10="22.80007"></scales>
<clustering>
<clus scale="   22.800">  1 10  2 -1</clus>
<clus scale="   59.445">  2  9  1 -1</clus>
<clus scale="   90.325">  7  8 -1 -1</clus>
<clus scale="   91.480">  5  6 -1 -1</clus>
<clus scale="  115.419">  2  7  1 -1</clus>
<clus scale="   22.800">  1  5  2 -1</clus>
</clustering>
</event>
<event>
10    2  0.1671105E-006  0.3431743E+03  0.7546771E-02  0.1065571E+00
          2   -1    0    0  503    0 -0.00000000000E+00  0.00000000000E+00  0.12439277419E+04  0.12439277419E+04  0.00000000000E+00 0. -1.
         21   -1    0    0  501  502  0.00000000000E+00 -0.00000000000E+00 -0.18223751600E+03  0.18223751600E+03  0.00000000000E+00 0.  1.
         23    2    1    2    0    0 -0.17764151026E+03 -0.32170980839E+03  0.59456255182E+03  0.70506494477E+03  0.92510763323E+02 0.  0.
         23    2    1    2    0    0  0.72812919865E+02  0.29319820489E+03  0.46901821878E+03  0.56482430119E+03  0.88212771243E+02 0.  0.
        -11    1    3    3    0    0 -0.15354572353E+03 -0.26909966484E+03  0.42530671658E+03  0.52619076578E+03  0.00000000000E+00 0.  1.
         11    1    3    3    0    0 -0.24095786727E+02 -0.52610143548E+02  0.16925583524E+03  0.17887417898E+03  0.00000000000E+00 0. -1.
        -11    1    4    4    0    0  0.30181912765E+02  0.13202609751E+03  0.29076467458E+03  0.32075837365E+03  0.00000000000E+00 0.  1.
         11    1    4    4    0    0  0.42631007100E+02  0.16117210738E+03  0.17825354420E+03  0.24406592754E+03  0.00000000000E+00 0. -1.
         21    1    1    2  503  502  0.25199196139E+02  0.21224132428E+02  0.50775725501E+02  0.60527990083E+02  0.00000000000E+00 0. -1.
          2    1    1    2  501    0  0.79629394253E+02  0.72874710719E+01 -0.52666270233E+02  0.95748021828E+02  0.00000000000E+00 0. -1.
<scales pt_clust_5="13000.00000" pt_clust_6="13000.00000" pt_clust_7="13000.00000" pt_clust_8="13000.00000" pt_clust_9="32.94637" pt_clust_10="80.45286"></scales>
<clustering>
<clus scale="   32.946">  1  9  2 -1</clus>
<clus scale="   80.453">  2 10  1 -1</clus>
<clus scale="   88.213">  7  8 -1 -1</clus>
<clus scale="   92.511">  5  6 -1 -1</clus>
<clus scale="  342.041">  2  7  1 -1</clus>
<clus scale="   80.453">  2  5  1 -1</clus>
</clustering>
</event>
<event>
10    2  0.1671105E-006  0.1323007E+03  0.7546771E-02  0.1224399E+00
         21   -1    0    0  503  502  0.00000000000E+00  0.00000000000E+00  0.13548145602E+03  0.13548145602E+03  0.00000000000E+00 0.  1.
         -1   -1    0    0    0  501 -0.00000000000E+00 -0.00000000000E+00 -0.72708404450E+03  0.72708404450E+03  0.00000000000E+00 0.  1.
         23    2    1    2    0    0 -0.37858749020E+02 -0.68195273673E+02 -0.26385461464E+03  0.28943643847E+03  0.89834926493E+02 0.  0.
         23    2    1    2    0    0  0.45465189973E+01  0.12182275496E+03 -0.38441510081E+03  0.41344497934E+03  0.91106129038E+02 0.  0.
        -11    1    4    4    0    0 -0.32880944203E+02  0.10382806395E+03 -0.24828964379E+03  0.27112574678E+03  0.00000000000E+00 0.  1.
         11    1    4    4    0    0  0.37427463200E+02  0.17994691008E+02 -0.13612545702E+03  0.14231923256E+03  0.00000000000E+00 0. -1.
        -11    1    3    3    0    0 -0.91785755023E+01 -0.20211175699E+02 -0.26948256438E+01  0.22360678805E+02  0.00000000000E+00 0.  1.
         11    1    3    3    0    0 -0.28680173518E+02 -0.47984097974E+02 -0.26115978900E+03  0.26707575967E+03  0.00000000000E+00 0. -1.
         21    1    1    2  503  501  0.33994545557E+02  0.41656233500E+02  0.24796491141E+02  0.59209263548E+02  0.00000000000E+00 0.  1.
         -1    1    1    2    0  502 -0.68231553422E+00 -0.95283714784E+02  0.31870635835E+02  0.10047481916E+03  0.00000000000E+00 0.  1.
<scales pt_clust_5="13000.00000" pt_clust_6="13000.00000" pt_clust_7="13000.00000" pt_clust_8="13000.00000" pt_clust_9="53.76682" pt_clust_10="69.82683"></scales>
<clustering>
<clus scale="   53.767">  1  9  2 -1</clus>
<clus scale="   69.827">  1 10  2 -1</clus>
<clus scale="   89.835">  7  8 -1 -1</clus>
<clus scale="   91.106">  5  6 -1 -1</clus>
<clus scale="  131.429">  2  7  1 -1</clus>
<clus scale="   53.767">  1  5  2 -1</clus>
</clustering>
</event>
<event>
10    2  0.1671105E-006  0.1131638E+03  0.7546771E-02  0.1255263E+00
         -4   -1    0    0    0  501 -0.00000000000E+00  0.00000000000E+00  0.18476377423E+03  0.18476377423E+03  0.00000000000E+00 0.  1.
         21   -1    0    0  503  502  0.00000000000E+00 -0.00000000000E+00 -0.18291772851E+03  0.18291772851E+03  0.00000000000E+00 0. -1.
         23    2    1    2    0    0 -0.56169627526E+02  0.77402498326E+02  0.37323956295E+02  0.13811843895E+03  0.92398331488E+02 0.  0.
         23    2    1    2    0    0  0.35911882490E+02 -0.28097387779E+02 -0.77013977993E+02  0.12776921799E+03  0.91184942597E+02 0.  0.
        -13    1    4    4    0    0  0.60922512758E+02 -0.35799196057E+02 -0.36484514933E+02  0.79525183615E+02  0.00000000000E+00 0.  1.
         13    1    4    4    0    0 -0.25010630268E+02  0.77018082784E+01 -0.40529463060E+02  0.48244034378E+02  0.00000000000E+00 0. -1.
        -13    1    3    3    0    0 -0.44346377027E+02  0.49731970303E+02 -0.23176571075E+02  0.70548022456E+02  0.00000000000E+00 0. -1.
         13    1    3    3    0    0 -0.11823250499E+02  0.27670528023E+02  0.60500527371E+02  0.67570416497E+02  0.00000000000E+00 0.  1.
         21    1    1    2  503  501 -0.50016504950E+01 -0.52339946813E+02  0.52308155155E+02  0.74166229753E+02  0.00000000000E+00 0.  1.
         -4    1    1    2    0  502  0.25259395531E+02  0.30348362658E+01 -0.10772087732E+02  0.27627616037E+02  0.00000000000E+00 0.  1.
<scales pt_clust_5="13000.00000" pt_clust_6="13000.00000" pt_clust_7="13000.00000" pt_clust_8="13000.00000" pt_clust_9="52.24267" pt_clust_10="25.44106"></scales>
<clustering>
<clus scale="   25.441">  2 10  1 -1</clus>
<clus scale="   52.243">  1  9  2 -1</clus>
<clus scale="   91.185">  5  6 -1 -1</clus>
<clus scale="   92.398">  7  8 -1 -1</clus>
<clus scale="  112.175">  2  5  1 -1</clus>
<clus scale="   25.441">  2  5  1 -1</clus>
</clustering>
</event>
<event>
10    2  0.1671105E-006  0.1181712E+03  0.7546771E-02  0.1246404E+00
         21   -1    0    0  501  502  0.00000000000E+00  0.00000000000E+00  0.19233615077E+03  0.19233615077E+03  0.00000000000E+00 0.  1.
          1   -1    0    0  503    0 -0.00000000000E+00 -0.00000000000E+00 -0.30723512239E+03  0.30723512239E+03  0.00000000000E+00 0. -1.
         23    2    1    2    0    0 -0.25911754534E+02 -0.82828485930E+02 -0.12608919722E+03  0.17853918947E+03  0.91900921738E+02 0.  0.
         23    2    1    2    0    0  0.35567964915E+02  0.49096779466E+02 -0.57977532480E+02  0.12384701373E+03  0.91110453047E+02 0.  0.
        -11    1    3    3    0    0  0.31559255327E+02 -0.13225079624E+02 -0.21619095535E+02  0.40475605241E+02  0.00000000000E+00 0.  1.
         11    1    3    3    0    0 -0.57471009862E+02 -0.69603406307E+02 -0.10447010169E+03  0.13806358423E+03  0.00000000000E+00 0. -1.
        -13    1    4    4    0    0  0.20943245346E+01  0.63615684659E+02 -0.59772610100E+02  0.87316129369E+02  0.00000000000E+00 0. -1.
         13    1    4    4    0    0  0.33473640380E+02 -0.14518905193E+02  0.17950776191E+01  0.36530884358E+02  0.00000000000E+00 0.  1.
         21    1    1    2  503  502  0.26381251412E+02  0.50827854145E+02 -0.47174752262E+02  0.74195002757E+02  0.00000000000E+00 0. -1.
          1    1    1    2  501    0 -0.36037461793E+02 -0.17096147681E+02  0.11634251034E+03  0.12299006720E+03  0.00000000000E+00 0. -1.
<scales pt_clust_5="13000.00000" pt_clust_6="13000.00000" pt_clust_7="13000.00000" pt_clust_8="13000.00000" pt_clust_9="51.55420" pt_clust_10="39.88705"></scales>
<clustering>
<clus scale="   39.887">  1 10  2 -1</clus>
<clus scale="   51.554">  1  9  2 -1</clus>
<clus scale="   91.110">  7  8 -1 -1</clus>
<clus scale="   91.901">  5  6 -1 -1</clus>
<clus scale="  117.558">  1  7  2 -1</clus>
<clus scale="   39.887">  1  5  2 -1</clus>
</clustering>
</event>
<event>
10    2  0.1671105E-006  0.1986922E+03  0.7546771E-02  0.1151089E+00
         -2   -1    0    0    0  501 -0.00000000000E+00  0.00000000000E+00  0.25934788202E+03  0.25934788202E+03  0.00000000000E+00 0.  1.
         21   -1    0    0  503  502  0.00000000000E+00 -0.00000000000E+00 -0.66696089010E+03  0.66696089010E+03  0.00000000000E+00 0.  1.
         23    2    1    2    0    0  0.78993186371E+02 -0.15040796585E+03  0.13846902195E+03  0.23662189513E+03  0.89183919693E+02 0.  0.
         23    2    1    2    0    0 -0.17212904031E+03  0.13887246907E+03 -0.17286694516E+03  0.29529593510E+03  0.91666457189E+02 0.  0.
        -11    1    4    4    0    0 -0.52059091828E+02  0.89996261500E+02 -0.10951802439E+03  0.15100885336E+03  0.00000000000E+00 0. -1.
         11    1    4    4    0    0 -0.12006994848E+03  0.48876207572E+02 -0.63348920769E+02  0.14428708174E+03  0.00000000000E+00 0.  1.
        -11    1    3    3    0    0  0.64811558868E+01 -0.24479652719E+02 -0.11489248352E+02  0.27807581818E+02  0.00000000000E+00 0. -1.
         11    1    3    3    0    0  0.72512030484E+02 -0.12592831313E+03  0.14995827030E+03  0.20881431331E+03  0.00000000000E+00 0.  1.
         21    1    1    2  503  501  0.46608454784E+02 -0.18492070891E+02 -0.69682608550E+02  0.85848533346E+02  0.00000000000E+00 0.  1.
         -2    1    1    2    0  502  0.46527399156E+02  0.30027567668E+02 -0.30353247632E+03  0.30854240854E+03  0.00000000000E+00 0.  1.
<scales pt_clust_5="13000.00000" pt_clust_6="13000.00000" pt_clust_7="13000.00000" pt_clust_8="13000.00000" pt_clust_9="50.14284" pt_clust_10="73.62568"></scales>
<clustering>
<clus scale="   50.143">  2  9  1 -1</clus>
<clus scale="   73.626">  2 10  1 -1</clus>
<clus scale="   89.184">  7  8 -1 -1</clus>
<clus scale="   91.666">  5  6 -1 -1</clus>
<clus scale="  197.559">  1  7  2 -1</clus>
<clus scale="   50.143">  2  5  1 -1</clus>
</clustering>
</event>
<event>
10    2  0.1671105E-006  0.1007700E+03  0.7546771E-02  0.1279766E+00
         21   -1    0    0  503  502  0.00000000000E+00  0.00000000000E+00  0.45209584296E+02  0.45209584296E+02  0.00000000000E+00 0. -1.
         -2   -1    0    0    0  501 -0.00000000000E+00 -0.00000000000E+00 -0.47655656734E+03  0.47655656734E+03  0.00000000000E+00 0.  1.
         23    2    1    2    0    0  0.36517946099E+02 -0.13021536449E+02 -0.17182071533E+03  0.19932460521E+03  0.93299620718E+02 0.  0.
         23    2    1    2    0    0 -0.36392825759E+02  0.88348992944E+01 -0.18516118532E+03  0.20971910116E+03  0.91076581118E+02 0.  0.
        -11    1    4    4    0    0 -0.25909323577E+02 -0.40352249600E+02 -0.97540736070E+02  0.10869127053E+03  0.00000000000E+00 0.  1.
         11    1    4    4    0    0 -0.10483502181E+02  0.49187148895E+02 -0.87620449250E+02  0.10102783063E+03  0.00000000000E+00 0. -1.
        -13    1    3    3    0    0 -0.30302236913E+02 -0.30278340897E+01 -0.32811241196E+02  0.44765733436E+02  0.00000000000E+00 0. -1.
         13    1    3    3    0    0  0.66820183012E+02 -0.99937023597E+01 -0.13900947414E+03  0.15455887178E+03  0.00000000000E+00 0.  1.
         21    1    1    2  503  501 -0.20650940660E+02  0.25778296621E+02 -0.76019821758E+02  0.82885434348E+02  0.00000000000E+00 0. -1.
         -2    1    1    2    0  502  0.20525820320E+02 -0.21591659466E+02  0.16547393685E+01  0.29837010920E+02  0.00000000000E+00 0.  1.
<scales pt_clust_5="13000.00000" pt_clust_6="13000.00000" pt_clust_7="13000.00000" pt_clust_8="13000.00000" pt_clust_9="29.57296" pt_clust_10="29.79109"></scales>
<clustering>
<clus scale="   29.791">  1 10  2 -1</clus>
<clus scale="   29.573">  2  9  1 -1</clus>
<clus scale="   91.077">  5  6 -1 -1</clus>
<clus scale="   93.300">  7  8 -1 -1</clus>
<clus scale="   98.715">  1  5  2 -1</clus>
<clus scale="   29.791">  1  5  2 -1</clus>
</clustering>
</event>
<event>
10    2  0.1671105E-006  0.2465583E+03  0.7546771E-02  0.1115626E+00
         21   -1    0    0  501  502  0.00000000000E+00  0.00000000000E+00  0.54546322323E+03  0.54546322323E+03  0.00000000000E+00 0. -1.
          2   -1    0    0  503    0 -0.00000000000E+00 -0.00000000000E+00 -0.62532956527E+03  0.62532956527E+03  0.00000000000E+00 0. -1.
         23    2    1    2    0    0 -0.80048525301E+02 -0.22142021488E+03 -0.47615364239E+03  0.53937521764E+03  0.93641103598E+02 0.  0.
         23    2    1    2    0    0 -0.26756498212E+02  0.18504570743E+03  0.22223072077E+03  0.30451197793E+03  0.91559966234E+02 0.  0.
        -13    1    3    3    0    0 -0.10568055970E+02 -0.14206272327E+03 -0.21702326434E+03  0.25960084440E+03  0.00000000000E+00 0.  1.
         13    1    3    3    0    0 -0.69480469331E+02 -0.79357491619E+02 -0.25913037805E+03  0.27977437324E+03  0.00000000000E+00 0. -1.
        -13    1    4    4    0    0 -0.56584109026E+02  0.74375968371E+02  0.94838070811E+02  0.13314580632E+03  0.00000000000E+00 0.  1.
         13    1    4    4    0    0  0.29827610814E+02  0.11066973906E+03  0.12739264996E+03  0.17136617161E+03  0.00000000000E+00 0. -1.
         21    1    1    2  503  502  0.12515835717E+03 -0.71429239170E+02  0.31971569463E+02  0.14761074430E+03  0.00000000000E+00 0. -1.
          2    1    1    2  501    0 -0.18353333657E+02  0.10780374662E+03  0.14208501013E+03  0.17929484863E+03  0.00000000000E+00 0. -1.
<scales pt_clust_5="13000.00000" pt_clust_6="13000.00000" pt_clust_7="13000.00000" pt_clust_8="13000.00000" pt_clust_9="129.42938" pt_clust_10="109.35489"></scales>
<clustering>
<clus scale="   91.560">  7  8 -1 -1</clus>
<clus scale="   93.641">  5  6 -1 -1</clus>
<clus scale="  109.355">  1 10  2 -1</clus>
<clus scale="  129.429">  1  9  2 -1</clus>
<clus scale="  245.775">  1  7  2 -1</clus>
<clus scale="  109.355">  1  5  2 -1</clus>
</clustering>
</event>
<event>
10    2  0.1671105E-006  0.1307526E+03  0.7546771E-02  0.1239282E+00
         21   -1    0    0  503  502  0.00000000000E+00  0.00000000000E+00  0.15342263053E+03  0.15342263053E+03  0.00000000000E+00 0.  1.
         -3   -1    0    0    0  501 -0.00000000000E+00 -0.00000000000E+00 -0.22725891188E+03  0.22725891188E+03  0.00000000000E+00 0.  1.
         23    2    1    2    0    0  0.31512924672E+01  0.37237324096E+02 -0.48986611739E+02  0.10961431067E+03  0.90659031670E+02 0.  0.
         23    2    1    2    0    0 -0.39982078540E+02  0.57017304703E+02 -0.36932934644E+02  0.12077174842E+03  0.91499912099E+02 0.  0.
        -11    1    3    3    0    0 -0.33690311459E+02  0.48366590239E+02 -0.35634635454E+02  0.68878090722E+02  0.00000000000E+00 0.  1.
         11    1    3    3    0    0  0.36841603926E+02 -0.11129266143E+02 -0.13351976285E+02  0.40736219945E+02  0.00000000000E+00 0. -1.
        -13    1    4    4    0    0 -0.23239020172E+01  0.70788526909E+02 -0.78971417637E+01  0.71265566093E+02  0.00000000000E+00 0.  1.
         13    1    4    4    0    0 -0.37658176522E+02 -0.13771222206E+02 -0.29035792880E+02  0.49506182323E+02  0.00000000000E+00 0. -1.
         21    1    1    2  503  501  0.18057817233E+02  0.20015960424E+02  0.20968658804E+02  0.34152717124E+02  0.00000000000E+00 0.  1.
         -3    1    1    2    0  502  0.18772968840E+02 -0.11427058922E+03 -0.88853937718E+01  0.11614276621E+03  0.00000000000E+00 0.  1.
<scales pt_clust_5="13000.00000" pt_clust_6="13000.00000" pt_clust_7="13000.00000" pt_clust_8="13000.00000" pt_clust_9="26.95781" pt_clust_10="93.40242"></scales>
<clustering>
<clus scale="   26.958">  1  9  2 -1</clus>
<clus scale="   90.659">  5  6 -1 -1</clus>
<clus scale="   91.500">  7  8 -1 -1</clus>
<clus scale="  100.221">  2  5  1 -1</clus>
<clus scale="   93.402">  1 10  2 -1</clus>
<clus scale="   26.958">  1  5  2 -1</clus>
</clustering>
</event>
<event>
10    2  0.1671105E-006  0.1108189E+03  0.7546771E-02  0.1259430E+00
         21   -1    0    0  501  502  0.00000000000E+00  0.00000000000E+00  0.88367408232E+02  0.88367408232E+02  0.00000000000E+00 0. -1.
          1   -1    0    0  503    0 -0.00000000000E+00 -0.00000000000E+00 -0.37548653833E+03  0.37548653833E+03  0.00000000000E+00 0. -1.
         23    2    1    2    0    0  0.21181981311E+02 -0.12266506550E+02 -0.10553177647E+03  0.14255438731E+03  0.92658804127E+02 0.  0.
         23    2    1    2    0    0  0.25224121245E+01  0.10688383988E+03 -0.72464948291E+02  0.15839895449E+03  0.91698103929E+02 0.  0.
        -11    1    3    3    0    0  0.26378096110E+02  0.10449001142E+02  0.56734757977E+01  0.28933957678E+02  0.00000000000E+00 0.  1.
         11    1    3    3    0    0 -0.51961147994E+01 -0.22715507692E+02 -0.11120525227E+03  0.11362042964E+03  0.00000000000E+00 0. -1.
        -13    1    4    4    0    0 -0.42173542825E+02  0.37535381629E+02 -0.16917859259E+02  0.58938328364E+02  0.00000000000E+00 0.  1.
         13    1    4    4    0    0  0.44695954949E+02  0.69348458248E+02 -0.55547089032E+02  0.99460626130E+02  0.00000000000E+00 0. -1.
         21    1    1    2  503  502 -0.36645844112E+01 -0.74427103288E+02 -0.11176732665E+03  0.13433077901E+03  0.00000000000E+00 0. -1.
          1    1    1    2  501    0 -0.20039809024E+02 -0.20190230038E+02  0.26449213075E+01  0.28569825751E+02  0.00000000000E+00 0. -1.
<scales pt_clust_5="13000.00000" pt_clust_6="13000.00000" pt_clust_7="13000.00000" pt_clust_8="13000.00000" pt_clust_9="77.85275" pt_clust_10="28.44713"></scales>
<clustering>
<clus scale="   28.447">  1 10  2 -1</clus>
<clus scale="   77.853">  2  9  1 -1</clus>
<clus scale="   91.698">  7  8 -1 -1</clus>
<clus scale="   92.659">  5  6 -1 -1</clus>
<clus scale="  110.017">  1  7  2 -1</clus>
<clus scale="   28.447">  1  5  2 -1</clus>
</clustering>
</event>
<event>
10    2  0.1671105E-006  0.1172927E+03  0.7546771E-02  0.1247856E+00
         21   -1    0    0  503  502  0.00000000000E+00  0.00000000000E+00  0.28982281518E+03  0.28982281518E+03  0.00000000000E+00 0.  1.
         -2   -1    0    0    0  501 -0.00000000000E+00 -0.00000000000E+00 -0.10495562546E+03  0.10495562546E+03  0.00000000000E+00 0.  1.
         23    2    1    2    0    0 -0.85554789014E+02 -0.21381346360E+01  0.46929657631E+01  0.12500539584E+03  0.90995228005E+02 0.  0.
         23    2    1    2    0    0  0.46039513587E+02 -0.56069420883E+02  0.92676472618E+02  0.14835366460E+03  0.90313146625E+02 0.  0.
        -11    1    4    4    0    0  0.68427473584E+01 -0.50820719458E+02  0.42118026873E+01  0.51451997041E+02  0.00000000000E+00 0.  1.
         11    1    4    4    0    0  0.39196766229E+02 -0.52487014257E+01  0.88464669931E+02  0.96901667558E+02  0.00000000000E+00 0. -1.
        -13    1    3    3    0    0 -0.99800297239E+02 -0.20085945944E+02  0.65782761134E+01  0.10201381411E+03  0.00000000000E+00 0.  1.
         13    1    3    3    0    0  0.14245508225E+02  0.17947811308E+02 -0.18853103503E+01  0.22991581730E+02  0.00000000000E+00 0. -1.
         21    1    1    2  503  501  0.10922412682E+02  0.36055854122E+02  0.73580595452E+02  0.82664549490E+02  0.00000000000E+00 0.  1.
         -2    1    1    2    0  502  0.28592862745E+02  0.22151701397E+02  0.13917155891E+02  0.38754830704E+02  0.00000000000E+00 0.  1.
<scales pt_clust_5="13000.00000" pt_clust_6="13000.00000" pt_clust_7="13000.00000" pt_clust_8="13000.00000" pt_clust_9="46.83102" pt_clust_10="36.16975"></scales>
<clustering>
<clus scale="   36.170">  1 10  2 -1</clus>
<clus scale="   46.831">  1  9  2 -1</clus>
<clus scale="   90.313">  5  6 -1 -1</clus>
<clus scale="   90.995">  7  8 -1 -1</clus>
<clus scale="  116.764">  1  5  2 -1</clus>
<clus scale="   36.170">  1  5  2 -1</clus>
</clustering>
</event>
<event>
10    2  0.1671105E-006  0.9635516E+02  0.7546771E-02  0.1292867E+00
         21   -1    0    0  501  502  0.00000000000E+00  0.00000000000E+00  0.24563161722E+03  0.24563161722E+03  0.00000000000E+00 0.  1.
          3   -1    0    0  503    0 -0.00000000000E+00 -0.00000000000E+00 -0.75072703666E+02  0.75072703666E+02  0.00000000000E+00 0. -1.
         23    2    1    2    0    0  0.14936498907E+02 -0.11636604288E+02  0.30546272743E+02  0.10122279446E+03  0.94628060217E+02 0.  0.
         23    2    1    2    0    0 -0.21504825459E+02 -0.74540161810E+01  0.54240388312E+02  0.10446436769E+03  0.86329395437E+02 0.  0.
        -11    1    4    4    0    0  0.12099828677E+02  0.32518055862E+02  0.10234791828E+02  0.36174310979E+02  0.00000000000E+00 0. -1.
         11    1    4    4    0    0 -0.33604654136E+02 -0.39972072043E+02  0.44005596484E+02  0.68290056706E+02  0.00000000000E+00 0.  1.
        -13    1    3    3    0    0 -0.24594643818E+01  0.33184791096E+02 -0.13602640433E+02  0.35948729489E+02  0.00000000000E+00 0. -1.
         13    1    3    3    0    0  0.17395963289E+02 -0.44821395384E+02  0.44148913176E+02  0.65274064968E+02  0.00000000000E+00 0.  1.
         21    1    1    2  503  502  0.37603725421E+02  0.24354805163E+02  0.44909775511E+02  0.63435673217E+02  0.00000000000E+00 0.  1.
          3    1    1    2  501    0 -0.31035398868E+02 -0.52641846935E+01  0.40862476985E+02  0.51581485523E+02  0.00000000000E+00 0. -1.
<scales pt_clust_5="13000.00000" pt_clust_6="13000.00000" pt_clust_7="13000.00000" pt_clust_8="13000.00000" pt_clust_9="37.10223" pt_clust_10="31.47869"></scales>
<clustering>
<clus scale="   31.479">  1 10  2 -1</clus>
<clus scale="   37.102">  1  9  2 -1</clus>
<clus scale="   86.329">  5  6 -1 -1</clus>
<clus scale="   88.219">  1  5  2 -1</clus>
<clus scale="   94.628">  7  8 -1 -1</clus>
<clus scale="   31.479">  1  5  2 -1</clus>
</clustering>
</event>
<event>
10    2  0.1671105E-006  0.4072499E+03  0.7546771E-02  0.1088242E+00
          2   -1    0    0  503    0 -0.00000000000E+00  0.00000000000E+00  0.12770201993E+04  0.12770201993E+04  0.00000000000E+00 0. -1.
         21   -1    0    0  501  502  0.00000000000E+00 -0.00000000000E+00 -0.29200832289E+03  0.29200832289E+03  0.00000000000E+00 0. -1.
         23    2    1    2    0    0 -0.80111150806E+01  0.10337212950E+02  0.28736412920E+03  0.30795711012E+03  0.10994727366E+03 0.  0.
         23    2    1    2    0    0 -0.23306526083E+03  0.28015873481E+03  0.50755844848E+03  0.63139603144E+03  0.90758125782E+02 0.  0.
        -11    1    3    3    0    0 -0.54495182340E+02  0.23407240216E+01  0.21318439702E+03  0.22005179167E+03  0.00000000000E+00 0.  1.
         11    1    3    3    0    0  0.46484067259E+02  0.79964889285E+01  0.74179732185E+02  0.87905318446E+02  0.00000000000E+00 0. -1.
        -11    1    4    4    0    0 -0.35048144447E+02  0.10641733994E+03  0.15771932796E+03  0.19346423205E+03  0.00000000000E+00 0.  1.
         11    1    4    4    0    0 -0.19801711638E+03  0.17374139487E+03  0.34983912052E+03  0.43793179939E+03  0.00000000000E+00 0. -1.
         21    1    1    2  503  502 -0.12209396707E+03  0.10248090863E+02  0.77215546993E+02  0.14482472461E+03  0.00000000000E+00 0. -1.
          2    1    1    2  501    0  0.36317034298E+03 -0.30074403862E+03  0.11287375171E+03  0.48485065599E+03  0.00000000000E+00 0. -1.
<scales pt_clust_5="13000.00000" pt_clust_6="13000.00000" pt_clust_7="13000.00000" pt_clust_8="13000.00000" pt_clust_9="123.53110" pt_clust_10="397.00808"></scales>
<clustering>
<clus scale="   90.758">  7  8 -1 -1</clus>
<clus scale="  109.947">  5  6 -1 -1</clus>
<clus scale="  110.722">  1  5  2 -1</clus>
<clus scale="  123.531">  2  9  1 -1</clus>
<clus scale="  397.008">  2 10  1 -1</clus>
<clus scale="  123.531">  2  5  1 -1</clus>
</clustering>
</event>
<event>
10    2  0.1671105E-006  0.2615270E+03  0.7546771E-02  0.1114624E+00
         21   -1    0    0  503  502  0.00000000000E+00  0.00000000000E+00  0.14322164403E+03  0.14322164403E+03  0.00000000000E+00 0. -1.
          1   -1    0    0  502    0 -0.00000000000E+00 -0.00000000000E+00 -0.15738531081E+04  0.15738531081E+04  0.00000000000E+00 0. -1.
         23    2    1    2    0    0 -0.17595754889E+03 -0.42029758664E+02 -0.39406059795E+03  0.44416456946E+03  0.96285254764E+02 0.  0.
         23    2    1    2    0    0  0.24818778569E+03  0.27206958054E+03 -0.88488711921E+03  0.96284934177E+03  0.91840119588E+02 0.  0.
        -13    1    4    4    0    0  0.41863463367E+02  0.61622419365E+01 -0.82052049084E+02  0.92320428669E+02  0.00000000000E+00 0.  1.
         13    1    4    4    0    0  0.20632432232E+03  0.26590733861E+03 -0.80283507013E+03  0.87052891310E+03  0.00000000000E+00 0. -1.
        -13    1    3    3    0    0 -0.66805800069E+02  0.24960248458E+02 -0.94620247323E+02  0.11848637107E+03  0.00000000000E+00 0.  1.
         13    1    3    3    0    0 -0.10915174882E+03 -0.66990007121E+02 -0.29944035062E+03  0.32567819839E+03  0.00000000000E+00 0. -1.
         21    1    1    2  503  501 -0.24541576682E+02 -0.31648700874E+02  0.18732240086E+02  0.44213415064E+02  0.00000000000E+00 0.  1.
          1    1    1    2  501    0 -0.47688660120E+02 -0.19839112101E+03 -0.17041598696E+03  0.26584742581E+03  0.00000000000E+00 0. -1.
<scales pt_clust_5="13000.00000" pt_clust_6="13000.00000" pt_clust_7="13000.00000" pt_clust_8="13000.00000" pt_clust_9="40.04909" pt_clust_10="244.87095"></scales>
<clustering>
<clus scale="   40.049">  1  9  2 -1</clus>
<clus scale="   91.840">  5  6 -1 -1</clus>
<clus scale="   96.285">  7  8 -1 -1</clus>
<clus scale="  211.215">  2  7  1 -1</clus>
<clus scale="  244.871">  1 10  2 -1</clus>
<clus scale="   40.049">  1  5  2 -1</clus>
</clustering>
</event>
<event>
10    2  0.1671105E-006  0.1045165E+03  0.7546771E-02  0.1271278E+00
          1   -1    0    0  503    0 -0.00000000000E+00  0.00000000000E+00  0.12173238850E+03  0.12173238850E+03  0.00000000000E+00 0. -1.
         21   -1    0    0  501  502  0.00000000000E+00 -0.00000000000E+00 -0.19273331809E+03  0.19273331809E+03  0.00000000000E+00 0.  1.
         23    2    1    2    0    0  0.36963321319E+02 -0.38234950318E+02  0.37957174656E+02  0.11246095844E+03  0.91534264165E+02 0.  0.
         23    2    1    2    0    0 -0.16416224165E+01  0.48133850357E+02 -0.94604239586E+02  0.14047536225E+03  0.91998928124E+02 0.  0.
        -13    1    4    4    0    0  0.27710289183E+02  0.22474598544E+02 -0.95008607749E+02  0.10148696100E+03  0.00000000000E+00 0.  1.
         13    1    4    4    0    0 -0.29351911600E+02  0.25659251813E+02  0.40436816260E+00  0.38988401247E+02  0.00000000000E+00 0. -1.
        -13    1    3    3    0    0  0.73723493396E+01 -0.63128704954E+02  0.37485743892E+02  0.73788657116E+02  0.00000000000E+00 0.  1.
         13    1    3    3    0    0  0.29590971979E+02  0.24893754636E+02  0.47143076372E+00  0.38672301322E+02  0.00000000000E+00 0. -1.
         21    1    1    2  503  502 -0.19335026739E+02 -0.27964922389E+02 -0.15529379432E+02  0.37377021936E+02  0.00000000000E+00 0.  1.
          1    1    1    2  501    0 -0.15986672163E+02  0.18066022350E+02  0.11755147718E+01  0.24152363971E+02  0.00000000000E+00 0. -1.
<scales pt_clust_5="13000.00000" pt_clust_6="13000.00000" pt_clust_7="13000.00000" pt_clust_8="13000.00000" pt_clust_9="33.33213" pt_clust_10="24.12375"></scales>
<clustering>
<clus scale="   24.124">  2 10  1 -1</clus>
<clus scale="   33.332">  2  9  1 -1</clus>
<clus scale="   91.534">  7  8 -1 -1</clus>
<clus scale="   91.999">  5  6 -1 -1</clus>
<clus scale="  104.108">  1  7  2 -1</clus>
<clus scale="   24.124">  2  5  1 -1</clus>
</clustering>
</event>
<event>
10    2  0.1671105E-006  0.2259576E+03  0.7546771E-02  0.1130501E+00
         -3   -1    0    0    0  501 -0.00000000000E+00  0.00000000000E+00  0.10949566755E+03  0.10949566755E+03  0.00000000000E+00 0.  1.
         21   -1    0    0  503  502  0.00000000000E+00 -0.00000000000E+00 -0.10419339289E+04  0.10419339289E+04  0.00000000000E+00 0.  1.
         23    2    1    2    0    0  0.21671777692E+03 -0.58728132020E+02 -0.89029801520E+02  0.25163567446E+03  0.70559328071E+02 0.  0.
         23    2    1    2    0    0 -0.18108173017E+03  0.10842797520E+03 -0.69208788394E+03  0.72864119216E+03  0.85936773373E+02 0.  0.
        -13    1    4    4    0    0 -0.13197353353E+03  0.43903087096E+02 -0.34023007818E+03  0.36756088027E+03  0.00000000000E+00 0.  1.
         13    1    4    4    0    0 -0.49108196636E+02  0.64524888103E+02 -0.35185780576E+03  0.36108031189E+03  0.00000000000E+00 0. -1.
        -13    1    3    3    0    0  0.10159195452E+03 -0.81066663368E+01 -0.84344002240E+01  0.10226329923E+03  0.00000000000E+00 0.  1.
         13    1    3    3    0    0  0.11512582240E+03 -0.50621465683E+02 -0.80595401296E+02  0.14937237523E+03  0.00000000000E+00 0. -1.
         21    1    1    2  503  501 -0.29298610544E+02 -0.23520381674E+02 -0.33646234299E+02  0.50434968191E+02  0.00000000000E+00 0. -1.
         -3    1    1    2    0  502 -0.63374362117E+01 -0.26179461505E+02 -0.11767434156E+03  0.12071776159E+03  0.00000000000E+00 0.  1.
<scales pt_clust_5="13000.00000" pt_clust_6="13000.00000" pt_clust_7="13000.00000" pt_clust_8="13000.00000" pt_clust_9="38.55062" pt_clust_10="26.93561"></scales>
<clustering>
<clus scale="   26.936">  2 10  1 -1</clus>
<clus scale="   38.551">  1  9  2 -1</clus>
<clus scale="   70.559">  7  8 -1 -1</clus>
<clus scale="   85.937">  5  6 -1 -1</clus>
<clus scale="  220.568">  1  7  2 -1</clus>
<clus scale="   26.936">  2  5  1 -1</clus>
</clustering>
</event>
<event>
10    2  0.1671105E-006  0.1404885E+03  0.7546771E-02  0.1213065E+00
         21   -1    0    0  503  502  0.00000000000E+00  0.00000000000E+00  0.74523164682E+02  0.74523164682E+02  0.00000000000E+00 0. -1.
         -1   -1    0    0    0  501 -0.00000000000E+00 -0.00000000000E+00 -0.62727018675E+03  0.62727018675E+03  0.00000000000E+00 0.  1.
         23    2    1    2    0    0 -0.10731214123E+02 -0.88545652991E+02 -0.21187041950E+03  0.24675742834E+03  0.89692040686E+02 0.  0.
         23    2    1    2    0    0  0.11505047848E+03  0.10037489804E+03 -0.15149945905E+03  0.23373981137E+03  0.91490330489E+02 0.  0.
        -11    1    3    3    0    0 -0.33038039995E+02  0.18050367119E-01 -0.77917646151E+02  0.84632570528E+02  0.00000000000E+00 0.  1.
         11    1    3    3    0    0  0.22306825873E+02 -0.88563703359E+02 -0.13395277335E+03  0.16212485781E+03  0.00000000000E+00 0. -1.
        -13    1    4    4    0    0  0.99686768151E+01  0.40771150899E+02 -0.87453547734E+02  0.97004042567E+02  0.00000000000E+00 0.  1.
         13    1    4    4    0    0  0.10508180166E+03  0.59603747142E+02 -0.64045911312E+02  0.13673576880E+03  0.00000000000E+00 0. -1.
         21    1    1    2  503  501 -0.11694071455E+02 -0.17922577024E+02 -0.41642467375E+02  0.46819495549E+02  0.00000000000E+00 0.  1.
         -1    1    1    2    0  502 -0.92625192901E+02  0.60933319740E+01 -0.14773467615E+03  0.17447661617E+03  0.00000000000E+00 0.  1.
<scales pt_clust_5="13000.00000" pt_clust_6="13000.00000" pt_clust_7="13000.00000" pt_clust_8="13000.00000" pt_clust_9="21.40024" pt_clust_10="95.86334"></scales>
<clustering>
<clus scale="   21.400">  2  9  1 -1</clus>
<clus scale="   89.692">  5  6 -1 -1</clus>
<clus scale="   91.490">  7  8 -1 -1</clus>
<clus scale="   95.863">  1 10  2 -1</clus>
<clus scale="  139.324">  2  5  1 -1</clus>
<clus scale="   95.863">  1  5  2 -1</clus>
</clustering>
</event>
<event>
10    2  0.1671105E-006  0.2580267E+03  0.7546771E-02  0.1108422E+00
         21   -1    0    0  501  502  0.00000000000E+00  0.00000000000E+00  0.16669408661E+03  0.16669408661E+03  0.00000000000E+00 0.  1.
         -2   -1    0    0    0  501 -0.00000000000E+00 -0.00000000000E+00 -0.79335578835E+03  0.79335578835E+03  0.00000000000E+00 0.  1.
         23    2    1    2    0    0 -0.22377165966E+03 -0.94463904829E+01 -0.36161796199E+03  0.43539389386E+03  0.92937088483E+02 0.  0.
         23    2    1    2    0    0  0.28262865253E+03 -0.10018183700E+03 -0.15171135114E+03  0.34824035835E+03  0.91321724805E+02 0.  0.
        -11    1    4    4    0    0  0.40996598565E+02 -0.23891269840E+02 -0.64892527025E+02  0.80390011396E+02  0.00000000000E+00 0. -1.
         11    1    4    4    0    0  0.24163205397E+03 -0.76290567159E+02 -0.86818824112E+02  0.26785034695E+03  0.00000000000E+00 0.  1.
        -13    1    3    3    0    0 -0.14282486083E+03  0.39101187510E+02 -0.22345258989E+03  0.26806511087E+03  0.00000000000E+00 0.  1.
         13    1    3    3    0    0 -0.80946798822E+02 -0.48547577993E+02 -0.13816537210E+03  0.16732878299E+03  0.00000000000E+00 0. -1.
         21    1    1    2  503  502 -0.29921809486E+01  0.52057226348E+02 -0.27571632247E+02  0.58983920407E+02  0.00000000000E+00 0.  1.
         -2    1    1    2    0  503 -0.55864811930E+02  0.57571001134E+02 -0.85760756363E+02  0.11743170234E+03  0.00000000000E+00 0.  1.
<scales pt_clust_5="13000.00000" pt_clust_6="13000.00000" pt_clust_7="13000.00000" pt_clust_8="13000.00000" pt_clust_9="42.62903" pt_clust_10="135.19705"></scales>
<clustering>
<clus scale="   42.629">  9 10 -1 -1</clus>
<clus scale="   91.322">  5  6 -1 -1</clus>
<clus scale="   92.937">  7  8 -1 -1</clus>
<clus scale="  135.197">  1  9  2 -1</clus>
<clus scale="  257.449">  1  5  2 -1</clus>
<clus scale="  135.197">  1  5  2 -1</clus>
</clustering>
</event>
<event>
10    2  0.1671105E-006  0.2670589E+03  0.7546771E-02  0.1103074E+00
         -1   -1    0    0    0  501 -0.00000000000E+00  0.00000000000E+00  0.91192634967E+03  0.91192634967E+03  0.00000000000E+00 0.  1.
         21   -1    0    0  503  502  0.00000000000E+00 -0.00000000000E+00 -0.41354851941E+03  0.41354851941E+03  0.00000000000E+00 0.  1.
         23    2    1    2    0    0 -0.17891355297E+03 -0.17335407930E+03  0.68233844913E+03  0.73189824303E+03  0.89596778702E+02 0.  0.
         23    2    1    2    0    0  0.21187740271E+03  0.15118606723E+03  0.85643511297E+02  0.28892333705E+03  0.91611260028E+02 0.  0.
        -11    1    4    4    0    0  0.10013219499E+03  0.11749071472E+03  0.21843894973E+02  0.15590920520E+03  0.00000000000E+00 0.  1.
         11    1    4    4    0    0  0.11174520772E+03  0.33695352504E+02  0.63799616324E+02  0.13301413185E+03  0.00000000000E+00 0. -1.
        -13    1    3    3    0    0 -0.61447415285E+02 -0.11912121388E+03  0.38372072700E+03  0.40645694085E+03  0.00000000000E+00 0.  1.
         13    1    3    3    0    0 -0.11746613768E+03 -0.54232865411E+02  0.29861772213E+03  0.32544130218E+03  0.00000000000E+00 0. -1.
         21    1    1    2  503  501 -0.36238305483E+02 -0.32390615896E+02 -0.26255936691E+02  0.55242565056E+02  0.00000000000E+00 0.  1.
         -1    1    1    2    0  502  0.32744557381E+01  0.54558627966E+02 -0.24334819347E+03  0.24941072393E+03  0.00000000000E+00 0.  1.
<scales pt_clust_5="13000.00000" pt_clust_6="13000.00000" pt_clust_7="13000.00000" pt_clust_8="13000.00000" pt_clust_9="48.60418" pt_clust_10="39.07062"></scales>
<clustering>
<clus scale="   48.604">  2  9  1 -1</clus>
<clus scale="   39.071">  2 10  1 -1</clus>
<clus scale="   89.597">  7  8 -1 -1</clus>
<clus scale="   91.611">  5  6 -1 -1</clus>
<clus scale="  266.375">  1  7  2 -1</clus>
<clus scale="   48.604">  2  5  1 -1</clus>
</clustering>
</event>
<event>
10    2  0.1671105E-006  0.1114965E+03  0.7546771E-02  0.1258604E+00
         21   -1    0    0  503  502  0.00000000000E+00  0.00000000000E+00  0.66968568820E+03  0.66968568820E+03  0.00000000000E+00 0.  1.
         -2   -1    0    0    0  501 -0.00000000000E+00 -0.00000000000E+00 -0.45823499668E+02  0.45823499668E+02  0.00000000000E+00 0.  1.
         23    2    1    2    0    0  0.26955401482E+02 -0.83479783478E+02  0.12076529990E+03  0.17554577677E+03  0.92393691147E+02 0.  0.
         23    2    1    2    0    0 -0.21749846973E+02  0.29167110925E+02  0.14582412180E+03  0.17535209202E+03  0.90332195105E+02 0.  0.
        -13    1    3    3    0    0 -0.10024801805E+02 -0.19871445580E+02  0.95024350339E+02  0.97596097043E+02  0.00000000000E+00 0. -1.
         13    1    3    3    0    0  0.36980203287E+02 -0.63608337898E+02  0.25740949559E+02  0.77949679727E+02  0.00000000000E+00 0.  1.
        -13    1    4    4    0    0 -0.59429739119E+00 -0.29438111214E+02  0.77394569068E+02  0.82806249175E+02  0.00000000000E+00 0.  1.
         13    1    4    4    0    0 -0.21155549582E+02  0.58605222138E+02  0.68429552733E+02  0.92545842841E+02  0.00000000000E+00 0. -1.
         21    1    1    2  503  501  0.18164296700E+02  0.10417736936E+02  0.15011808401E+03  0.15157146850E+03  0.00000000000E+00 0.  1.
         -2    1    1    2    0  502 -0.23369851209E+02  0.43894935618E+02  0.20715468282E+03  0.21303985058E+03  0.00000000000E+00 0.  1.
<scales pt_clust_5="13000.00000" pt_clust_6="13000.00000" pt_clust_7="13000.00000" pt_clust_8="13000.00000" pt_clust_9="20.93970" pt_clust_10="50.70865"></scales>
<clustering>
<clus scale="   20.940">  1  9  2 -1</clus>
<clus scale="   50.709">  1 10  2 -1</clus>
<clus scale="   90.332">  7  8 -1 -1</clus>
<clus scale="   92.394">  5  6 -1 -1</clus>
<clus scale="  109.794">  1  7  2 -1</clus>
<clus scale="   20.940">  1  5  2 -1</clus>
</clustering>
</event>
<event>
10    2  0.1671105E-006  0.1313562E+03  0.7546771E-02  0.1233859E+00
         21   -1    0    0  503  502  0.00000000000E+00  0.00000000000E+00  0.10772670787E+03  0.10772670787E+03  0.00000000000E+00 0.  1.
          2   -1    0    0  502    0 -0.00000000000E+00 -0.00000000000E+00 -0.31099721091E+03  0.31099721091E+03  0.00000000000E+00 0. -1.
         23    2    1    2    0    0  0.28312280444E+02 -0.36535423060E+02 -0.93610852804E+02  0.16496649183E+03  0.12772834181E+03 0.  0.
         23    2    1    2    0    0 -0.27279747535E+02 -0.67409683362E+02 -0.49051652429E+02  0.12779420297E+03  0.92935696420E+02 0.  0.
        -11    1    4    4    0    0 -0.18205608310E+02 -0.90090828375E+02 -0.47126652689E+02  0.10328951024E+03  0.00000000000E+00 0.  1.
         11    1    4    4    0    0 -0.90741392254E+01  0.22681145013E+02 -0.19249997404E+01  0.24504692730E+02  0.00000000000E+00 0. -1.
        -13    1    3    3    0    0  0.58771233293E+02 -0.61982875439E+02 -0.31064446959E+02  0.90889683548E+02  0.00000000000E+00 0.  1.
         13    1    3    3    0    0 -0.30458952850E+02  0.25447452379E+02 -0.62546405845E+02  0.74076808283E+02  0.00000000000E+00 0. -1.
         21    1    1    2  503  501 -0.45507676512E+01  0.26547357345E+02  0.10356624036E+01  0.26954485059E+02  0.00000000000E+00 0.  1.
          2    1    1    2  501    0  0.35182347425E+01  0.77397749078E+02 -0.61643660218E+02  0.99008738923E+02  0.00000000000E+00 0. -1.
<scales pt_clust_5="13000.00000" pt_clust_6="13000.00000" pt_clust_7="13000.00000" pt_clust_8="13000.00000" pt_clust_9="21.96458" pt_clust_10="110.42375"></scales>
<clustering>
<clus scale="   21.965">  9 10 -1 -1</clus>
<clus scale="   92.936">  5  6 -1 -1</clus>
<clus scale="  110.424">  1  9  2 -1</clus>
<clus scale="  110.424">  1  5  2 -1</clus>
<clus scale="  127.728">  7  8 -1 -1</clus>
<clus scale="  110.424">  1  5  2 -1</clus>
</clustering>
</event>
<event>
10    2  0.1671105E-006  0.2470124E+03  0.7546771E-02  0.1143571E+00
         21   -1    0    0  501  502  0.00000000000E+00  0.00000000000E+00  0.33314934417E+03  0.33314934417E+03  0.00000000000E+00 0.  1.
         -3   -1    0    0    0  501 -0.00000000000E+00 -0.00000000000E+00 -0.96384791453E+03  0.96384791453E+03  0.00000000000E+00 0.  1.
         23    2    1    2    0    0 -0.82466161526E+02  0.95298332409E-01 -0.10331683640E+03  0.16061417682E+03  0.91224274356E+02 0.  0.
         23    2    1    2    0    0  0.30752526502E+03  0.61386772739E-01 -0.75037518787E+03  0.81596651329E+03  0.90369440907E+02 0.  0.
        -11    1    3    3    0    0 -0.96521516740E+02 -0.17693835051E+02 -0.94662455180E+02  0.13634682033E+03  0.00000000000E+00 0.  1.
         11    1    3    3    0    0  0.14055355213E+02  0.17789133383E+02 -0.86543812235E+01  0.24267356491E+02  0.00000000000E+00 0. -1.
        -13    1    4    4    0    0  0.45563159245E+02  0.31708134595E+02 -0.10592449117E+03  0.11958848235E+03  0.00000000000E+00 0. -1.
         13    1    4    4    0    0  0.26196210577E+03 -0.31646747822E+02 -0.64445069669E+03  0.69637803094E+03  0.00000000000E+00 0.  1.
         21    1    1    2  503  502 -0.45823080806E+02 -0.19351946886E+02  0.51872633368E+02  0.71868092192E+02  0.00000000000E+00 0.  1.
         -3    1    1    2    0  503 -0.17923602268E+03  0.19195261780E+02  0.17112082054E+03  0.24854847641E+03  0.00000000000E+00 0.  1.
<scales pt_clust_5="13000.00000" pt_clust_6="13000.00000" pt_clust_7="13000.00000" pt_clust_8="13000.00000" pt_clust_9="25.13275" pt_clust_10="234.81392"></scales>
<clustering>
<clus scale="   25.133">  9 10 -1 -1</clus>
<clus scale="   90.369">  7  8 -1 -1</clus>
<clus scale="   91.224">  5  6 -1 -1</clus>
<clus scale="  122.974">  2  5  1 -1</clus>
<clus scale="  234.814">  1  9  2 -1</clus>
<clus scale="  234.814">  1  5  2 -1</clus>
</clustering>
</event>
<event>
10    2  0.1671105E-006  0.1283076E+03  0.7546771E-02  0.1234165E+00
         21   -1    0    0  501  502  0.00000000000E+00  0.00000000000E+00  0.36759509754E+03  0.36759509754E+03  0.00000000000E+00 0.  1.
          2   -1    0    0  503    0 -0.00000000000E+00 -0.00000000000E+00 -0.10611312557E+03  0.10611312557E+03  0.00000000000E+00 0. -1.
         23    2    1    2    0    0 -0.66030361246E+02 -0.18807643229E+02  0.27478446481E+02  0.10685342153E+03  0.77128805387E+02 0.  0.
         23    2    1    2    0    0  0.10951069993E+03  0.36192406294E+02  0.24372526736E+02  0.14981674827E+03  0.92458392421E+02 0.  0.
        -11    1    3    3    0    0 -0.57875293034E+02 -0.42651532749E+02  0.33607456491E+01  0.71972198806E+02  0.00000000000E+00 0.  1.
         11    1    3    3    0    0 -0.81550682127E+01  0.23843889520E+02  0.24117700832E+02  0.34881222719E+02  0.00000000000E+00 0. -1.
        -13    1    4    4    0    0  0.19373852150E+02  0.50782280249E+01  0.47626491079E+02  0.51666403006E+02  0.00000000000E+00 0.  1.
         13    1    4    4    0    0  0.90136847780E+02  0.31114178269E+02 -0.23253964343E+02  0.98150345260E+02  0.00000000000E+00 0. -1.
         21    1    1    2  503  502 -0.24421899435E+02 -0.23984809049E+02  0.15668921018E+03  0.16038456542E+03  0.00000000000E+00 0.  1.
          2    1    1    2  501    0 -0.19058439249E+02  0.66000459836E+01  0.52941788569E+02  0.56653487893E+02  0.00000000000E+00 0. -1.
<scales pt_clust_5="13000.00000" pt_clust_6="13000.00000" pt_clust_7="13000.00000" pt_clust_8="13000.00000" pt_clust_9="39.84391" pt_clust_10="20.16890"></scales>
<clustering>
<clus scale="   20.169">  1 10  2 -1</clus>
<clus scale="   39.844">  1  9  2 -1</clus>
<clus scale="   77.129">  5  6 -1 -1</clus>
<clus scale="   92.458">  7  8 -1 -1</clus>
<clus scale="  117.742">  2  5  1 -1</clus>
<clus scale="   20.169">  1  5  2 -1</clus>
</clustering>
</event>
<event>
10    2  0.1671105E-006  0.1081368E+03  0.7546771E-02  0.1265170E+00
         21   -1    0    0  501  502  0.00000000000E+00  0.00000000000E+00  0.38596062884E+02  0.38596062884E+02  0.00000000000E+00 0.  1.
          2   -1    0    0  503    0 -0.00000000000E+00 -0.00000000000E+00 -0.65881854468E+03  0.65881854468E+03  0.00000000000E+00 0. -1.
         23    2    1    2    0    0 -0.45215183005E+02  0.19346866230E+02 -0.30401746916E+03  0.32194551040E+03  0.93827373956E+02 0.  0.
         23    2    1    2    0    0  0.59133707998E+02 -0.95367330530E+01 -0.27783956955E+03  0.29848017583E+03  0.91147376561E+02 0.  0.
        -13    1    4    4    0    0  0.32898960696E+02  0.39130824335E+02 -0.16645203529E+03  0.17412594029E+03  0.00000000000E+00 0.  1.
         13    1    4    4    0    0  0.26234747302E+02 -0.48667557388E+02 -0.11138753426E+03  0.12435423554E+03  0.00000000000E+00 0. -1.
        -13    1    3    3    0    0 -0.71989792785E+02  0.19188671885E+02 -0.17534311719E+03  0.19051494466E+03  0.00000000000E+00 0.  1.
         13    1    3    3    0    0  0.26774609781E+02  0.15819434487E+00 -0.12867435197E+03  0.13143056574E+03  0.00000000000E+00 0. -1.
         21    1    1    2  503  502 -0.35219580285E+02 -0.15808328154E+02 -0.38965933882E+02  0.54851308807E+02  0.00000000000E+00 0.  1.
          2    1    1    2  501    0  0.21301055292E+02  0.59981949770E+01  0.60049079672E+00  0.22137612535E+02  0.00000000000E+00 0. -1.
<scales pt_clust_5="13000.00000" pt_clust_6="13000.00000" pt_clust_7="13000.00000" pt_clust_8="13000.00000" pt_clust_9="32.23303" pt_clust_10="22.12947"></scales>
<clustering>
<clus scale="   22.129">  1 10  2 -1</clus>
<clus scale="   32.233">  1  9  2 -1</clus>
<clus scale="   91.147">  5  6 -1 -1</clus>
<clus scale="   93.827">  7  8 -1 -1</clus>
<clus scale="  105.820">  1  5  2 -1</clus>
<clus scale="   22.129">  1  5  2 -1</clus>
</clustering>
</event>
<event>
10    2  0.1671105E-006  0.9856525E+02  0.7546771E-02  0.1283644E+00
         21   -1    0    0  503  502  0.00000000000E+00  0.00000000000E+00  0.63939607531E+02  0.63939607531E+02  0.00000000000E+00 0. -1.
          1   -1    0    0  502    0 -0.00000000000E+00 -0.00000000000E+00 -0.52276920833E+03  0.52276920833E+03  0.00000000000E+00 0. -1.
         23    2    1    2    0    0 -0.27364738693E+02  0.16503545167E+02 -0.22034268724E+03  0.24101339480E+03  0.92278712205E+02 0.  0.
         23    2    1    2    0    0  0.36747581983E+02  0.35495681093E+02 -0.24130924994E+03  0.26356440404E+03  0.92874715669E+02 0.  0.
        -13    1    3    3    0    0 -0.41375887697E+02 -0.22414082231E+01 -0.21224094259E+03  0.21624801896E+03  0.00000000000E+00 0. -1.
         13    1    3    3    0    0  0.14011149003E+02  0.18744953391E+02 -0.81017446491E+01  0.24765375837E+02  0.00000000000E+00 0.  1.
        -13    1    4    4    0    0  0.64251440589E+02  0.44570860694E+01 -0.15293081621E+03  0.16593959076E+03  0.00000000000E+00 0. -1.
         13    1    4    4    0    0 -0.27503858606E+02  0.31038595024E+02 -0.88378433736E+02  0.97624813285E+02  0.00000000000E+00 0.  1.
         21    1    1    2  503  501  0.21420151051E+02  0.12842959601E+00 -0.11583873213E+01  0.21451835036E+02  0.00000000000E+00 0. -1.
          1    1    1    2  501    0 -0.30802994340E+02 -0.52127655857E+02  0.39807237047E+01  0.60679181988E+02  0.00000000000E+00 0. -1.
<scales pt_clust_5="13000.00000" pt_clust_6="13000.00000" pt_clust_7="13000.00000" pt_clust_8="13000.00000" pt_clust_9="21.42054" pt_clust_10="55.05190"></scales>
<clustering>
<clus scale="   21.421">  1  9  2 -1</clus>
<clus scale="   55.052">  1 10  2 -1</clus>
<clus scale="   92.279">  5  6 -1 -1</clus>
<clus scale="   92.875">  7  8 -1 -1</clus>
<clus scale="   98.004">  2  5  1 -1</clus>
<clus scale="   21.421">  1  5  2 -1</clus>
</clustering>
</event>
<event>
10    2  0.1671105E-006  0.9797438E+02  0.7546771E-02  0.1284798E+00
          1   -1    0    0  502    0 -0.00000000000E+00  0.00000000000E+00  0.32252036991E+03  0.32252036991E+03  0.00000000000E+00 0. -1.
         21   -1    0    0  503  502  0.00000000000E+00 -0.00000000000E+00 -0.62395116860E+03  0.62395116860E+03  0.00000000000E+00 0. -1.
         23    2    1    2    0    0 -0.39841828168E+02 -0.46439651289E+00  0.27799588345E+03  0.29549805819E+03  0.91922816766E+02 0.  0.
         23    2    1    2    0    0 -0.39164946710E+02  0.13522487958E+02 -0.62077127003E+02  0.11868622378E+03  0.92282713907E+02 0.  0.
        -11    1    4    4    0    0 -0.16029225559E+02 -0.39346155251E+02 -0.34485222686E+02  0.54720074825E+02  0.00000000000E+00 0.  1.
         11    1    4    4    0    0 -0.23135721151E+02  0.52868643209E+02 -0.27591904316E+02  0.63966148951E+02  0.00000000000E+00 0. -1.
        -13    1    3    3    0    0 -0.68862392789E+02  0.58307906884E+01  0.21541287240E+03  0.22622717090E+03  0.00000000000E+00 0. -1.
         13    1    3    3    0    0  0.29020564621E+02 -0.62951872013E+01  0.62583011055E+02  0.69270887287E+02  0.00000000000E+00 0.  1.
         21    1    1    2  503  501  0.83829587794E+01 -0.44358685023E+02 -0.13952696929E+03  0.14664836206E+03  0.00000000000E+00 0.  1.
          1    1    1    2  501    0  0.70623816099E+02  0.31300593579E+02 -0.37782258586E+03  0.38563889449E+03  0.00000000000E+00 0. -1.
<scales pt_clust_5="13000.00000" pt_clust_6="13000.00000" pt_clust_7="13000.00000" pt_clust_8="13000.00000" pt_clust_9="45.14385" pt_clust_10="77.37760"></scales>
<clustering>
<clus scale="   45.144">  2  9  1 -1</clus>
<clus scale="   77.378">  2 10  1 -1</clus>
<clus scale="   91.923">  7  8 -1 -1</clus>
<clus scale="   92.283">  5  6 -1 -1</clus>
<clus scale="   97.635">  1  7  2 -1</clus>
<clus scale="   45.144">  2  5  1 -1</clus>
</clustering>
</event>
<event>
10    2  0.1671105E-006  0.1394274E+03  0.7546771E-02  0.1231989E+00
         21   -1    0    0  501  502  0.00000000000E+00  0.00000000000E+00  0.68558988634E+03  0.68558988634E+03  0.00000000000E+00 0.  1.
         -3   -1    0    0    0  501 -0.00000000000E+00 -0.00000000000E+00 -0.87146796803E+02  0.87146796803E+02  0.00000000000E+00 0.  1.
         23    2    1    2    0    0  0.12969896731E+02  0.39459766554E+02  0.25444140717E+02  0.99269387860E+02  0.86496911341E+02 0.  0.
         23    2    1    2    0    0  0.91733492569E+02 -0.66611436817E+02  0.72727264835E+02  0.16101391570E+03  0.88227596729E+02 0.  0.
        -11    1    4    4    0    0  0.84575744410E+01 -0.55655215487E+02  0.46515254443E+02  0.73025354996E+02  0.00000000000E+00 0. -1.
         11    1    4    4    0    0  0.83275918128E+02 -0.10956221330E+02  0.26212010392E+02  0.87988560703E+02  0.00000000000E+00 0.  1.
        -13    1    3    3    0    0  0.22557184007E+02 -0.23308394057E+02  0.95829366135E+01  0.33822188841E+02  0.00000000000E+00 0.  1.
         13    1    3    3    0    0 -0.95872872758E+01  0.62768160611E+02  0.15861204103E+02  0.65447199019E+02  0.00000000000E+00 0. -1.
         21    1    1    2  503  502 -0.39339791267E+02  0.22176090384E+02  0.18414233376E+03  0.18959904336E+03  0.00000000000E+00 0. -1.
         -3    1    1    2    0  503 -0.65363598033E+02  0.49755798791E+01  0.31612935023E+03  0.32285433623E+03  0.00000000000E+00 0.  1.
<scales pt_clust_5="13000.00000" pt_clust_6="13000.00000" pt_clust_7="13000.00000" pt_clust_8="13000.00000" pt_clust_9="20.94335" pt_clust_10="110.87188"></scales>
<clustering>
<clus scale="   20.943">  9 10 -1 -1</clus>
<clus scale="   86.497">  7  8 -1 -1</clus>
<clus scale="   88.228">  5  6 -1 -1</clus>
<clus scale="   95.953">  2  7  1 -1</clus>
<clus scale="  110.872">  1  9  2 -1</clus>
<clus scale="  110.872">  1  5  2 -1</clus>
</clustering>
</event>
<event>
10    2  0.1671105E-006  0.2072935E+03  0.7546771E-02  0.1143925E+00
         21   -1    0    0  503  502  0.00000000000E+00  0.00000000000E+00  0.68464347800E+03  0.68464347800E+03  0.00000000000E+00 0. -1.
          1   -1    0    0  502    0 -0.00000000000E+00 -0.00000000000E+00 -0.10055858830E+04  0.10055858830E+04  0.00000000000E+00 0. -1.
         23    2    1    2    0    0  0.10607432590E+03 -0.14459992163E+03 -0.68776429696E+03  0.71689522366E+03  0.93584900405E+02 0.  0.
         23    2    1    2    0    0 -0.53334715401E+02  0.20820442661E+03 -0.23681815303E+03  0.33260919650E+03  0.91391273493E+02 0.  0.
        -11    1    3    3    0    0  0.35622425758E+02 -0.93264659871E+02 -0.22739981786E+03  0.24835042010E+03  0.00000000000E+00 0. -1.
         11    1    3    3    0    0  0.70451900137E+02 -0.51335261763E+02 -0.46036447909E+03  0.46854480356E+03  0.00000000000E+00 0.  1.
        -13    1    4    4    0    0 -0.41970193109E+02  0.35984600520E+02 -0.28878304189E+02  0.62372630512E+02  0.00000000000E+00 0.  1.
         13    1    4    4    0    0 -0.11364522292E+02  0.17221982609E+03 -0.20793984884E+03  0.27023656599E+03  0.00000000000E+00 0. -1.
         21    1    1    2  503  501  0.55291772043E+02 -0.88120608720E+02  0.29539211039E+03  0.31317554281E+03  0.00000000000E+00 0. -1.
          1    1    1    2  501    0 -0.10803138254E+03  0.24516103747E+02  0.30824793460E+03  0.32754939801E+03  0.00000000000E+00 0. -1.
<scales pt_clust_5="13000.00000" pt_clust_6="13000.00000" pt_clust_7="13000.00000" pt_clust_8="13000.00000" pt_clust_9="104.03087" pt_clust_10="78.96682"></scales>
<clustering>
<clus scale="   91.391">  7  8 -1 -1</clus>
<clus scale="   93.585">  5  6 -1 -1</clus>
<clus scale="  104.031">  1  9  2 -1</clus>
<clus scale="   78.967">  1 10  2 -1</clus>
<clus scale="  206.312">  1  7  2 -1</clus>
<clus scale="  104.031">  1  5  2 -1</clus>
</clustering>
</event>
<event>
10    2  0.1671105E-006  0.1625434E+03  0.7546771E-02  0.1210254E+00
          1   -1    0    0  502    0 -0.00000000000E+00  0.00000000000E+00  0.16792616136E+03  0.16792616136E+03  0.00000000000E+00 0. -1.
         21   -1    0    0  503  502  0.00000000000E+00 -0.00000000000E+00 -0.47489550437E+03  0.47489550437E+03  0.00000000000E+00 0.  1.
         23    2    1    2    0    0  0.13758909250E+02  0.12626112993E+02  0.82855054671E+02  0.12643833946E+03  0.93664119539E+02 0.  0.
         23    2    1    2    0    0  0.11393946161E+02 -0.13732665943E+03 -0.32030587941E+03  0.36053233107E+03  0.91647542067E+02 0.  0.
        -13    1    4    4    0    0  0.28881131396E+02 -0.77084350994E+01 -0.99534808904E+02  0.10392650242E+03  0.00000000000E+00 0. -1.
         13    1    4    4    0    0 -0.17487185235E+02 -0.12961822433E+03 -0.22077107050E+03  0.25660582865E+03  0.00000000000E+00 0.  1.
        -13    1    3    3    0    0 -0.44506139598E+01 -0.30108467840E+02 -0.11366987451E+01  0.30456852831E+02  0.00000000000E+00 0.  1.
         13    1    3    3    0    0  0.18209523210E+02  0.42734580834E+02  0.83991753416E+02  0.95981486634E+02  0.00000000000E+00 0. -1.
         21    1    1    2  503  501  0.17863709008E+02  0.25947862088E+02 -0.19862363281E+02  0.37241336195E+02  0.00000000000E+00 0. -1.
          1    1    1    2  501    0 -0.43016564419E+02  0.98752684347E+02 -0.49656154991E+02  0.11860965900E+03  0.00000000000E+00 0. -1.
<scales pt_clust_5="13000.00000" pt_clust_6="13000.00000" pt_clust_7="13000.00000" pt_clust_8="13000.00000" pt_clust_9="30.94291" pt_clust_10="145.92781"></scales>
<clustering>
<clus scale="   30.943">  9 10 -1 -1</clus>
<clus scale="   91.648">  5  6 -1 -1</clus>
<clus scale="   93.664">  7  8 -1 -1</clus>
<clus scale="   95.508">  1  7  2 -1</clus>
<clus scale="  145.928">  2  9  1 -1</clus>
<clus scale="  145.928">  2  5  1 -1</clus>
</clustering>
</event>
<event>
10    2  0.1671105E-006  0.1046440E+03  0.7546771E-02  0.1272694E+00
         21   -1    0    0  503  502  0.00000000000E+00  0.00000000000E+00  0.77358370684E+02  0.77358370684E+02  0.00000000000E+00 0.  1.
          1   -1    0    0  502    0 -0.00000000000E+00 -0.00000000000E+00 -0.46102764774E+03  0.46102764774E+03  0.00000000000E+00 0. -1.
         23    2    1    2    0    0 -0.72990017660E+01  0.37788888127E+02 -0.17671270330E+03  0.20313095925E+03  0.92485304810E+02 0.  0.
         23    2    1    2    0    0 -0.83936339284E+02 -0.39455957894E+02 -0.19836737753E+03  0.23609926935E+03  0.88267586658E+02 0.  0.
        -11    1    3    3    0    0  0.37463844145E+02 -0.31652116926E+01 -0.87578749939E+02  0.95307899064E+02  0.00000000000E+00 0.  1.
         11    1    3    3    0    0 -0.44762845912E+02  0.40954099819E+02 -0.89133953365E+02  0.10782306019E+03  0.00000000000E+00 0. -1.
        -13    1    4    4    0    0 -0.18626617235E+02 -0.57117473397E+02 -0.10142367084E+03  0.11788179522E+03  0.00000000000E+00 0.  1.
         13    1    4    4    0    0 -0.65309722049E+02  0.17661515502E+02 -0.96943706691E+02  0.11821747414E+03  0.00000000000E+00 0. -1.
         21    1    1    2  503  501  0.52198937489E+02  0.18533220270E+02 -0.11349095657E+02  0.56542119705E+02  0.00000000000E+00 0.  1.
          1    1    1    2  501    0  0.39036403561E+02 -0.16866150502E+02  0.27598994347E+01  0.42613670114E+02  0.00000000000E+00 0. -1.
<scales pt_clust_5="13000.00000" pt_clust_6="13000.00000" pt_clust_7="13000.00000" pt_clust_8="13000.00000" pt_clust_9="33.14987" pt_clust_10="98.78308"></scales>
<clustering>
<clus scale="   33.150">  9 10 -1 -1</clus>
<clus scale="   88.268">  7  8 -1 -1</clus>
<clus scale="   92.485">  5  6 -1 -1</clus>
<clus scale="   98.783">  1  9  2 -1</clus>
<clus scale="  100.936">  1  7  2 -1</clus>
<clus scale="   98.783">  1  5  2 -1</clus>
</clustering>
</event>
<event>
10    2  0.1671105E-006  0.1492016E+03  0.7546771E-02  0.1215086E+00
          2   -1    0    0  502    0 -0.00000000000E+00  0.00000000000E+00  0.75378429171E+03  0.75378429171E+03  0.00000000000E+00 0. -1.
         21   -1    0    0  503  502  0.00000000000E+00 -0.00000000000E+00 -0.71009293285E+02  0.71009293285E+02  0.00000000000E+00 0. -1.
         23    2    1    2    0    0 -0.57504529844E+02  0.28221548873E+02  0.86028923068E+02  0.14077723675E+03  0.91181291986E+02 0.  0.
         23    2    1    2    0    0  0.14996337723E+03 -0.79386575954E+02  0.49526693275E+03  0.53134780742E+03  0.90829041735E+02 0.  0.
        -11    1    3    3    0    0 -0.20591449680E+02 -0.22361941687E+02 -0.44704921915E+01  0.30725389116E+02  0.00000000000E+00 0.  1.
         11    1    3    3    0    0 -0.36913080165E+02  0.50583490560E+02  0.90499415259E+02  0.11005184763E+03  0.00000000000E+00 0. -1.
        -11    1    4    4    0    0  0.13735020049E+03 -0.29930771180E+02  0.38438378035E+03  0.40928207784E+03  0.00000000000E+00 0. -1.
         11    1    4    4    0    0  0.12613176731E+02 -0.49455804774E+02  0.11088315240E+03  0.12206572959E+03  0.00000000000E+00 0.  1.
         21    1    1    2  503  501 -0.23205478558E+02  0.30284875354E+01  0.39551747552E+01  0.23734139529E+02  0.00000000000E+00 0. -1.
          2    1    1    2  501    0 -0.69253368824E+02  0.48136539546E+02  0.97523967845E+02  0.12893440129E+03  0.00000000000E+00 0. -1.
<scales pt_clust_5="13000.00000" pt_clust_6="13000.00000" pt_clust_7="13000.00000" pt_clust_8="13000.00000" pt_clust_9="22.61496" pt_clust_10="125.91416"></scales>
<clustering>
<clus scale="   22.615">  9 10 -1 -1</clus>
<clus scale="   90.829">  7  8 -1 -1</clus>
<clus scale="   91.181">  5  6 -1 -1</clus>
<clus scale="  111.433">  1  5  2 -1</clus>
<clus scale="  125.914">  2  9  1 -1</clus>
<clus scale="  125.914">  2  5  1 -1</clus>
</clustering>
</event>
<event>
10    2  0.1671105E-006  0.1639772E+03  0.7546771E-02  0.1208315E+00
         21   -1    0    0  501  502  0.00000000000E+00  0.00000000000E+00  0.77281524047E+02  0.77281524047E+02  0.00000000000E+00 0. -1.
          2   -1    0    0  503    0 -0.00000000000E+00 -0.00000000000E+00 -0.11439184331E+04  0.11439184331E+04  0.00000000000E+00 0. -1.
         23    2    1    2    0    0  0.76380511089E+01 -0.32264791052E+01 -0.30822961777E+03  0.32286754472E+03  0.95755961538E+02 0.  0.
         23    2    1    2    0    0 -0.14212665995E+03  0.69338159029E+02 -0.63190627917E+03  0.65785049898E+03  0.91945448949E+02 0.  0.
        -13    1    3    3    0    0 -0.16255947748E+02  0.41851944178E+02 -0.15462075996E+03  0.16100751684E+03  0.00000000000E+00 0. -1.
         13    1    3    3    0    0  0.23893998857E+02 -0.45078423283E+02 -0.15360885781E+03  0.16186002788E+03  0.00000000000E+00 0.  1.
        -13    1    4    4    0    0 -0.14287914333E+03  0.34307017662E+02 -0.53466087644E+03  0.55448505287E+03  0.00000000000E+00 0. -1.
         13    1    4    4    0    0  0.75248337996E+00  0.35031141368E+02 -0.97245402726E+02  0.10336544610E+03  0.00000000000E+00 0.  1.
         21    1    1    2  503  502  0.38502002641E+02 -0.59628467765E+02 -0.12560484530E+03  0.14427243513E+03  0.00000000000E+00 0. -1.
          2    1    1    2  501    0  0.95986606198E+02 -0.64832121589E+01 -0.89616683937E+00  0.96209478350E+02  0.00000000000E+00 0. -1.
<scales pt_clust_5="13000.00000" pt_clust_6="13000.00000" pt_clust_7="13000.00000" pt_clust_8="13000.00000" pt_clust_9="70.97858" pt_clust_10="135.77389"></scales>
<clustering>
<clus scale="   70.979">  1  9  2 -1</clus>
<clus scale="   91.945">  7  8 -1 -1</clus>
<clus scale="   95.756">  5  6 -1 -1</clus>
<clus scale="   96.960">  2  5  1 -1</clus>
<clus scale="  135.774">  1 10  2 -1</clus>
<clus scale="   70.979">  1  5  2 -1</clus>
</clustering>
</event>
<event>
10    2  0.1671105E-006  0.1542388E+03  0.7546771E-02  0.1195426E+00
         21   -1    0    0  503  502  0.00000000000E+00  0.00000000000E+00  0.37686313279E+03  0.37686313279E+03  0.00000000000E+00 0.  1.
          4   -1    0    0  502    0 -0.00000000000E+00 -0.00000000000E+00 -0.15066343295E+03  0.15066343295E+03  0.00000000000E+00 0. -1.
         23    2    1    2    0    0 -0.10909660066E+03  0.44821047175E+02 -0.23686497701E+02  0.15081943576E+03  0.90964045008E+02 0.  0.
         23    2    1    2    0    0  0.10156905397E+03 -0.10838293841E+03  0.94581129232E+02  0.19802450906E+03  0.90581356344E+02 0.  0.
        -11    1    3    3    0    0 -0.15476109639E+02  0.46084715718E+02 -0.29749623462E+02  0.56994307510E+02  0.00000000000E+00 0. -1.
         11    1    3    3    0    0 -0.93620491023E+02 -0.12636685433E+01  0.60631257609E+01  0.93825128252E+02  0.00000000000E+00 0.  1.
        -13    1    4    4    0    0  0.31895873198E+02 -0.64869962936E+02  0.90434925046E+02  0.11577536217E+03  0.00000000000E+00 0.  1.
         13    1    4    4    0    0  0.69673180775E+02 -0.43512975472E+02  0.41462041863E+01  0.82249146883E+02  0.00000000000E+00 0. -1.
         21    1    1    2  503  501  0.30375035641E+02  0.17876603817E+02  0.82821145856E+02  0.90008654890E+02  0.00000000000E+00 0. -1.
          4    1    1    2  501    0 -0.22847488952E+02  0.45685287417E+02  0.72483922450E+02  0.88673966030E+02  0.00000000000E+00 0. -1.
<scales pt_clust_5="13000.00000" pt_clust_6="13000.00000" pt_clust_7="13000.00000" pt_clust_8="13000.00000" pt_clust_9="35.24508" pt_clust_10="52.65783"></scales>
<clustering>
<clus scale="   35.245">  1  9  2 -1</clus>
<clus scale="   52.658">  1 10  2 -1</clus>
<clus scale="   90.581">  7  8 -1 -1</clus>
<clus scale="   90.964">  5  6 -1 -1</clus>
<clus scale="  154.013">  1  7  2 -1</clus>
<clus scale="   35.245">  1  5  2 -1</clus>
</clustering>
</event>
<event>
10    2  0.1671105E-006  0.1794932E+03  0.7546771E-02  0.1168348E+00
          2   -1    0    0  503    0 -0.00000000000E+00  0.00000000000E+00  0.61230405940E+03  0.61230405940E+03  0.00000000000E+00 0. -1.
         21   -1    0    0  501  502  0.00000000000E+00 -0.00000000000E+00 -0.83210383815E+02  0.83210383815E+02  0.00000000000E+00 0.  1.
         23    2    1    2    0    0  0.68855401060E+02  0.15077253327E+03  0.34513547204E+03  0.39352425090E+03  0.90936345554E+02 0.  0.
         23    2    1    2    0    0 -0.51293725034E+02 -0.13047478491E+03  0.18324353003E+03  0.24783697638E+03  0.90500054336E+02 0.  0.
        -11    1    4    4    0    0 -0.33279016159E+02 -0.10213895459E+02  0.10080163924E+02  0.36241223513E+02  0.00000000000E+00 0. -1.
         11    1    4    4    0    0 -0.18014708875E+02 -0.12026088946E+03  0.17316336611E+03  0.21159575287E+03  0.00000000000E+00 0.  1.
        -13    1    3    3    0    0  0.27929413569E+01  0.95390019846E+02  0.23517874637E+03  0.25380326860E+03  0.00000000000E+00 0. -1.
         13    1    3    3    0    0  0.66062459703E+02  0.55382513422E+02  0.10995672567E+03  0.13972098230E+03  0.00000000000E+00 0.  1.
         21    1    1    2  503  502 -0.27249477519E+01 -0.33877687206E+02 -0.65455799317E+00  0.33993403432E+02  0.00000000000E+00 0.  1.
          2    1    1    2  501    0 -0.14836728274E+02  0.13579938852E+02  0.13692314977E+01  0.20159812499E+02  0.00000000000E+00 0. -1.
<scales pt_clust_5="13000.00000" pt_clust_6="13000.00000" pt_clust_7="13000.00000" pt_clust_8="13000.00000" pt_clust_9="31.31194" pt_clust_10="20.11326"></scales>
<clustering>
<clus scale="   20.113">  2 10  1 -1</clus>
<clus scale="   31.312">  2  9  1 -1</clus>
<clus scale="   90.500">  5  6 -1 -1</clus>
<clus scale="   90.936">  7  8 -1 -1</clus>
<clus scale="  179.273">  2  5  1 -1</clus>
<clus scale="   20.113">  2  5  1 -1</clus>
</clustering>
</event>
<event>
10    2  0.1671105E-006  0.1041034E+03  0.7546771E-02  0.1274627E+00
          1   -1    0    0  502    0 -0.00000000000E+00  0.00000000000E+00  0.42139839480E+03  0.42139839480E+03  0.00000000000E+00 0. -1.
         21   -1    0    0  503  502  0.00000000000E+00 -0.00000000000E+00 -0.60209740724E+02  0.60209740724E+02  0.00000000000E+00 0. -1.
         23    2    1    2    0    0  0.39581790653E+02  0.20317492873E+02  0.23213922467E+03  0.25580214568E+03  0.97808994661E+02 0.  0.
         23    2    1    2    0    0  0.20465086843E+02 -0.49190143394E+02  0.10591932547E+03  0.15014332704E+03  0.92117453074E+02 0.  0.
        -11    1    4    4    0    0  0.54526005380E+02 -0.47427388624E+02  0.69978010207E+02  0.10059505140E+03  0.00000000000E+00 0. -1.
         11    1    4    4    0    0 -0.34060918537E+02 -0.17627547698E+01  0.35941315264E+02  0.49548275640E+02  0.00000000000E+00 0.  1.
        -13    1    3    3    0    0  0.22811032832E+02 -0.38926652443E+02  0.11345570576E+03  0.12209760300E+03  0.00000000000E+00 0. -1.
         13    1    3    3    0    0  0.16770757821E+02  0.59244145316E+02  0.11868351891E+03  0.13370454268E+03  0.00000000000E+00 0.  1.
         21    1    1    2  503  501 -0.14780605410E+02  0.21224240867E+02  0.52227646926E+01  0.26385828918E+02  0.00000000000E+00 0. -1.
          1    1    1    2  501    0 -0.45266272087E+02  0.76484096541E+01  0.17907339244E+02  0.49276833885E+02  0.00000000000E+00 0. -1.
<scales pt_clust_5="13000.00000" pt_clust_6="13000.00000" pt_clust_7="13000.00000" pt_clust_8="13000.00000" pt_clust_9="20.56367" pt_clust_10="72.04052"></scales>
<clustering>
<clus scale="   20.564">  9 10 -1 -1</clus>
<clus scale="   72.041">  2  9  1 -1</clus>
<clus scale="   92.117">  5  6 -1 -1</clus>
<clus scale="   97.809">  7  8 -1 -1</clus>
<clus scale="   98.775">  2  5  1 -1</clus>
<clus scale="   72.041">  2  5  1 -1</clus>
</clustering>
</event>
<event>
10    2  0.1671105E-006  0.1252945E+03  0.7546771E-02  0.1243097E+00
          2   -1    0    0  502    0 -0.00000000000E+00  0.00000000000E+00  0.54441450521E+03  0.54441450521E+03  0.00000000000E+00 0. -1.
         21   -1    0    0  503  502  0.00000000000E+00 -0.00000000000E+00 -0.11107423875E+03  0.11107423875E+03  0.00000000000E+00 0. -1.
         23    2    1    2    0    0 -0.56221030969E+02  0.27872647151E+02  0.41539916120E+03  0.42856752131E+03  0.84711087902E+02 0.  0.
         23    2    1    2    0    0  0.33605536178E+02  0.67143851836E+02  0.12978142785E+02  0.12125724050E+03  0.94325273823E+02 0.  0.
        -11    1    4    4    0    0  0.49291480458E+02  0.83915468594E+02  0.13706705450E+02  0.98281888918E+02  0.00000000000E+00 0. -1.
         11    1    4    4    0    0 -0.15685944280E+02 -0.16771616758E+02 -0.72856266519E+00  0.22975351579E+02  0.00000000000E+00 0.  1.
        -13    1    3    3    0    0 -0.51764876428E+02 -0.20483540154E+02  0.18951516755E+03  0.19752259765E+03  0.00000000000E+00 0. -1.
         13    1    3    3    0    0 -0.44561545409E+01  0.48356187306E+02  0.22588399364E+03  0.23104492366E+03  0.00000000000E+00 0.  1.
         21    1    1    2  503  501  0.10832680380E+02 -0.29390478051E+02 -0.16777713630E+02  0.35533629689E+02  0.00000000000E+00 0.  1.
          2    1    1    2  501    0  0.11782814411E+02 -0.65626020936E+02  0.21740676103E+02  0.70130352465E+02  0.00000000000E+00 0. -1.
<scales pt_clust_5="13000.00000" pt_clust_6="13000.00000" pt_clust_7="13000.00000" pt_clust_8="13000.00000" pt_clust_9="27.42199" pt_clust_10="91.66299"></scales>
<clustering>
<clus scale="   27.422">  9 10 -1 -1</clus>
<clus scale="   84.711">  7  8 -1 -1</clus>
<clus scale="   94.325">  5  6 -1 -1</clus>
<clus scale="  105.421">  1  7  2 -1</clus>
<clus scale="   91.663">  2  9  1 -1</clus>
<clus scale="   91.663">  2  5  1 -1</clus>
</clustering>
</event>
<event>
10    2  0.1671105E-006  0.4166311E+03  0.7546771E-02  0.1038825E+00
         21   -1    0    0  503  502  0.00000000000E+00  0.00000000000E+00  0.45559419751E+03  0.45559419751E+03  0.00000000000E+00 0. -1.
          2   -1    0    0  502    0 -0.00000000000E+00 -0.00000000000E+00 -0.13907843863E+04  0.13907843863E+04  0.00000000000E+00 0. -1.
         23    2    1    2    0    0  0.26172994867E+03  0.24102672308E+03 -0.57610650978E+03  0.68320679886E+03  0.90974568533E+02 0.  0.
         23    2    1    2    0    0 -0.56297913944E+03 -0.36992392210E+03 -0.11235733461E+02  0.68462675155E+03  0.12164837705E+03 0.  0.
        -11    1    4    4    0    0 -0.55057244404E+03 -0.32823889168E+03 -0.84949889476E+01  0.64104832188E+03  0.00000000000E+00 0. -1.
         11    1    4    4    0    0 -0.12406695403E+02 -0.41685030418E+02 -0.27407445138E+01  0.43578429667E+02  0.00000000000E+00 0.  1.
        -11    1    3    3    0    0  0.10678911764E+03  0.92918638059E+02 -0.15011810116E+03  0.20633282153E+03  0.00000000000E+00 0.  1.
         11    1    3    3    0    0  0.15494083103E+03  0.14810808502E+03 -0.42598840862E+03  0.47687397733E+03  0.00000000000E+00 0. -1.
         21    1    1    2  503  501  0.15485190051E+03  0.63494873075E+02 -0.19569199003E+03  0.25749964070E+03  0.00000000000E+00 0. -1.
          2    1    1    2  501    0  0.14639729026E+03  0.65402325949E+02 -0.15215595547E+03  0.22104539267E+03  0.00000000000E+00 0. -1.
<scales pt_clust_5="13000.00000" pt_clust_6="13000.00000" pt_clust_7="13000.00000" pt_clust_8="13000.00000" pt_clust_9="24.79264" pt_clust_10="328.64459"></scales>
<clustering>
<clus scale="   24.793">  9 10 -1 -1</clus>
<clus scale="   90.975">  7  8 -1 -1</clus>
<clus scale="  121.648">  5  6 -1 -1</clus>
<clus scale="  328.645">  1  9  2 -1</clus>
<clus scale="  408.729">  2  7  1 -1</clus>
<clus scale="  328.645">  1  5  2 -1</clus>
</clustering>
</event>
<event>
10    2  0.1671105E-006  0.1954974E+03  0.7546771E-02  0.1153781E+00
          3   -1    0    0  502    0 -0.00000000000E+00  0.00000000000E+00  0.45102189690E+03  0.45102189690E+03  0.00000000000E+00 0. -1.
         21   -1    0    0  503  502  0.00000000000E+00 -0.00000000000E+00 -0.13923010288E+03  0.13923010288E+03  0.00000000000E+00 0. -1.
         23    2    1    2    0    0 -0.11234954427E+03  0.11630323863E+03  0.13206691052E+03  0.22870496185E+03  0.93356452939E+02 0.  0.
         23    2    1    2    0    0  0.18341858253E+03 -0.70464295349E+02  0.97378993669E+02  0.23763701593E+03  0.91548291059E+02 0.  0.
        -13    1    4    4    0    0  0.11733922753E+03 -0.89653017857E+02  0.60650148694E+02  0.15963896287E+03  0.00000000000E+00 0. -1.
         13    1    4    4    0    0  0.66079354996E+02  0.19188722508E+02  0.36728844975E+02  0.77998053061E+02  0.00000000000E+00 0.  1.
        -13    1    3    3    0    0 -0.57766604770E+02  0.60257791939E+02  0.12478906871E+03  0.15013425254E+03  0.00000000000E+00 0.  1.
         13    1    3    3    0    0 -0.54582939496E+02  0.56045446692E+02  0.72778418070E+01  0.78570709303E+02  0.00000000000E+00 0. -1.
         21    1    1    2  503  501 -0.96750764569E+01 -0.20971965182E+02  0.82558246113E+01  0.24527312695E+02  0.00000000000E+00 0.  1.
          3    1    1    2  501    0 -0.61393961803E+02 -0.24866978101E+02  0.74090065217E+02  0.99382709309E+02  0.00000000000E+00 0. -1.
<scales pt_clust_5="13000.00000" pt_clust_6="13000.00000" pt_clust_7="13000.00000" pt_clust_8="13000.00000" pt_clust_9="22.25790" pt_clust_10="92.58972"></scales>
<clustering>
<clus scale="   22.258">  9 10 -1 -1</clus>
<clus scale="   91.548">  5  6 -1 -1</clus>
<clus scale="   92.590">  2  9  1 -1</clus>
<clus scale="   93.356">  7  8 -1 -1</clus>
<clus scale="  194.640">  2  5  1 -1</clus>
<clus scale="   92.590">  2  5  1 -1</clus>
</clustering>
</event>
<event>
10    2  0.1671105E-006  0.1134199E+03  0.7546771E-02  0.1256272E+00
         21   -1    0    0  501  502  0.00000000000E+00  0.00000000000E+00  0.19976896256E+03  0.19976896256E+03  0.00000000000E+00 0. -1.
          1   -1    0    0  503    0 -0.00000000000E+00 -0.00000000000E+00 -0.20990660450E+03  0.20990660450E+03  0.00000000000E+00 0. -1.
         23    2    1    2    0    0  0.50877355446E+02 -0.60378923864E+02 -0.93758084259E+02  0.14960615872E+03  0.85774731816E+02 0.  0.
         23    2    1    2    0    0 -0.26104292215E+02  0.15891670063E+02  0.70315606964E+02  0.11904368916E+03  0.91066657441E+02 0.  0.
        -11    1    4    4    0    0  0.10999097511E+02  0.18664496330E+02  0.78084721068E+02  0.81034358353E+02  0.00000000000E+00 0. -1.
         11    1    4    4    0    0 -0.37103389727E+02 -0.27728262671E+01 -0.77691141042E+01  0.38009330811E+02  0.00000000000E+00 0.  1.
        -13    1    3    3    0    0  0.28891648671E+02  0.12062957746E+02 -0.30496071625E+01  0.31456993123E+02  0.00000000000E+00 0.  1.
         13    1    3    3    0    0  0.21985706775E+02 -0.72441881609E+02 -0.90708477097E+02  0.11814916559E+03  0.00000000000E+00 0. -1.
         21    1    1    2  503  502  0.28068190930E+02  0.72420861480E+02 -0.67945314140E+01  0.77966468284E+02  0.00000000000E+00 0. -1.
          1    1    1    2  501    0 -0.52841254160E+02 -0.27933607679E+02  0.20099366775E+02  0.63059250899E+02  0.00000000000E+00 0. -1.
<scales pt_clust_5="13000.00000" pt_clust_6="13000.00000" pt_clust_7="13000.00000" pt_clust_8="13000.00000" pt_clust_9="68.08767" pt_clust_10="59.77027"></scales>
<clustering>
<clus scale="   59.770">  1 10  2 -1</clus>
<clus scale="   68.088">  1  9  2 -1</clus>
<clus scale="   85.775">  7  8 -1 -1</clus>
<clus scale="   91.067">  5  6 -1 -1</clus>
<clus scale="  109.216">  2  7  1 -1</clus>
<clus scale="   59.770">  1  5  2 -1</clus>
</clustering>
</event>
<event>
10    2  0.2010288E-006  0.1459899E+03  0.7546771E-02  0.1225860E+00
         21   -1    0    0  501  502  0.00000000000E+00  0.00000000000E+00  0.20621002399E+03  0.20621002399E+03  0.00000000000E+00 0. -1.
         -2   -1    0    0    0  501 -0.00000000000E+00 -0.00000000000E+00 -0.40426630364E+03  0.40426630364E+03  0.00000000000E+00 0.  1.
         23    2    1    2    0    0  0.54740622598E+01 -0.29654837588E+02 -0.27299685395E+02  0.99543277685E+02  0.90852719055E+02 0.  0.
         23    2    1    2    0    0 -0.12001002063E+03  0.49974527745E+02 -0.29059184368E+03  0.33175545965E+03  0.93371338867E+02 0.  0.
        -13    1    3    3    0    0  0.43007579415E+02 -0.24517507326E+02 -0.35328608897E+02  0.60818341470E+02  0.00000000000E+00 0.  1.
         13    1    3    3    0    0 -0.37533517155E+02 -0.51373302626E+01  0.80289235020E+01  0.38724936215E+02  0.00000000000E+00 0. -1.
        -13    1    4    4    0    0 -0.16241495185E+02 -0.23910558988E+02 -0.86202478500E+02  0.90919570481E+02  0.00000000000E+00 0.  1.
         13    1    4    4    0    0 -0.10376852545E+03  0.73885086734E+02 -0.20438936518E+03  0.24083588917E+03  0.00000000000E+00 0. -1.
         21    1    1    2  503  502  0.22731180199E+02  0.20911837493E+02  0.16850678416E+02  0.35184611176E+02  0.00000000000E+00 0. -1.
         -2    1    1    2    0  503  0.91804778174E+02 -0.41231527650E+02  0.10298457100E+03  0.14399297911E+03  0.00000000000E+00 0.  1.
<scales pt_clust_5="13000.00000" pt_clust_6="13000.00000" pt_clust_7="13000.00000" pt_clust_8="13000.00000" pt_clust_9="30.88708" pt_clust_10="112.22678"></scales>
<clustering>
<clus scale="   30.887">  1  9  2 -1</clus>
<clus scale="   90.853">  5  6 -1 -1</clus>
<clus scale="   93.371">  7  8 -1 -1</clus>
<clus scale="   94.885">  2  5  1 -1</clus>
<clus scale="  112.227">  1 10  2 -1</clus>
<clus scale="   30.887">  1  5  2 -1</clus>
</clustering>
</event>
<event>
10    2  0.1671105E-006  0.1141455E+03  0.7546771E-02  0.1253350E+00
         -1   -1    0    0    0  501 -0.00000000000E+00  0.00000000000E+00  0.47463879541E+03  0.47463879541E+03  0.00000000000E+00 0.  1.
         21   -1    0    0  501  502  0.00000000000E+00 -0.00000000000E+00 -0.84428680966E+02  0.84428680966E+02  0.00000000000E+00 0.  1.
         23    2    1    2    0    0 -0.53800698790E+02  0.11441197961E+02  0.15906545036E+03  0.19192711663E+03  0.92243072357E+02 0.  0.
         23    2    1    2    0    0  0.35975605548E+02 -0.10100409816E+03  0.19185578345E+03  0.23806438507E+03  0.91487363904E+02 0.  0.
        -11    1    3    3    0    0 -0.27440289528E+02 -0.93536403869E+01  0.15548146136E+03  0.15816113588E+03  0.00000000000E+00 0.  1.
         11    1    3    3    0    0 -0.26360409262E+02  0.20794838348E+02  0.35839890000E+01  0.33765980743E+02  0.00000000000E+00 0. -1.
        -11    1    4    4    0    0 -0.25435120313E+02 -0.70870494706E+01  0.55592023014E+02  0.61543843220E+02  0.00000000000E+00 0. -1.
         11    1    4    4    0    0  0.61410725862E+02 -0.93917048691E+02  0.13626376044E+03  0.17652054185E+03  0.00000000000E+00 0.  1.
         21    1    1    2  503  502 -0.32247417854E+02  0.40788060622E+02  0.84666106904E+01  0.52680597416E+02  0.00000000000E+00 0.  1.
         -1    1    1    2    0  503  0.50072511096E+02  0.48774839579E+02  0.30822269949E+02  0.76395377269E+02  0.00000000000E+00 0.  1.
<scales pt_clust_5="13000.00000" pt_clust_6="13000.00000" pt_clust_7="13000.00000" pt_clust_8="13000.00000" pt_clust_9="51.99579" pt_clust_10="74.30802"></scales>
<clustering>
<clus scale="   51.996">  2  9  1 -1</clus>
<clus scale="   74.308">  2 10  1 -1</clus>
<clus scale="   91.487">  7  8 -1 -1</clus>
<clus scale="   92.243">  5  6 -1 -1</clus>
<clus scale="  113.536">  2  7  1 -1</clus>
<clus scale="   51.996">  2  5  1 -1</clus>
</clustering>
</event>
<event>
10    2  0.1671105E-006  0.1908577E+03  0.7546771E-02  0.1177762E+00
          4   -1    0    0  503    0 -0.00000000000E+00  0.00000000000E+00  0.28565062433E+03  0.28565062433E+03  0.00000000000E+00 0. -1.
         21   -1    0    0  501  502  0.00000000000E+00 -0.00000000000E+00 -0.40785102911E+03  0.40785102911E+03  0.00000000000E+00 0. -1.
         23    2    1    2    0    0 -0.36230843634E+02 -0.67573507431E+02  0.92800873313E+02  0.15116415988E+03  0.91431658671E+02 0.  0.
         23    2    1    2    0    0  0.14534648512E+03 -0.10298035363E+03  0.75296919970E+01  0.19951106122E+03  0.89540009574E+02 0.  0.
        -11    1    3    3    0    0 -0.47138662165E+02 -0.31273451075E+02  0.97750251180E+02  0.11293889418E+03  0.00000000000E+00 0. -1.
         11    1    3    3    0    0  0.10907818531E+02 -0.36300056356E+02 -0.49493778662E+01  0.38225265700E+02  0.00000000000E+00 0.  1.
        -13    1    4    4    0    0  0.69454167406E+02 -0.99781584094E+02  0.17764076672E+02  0.12286500036E+03  0.00000000000E+00 0. -1.
         13    1    4    4    0    0  0.75892317713E+02 -0.31987695410E+01 -0.10234384675E+02  0.76646060852E+02  0.00000000000E+00 0.  1.
         21    1    1    2  503  502 -0.51693703024E+02  0.14380815860E+02 -0.15362947181E+03  0.16273002614E+03  0.00000000000E+00 0. -1.
          4    1    1    2  501    0 -0.57421938461E+02  0.15617304521E+03 -0.68901498280E+02  0.18009640621E+03  0.00000000000E+00 0. -1.
<scales pt_clust_5="13000.00000" pt_clust_6="13000.00000" pt_clust_7="13000.00000" pt_clust_8="13000.00000" pt_clust_9="53.65675" pt_clust_10="168.55039"></scales>
<clustering>
<clus scale="   53.657">  2  9  1 -1</clus>
<clus scale="   89.540">  7  8 -1 -1</clus>
<clus scale="   91.432">  5  6 -1 -1</clus>
<clus scale="  120.369">  1  5  2 -1</clus>
<clus scale="  168.550">  2 10  1 -1</clus>
<clus scale="   53.657">  2  5  1 -1</clus>
</clustering>
</event>
<event>
10    2  0.1671105E-006  0.2558265E+03  0.7546771E-02  0.1148825E+00
         21   -1    0    0  501  502  0.00000000000E+00  0.00000000000E+00  0.51760806945E+03  0.51760806945E+03  0.00000000000E+00 0.  1.
         -2   -1    0    0    0  501 -0.00000000000E+00 -0.00000000000E+00 -0.27372276890E+03  0.27372276890E+03  0.00000000000E+00 0.  1.
         23    2    1    2    0    0  0.11447310531E+02  0.31428989294E+02 -0.13181280059E+03  0.16404672914E+03  0.91749074423E+02 0.  0.
         23    2    1    2    0    0 -0.71357213700E+02 -0.24672986751E+03  0.20863841077E+03  0.34326365929E+03  0.91282385345E+02 0.  0.
        -11    1    3    3    0    0  0.38475302285E+02 -0.50018011362E+01 -0.20578608733E+02  0.43918629736E+02  0.00000000000E+00 0. -1.
         11    1    3    3    0    0 -0.27027991754E+02  0.36430790430E+02 -0.11123419186E+03  0.12012809941E+03  0.00000000000E+00 0.  1.
        -13    1    4    4    0    0 -0.16556241517E+02 -0.93944615916E+02  0.13430950078E+03  0.16473840473E+03  0.00000000000E+00 0. -1.
         13    1    4    4    0    0 -0.54800972182E+02 -0.15278525160E+03  0.74328909988E+02  0.17852525456E+03  0.00000000000E+00 0.  1.
         21    1    1    2  503  502 -0.67541890542E+01  0.44570121510E+02  0.21375248961E+02  0.49890039781E+02  0.00000000000E+00 0.  1.
         -2    1    1    2    0  503  0.66664092223E+02  0.17073075671E+03  0.14568444141E+03  0.23413041013E+03  0.00000000000E+00 0.  1.
<scales pt_clust_5="13000.00000" pt_clust_6="13000.00000" pt_clust_7="13000.00000" pt_clust_8="13000.00000" pt_clust_9="26.31265" pt_clust_10="244.80547"></scales>
<clustering>
<clus scale="   26.313">  9 10 -1 -1</clus>
<clus scale="   91.282">  7  8 -1 -1</clus>
<clus scale="   91.749">  5  6 -1 -1</clus>
<clus scale="   97.656">  2  5  1 -1</clus>
<clus scale="  244.805">  1  9  2 -1</clus>
<clus scale="  244.805">  1  5  2 -1</clus>
</clustering>
</event>
<event>
10    2  0.1671105E-006  0.1390268E+03  0.7546771E-02  0.1233474E+00
         21   -1    0    0  503  502  0.00000000000E+00  0.00000000000E+00  0.20066918857E+03  0.20066918857E+03  0.00000000000E+00 0. -1.
          1   -1    0    0  502    0 -0.00000000000E+00 -0.00000000000E+00 -0.17466031803E+03  0.17466031803E+03  0.00000000000E+00 0. -1.
         23    2    1    2    0    0  0.26648733427E+02 -0.19531391634E+02  0.19931189752E+01  0.93895686340E+02  0.87868066654E+02 0.  0.
         23    2    1    2    0    0 -0.14252744390E+02 -0.86401885700E+02 -0.59368270545E+02  0.14191704890E+03  0.94590859202E+02 0.  0.
        -11    1    3    3    0    0 -0.20650554756E+02  0.22439529595E+02 -0.17788316017E+01  0.30547375371E+02  0.00000000000E+00 0.  1.
         11    1    3    3    0    0  0.47299288184E+02 -0.41970921229E+02  0.37719505769E+01  0.63348310969E+02  0.00000000000E+00 0. -1.
        -11    1    4    4    0    0 -0.13456230244E+02 -0.17058706896E+02  0.24727000933E+02  0.32916472905E+02  0.00000000000E+00 0.  1.
         11    1    4    4    0    0 -0.79651414637E+00 -0.69343178804E+02 -0.84095271478E+02  0.10900057599E+03  0.00000000000E+00 0. -1.
         21    1    1    2  503  501  0.29410153712E+01  0.68510243506E+02  0.36792964268E+02  0.77820468106E+02  0.00000000000E+00 0. -1.
          1    1    1    2  501    0 -0.15337004408E+02  0.37423033828E+02  0.46591057842E+02  0.61696303260E+02  0.00000000000E+00 0. -1.
<scales pt_clust_5="13000.00000" pt_clust_6="13000.00000" pt_clust_7="13000.00000" pt_clust_8="13000.00000" pt_clust_9="25.89025" pt_clust_10="107.31975"></scales>
<clustering>
<clus scale="   25.890">  9 10 -1 -1</clus>
<clus scale="   87.868">  5  6 -1 -1</clus>
<clus scale="   93.875">  2  5  1 -1</clus>
<clus scale="   94.591">  7  8 -1 -1</clus>
<clus scale="  107.320">  1  9  2 -1</clus>
<clus scale="  107.320">  1  5  2 -1</clus>
</clustering>
</event>
<event>
10    2  0.1671105E-006  0.9956666E+02  0.7546771E-02  0.1282515E+00
          2   -1    0    0  503    0 -0.00000000000E+00  0.00000000000E+00  0.73725822497E+03  0.73725822497E+03  0.00000000000E+00 0. -1.
         21   -1    0    0  501  502  0.00000000000E+00 -0.00000000000E+00 -0.35196267377E+02  0.35196267377E+02  0.00000000000E+00 0. -1.
         23    2    1    2    0    0 -0.51679394965E+02 -0.12571229017E+02  0.42490137014E+03  0.43820806332E+03  0.93039436542E+02 0.  0.
         23    2    1    2    0    0 -0.12955534753E+02  0.24553684689E+02  0.13820344408E+03  0.16747550129E+03  0.90427441984E+02 0.  0.
        -11    1    4    4    0    0 -0.41808213176E+02  0.24288724518E+02  0.12807089399E+03  0.13689420263E+03  0.00000000000E+00 0. -1.
         11    1    4    4    0    0  0.28852678423E+02  0.26496017104E+00  0.10132550092E+02  0.30581298656E+02  0.00000000000E+00 0.  1.
        -11    1    3    3    0    0  0.13944192516E+02 -0.24584647352E+02  0.50163238857E+02  0.57577738085E+02  0.00000000000E+00 0.  1.
         11    1    3    3    0    0 -0.65623587480E+02  0.12013418335E+02  0.37473813128E+03  0.38063032524E+03  0.00000000000E+00 0. -1.
         21    1    1    2  503  502  0.38825531128E+01 -0.27462474018E+02  0.58758198629E+02  0.64975284563E+02  0.00000000000E+00 0. -1.
          2    1    1    2  501    0  0.60752376605E+02  0.15480018346E+02  0.80198944752E+02  0.10179564318E+03  0.00000000000E+00 0. -1.
<scales pt_clust_5="13000.00000" pt_clust_6="13000.00000" pt_clust_7="13000.00000" pt_clust_8="13000.00000" pt_clust_9="27.73557" pt_clust_10="62.37170"></scales>
<clustering>
<clus scale="   27.736">  2  9  1 -1</clus>
<clus scale="   62.372">  2 10  1 -1</clus>
<clus scale="   90.427">  5  6 -1 -1</clus>
<clus scale="   93.039">  7  8 -1 -1</clus>
<clus scale="   97.130">  2  5  1 -1</clus>
<clus scale="   27.736">  2  5  1 -1</clus>
</clustering>
</event>
<event>
10    2  0.1671105E-006  0.1057546E+03  0.7546771E-02  0.1268917E+00
         -1   -1    0    0    0  501 -0.00000000000E+00  0.00000000000E+00  0.40667254684E+03  0.40667254684E+03  0.00000000000E+00 0.  1.
         21   -1    0    0  503  502  0.00000000000E+00 -0.00000000000E+00 -0.65099818817E+02  0.65099818817E+02  0.00000000000E+00 0.  1.
         23    2    1    2    0    0  0.23224512639E+02 -0.42129002582E+02  0.17905277712E+03  0.20641475250E+03  0.90735451773E+02 0.  0.
         23    2    1    2    0    0 -0.14776633782E+02  0.58597434889E+02  0.16280508459E+03  0.19623967630E+03  0.91392049454E+02 0.  0.
        -11    1    3    3    0    0  0.24312335325E+02  0.21047396508E+02  0.10098057164E+03  0.10597715979E+03  0.00000000000E+00 0. -1.
         11    1    3    3    0    0 -0.10878226868E+01 -0.63176399090E+02  0.78072205484E+02  0.10043759271E+03  0.00000000000E+00 0.  1.
        -13    1    4    4    0    0  0.25789500024E+02 -0.33155996518E+01  0.12833448218E+02  0.28996360215E+02  0.00000000000E+00 0. -1.
         13    1    4    4    0    0 -0.40566133807E+02  0.61913034540E+02  0.14997163637E+03  0.16724331608E+03  0.00000000000E+00 0.  1.
         21    1    1    2  503  501 -0.23225507722E+02 -0.31194927709E+02  0.16592629320E+02  0.42283129868E+02  0.00000000000E+00 0.  1.
         -1    1    1    2    0  502  0.14777628865E+02  0.14726495402E+02 -0.16877763015E+02  0.26834806988E+02  0.00000000000E+00 0.  1.
<scales pt_clust_5="13000.00000" pt_clust_6="13000.00000" pt_clust_7="13000.00000" pt_clust_8="13000.00000" pt_clust_9="32.77393" pt_clust_10="20.86260"></scales>
<clustering>
<clus scale="   20.863">  2 10  1 -1</clus>
<clus scale="   32.774">  2  9  1 -1</clus>
<clus scale="   90.735">  5  6 -1 -1</clus>
<clus scale="   91.392">  7  8 -1 -1</clus>
<clus scale="  105.188">  1  5  2 -1</clus>
<clus scale="   20.863">  2  5  1 -1</clus>
</clustering>
</event>
<event>
10    2  0.1671105E-006  0.1753760E+03  0.7546771E-02  0.1184139E+00
         21   -1    0    0  501  502  0.00000000000E+00  0.00000000000E+00  0.13824382313E+03  0.13824382313E+03  0.00000000000E+00 0. -1.
          1   -1    0    0  503    0 -0.00000000000E+00 -0.00000000000E+00 -0.95247304692E+03  0.95247304692E+03  0.00000000000E+00 0. -1.
         23    2    1    2    0    0 -0.10324368093E+03  0.11751107220E+03 -0.52580176689E+03  0.55640015557E+03  0.92981317018E+02 0.  0.
         23    2    1    2    0    0  0.35465668995E+02  0.63974666383E+02  0.32215493207E+02  0.11882022849E+03  0.87919492037E+02 0.  0.
        -11    1    3    3    0    0 -0.52945124740E+02  0.10380146416E+03 -0.44681896365E+03  0.46176305230E+03  0.00000000000E+00 0. -1.
         11    1    3    3    0    0 -0.50298556192E+02  0.13709608044E+02 -0.78982803243E+02  0.94637103272E+02  0.00000000000E+00 0.  1.
        -13    1    4    4    0    0  0.21859757230E+02 -0.18551343798E+02  0.18346331797E+02  0.34038055662E+02  0.00000000000E+00 0.  1.
         13    1    4    4    0    0  0.13605911765E+02  0.82526010181E+02  0.13869161410E+02  0.84782172829E+02  0.00000000000E+00 0. -1.
         21    1    1    2  503  502 -0.16423377451E+02 -0.16739899928E+03 -0.15305157648E+03  0.22741358216E+03  0.00000000000E+00 0. -1.
          1    1    1    2  501    0  0.84201389388E+02 -0.14086739300E+02 -0.16759137362E+03  0.18808290383E+03  0.00000000000E+00 0. -1.
<scales pt_clust_5="13000.00000" pt_clust_6="13000.00000" pt_clust_7="13000.00000" pt_clust_8="13000.00000" pt_clust_9="148.69841" pt_clust_10="85.37164"></scales>
<clustering>
<clus scale="   85.372">  1 10  2 -1</clus>
<clus scale="   87.919">  7  8 -1 -1</clus>
<clus scale="   92.981">  5  6 -1 -1</clus>
<clus scale="  134.454">  1  7  2 -1</clus>
<clus scale="  148.698">  1  9  2 -1</clus>
<clus scale="   85.372">  1  5  2 -1</clus>
</clustering>
</event>
<event>
10    2  0.1671105E-006  0.3348685E+03  0.7546771E-02  0.1082449E+00
         21   -1    0    0  503  502  0.00000000000E+00  0.00000000000E+00  0.39449058784E+03  0.39449058784E+03  0.00000000000E+00 0. -1.
          2   -1    0    0  502    0 -0.00000000000E+00 -0.00000000000E+00 -0.14109530540E+04  0.14109530540E+04  0.00000000000E+00 0. -1.
         23    2    1    2    0    0  0.21304821514E+03  0.34736805179E+01 -0.10676930978E+04  0.10926986220E+04  0.92844596174E+02 0.  0.
         23    2    1    2    0    0 -0.40734183880E+03  0.16027842438E+03  0.48933084352E+02  0.44985964625E+03  0.91447840977E+02 0.  0.
        -11    1    3    3    0    0  0.19853604383E+03 -0.16167521986E+02 -0.10182838669E+04  0.10375837234E+04  0.00000000000E+00 0. -1.
         11    1    3    3    0    0  0.14512171310E+02  0.19641202504E+02 -0.49409230896E+02  0.55114898618E+02  0.00000000000E+00 0.  1.
        -11    1    4    4    0    0 -0.38869942878E+02  0.38076893075E+01  0.29724837284E+02  0.49080922045E+02  0.00000000000E+00 0.  1.
         11    1    4    4    0    0 -0.36847189593E+03  0.15647073508E+03  0.19208247068E+02  0.40077872421E+03  0.00000000000E+00 0. -1.
         21    1    1    2  503  501  0.28820634692E+02 -0.62483970468E+02 -0.19383975583E+01  0.68837729006E+02  0.00000000000E+00 0. -1.
          2    1    1    2  501    0  0.16547298898E+03 -0.10126813443E+03  0.42359448550E+01  0.19404764456E+03  0.00000000000E+00 0. -1.
<scales pt_clust_5="13000.00000" pt_clust_6="13000.00000" pt_clust_7="13000.00000" pt_clust_8="13000.00000" pt_clust_9="40.12262" pt_clust_10="329.10926"></scales>
<clustering>
<clus scale="   40.123">  9 10 -1 -1</clus>
<clus scale="   91.448">  7  8 -1 -1</clus>
<clus scale="   92.845">  5  6 -1 -1</clus>
<clus scale="  232.426">  2  5  1 -1</clus>
<clus scale="  329.109">  1  9  2 -1</clus>
<clus scale="  329.109">  1  5  2 -1</clus>
</clustering>
</event>
<event>
10    2  0.1671105E-006  0.4364811E+03  0.7546771E-02  0.1070105E+00
         21   -1    0    0  503  502  0.00000000000E+00  0.00000000000E+00  0.19907971643E+03  0.19907971643E+03  0.00000000000E+00 0. -1.
          1   -1    0    0  502    0 -0.00000000000E+00 -0.00000000000E+00 -0.13650469030E+04  0.13650469030E+04  0.00000000000E+00 0. -1.
         23    2    1    2    0    0 -0.76254977479E+02  0.55155383365E+02 -0.30288780686E+03  0.33654710662E+03  0.11254329622E+03 0.  0.
         23    2    1    2    0    0  0.46201485552E+02  0.39925326697E+03 -0.44104862975E+03  0.60360772146E+03  0.90998017255E+02 0.  0.
        -11    1    4    4    0    0  0.66821833501E+02  0.36705629774E+03 -0.41011189218E+03  0.55442515027E+03  0.00000000000E+00 0. -1.
         11    1    4    4    0    0 -0.20620347950E+02  0.32196969230E+02 -0.30936737569E+02  0.49182571187E+02  0.00000000000E+00 0.  1.
        -13    1    3    3    0    0 -0.82846970527E+02  0.83481137678E+02 -0.24451830620E+03  0.27133360083E+03  0.00000000000E+00 0. -1.
         13    1    3    3    0    0  0.65919930479E+01 -0.28325754313E+02 -0.58369500660E+02  0.65213505787E+02  0.00000000000E+00 0.  1.
         21    1    1    2  503  501  0.14311284920E+02 -0.68602533437E+02 -0.39510346604E+02  0.80449909625E+02  0.00000000000E+00 0. -1.
          1    1    1    2  501    0  0.15742207007E+02 -0.38580611690E+03 -0.38252040331E+03  0.54352188169E+03  0.00000000000E+00 0. -1.
<scales pt_clust_5="13000.00000" pt_clust_6="13000.00000" pt_clust_7="13000.00000" pt_clust_8="13000.00000" pt_clust_9="26.40090" pt_clust_10="431.36491"></scales>
<clustering>
<clus scale="   26.401">  9 10 -1 -1</clus>
<clus scale="   90.998">  5  6 -1 -1</clus>
<clus scale="  112.543">  7  8 -1 -1</clus>
<clus scale="  146.707">  2  7  1 -1</clus>
<clus scale="  431.365">  1  9  2 -1</clus>
<clus scale="  431.365">  1  5  2 -1</clus>
</clustering>
</event>
<event>
10    2  0.1671105E-006  0.1599484E+03  0.7546771E-02  0.1204928E+00
         21   -1    0    0  501  502  0.00000000000E+00  0.00000000000E+00  0.31890256804E+03  0.31890256804E+03  0.00000000000E+00 0. -1.
          2   -1    0    0  503    0 -0.00000000000E+00 -0.00000000000E+00 -0.20891790276E+03  0.20891790276E+03  0.00000000000E+00 0. -1.
         23    2    1    2    0    0  0.52347527884E+02  0.28286602244E+02 -0.59227154360E+02  0.12591802335E+03  0.93846136041E+02 0.  0.
         23    2    1    2    0    0  0.90868103102E+02 -0.56402523491E+02 -0.19137908323E+02  0.14153769606E+03  0.90710545442E+02 0.  0.
        -11    1    4    4    0    0  0.47538911629E+02  0.16689336530E+02 -0.25234812599E+02  0.56349603722E+02  0.00000000000E+00 0.  1.
         11    1    4    4    0    0  0.43329191472E+02 -0.73091860021E+02  0.60969042755E+01  0.85188092341E+02  0.00000000000E+00 0. -1.
        -11    1    3    3    0    0 -0.20059228248E+02  0.31851999205E+02 -0.12474194832E+02  0.39655113516E+02  0.00000000000E+00 0.  1.
         11    1    3    3    0    0  0.72406756133E+02 -0.35653969612E+01 -0.46752959528E+02  0.86262909838E+02  0.00000000000E+00 0. -1.
         21    1    1    2  503  502  0.34406047800E+01  0.32650838753E+02  0.29783098490E+02  0.44327733849E+02  0.00000000000E+00 0. -1.
          2    1    1    2  501    0 -0.14665623577E+03 -0.45349175056E+01  0.15856662947E+03  0.21603701754E+03  0.00000000000E+00 0. -1.
<scales pt_clust_5="13000.00000" pt_clust_6="13000.00000" pt_clust_7="13000.00000" pt_clust_8="13000.00000" pt_clust_9="32.83162" pt_clust_10="131.73872"></scales>
<clustering>
<clus scale="   32.832">  1  9  2 -1</clus>
<clus scale="   90.711">  5  6 -1 -1</clus>
<clus scale="   93.846">  7  8 -1 -1</clus>
<clus scale="  112.355">  2  7  1 -1</clus>
<clus scale="  131.739">  1 10  2 -1</clus>
<clus scale="   32.832">  1  5  2 -1</clus>
</clustering>
</event>
<event>
10    2  0.1671105E-006  0.9596362E+02  0.7546771E-02  0.1291879E+00
         21   -1    0    0  501  502  0.00000000000E+00  0.00000000000E+00  0.37188717001E+02  0.37188717001E+02  0.00000000000E+00 0.  1.
          1   -1    0    0  503    0 -0.00000000000E+00 -0.00000000000E+00 -0.69685897290E+03  0.69685897290E+03  0.00000000000E+00 0. -1.
         23    2    1    2    0    0  0.37536864482E+02 -0.44368185517E+02 -0.32163493871E+03  0.33998710756E+03  0.93619695702E+02 0.  0.
         23    2    1    2    0    0  0.32720371446E+02 -0.53429464896E+01 -0.21128392350E+03  0.23145226516E+03  0.88487767142E+02 0.  0.
        -11    1    3    3    0    0  0.45952035460E+01  0.28693324552E+02 -0.10705706967E+03  0.11093078443E+03  0.00000000000E+00 0. -1.
         11    1    3    3    0    0  0.32941660936E+02 -0.73061510068E+02 -0.21457786905E+03  0.22905632312E+03  0.00000000000E+00 0.  1.
        -13    1    4    4    0    0  0.18386651553E+02  0.30263606559E+02 -0.17529478749E+03  0.17883572729E+03  0.00000000000E+00 0. -1.
         13    1    4    4    0    0  0.14333719893E+02 -0.35606553049E+02 -0.35989136014E+02  0.52616537866E+02  0.00000000000E+00 0.  1.
         21    1    1    2  503  502 -0.54639683601E+02  0.36818463711E+02 -0.12618263122E+03  0.14234869411E+03  0.00000000000E+00 0. -1.
          1    1    1    2  501    0 -0.15617552327E+02  0.12892668295E+02 -0.56876247280E+00  0.20259623077E+02  0.00000000000E+00 0. -1.
<scales pt_clust_5="13000.00000" pt_clust_6="13000.00000" pt_clust_7="13000.00000" pt_clust_8="13000.00000" pt_clust_9="71.84774" pt_clust_10="20.25164"></scales>
<clustering>
<clus scale="   20.252">  1 10  2 -1</clus>
<clus scale="   71.848">  1  9  2 -1</clus>
<clus scale="   88.488">  7  8 -1 -1</clus>
<clus scale="   90.964">  1  7  2 -1</clus>
<clus scale="   93.620">  5  6 -1 -1</clus>
<clus scale="   20.252">  1  5  2 -1</clus>
</clustering>
</event>
<event>
10    2  0.1671105E-006  0.3004118E+03  0.7546771E-02  0.1085070E+00
         21   -1    0    0  503  502  0.00000000000E+00  0.00000000000E+00  0.62997337660E+03  0.62997337660E+03  0.00000000000E+00 0. -1.
         -3   -1    0    0    0  501 -0.00000000000E+00 -0.00000000000E+00 -0.23415659994E+03  0.23415659994E+03  0.00000000000E+00 0.  1.
         23    2    1    2    0    0  0.98406968165E+02  0.22891261997E+03  0.92199765366E+02  0.28098998433E+03  0.91485821825E+02 0.  0.
         23    2    1    2    0    0 -0.70926954812E+02 -0.33649252794E+03  0.15839999979E+03  0.38929464913E+03  0.90564394915E+02 0.  0.
        -11    1    4    4    0    0  0.19287458775E+02 -0.29202344265E+02  0.20929206890E+02  0.40777624718E+02  0.00000000000E+00 0.  1.
         11    1    4    4    0    0 -0.90214413587E+02 -0.30729018368E+03  0.13747079290E+03  0.34851702441E+03  0.00000000000E+00 0. -1.
        -13    1    3    3    0    0  0.96682400698E+02  0.16194973298E+03  0.32765544927E+02  0.19143872010E+03  0.00000000000E+00 0.  1.
         13    1    3    3    0    0  0.17245674679E+01  0.66962886990E+02  0.59434220439E+02  0.89551264236E+02  0.00000000000E+00 0. -1.
         21    1    1    2  503  501 -0.29495210711E+02  0.66626495239E+02  0.45186358565E+02  0.85737181684E+02  0.00000000000E+00 0.  1.
         -3    1    1    2    0  502  0.20151973568E+01  0.40953412733E+02  0.10003065293E+03  0.10810816140E+03  0.00000000000E+00 0.  1.
<scales pt_clust_5="13000.00000" pt_clust_6="13000.00000" pt_clust_7="13000.00000" pt_clust_8="13000.00000" pt_clust_9="77.45701" pt_clust_10="41.00296"></scales>
<clustering>
<clus scale="   41.003">  1 10  2 -1</clus>
<clus scale="   77.457">  1  9  2 -1</clus>
<clus scale="   90.564">  5  6 -1 -1</clus>
<clus scale="   91.486">  7  8 -1 -1</clus>
<clus scale="  300.133">  1  5  2 -1</clus>
<clus scale="   41.003">  1  5  2 -1</clus>
</clustering>
</event>
<event>
10    2  0.1671105E-006  0.4326384E+03  0.7546771E-02  0.1073475E+00
         -4   -1    0    0    0  501 -0.00000000000E+00  0.00000000000E+00  0.33234331057E+03  0.33234331057E+03  0.00000000000E+00 0.  1.
         21   -1    0    0  501  502  0.00000000000E+00 -0.00000000000E+00 -0.10858745543E+04  0.10858745543E+04  0.00000000000E+00 0. -1.
         23    2    1    2    0    0  0.45135443032E+02 -0.84566852074E+02  0.11957106738E+03  0.18212907150E+03  0.98412386649E+02 0.  0.
         23    2    1    2    0    0 -0.97484044366E+02  0.45075969581E+03 -0.65149272282E+03  0.80350471429E+03  0.92139110752E+02 0.  0.
        -11    1    3    3    0    0  0.43061952471E+02 -0.44501811052E+02  0.12703262309E+03  0.14132243370E+03  0.00000000000E+00 0.  1.
         11    1    3    3    0    0  0.20734905607E+01 -0.40065041022E+02 -0.74615557138E+01  0.40806637804E+02  0.00000000000E+00 0. -1.
        -11    1    4    4    0    0  0.16489426938E+02  0.10139599847E+03 -0.14859654390E+03  0.18064878236E+03  0.00000000000E+00 0.  1.
         11    1    4    4    0    0 -0.11397347130E+03  0.34936369734E+03 -0.50289617892E+03  0.62285593194E+03  0.00000000000E+00 0. -1.
         21    1    1    2  503  502  0.30090737193E+02 -0.19833813479E+03 -0.10026340655E+03  0.22426818515E+03  0.00000000000E+00 0.  1.
         -4    1    1    2    0  503  0.22257864142E+02 -0.16785470895E+03 -0.12134618169E+03  0.20831589388E+03  0.00000000000E+00 0.  1.
<scales pt_clust_5="13000.00000" pt_clust_6="13000.00000" pt_clust_7="13000.00000" pt_clust_8="13000.00000" pt_clust_9="31.56727" pt_clust_10="424.10745"></scales>
<clustering>
<clus scale="   31.567">  9 10 -1 -1</clus>
<clus scale="   92.139">  7  8 -1 -1</clus>
<clus scale="   98.412">  5  6 -1 -1</clus>
<clus scale="  137.382">  1  5  2 -1</clus>
<clus scale="  424.107">  2  9  1 -1</clus>
<clus scale="  424.107">  2  5  1 -1</clus>
</clustering>
</event>
<event>
10    2  0.1671105E-006  0.2408663E+03  0.7546771E-02  0.1119495E+00
         21   -1    0    0  503  502  0.00000000000E+00  0.00000000000E+00  0.38190075982E+03  0.38190075982E+03  0.00000000000E+00 0. -1.
          1   -1    0    0  502    0 -0.00000000000E+00 -0.00000000000E+00 -0.30670950236E+03  0.30670950236E+03  0.00000000000E+00 0. -1.
         23    2    1    2    0    0  0.15904783541E+03  0.12906863900E+03 -0.60162947511E+02  0.23406623505E+03  0.95981741040E+02 0.  0.
         23    2    1    2    0    0 -0.11218012611E+03 -0.23678100187E+03  0.82920685496E+01  0.27772057656E+03  0.91707887921E+02 0.  0.
        -11    1    4    4    0    0 -0.61702590780E+02 -0.17500308244E+03 -0.32071180092E+02  0.18831316780E+03  0.00000000000E+00 0. -1.
         11    1    4    4    0    0 -0.50477535331E+02 -0.61777919423E+02  0.40363248641E+02  0.89407408766E+02  0.00000000000E+00 0.  1.
        -11    1    3    3    0    0  0.30736895713E+02 -0.46698582302E+01  0.14438402878E+02  0.34278737019E+02  0.00000000000E+00 0.  1.
         11    1    3    3    0    0  0.12831093970E+03  0.13373849723E+03 -0.74601350390E+02  0.19978749803E+03  0.00000000000E+00 0. -1.
         21    1    1    2  503  501 -0.49291164607E+02  0.74835293942E+02  0.98980677626E+02  0.13351821850E+03  0.00000000000E+00 0. -1.
          1    1    1    2  501    0  0.24234553072E+01  0.32877068921E+02  0.28081458790E+02  0.43305232065E+02  0.00000000000E+00 0. -1.
<scales pt_clust_5="13000.00000" pt_clust_6="13000.00000" pt_clust_7="13000.00000" pt_clust_8="13000.00000" pt_clust_9="22.06334" pt_clust_10="122.97051"></scales>
<clustering>
<clus scale="   22.063">  9 10 -1 -1</clus>
<clus scale="   91.708">  5  6 -1 -1</clus>
<clus scale="   95.982">  7  8 -1 -1</clus>
<clus scale="  122.971">  1  9  2 -1</clus>
<clus scale="  239.195">  1  5  2 -1</clus>
<clus scale="  122.971">  1  5  2 -1</clus>
</clustering>
</event>
<event>
10    2  0.1671105E-006  0.1322617E+03  0.7546771E-02  0.1227041E+00
         21   -1    0    0  503  502  0.00000000000E+00  0.00000000000E+00  0.41552462095E+03  0.41552462095E+03  0.00000000000E+00 0. -1.
          2   -1    0    0  502    0 -0.00000000000E+00 -0.00000000000E+00 -0.17057401032E+03  0.17057401032E+03  0.00000000000E+00 0. -1.
         23    2    1    2    0    0  0.66458186927E+02 -0.50444618644E+02 -0.88391412240E+02  0.15269497627E+03  0.92419499350E+02 0.  0.
         23    2    1    2    0    0  0.48015911070E+02  0.80357832167E+02  0.24979554438E+03  0.28233962842E+03  0.92492934218E+02 0.  0.
        -11    1    4    4    0    0  0.23594810926E+02  0.24670445118E+02  0.10912462872E+02  0.35838914755E+02  0.00000000000E+00 0.  1.
         11    1    4    4    0    0  0.24421100144E+02  0.55687387050E+02  0.23888308151E+03  0.24650071367E+03  0.00000000000E+00 0. -1.
        -11    1    3    3    0    0 -0.29662931975E+01  0.21126412251E+02 -0.31049102810E+02  0.37671885740E+02  0.00000000000E+00 0.  1.
         11    1    3    3    0    0  0.69424480125E+02 -0.71571030895E+02 -0.57342309430E+02  0.11502309053E+03  0.00000000000E+00 0. -1.
         21    1    1    2  503  501 -0.20741509701E+02 -0.15071866756E+02  0.16163604663E+01  0.25690154016E+02  0.00000000000E+00 0.  1.
          2    1    1    2  501    0 -0.93732588296E+02 -0.14841346767E+02  0.81930118020E+02  0.12537387256E+03  0.00000000000E+00 0. -1.
<scales pt_clust_5="13000.00000" pt_clust_6="13000.00000" pt_clust_7="13000.00000" pt_clust_8="13000.00000" pt_clust_9="22.30336" pt_clust_10="103.82400"></scales>
<clustering>
<clus scale="   22.303">  9 10 -1 -1</clus>
<clus scale="   92.419">  7  8 -1 -1</clus>
<clus scale="   92.493">  5  6 -1 -1</clus>
<clus scale="  124.510">  2  7  1 -1</clus>
<clus scale="  103.824">  1  9  2 -1</clus>
<clus scale="  103.824">  1  5  2 -1</clus>
</clustering>
</event>
<event>
10    2  0.1671105E-006  0.1452598E+03  0.7546771E-02  0.1225392E+00
         21   -1    0    0  503  502  0.00000000000E+00  0.00000000000E+00  0.13078717652E+03  0.13078717652E+03  0.00000000000E+00 0. -1.
         -2   -1    0    0    0  501 -0.00000000000E+00 -0.00000000000E+00 -0.58808095089E+03  0.58808095089E+03  0.00000000000E+00 0.  1.
         23    2    1    2    0    0 -0.22731939817E+02 -0.18092758937E+02 -0.20646811129E+03  0.22793358983E+03  0.92089909210E+02 0.  0.
         23    2    1    2    0    0  0.11531376311E+03  0.65707239725E+02 -0.23259191352E+03  0.28347999558E+03  0.92990345419E+02 0.  0.
        -11    1    4    4    0    0  0.24326135893E+02  0.25746283900E+02 -0.15041050921E+03  0.15452492777E+03  0.00000000000E+00 0.  1.
         11    1    4    4    0    0  0.90987627222E+02  0.39960955825E+02 -0.82181404308E+02  0.12895506780E+03  0.00000000000E+00 0. -1.
        -13    1    3    3    0    0 -0.39104619029E+02  0.65465225026E+01 -0.18996515994E+03  0.19405872868E+03  0.00000000000E+00 0.  1.
         13    1    3    3    0    0  0.16372679212E+02 -0.24639281439E+02 -0.16502951349E+02  0.33874861146E+02  0.00000000000E+00 0. -1.
         21    1    1    2  503  501  0.27372439458E+02 -0.61997222010E+02 -0.47976222606E+02  0.83033872091E+02  0.00000000000E+00 0. -1.
         -2    1    1    2    0  502 -0.11995426276E+03  0.14382741222E+02  0.29742473043E+02  0.12442066991E+03  0.00000000000E+00 0.  1.
<scales pt_clust_5="13000.00000" pt_clust_6="13000.00000" pt_clust_7="13000.00000" pt_clust_8="13000.00000" pt_clust_9="67.77098" pt_clust_10="111.59399"></scales>
<clustering>
<clus scale="   67.771">  1  9  2 -1</clus>
<clus scale="   92.090">  7  8 -1 -1</clus>
<clus scale="   92.990">  5  6 -1 -1</clus>
<clus scale="   97.265">  2  7  1 -1</clus>
<clus scale="  111.594">  1 10  2 -1</clus>
<clus scale="   67.771">  1  5  2 -1</clus>
</clustering>
</event>
<event>
10    2  0.1671105E-006  0.1029086E+03  0.7546771E-02  0.1274614E+00
         -1   -1    0    0    0  501 -0.00000000000E+00  0.00000000000E+00  0.73032828432E+03  0.73032828432E+03  0.00000000000E+00 0.  1.
         21   -1    0    0  503  502  0.00000000000E+00 -0.00000000000E+00 -0.39234574152E+02  0.39234574152E+02  0.00000000000E+00 0.  1.
         23    2    1    2    0    0 -0.33222700256E+02  0.49799388069E+02  0.54171541997E+03  0.55261098832E+03  0.91321308069E+02 0.  0.
         23    2    1    2    0    0  0.30772089970E+01  0.27423240692E+00  0.81860144501E+02  0.12215312806E+03  0.90613238655E+02 0.  0.
        -13    1    3    3    0    0 -0.18968548823E+02  0.76515434002E+02  0.38163822964E+03  0.38969495225E+03  0.00000000000E+00 0.  1.
         13    1    3    3    0    0 -0.14254151433E+02 -0.26716045933E+02  0.16007719033E+03  0.16291603607E+03  0.00000000000E+00 0. -1.
        -13    1    4    4    0    0 -0.12931647811E+02  0.26562463532E+02 -0.50339540120E+01  0.29968861790E+02  0.00000000000E+00 0.  1.
         13    1    4    4    0    0  0.16008856808E+02 -0.26288231125E+02  0.86894098513E+02  0.92184266274E+02  0.00000000000E+00 0. -1.
         21    1    1    2  503  501  0.21031036834E+02 -0.22744382554E+02  0.55548095412E+02  0.63601905255E+02  0.00000000000E+00 0.  1.
         -1    1    1    2    0  502  0.91144544253E+01 -0.27329237922E+02  0.11970050283E+02  0.31196836837E+02  0.00000000000E+00 0.  1.
<scales pt_clust_5="13000.00000" pt_clust_6="13000.00000" pt_clust_7="13000.00000" pt_clust_8="13000.00000" pt_clust_9="34.58430" pt_clust_10="28.80904"></scales>
<clustering>
<clus scale="   28.809">  2 10  1 -1</clus>
<clus scale="   34.584">  2  9  1 -1</clus>
<clus scale="   90.613">  7  8 -1 -1</clus>
<clus scale="   91.321">  5  6 -1 -1</clus>
<clus scale="  102.281">  2  7  1 -1</clus>
<clus scale="   28.809">  2  5  1 -1</clus>
</clustering>
</event>
<event>
10    2  0.1671105E-006  0.1310894E+03  0.7546771E-02  0.1231912E+00
         21   -1    0    0  503  502  0.00000000000E+00  0.00000000000E+00  0.39905119272E+03  0.39905119272E+03  0.00000000000E+00 0. -1.
          1   -1    0    0  502    0 -0.00000000000E+00 -0.00000000000E+00 -0.52574157044E+03  0.52574157044E+03  0.00000000000E+00 0. -1.
         23    2    1    2    0    0 -0.80555269893E+02 -0.44278698876E+01 -0.19677861730E+03  0.22398250152E+03  0.70267910325E+02 0.  0.
         23    2    1    2    0    0  0.97112439577E+02 -0.76456037176E+02 -0.28360642544E+03  0.32320196210E+03  0.93544386338E+02 0.  0.
        -11    1    3    3    0    0 -0.60512910131E+02  0.21910530732E+02 -0.16877117362E+03  0.18062555936E+03  0.00000000000E+00 0.  1.
         11    1    3    3    0    0 -0.20042359762E+02 -0.26338400620E+02 -0.28007443687E+02  0.43356942165E+02  0.00000000000E+00 0. -1.
        -11    1    4    4    0    0  0.90908245340E+02 -0.20751004832E+02 -0.13239004733E+03  0.16193220156E+03  0.00000000000E+00 0.  1.
         11    1    4    4    0    0  0.62041942366E+01 -0.55705032344E+02 -0.15121637811E+03  0.16126976054E+03  0.00000000000E+00 0. -1.
         21    1    1    2  503  501  0.28970925595E+02  0.27704012624E+02  0.24542624634E+03  0.24867824440E+03  0.00000000000E+00 0. -1.
          1    1    1    2  501    0 -0.45528095278E+02  0.53179894440E+02  0.10826841868E+03  0.12893005513E+03  0.00000000000E+00 0. -1.
<scales pt_clust_5="13000.00000" pt_clust_6="13000.00000" pt_clust_7="13000.00000" pt_clust_8="13000.00000" pt_clust_9="40.08524" pt_clust_10="78.23018"></scales>
<clustering>
<clus scale="   40.085">  1  9  2 -1</clus>
<clus scale="   70.268">  5  6 -1 -1</clus>
<clus scale="   78.230">  1 10  2 -1</clus>
<clus scale="   93.544">  7  8 -1 -1</clus>
<clus scale="  115.635">  2  5  1 -1</clus>
<clus scale="   40.085">  1  5  2 -1</clus>
</clustering>
</event>
<event>
10    2  0.1671105E-006  0.1334389E+03  0.7546771E-02  0.1223544E+00
         21   -1    0    0  501  502  0.00000000000E+00  0.00000000000E+00  0.93940502910E+02  0.93940502910E+02  0.00000000000E+00 0. -1.
          1   -1    0    0  503    0 -0.00000000000E+00 -0.00000000000E+00 -0.65968274680E+03  0.65968274680E+03  0.00000000000E+00 0. -1.
         23    2    1    2    0    0  0.97230404782E+02 -0.80527412183E+02 -0.40149721609E+03  0.42977466502E+03  0.86993289606E+02 0.  0.
         23    2    1    2    0    0 -0.24547938677E+02  0.62670889458E+02 -0.16815153808E+03  0.20291705303E+03  0.91488518249E+02 0.  0.
        -13    1    3    3    0    0  0.88264377082E+02 -0.35960970845E+02 -0.34119686025E+03  0.35425850608E+03  0.00000000000E+00 0. -1.
         13    1    3    3    0    0  0.89660276993E+01 -0.44566441338E+02 -0.60300355839E+02  0.75516158937E+02  0.00000000000E+00 0.  1.
        -13    1    4    4    0    0 -0.12634428375E+02 -0.23277243710E+02 -0.33078939855E+02  0.42375406983E+02  0.00000000000E+00 0. -1.
         13    1    4    4    0    0 -0.11913510302E+02  0.85948133168E+02 -0.13507259823E+03  0.16054164605E+03  0.00000000000E+00 0.  1.
         21    1    1    2  503  502  0.77146323416E+01 -0.25899447851E+02 -0.90216295230E+01  0.28490116715E+02  0.00000000000E+00 0. -1.
          1    1    1    2  501    0 -0.80397098446E+02  0.43755970576E+02  0.12928139803E+02  0.92441414952E+02  0.00000000000E+00 0. -1.
<scales pt_clust_5="13000.00000" pt_clust_6="13000.00000" pt_clust_7="13000.00000" pt_clust_8="13000.00000" pt_clust_9="27.02401" pt_clust_10="80.43611"></scales>
<clustering>
<clus scale="   27.024">  1  9  2 -1</clus>
<clus scale="   80.436">  1 10  2 -1</clus>
<clus scale="   86.993">  5  6 -1 -1</clus>
<clus scale="   91.489">  7  8 -1 -1</clus>
<clus scale="  130.398">  2  5  1 -1</clus>
<clus scale="   27.024">  1  5  2 -1</clus>
</clustering>
</event>
<event>
10    2  0.1671105E-006  0.2151460E+03  0.7546771E-02  0.1138416E+00
          1   -1    0    0  502    0 -0.00000000000E+00  0.00000000000E+00  0.54325483675E+03  0.54325483675E+03  0.00000000000E+00 0. -1.
         21   -1    0    0  503  502  0.00000000000E+00 -0.00000000000E+00 -0.18745528804E+03  0.18745528804E+03  0.00000000000E+00 0. -1.
         23    2    1    2    0    0 -0.87958266304E+02 -0.16853952922E+03  0.14155562219E+03  0.24931442448E+03  0.77314025651E+02 0.  0.
         23    2    1    2    0    0  0.21200390401E+03  0.10347393194E+03  0.51187277752E+02  0.25718037641E+03  0.88707940463E+02 0.  0.
        -11    1    3    3    0    0 -0.39699165609E+02 -0.13284491178E+03  0.68156476826E+02  0.15449627720E+03  0.00000000000E+00 0. -1.
         11    1    3    3    0    0 -0.48259100694E+02 -0.35694617437E+02  0.73399145363E+02  0.94818147281E+02  0.00000000000E+00 0.  1.
        -11    1    4    4    0    0  0.30146378334E+02  0.13997427883E+02 -0.24010003083E+02  0.41002589699E+02  0.00000000000E+00 0.  1.
         11    1    4    4    0    0  0.18185752567E+03  0.89476504054E+02  0.75197280835E+02  0.21617778671E+03  0.00000000000E+00 0. -1.
         21    1    1    2  503  501 -0.42396379136E+02 -0.73682957235E+01  0.61985989935E+02  0.75458648901E+02  0.00000000000E+00 0.  1.
          1    1    1    2  501    0 -0.81649258568E+02  0.72433893006E+02  0.10107065883E+03  0.14875667500E+03  0.00000000000E+00 0. -1.
<scales pt_clust_5="13000.00000" pt_clust_6="13000.00000" pt_clust_7="13000.00000" pt_clust_8="13000.00000" pt_clust_9="40.02897" pt_clust_10="153.89953"></scales>
<clustering>
<clus scale="   40.029">  9 10 -1 -1</clus>
<clus scale="   77.314">  5  6 -1 -1</clus>
<clus scale="   88.708">  7  8 -1 -1</clus>
<clus scale="  153.900">  2  9  1 -1</clus>
<clus scale="  210.704">  1  5  2 -1</clus>
<clus scale="  153.900">  2  5  1 -1</clus>
</clustering>
</event>
<event>
10    2  0.1671105E-006  0.1969865E+03  0.7546771E-02  0.1152437E+00
          1   -1    0    0  503    0 -0.00000000000E+00  0.00000000000E+00  0.16704843956E+04  0.16704843956E+04  0.00000000000E+00 0. -1.
         21   -1    0    0  501  502  0.00000000000E+00 -0.00000000000E+00 -0.60108119097E+02  0.60108119097E+02  0.00000000000E+00 0.  1.
         23    2    1    2    0    0 -0.14884229968E+03 -0.86929169084E+02  0.10324930656E+04  0.10506946569E+04  0.90590402179E+02 0.  0.
         23    2    1    2    0    0  0.14384795866E+03  0.10892885204E+03  0.58825821195E+03  0.62175120459E+03  0.89269851924E+02 0.  0.
        -11    1    4    4    0    0  0.56247349893E+02  0.76029401371E+01  0.27928603606E+03  0.28499519120E+03  0.00000000000E+00 0. -1.
         11    1    4    4    0    0  0.87600608769E+02  0.10132591190E+03  0.30897217589E+03  0.33675601339E+03  0.00000000000E+00 0.  1.
        -13    1    3    3    0    0 -0.56005342973E+02 -0.83964276913E+02  0.58818175640E+03  0.59677833138E+03  0.00000000000E+00 0. -1.
         13    1    3    3    0    0 -0.92836956704E+02 -0.29648921705E+01  0.44431130917E+03  0.45391632552E+03  0.00000000000E+00 0.  1.
         21    1    1    2  503  502 -0.23349682629E+02 -0.11422221738E+02  0.49861877054E+00  0.25998527823E+02  0.00000000000E+00 0. -1.
          1    1    1    2  501    0  0.28344023644E+02 -0.10577461216E+02 -0.10873619750E+02  0.32148125428E+02  0.00000000000E+00 0. -1.
<scales pt_clust_5="13000.00000" pt_clust_6="13000.00000" pt_clust_7="13000.00000" pt_clust_8="13000.00000" pt_clust_9="25.99375" pt_clust_10="23.73181"></scales>
<clustering>
<clus scale="   25.994">  2  9  1 -1</clus>
<clus scale="   23.732">  2 10  1 -1</clus>
<clus scale="   89.270">  5  6 -1 -1</clus>
<clus scale="   90.590">  7  8 -1 -1</clus>
<clus scale="  196.383">  2  5  1 -1</clus>
<clus scale="   25.994">  2  5  1 -1</clus>
</clustering>
</event>
<event>
10    2  0.1671105E-006  0.1666208E+03  0.7546771E-02  0.1181538E+00
         21   -1    0    0  503  502  0.00000000000E+00  0.00000000000E+00  0.37981571156E+03  0.37981571156E+03  0.00000000000E+00 0.  1.
         -1   -1    0    0    0  501 -0.00000000000E+00 -0.00000000000E+00 -0.30197858350E+03  0.30197858350E+03  0.00000000000E+00 0.  1.
         23    2    1    2    0    0  0.57065397301E+02 -0.17103830906E+03 -0.11095180692E+03  0.23076250819E+03  0.91817585407E+02 0.  0.
         23    2    1    2    0    0 -0.12520989413E+03  0.53034728376E+02 -0.23350600534E+02  0.16617783853E+03  0.92626256918E+02 0.  0.
        -11    1    4    4    0    0 -0.31679912603E+02 -0.26723238295E+02 -0.26780403828E+01  0.41532158959E+02  0.00000000000E+00 0. -1.
         11    1    4    4    0    0 -0.93529981529E+02  0.79757966671E+02 -0.20672560151E+02  0.12464567957E+03  0.00000000000E+00 0.  1.
        -13    1    3    3    0    0 -0.18644890943E+02 -0.84313555860E+02 -0.37067462346E+02  0.93970231589E+02  0.00000000000E+00 0. -1.
         13    1    3    3    0    0  0.75710288244E+02 -0.86724753203E+02 -0.73884344575E+02  0.13679227660E+03  0.00000000000E+00 0.  1.
         21    1    1    2  503  501 -0.16199969331E+02  0.47862536824E+02  0.54053499171E+01  0.50818099584E+02  0.00000000000E+00 0. -1.
         -1    1    1    2    0  502  0.84344466161E+02  0.70141043863E+02  0.20673418561E+03  0.23403584876E+03  0.00000000000E+00 0.  1.
<scales pt_clust_5="13000.00000" pt_clust_6="13000.00000" pt_clust_7="13000.00000" pt_clust_8="13000.00000" pt_clust_9="50.52981" pt_clust_10="110.60954"></scales>
<clustering>
<clus scale="   50.530">  2  9  1 -1</clus>
<clus scale="   91.818">  7  8 -1 -1</clus>
<clus scale="   92.626">  5  6 -1 -1</clus>
<clus scale="  110.610">  1 10  2 -1</clus>
<clus scale="  166.173">  2  7  1 -1</clus>
<clus scale="  110.610">  1  5  2 -1</clus>
</clustering>
</event>
<event>
10    2  0.1934707E-006  0.5590583E+03  0.7546771E-02  0.1055981E+00
         -4   -1    0    0    0  501 -0.00000000000E+00  0.00000000000E+00  0.20341749740E+04  0.20341749740E+04  0.00000000000E+00 0.  1.
         21   -1    0    0  501  502  0.00000000000E+00 -0.00000000000E+00 -0.23339507692E+03  0.23339507692E+03  0.00000000000E+00 0.  1.
         23    2    1    2    0    0  0.42716655733E+02 -0.27023090790E+02  0.47988031952E+03  0.49089995464E+03  0.90236823329E+02 0.  0.
         23    2    1    2    0    0 -0.75684457083E+02 -0.51990256209E+03  0.97896789853E+03  0.11149600741E+04  0.93439870885E+02 0.  0.
        -13    1    3    3    0    0  0.68029028470E+02 -0.26951886623E+02  0.41212893699E+03  0.41857450186E+03  0.00000000000E+00 0.  1.
         13    1    3    3    0    0 -0.25312372737E+02 -0.71204167091E-01  0.67751382538E+02  0.72325452777E+02  0.00000000000E+00 0. -1.
        -13    1    4    4    0    0 -0.45802192827E+02 -0.48675696732E+03  0.89118272787E+03  0.10164825825E+04  0.00000000000E+00 0.  1.
         13    1    4    4    0    0 -0.29882264256E+02 -0.33145594769E+02  0.87785170657E+02  0.98477491626E+02  0.00000000000E+00 0. -1.
         21    1    1    2  503  502  0.82242047213E+01  0.92733197224E+02  0.73638416578E+00  0.93100084170E+02  0.00000000000E+00 0.  1.
         -4    1    1    2    0  503  0.24743596629E+02  0.45419245565E+03  0.34119529489E+03  0.56860993800E+03  0.00000000000E+00 0.  1.
<scales pt_clust_5="13000.00000" pt_clust_6="13000.00000" pt_clust_7="13000.00000" pt_clust_8="13000.00000" pt_clust_9="65.13415" pt_clust_10="65.13415"></scales>
<clustering>
<clus scale="   65.134">  9 10 -1 -1</clus>
<clus scale="   90.237">  5  6 -1 -1</clus>
<clus scale="   93.440">  7  8 -1 -1</clus>
<clus scale="  103.429">  1  5  2 -1</clus>
<clus scale="  548.223">  1  7  2 -1</clus>
<clus scale="  559.058">  2  5  1 -1</clus>
</clustering>
</event>
<event>
10    2  0.1671105E-006  0.1833625E+03  0.7546771E-02  0.1165036E+00
          1   -1    0    0  503    0 -0.00000000000E+00  0.00000000000E+00  0.42404540127E+03  0.42404540127E+03  0.00000000000E+00 0. -1.
         21   -1    0    0  501  502  0.00000000000E+00 -0.00000000000E+00 -0.17273694700E+03  0.17273694700E+03  0.00000000000E+00 0. -1.
         23    2    1    2    0    0  0.30835594055E+02  0.14728473332E+03  0.24549094149E+03  0.30221195740E+03  0.91774932928E+02 0.  0.
         23    2    1    2    0    0 -0.65892970400E+02 -0.18560910486E+03 -0.34378946002E+02  0.21842477100E+03  0.87947969281E+02 0.  0.
        -11    1    3    3    0    0 -0.58623806968E+01  0.13047909228E+03  0.21524946740E+03  0.25177667534E+03  0.00000000000E+00 0. -1.
         11    1    3    3    0    0  0.36697974752E+02  0.16805641036E+02  0.30241474097E+02  0.50435282066E+02  0.00000000000E+00 0.  1.
        -13    1    4    4    0    0 -0.37254756489E+02 -0.16392322523E+03  0.85739009854E+00  0.16810554949E+03  0.00000000000E+00 0. -1.
         13    1    4    4    0    0 -0.28638213912E+02 -0.21685879634E+02 -0.35236336100E+02  0.50319221509E+02  0.00000000000E+00 0.  1.
         21    1    1    2  503  502  0.28005414586E+02  0.14632495909E+02  0.33488170105E+01  0.31774640172E+02  0.00000000000E+00 0. -1.
          1    1    1    2  501    0  0.70519617592E+01  0.23691875637E+02  0.36847641766E+02  0.44370979701E+02  0.00000000000E+00 0. -1.
<scales pt_clust_5="13000.00000" pt_clust_6="13000.00000" pt_clust_7="13000.00000" pt_clust_8="13000.00000" pt_clust_9="33.07987" pt_clust_10="24.71914"></scales>
<clustering>
<clus scale="   24.719">  2 10  1 -1</clus>
<clus scale="   33.080">  2  9  1 -1</clus>
<clus scale="   87.948">  7  8 -1 -1</clus>
<clus scale="   91.775">  5  6 -1 -1</clus>
<clus scale="  181.477">  2  7  1 -1</clus>
<clus scale="   24.719">  2  5  1 -1</clus>
</clustering>
</event>
<event>
10    2  0.1671105E-006  0.1062430E+03  0.7546771E-02  0.1267701E+00
          2   -1    0    0  503    0 -0.00000000000E+00  0.00000000000E+00  0.42030535344E+03  0.42030535344E+03  0.00000000000E+00 0.  1.
         21   -1    0    0  501  502  0.00000000000E+00 -0.00000000000E+00 -0.10627460435E+03  0.10627460435E+03  0.00000000000E+00 0. -1.
         23    2    1    2    0    0 -0.23529143335E+02 -0.35409388078E+02  0.21367233381E+03  0.23663336397E+03  0.92369028125E+02 0.  0.
         23    2    1    2    0    0 -0.23852193866E+02  0.89249670254E+02  0.13354155941E+03  0.18682793226E+03  0.92395332071E+02 0.  0.
        -11    1    4    4    0    0 -0.15366856177E+02  0.53524514555E+02  0.13896797858E+03  0.14971009651E+03  0.00000000000E+00 0.  1.
         11    1    4    4    0    0 -0.84853376888E+01  0.35725155699E+02 -0.54264191675E+01  0.37117835745E+02  0.00000000000E+00 0. -1.
        -13    1    3    3    0    0 -0.49024623313E+02 -0.42521934897E+02  0.19119381608E+03  0.20190741429E+03  0.00000000000E+00 0.  1.
         13    1    3    3    0    0  0.25495479978E+02  0.71125468187E+01  0.22478517727E+02  0.34725949674E+02  0.00000000000E+00 0. -1.
         21    1    1    2  503  502  0.55758929468E+02 -0.26377826644E+02 -0.34414957584E+01  0.61779380435E+02  0.00000000000E+00 0.  1.
          2    1    1    2  501    0 -0.83775922673E+01 -0.27462455532E+02 -0.29741648371E+02  0.41339281124E+02  0.00000000000E+00 0.  1.
<scales pt_clust_5="13000.00000" pt_clust_6="13000.00000" pt_clust_7="13000.00000" pt_clust_8="13000.00000" pt_clust_9="64.94064" pt_clust_10="28.71185"></scales>
<clustering>
<clus scale="   28.712">  2 10  1 -1</clus>
<clus scale="   64.941">  2  9  1 -1</clus>
<clus scale="   92.369">  7  8 -1 -1</clus>
<clus scale="   92.395">  5  6 -1 -1</clus>
<clus scale="  106.220">  1  7  2 -1</clus>
<clus scale="   28.712">  2  5  1 -1</clus>
</clustering>
</event>
<event>
10    2  0.1671105E-006  0.1706863E+03  0.7546771E-02  0.1195750E+00
         21   -1    0    0  503  502  0.00000000000E+00  0.00000000000E+00  0.23278662971E+03  0.23278662971E+03  0.00000000000E+00 0.  1.
          1   -1    0    0  502    0 -0.00000000000E+00 -0.00000000000E+00 -0.33798086871E+03  0.33798086871E+03  0.00000000000E+00 0. -1.
         23    2    1    2    0    0 -0.33936970721E+02  0.34319063149E+02 -0.20326714095E+03  0.23248782813E+03  0.10199776252E+03 0.  0.
         23    2    1    2    0    0 -0.11470203893E+03  0.39820996264E+02  0.22108356785E+02  0.15241686738E+03  0.89441894784E+02 0.  0.
        -11    1    3    3    0    0  0.28437429916E+02 -0.14064865267E+02 -0.39298187635E+02  0.50505993769E+02  0.00000000000E+00 0. -1.
         11    1    3    3    0    0 -0.62374400637E+02  0.48383928416E+02 -0.16396895332E+03  0.18198183436E+03  0.00000000000E+00 0.  1.
        -13    1    4    4    0    0 -0.10937398273E+03  0.19762566546E+02  0.46421883809E+02  0.12045006613E+03  0.00000000000E+00 0.  1.
         13    1    4    4    0    0 -0.53280562056E+01  0.20058429718E+02 -0.24313527024E+02  0.31966801248E+02  0.00000000000E+00 0. -1.
         21    1    1    2  503  501  0.61677225368E+02 -0.29331858664E+02  0.50017189491E+02  0.84653158868E+02  0.00000000000E+00 0. -1.
          1    1    1    2  501    0  0.86961784287E+02 -0.44808200748E+02  0.25947355679E+02  0.10120964404E+03  0.00000000000E+00 0. -1.
<scales pt_clust_5="13000.00000" pt_clust_6="13000.00000" pt_clust_7="13000.00000" pt_clust_8="13000.00000" pt_clust_9="28.75136" pt_clust_10="149.39218"></scales>
<clustering>
<clus scale="   28.751">  9 10 -1 -1</clus>
<clus scale="   89.442">  7  8 -1 -1</clus>
<clus scale="  101.998">  5  6 -1 -1</clus>
<clus scale="  112.841">  2  5  1 -1</clus>
<clus scale="  149.392">  1  9  2 -1</clus>
<clus scale="  149.392">  1  5  2 -1</clus>
</clustering>
</event>
<event>
10    2  0.1671105E-006  0.2371880E+03  0.7546771E-02  0.1121737E+00
         -1   -1    0    0    0  501 -0.00000000000E+00  0.00000000000E+00  0.83391320939E+03  0.83391320939E+03  0.00000000000E+00 0.  1.
         21   -1    0    0  503  502  0.00000000000E+00 -0.00000000000E+00 -0.25060746748E+03  0.25060746748E+03  0.00000000000E+00 0.  1.
         23    2    1    2    0    0  0.14181617070E+03  0.25174167794E+02  0.22820805375E+03  0.28492897983E+03  0.91433269425E+02 0.  0.
         23    2    1    2    0    0 -0.27933462801E+03 -0.18873963050E+03  0.39590558648E+03  0.52781836622E+03  0.90556677203E+02 0.  0.
        -11    1    4    4    0    0 -0.36480933908E+02 -0.63767381970E+02  0.59757703397E+02  0.94700161866E+02  0.00000000000E+00 0. -1.
         11    1    4    4    0    0 -0.24285369411E+03 -0.12497224853E+03  0.33614788309E+03  0.43311820436E+03  0.00000000000E+00 0.  1.
        -13    1    3    3    0    0  0.66465231756E+02  0.34010938887E+02  0.46346492463E+02  0.87877007004E+02  0.00000000000E+00 0.  1.
         13    1    3    3    0    0  0.75350938940E+02 -0.88367710935E+01  0.18186156128E+03  0.19705197283E+03  0.00000000000E+00 0. -1.
         21    1    1    2  503  501  0.52534003904E+02  0.73719517408E+02  0.63017494839E+02  0.11029774916E+03  0.00000000000E+00 0.  1.
         -1    1    1    2    0  502  0.84984453413E+02  0.89845945299E+02 -0.10382539316E+03  0.16147558166E+03  0.00000000000E+00 0.  1.
<scales pt_clust_5="13000.00000" pt_clust_6="13000.00000" pt_clust_7="13000.00000" pt_clust_8="13000.00000" pt_clust_9="90.52286" pt_clust_10="127.13093"></scales>
<clustering>
<clus scale="   90.523">  1  9  2 -1</clus>
<clus scale="   90.557">  5  6 -1 -1</clus>
<clus scale="   91.433">  7  8 -1 -1</clus>
<clus scale="  127.131">  2 10  1 -1</clus>
<clus scale="  236.851">  2  5  1 -1</clus>
<clus scale="  127.131">  2  5  1 -1</clus>
</clustering>
</event>
<event>
10    2  0.1671105E-006  0.9801989E+02  0.7546771E-02  0.1286659E+00
          1   -1    0    0  503    0 -0.00000000000E+00  0.00000000000E+00  0.39847902096E+03  0.39847902096E+03  0.00000000000E+00 0. -1.
         21   -1    0    0  501  502  0.00000000000E+00 -0.00000000000E+00 -0.16187294477E+03  0.16187294477E+03  0.00000000000E+00 0. -1.
         23    2    1    2    0    0 -0.39286161640E+02  0.31207665712E+02  0.18580311266E+03  0.21292912703E+03  0.91097176508E+02 0.  0.
         23    2    1    2    0    0 -0.28038852823E+02 -0.31486617411E+02  0.48976679219E+02  0.10829935219E+03  0.86904834355E+02 0.  0.
        -11    1    4    4    0    0 -0.30048451300E+02  0.25506530433E+02  0.22987414008E+02  0.45627992757E+02  0.00000000000E+00 0. -1.
         11    1    4    4    0    0  0.20095984768E+01 -0.56993147844E+02  0.25989265211E+02  0.62671359435E+02  0.00000000000E+00 0.  1.
        -13    1    3    3    0    0  0.26496537026E+02  0.11936405318E+02  0.25800665587E+02  0.38861530991E+02  0.00000000000E+00 0.  1.
         13    1    3    3    0    0 -0.65782698666E+02  0.19271260394E+02  0.16000244708E+03  0.17406759604E+03  0.00000000000E+00 0. -1.
         21    1    1    2  503  502 -0.70916499387E+02 -0.55027778764E+02 -0.64957439440E+01  0.89996672219E+02  0.00000000000E+00 0. -1.
          1    1    1    2  501    0  0.13824151385E+03  0.55306730464E+02  0.83220282547E+01  0.14912681429E+03  0.00000000000E+00 0. -1.
<scales pt_clust_5="13000.00000" pt_clust_6="13000.00000" pt_clust_7="13000.00000" pt_clust_8="13000.00000" pt_clust_9="89.76194" pt_clust_10="96.65832"></scales>
<clustering>
<clus scale="   86.905">  5  6 -1 -1</clus>
<clus scale="   89.762">  2  9  1 -1</clus>
<clus scale="   91.097">  7  8 -1 -1</clus>
<clus scale="   96.658">  2 10  1 -1</clus>
<clus scale="   94.136">  2  5  1 -1</clus>
<clus scale="   89.762">  2  5  1 -1</clus>
</clustering>
</event>
<event>
10    2  0.1671105E-006  0.1442874E+03  0.7546771E-02  0.1225936E+00
         21   -1    0    0  503  502  0.00000000000E+00  0.00000000000E+00  0.14395287071E+03  0.14395287071E+03  0.00000000000E+00 0. -1.
          2   -1    0    0  502    0 -0.00000000000E+00 -0.00000000000E+00 -0.27036871077E+03  0.27036871077E+03  0.00000000000E+00 0. -1.
         23    2    1    2    0    0 -0.30850902040E+02  0.18704990228E+02  0.31323390661E+02  0.10300584817E+03  0.91254562290E+02 0.  0.
         23    2    1    2    0    0  0.63498758579E+02  0.90067730240E+02 -0.11788916283E+03  0.18581224093E+03  0.92108880102E+02 0.  0.
        -11    1    4    4    0    0  0.18464353052E+02  0.80604941333E+02 -0.11229297193E+03  0.13945537080E+03  0.00000000000E+00 0. -1.
         11    1    4    4    0    0  0.45034405528E+02  0.94627889073E+01 -0.55961909017E+01  0.46356870125E+02  0.00000000000E+00 0.  1.
        -13    1    3    3    0    0 -0.51458472813E+02  0.41447952088E+02  0.29206995311E+02  0.72242340298E+02  0.00000000000E+00 0.  1.
         13    1    3    3    0    0  0.20607570774E+02 -0.22742961860E+02  0.21163953501E+01  0.30763507873E+02  0.00000000000E+00 0. -1.
         21    1    1    2  503  501 -0.10509134785E+02 -0.33922605077E+02 -0.30644464699E+02  0.46907017234E+02  0.00000000000E+00 0. -1.
          2    1    1    2  501    0 -0.22138721755E+02 -0.74850115391E+02 -0.92056031941E+01  0.78596475145E+02  0.00000000000E+00 0. -1.
<scales pt_clust_5="13000.00000" pt_clust_6="13000.00000" pt_clust_7="13000.00000" pt_clust_8="13000.00000" pt_clust_9="23.99718" pt_clust_10="116.62122"></scales>
<clustering>
<clus scale="   23.997">  9 10 -1 -1</clus>
<clus scale="   91.255">  7  8 -1 -1</clus>
<clus scale="   92.109">  5  6 -1 -1</clus>
<clus scale="   98.128">  2  7  1 -1</clus>
<clus scale="  116.621">  1  9  2 -1</clus>
<clus scale="  116.621">  1  5  2 -1</clus>
</clustering>
</event>
<event>
10    2  0.1671105E-006  0.1097038E+03  0.7546771E-02  0.1261941E+00
         21   -1    0    0  503  502  0.00000000000E+00  0.00000000000E+00  0.48947958176E+02  0.48947958176E+02  0.00000000000E+00 0. -1.
          1   -1    0    0  502    0 -0.00000000000E+00 -0.00000000000E+00 -0.60362552124E+03  0.60362552124E+03  0.00000000000E+00 0. -1.
         23    2    1    2    0    0  0.67250666217E+02  0.50676635669E+02 -0.37863721219E+03  0.39884334284E+03  0.92839109021E+02 0.  0.
         23    2    1    2    0    0  0.88737486287E+01 -0.18973898707E+02 -0.83730656149E+02  0.12524845859E+03  0.90761232659E+02 0.  0.
        -11    1    4    4    0    0  0.41036365203E+02 -0.36354137511E+02 -0.61817734594E+02  0.82625897233E+02  0.00000000000E+00 0.  1.
         11    1    4    4    0    0 -0.32162616574E+02  0.17380238804E+02 -0.21912921555E+02  0.42622561360E+02  0.00000000000E+00 0. -1.
        -13    1    3    3    0    0 -0.16781872337E+02 -0.11372849711E+02 -0.77309916830E+02  0.79923689792E+02  0.00000000000E+00 0.  1.
         13    1    3    3    0    0  0.84032538554E+02  0.62049485380E+02 -0.30132729536E+03  0.31891965305E+03  0.00000000000E+00 0. -1.
         21    1    1    2  503  501 -0.20685150673E+02 -0.52128402611E+01 -0.53277299652E+01  0.21987129611E+02  0.00000000000E+00 0.  1.
          1    1    1    2  501    0 -0.55439264173E+02 -0.26489896701E+02 -0.86981964760E+02  0.10649454837E+03  0.00000000000E+00 0. -1.
<scales pt_clust_5="13000.00000" pt_clust_6="13000.00000" pt_clust_7="13000.00000" pt_clust_8="13000.00000" pt_clust_9="20.29586" pt_clust_10="89.36701"></scales>
<clustering>
<clus scale="   20.296">  9 10 -1 -1</clus>
<clus scale="   89.367">  1  9  2 -1</clus>
<clus scale="   90.761">  5  6 -1 -1</clus>
<clus scale="   92.839">  7  8 -1 -1</clus>
<clus scale="  107.951">  1  5  2 -1</clus>
<clus scale="   89.367">  1  5  2 -1</clus>
</clustering>
</event>
<event>
10    2  0.1671105E-006  0.9343206E+02  0.7546771E-02  0.1295059E+00
         21   -1    0    0  503  502  0.00000000000E+00  0.00000000000E+00  0.38927728622E+02  0.38927728622E+02  0.00000000000E+00 0.  1.
          2   -1    0    0  502    0 -0.00000000000E+00 -0.00000000000E+00 -0.52481686827E+03  0.52481686827E+03  0.00000000000E+00 0. -1.
         23    2    1    2    0    0 -0.24196533191E+02  0.26959604859E+02 -0.20343815521E+03  0.22598110736E+03  0.91477239674E+02 0.  0.
         23    2    1    2    0    0  0.80383250491E+01  0.37661753122E+02 -0.96125777500E+02  0.13780653431E+03  0.90925538114E+02 0.  0.
        -11    1    3    3    0    0 -0.37189947943E+02  0.50983226457E+01 -0.19588885894E+03  0.19945307764E+03  0.00000000000E+00 0. -1.
         11    1    3    3    0    0  0.12993414752E+02  0.21861282213E+02 -0.75492962635E+01  0.26528029723E+02  0.00000000000E+00 0.  1.
        -11    1    4    4    0    0  0.11886210924E+02 -0.28124734461E+02 -0.45092572414E+02  0.54457531945E+02  0.00000000000E+00 0. -1.
         11    1    4    4    0    0 -0.38478858746E+01  0.65786487583E+02 -0.51033205086E+02  0.83349002367E+02  0.00000000000E+00 0.  1.
         21    1    1    2  503  501 -0.63971895199E+01 -0.33623149218E+02 -0.86975381655E+02  0.93467412563E+02  0.00000000000E+00 0. -1.
          2    1    1    2  501    0  0.22555397662E+02 -0.30998208763E+02 -0.99349825280E+02  0.10648954265E+03  0.00000000000E+00 0. -1.
<scales pt_clust_5="13000.00000" pt_clust_6="13000.00000" pt_clust_7="13000.00000" pt_clust_8="13000.00000" pt_clust_9="27.20036" pt_clust_10="72.56519"></scales>
<clustering>
<clus scale="   27.200">  9 10 -1 -1</clus>
<clus scale="   72.565">  1  9  2 -1</clus>
<clus scale="   90.926">  7  8 -1 -1</clus>
<clus scale="   91.477">  5  6 -1 -1</clus>
<clus scale="   92.892">  1  7  2 -1</clus>
<clus scale="   72.565">  1  5  2 -1</clus>
</clustering>
</event>
<event>
10    2  0.1671105E-006  0.1504318E+03  0.7546771E-02  0.1200508E+00
          2   -1    0    0  503    0 -0.00000000000E+00  0.00000000000E+00  0.27437797023E+03  0.27437797023E+03  0.00000000000E+00 0. -1.
         21   -1    0    0  501  502  0.00000000000E+00 -0.00000000000E+00 -0.40806827303E+03  0.40806827303E+03  0.00000000000E+00 0. -1.
         23    2    1    2    0    0 -0.11598903620E+03  0.70934880583E+01  0.19240117019E+03  0.24117987179E+03  0.87439957544E+02 0.  0.
         23    2    1    2    0    0  0.17050293030E+03 -0.16971755834E+02 -0.14451602531E+03  0.23946216398E+03  0.84249371927E+02 0.  0.
        -13    1    4    4    0    0  0.31935708483E+02 -0.20098605729E+02 -0.75994558550E+02  0.84847017377E+02  0.00000000000E+00 0.  1.
         13    1    4    4    0    0  0.13856722182E+03  0.31268498954E+01 -0.68521466758E+02  0.15461514660E+03  0.00000000000E+00 0. -1.
        -13    1    3    3    0    0 -0.41389026878E+02 -0.39697615929E+02  0.77810016983E+02  0.96661010751E+02  0.00000000000E+00 0. -1.
         13    1    3    3    0    0 -0.74600009323E+02  0.46791103988E+02  0.11459115320E+03  0.14451886104E+03  0.00000000000E+00 0.  1.
         21    1    1    2  503  502 -0.40226915836E+01 -0.25131254427E+02 -0.39205658339E+02  0.46742332446E+02  0.00000000000E+00 0.  1.
          2    1    1    2  501    0 -0.50491202515E+02  0.35009522203E+02 -0.14236978934E+03  0.15506187505E+03  0.00000000000E+00 0. -1.
<scales pt_clust_5="13000.00000" pt_clust_6="13000.00000" pt_clust_7="13000.00000" pt_clust_8="13000.00000" pt_clust_9="25.45117" pt_clust_10="57.71655"></scales>
<clustering>
<clus scale="   25.451">  2  9  1 -1</clus>
<clus scale="   57.717">  2 10  1 -1</clus>
<clus scale="   84.249">  5  6 -1 -1</clus>
<clus scale="   87.440">  7  8 -1 -1</clus>
<clus scale="  148.600">  2  5  1 -1</clus>
<clus scale="   25.451">  2  5  1 -1</clus>
</clustering>
</event>
<event>
10    2  0.1671105E-006  0.2683746E+03  0.7546771E-02  0.1128741E+00
          1   -1    0    0  502    0 -0.00000000000E+00  0.00000000000E+00  0.11099089224E+04  0.11099089224E+04  0.00000000000E+00 0. -1.
         21   -1    0    0  503  502  0.00000000000E+00 -0.00000000000E+00 -0.12118696561E+03  0.12118696561E+03  0.00000000000E+00 0. -1.
         23    2    1    2    0    0  0.86716681130E+02  0.49381691703E+02  0.87552208006E+02  0.16297535928E+03  0.94536999872E+02 0.  0.
         23    2    1    2    0    0  0.10878439198E+03 -0.22279865397E+03  0.61894085198E+03  0.67296748247E+03  0.91236889814E+02 0.  0.
        -11    1    3    3    0    0  0.40787131886E+02  0.54956029594E+02  0.93986437690E+02  0.11626351872E+03  0.00000000000E+00 0.  1.
         11    1    3    3    0    0  0.45929549245E+02 -0.55743378914E+01 -0.64342296848E+01  0.46711840559E+02  0.00000000000E+00 0. -1.
        -13    1    4    4    0    0  0.31046398835E+02 -0.77113179712E+01  0.11852114074E+03  0.12276238882E+03  0.00000000000E+00 0.  1.
         13    1    4    4    0    0  0.77737993148E+02 -0.21508733600E+03  0.50041971124E+03  0.55020509366E+03  0.00000000000E+00 0. -1.
         21    1    1    2  503  501 -0.87252053673E+02  0.24690124418E+02  0.71837340434E+02  0.11568546406E+03  0.00000000000E+00 0. -1.
          1    1    1    2  501    0 -0.10824901944E+03  0.14872683785E+03  0.21039155637E+03  0.27946758220E+03  0.00000000000E+00 0. -1.
<scales pt_clust_5="13000.00000" pt_clust_6="13000.00000" pt_clust_7="13000.00000" pt_clust_8="13000.00000" pt_clust_9="63.57308" pt_clust_10="268.14073"></scales>
<clustering>
<clus scale="   63.573">  9 10 -1 -1</clus>
<clus scale="   91.237">  7  8 -1 -1</clus>
<clus scale="   94.537">  5  6 -1 -1</clus>
<clus scale="  137.461">  1  5  2 -1</clus>
<clus scale="  268.141">  2  9  1 -1</clus>
<clus scale="  268.141">  2  5  1 -1</clus>
</clustering>
</event>
<event>
10    2  0.1671105E-006  0.1020740E+03  0.7546771E-02  0.1276527E+00
         21   -1    0    0  501  502  0.00000000000E+00  0.00000000000E+00  0.14112987456E+03  0.14112987456E+03  0.00000000000E+00 0.  1.
          1   -1    0    0  503    0 -0.00000000000E+00 -0.00000000000E+00 -0.25570989078E+03  0.25570989078E+03  0.00000000000E+00 0. -1.
         23    2    1    2    0    0 -0.29104343097E+02  0.41313064758E+02 -0.11093168928E+03  0.15194285341E+03  0.90702584908E+02 0.  0.
         23    2    1    2    0    0 -0.36480945135E+02 -0.47033555511E+02  0.94485655750E+01  0.10986178072E+03  0.91854889748E+02 0.  0.
        -11    1    3    3    0    0 -0.12134906840E-01  0.63937392183E+02 -0.87125080082E+02  0.10806835728E+03  0.00000000000E+00 0.  1.
         11    1    3    3    0    0 -0.29092208190E+02 -0.22624327425E+02 -0.23806609194E+02  0.43874496124E+02  0.00000000000E+00 0. -1.
        -11    1    4    4    0    0 -0.58726657493E+02 -0.97481661288E+01 -0.13075899880E+02  0.60949374080E+02  0.00000000000E+00 0. -1.
         11    1    4    4    0    0  0.22245712357E+02 -0.37285389383E+02  0.22524465455E+02  0.48912406644E+02  0.00000000000E+00 0.  1.
         21    1    1    2  503  502  0.76710966265E+02 -0.30541586798E+02 -0.36704517973E+02  0.90358079379E+02  0.00000000000E+00 0.  1.
          1    1    1    2  501    0 -0.11125678032E+02  0.36262077551E+02  0.23607625456E+02  0.44677051824E+02  0.00000000000E+00 0. -1.
<scales pt_clust_5="13000.00000" pt_clust_6="13000.00000" pt_clust_7="13000.00000" pt_clust_8="13000.00000" pt_clust_9="76.97018" pt_clust_10="37.93045"></scales>
<clustering>
<clus scale="   37.930">  1 10  2 -1</clus>
<clus scale="   76.970">  1  9  2 -1</clus>
<clus scale="   90.703">  5  6 -1 -1</clus>
<clus scale="   91.855">  7  8 -1 -1</clus>
<clus scale="  101.038">  2  5  1 -1</clus>
<clus scale="   37.930">  1  5  2 -1</clus>
</clustering>
</event>
<event>
10    2  0.1671105E-006  0.1596021E+03  0.7546771E-02  0.1223612E+00
         21   -1    0    0  501  502  0.00000000000E+00  0.00000000000E+00  0.71453301179E+03  0.71453301179E+03  0.00000000000E+00 0.  1.
         -3   -1    0    0    0  501 -0.00000000000E+00 -0.00000000000E+00 -0.52812968332E+02  0.52812968332E+02  0.00000000000E+00 0.  1.
         23    2    1    2    0    0 -0.22579606172E+00 -0.32547382847E+02  0.82471723888E+02  0.11221733181E+03  0.68787798354E+02 0.  0.
         23    2    1    2    0    0  0.10279374396E+03 -0.59639168395E+02  0.19498941561E+03  0.24585804934E+03  0.91114894612E+02 0.  0.
        -11    1    4    4    0    0  0.93246146477E+02 -0.81458641628E+02  0.17701347377E+03  0.21601880480E+03  0.00000000000E+00 0.  1.
         11    1    4    4    0    0  0.95475974852E+01  0.21819473233E+02  0.17975941838E+02  0.29839244543E+02  0.00000000000E+00 0. -1.
        -11    1    3    3    0    0  0.24041852088E+02 -0.19922106396E+01  0.65248712306E+02  0.69565609410E+02  0.00000000000E+00 0.  1.
         11    1    3    3    0    0 -0.24267648149E+02 -0.30555172208E+02  0.17223011582E+02  0.42651722395E+02  0.00000000000E+00 0. -1.
         21    1    1    2  503  502 -0.29437095372E+02  0.37296282585E+02  0.16510814406E+03  0.17180877310E+03  0.00000000000E+00 0.  1.
         -3    1    1    2    0  503 -0.73130852529E+02  0.54890268657E+02  0.21915075990E+03  0.23746182588E+03  0.00000000000E+00 0.  1.
<scales pt_clust_5="13000.00000" pt_clust_6="13000.00000" pt_clust_7="13000.00000" pt_clust_8="13000.00000" pt_clust_9="20.75461" pt_clust_10="134.16364"></scales>
<clustering>
<clus scale="   20.755">  9 10 -1 -1</clus>
<clus scale="   68.788">  7  8 -1 -1</clus>
<clus scale="   76.100">  2  7  1 -1</clus>
<clus scale="   91.115">  5  6 -1 -1</clus>
<clus scale="  134.164">  1  9  2 -1</clus>
<clus scale="  134.164">  1  5  2 -1</clus>
</clustering>
</event>
<event>
10    2  0.1671105E-006  0.1682151E+03  0.7546771E-02  0.1179748E+00
         21   -1    0    0  501  502  0.00000000000E+00  0.00000000000E+00  0.86200611665E+03  0.86200611665E+03  0.00000000000E+00 0. -1.
          2   -1    0    0  503    0 -0.00000000000E+00 -0.00000000000E+00 -0.22586819563E+03  0.22586819563E+03  0.00000000000E+00 0. -1.
         23    2    1    2    0    0  0.14485203717E+03  0.13656135161E+03 -0.10093643317E+03  0.24077541170E+03  0.90296843316E+02 0.  0.
         23    2    1    2    0    0 -0.56219332635E+02 -0.55091339797E+02  0.31076465031E+02  0.12362281084E+03  0.90117609817E+02 0.  0.
        -13    1    3    3    0    0  0.36059685572E+02  0.76030803747E+01  0.10811192064E+02  0.38405593715E+02  0.00000000000E+00 0.  1.
         13    1    3    3    0    0  0.10879235160E+03  0.12895827123E+03 -0.11174762524E+03  0.20236981798E+03  0.00000000000E+00 0. -1.
        -13    1    4    4    0    0  0.22881185696E+02 -0.27428835898E+02  0.11994227993E+02  0.37679586021E+02  0.00000000000E+00 0.  1.
         13    1    4    4    0    0 -0.79100518331E+02 -0.27662503898E+02  0.19082237038E+02  0.85943224821E+02  0.00000000000E+00 0. -1.
         21    1    1    2  503  502 -0.81541294339E+02 -0.40904810552E+02  0.63402960246E+03  0.64055891455E+03  0.00000000000E+00 0. -1.
          2    1    1    2  501    0 -0.70914101953E+01 -0.40565201256E+02  0.71968286695E+02  0.82917175189E+02  0.00000000000E+00 0. -1.
<scales pt_clust_5="13000.00000" pt_clust_6="13000.00000" pt_clust_7="13000.00000" pt_clust_8="13000.00000" pt_clust_9="114.35128" pt_clust_10="41.18038"></scales>
<clustering>
<clus scale="   41.180">  1 10  2 -1</clus>
<clus scale="   90.118">  7  8 -1 -1</clus>
<clus scale="   90.297">  5  6 -1 -1</clus>
<clus scale="  114.351">  1  9  2 -1</clus>
<clus scale="  168.119">  1  7  2 -1</clus>
<clus scale="   41.180">  1  5  2 -1</clus>
</clustering>
</event>
<event>
10    2  0.1671105E-006  0.1074103E+03  0.7546771E-02  0.1265695E+00
         -3   -1    0    0    0  501 -0.00000000000E+00  0.00000000000E+00  0.16847184237E+03  0.16847184237E+03  0.00000000000E+00 0.  1.
         21   -1    0    0  503  502  0.00000000000E+00 -0.00000000000E+00 -0.45239624907E+03  0.45239624907E+03  0.00000000000E+00 0.  1.
         23    2    1    2    0    0 -0.55316020334E+02 -0.57467069248E+00  0.12590416827E+03  0.16535428630E+03  0.91814966408E+02 0.  0.
         23    2    1    2    0    0  0.58174164212E+02 -0.36600620223E+02 -0.13950537585E+03  0.18028464662E+03  0.91197396528E+02 0.  0.
        -13    1    3    3    0    0 -0.51158213310E+02 -0.37908530060E+02  0.51078474932E+02  0.81628610437E+02  0.00000000000E+00 0.  1.
         13    1    3    3    0    0 -0.41578070238E+01  0.37333859368E+02  0.74825693338E+02  0.83725675859E+02  0.00000000000E+00 0. -1.
        -13    1    4    4    0    0  0.17896140528E+01 -0.44900156660E+02 -0.22760382499E+02  0.50371239790E+02  0.00000000000E+00 0.  1.
         13    1    4    4    0    0  0.56384550159E+02  0.82995364373E+01 -0.11674499335E+03  0.12991340683E+03  0.00000000000E+00 0. -1.
         21    1    1    2  503  501 -0.19159773922E+02  0.18106210760E+02 -0.12403600878E+03  0.12680640078E+03  0.00000000000E+00 0.  1.
         -3    1    1    2    0  502  0.16301630045E+02  0.19069080155E+02 -0.14628719034E+03  0.14842275775E+03  0.00000000000E+00 0.  1.
<scales pt_clust_5="13000.00000" pt_clust_6="13000.00000" pt_clust_7="13000.00000" pt_clust_8="13000.00000" pt_clust_9="28.78214" pt_clust_10="25.08731"></scales>
<clustering>
<clus scale="   25.087">  2 10  1 -1</clus>
<clus scale="   28.782">  2  9  1 -1</clus>
<clus scale="   91.197">  7  8 -1 -1</clus>
<clus scale="   91.815">  5  6 -1 -1</clus>
<clus scale="  106.883">  2  7  1 -1</clus>
<clus scale="   25.087">  2  5  1 -1</clus>
</clustering>
</event>
<event>
10    2  0.1671105E-006  0.1205753E+03  0.7546771E-02  0.1244075E+00
         21   -1    0    0  503  502  0.00000000000E+00  0.00000000000E+00  0.18923114688E+03  0.18923114688E+03  0.00000000000E+00 0. -1.
          1   -1    0    0  502    0 -0.00000000000E+00 -0.00000000000E+00 -0.44726037205E+03  0.44726037205E+03  0.00000000000E+00 0. -1.
         23    2    1    2    0    0 -0.30385098037E+02 -0.73619239228E+02 -0.28041626310E+03  0.30516894779E+03  0.90287094954E+02 0.  0.
         23    2    1    2    0    0 -0.73473229477E+02  0.69723888710E+02 -0.92923404363E+02  0.16773168934E+03  0.96121924776E+02 0.  0.
        -11    1    3    3    0    0 -0.53872054552E+02 -0.17776064713E+02 -0.17013385791E+03  0.17934245550E+03  0.00000000000E+00 0. -1.
         11    1    3    3    0    0  0.23486956515E+02 -0.55843174514E+02 -0.11028240520E+03  0.12582649229E+03  0.00000000000E+00 0.  1.
        -13    1    4    4    0    0 -0.61728623045E+02  0.42603258192E+02 -0.11034680897E+03  0.13342368141E+03  0.00000000000E+00 0. -1.
         13    1    4    4    0    0 -0.11744606431E+02  0.27120630518E+02  0.17423404604E+02  0.34308007927E+02  0.00000000000E+00 0.  1.
         21    1    1    2  503  501  0.38713581243E+02  0.26690483668E+02  0.46498199422E+02  0.66130218816E+02  0.00000000000E+00 0.  1.
          1    1    1    2  501    0  0.65144746271E+02 -0.22795133150E+02  0.68812242867E+02  0.97460662989E+02  0.00000000000E+00 0. -1.
<scales pt_clust_5="13000.00000" pt_clust_6="13000.00000" pt_clust_7="13000.00000" pt_clust_8="13000.00000" pt_clust_9="42.60098" pt_clust_10="116.04085"></scales>
<clustering>
<clus scale="   42.601">  9 10 -1 -1</clus>
<clus scale="   90.287">  5  6 -1 -1</clus>
<clus scale="   96.122">  7  8 -1 -1</clus>
<clus scale="  116.041">  1  9  2 -1</clus>
<clus scale="  115.977">  2  5  1 -1</clus>
<clus scale="  116.041">  1  5  2 -1</clus>
</clustering>
</event>
<event>
10    2  0.1671105E-006  0.2064789E+03  0.7546771E-02  0.1168614E+00
          4   -1    0    0  502    0 -0.00000000000E+00  0.00000000000E+00  0.49511329086E+03  0.49511329086E+03  0.00000000000E+00 0. -1.
         21   -1    0    0  503  502  0.00000000000E+00 -0.00000000000E+00 -0.24018254947E+03  0.24018254947E+03  0.00000000000E+00 0. -1.
         23    2    1    2    0    0  0.12975154505E+02  0.79201784434E+02  0.24861421120E+03  0.27479135890E+03  0.85205561001E+02 0.  0.
         23    2    1    2    0    0 -0.14643798889E+03 -0.14693991713E+03 -0.12655280557E+03  0.25627253127E+03  0.81391485101E+02 0.  0.
        -13    1    3    3    0    0 -0.18319179595E+02  0.77304964681E+02  0.13225390339E+03  0.15428138211E+03  0.00000000000E+00 0. -1.
         13    1    3    3    0    0  0.31294334101E+02  0.18968197537E+01  0.11636030781E+03  0.12050997679E+03  0.00000000000E+00 0.  1.
        -13    1    4    4    0    0 -0.42732229044E+02 -0.15782613282E+02 -0.62233669528E+02  0.77124340541E+02  0.00000000000E+00 0.  1.
         13    1    4    4    0    0 -0.10370575985E+03 -0.13115730385E+03 -0.64319136039E+02  0.17914819073E+03  0.00000000000E+00 0. -1.
         21    1    1    2  503  501  0.33175719825E+02  0.36264761721E+02  0.52500543037E+02  0.71917093572E+02  0.00000000000E+00 0. -1.
          4    1    1    2  501    0  0.10028711456E+03  0.31473370979E+02  0.80368792721E+02  0.13231485658E+03  0.00000000000E+00 0. -1.
<scales pt_clust_5="13000.00000" pt_clust_6="13000.00000" pt_clust_7="13000.00000" pt_clust_8="13000.00000" pt_clust_9="27.82439" pt_clust_10="194.07384"></scales>
<clustering>
<clus scale="   27.824">  9 10 -1 -1</clus>
<clus scale="   81.391">  7  8 -1 -1</clus>
<clus scale="   85.206">  5  6 -1 -1</clus>
<clus scale="  117.052">  1  5  2 -1</clus>
<clus scale="  194.074">  2  9  1 -1</clus>
<clus scale="  194.074">  2  5  1 -1</clus>
</clustering>
</event>
<event>
10    2  0.1671105E-006  0.1654638E+03  0.7546771E-02  0.1182931E+00
          2   -1    0    0  502    0 -0.00000000000E+00  0.00000000000E+00  0.17832709082E+03  0.17832709082E+03  0.00000000000E+00 0. -1.
         21   -1    0    0  503  502  0.00000000000E+00 -0.00000000000E+00 -0.37890794279E+03  0.37890794279E+03  0.00000000000E+00 0.  1.
         23    2    1    2    0    0  0.10653027187E+03 -0.16533432041E+02 -0.12722286507E+02  0.14289798157E+03  0.92929668901E+02 0.  0.
         23    2    1    2    0    0 -0.19576340207E+03  0.97211412524E+02 -0.13384679061E+03  0.27202405611E+03  0.91152374798E+02 0.  0.
        -11    1    4    4    0    0 -0.12937899987E+03  0.74900101180E+02 -0.13579510552E+03  0.20196351514E+03  0.00000000000E+00 0.  1.
         11    1    4    4    0    0 -0.66384402208E+02  0.22311311344E+02  0.19483149163E+01  0.70060540973E+02  0.00000000000E+00 0. -1.
        -13    1    3    3    0    0  0.12814650764E+02 -0.28887159234E+02  0.25827112596E+02  0.40813269752E+02  0.00000000000E+00 0. -1.
         13    1    3    3    0    0  0.93715621108E+02  0.12353727194E+02 -0.38549399103E+02  0.10208471182E+03  0.00000000000E+00 0.  1.
         21    1    1    2  503  501  0.28264334489E+02 -0.27005044447E+02  0.82688832669E+01  0.39956469566E+02  0.00000000000E+00 0. -1.
          2    1    1    2  501    0  0.60968795712E+02 -0.53672936036E+02 -0.62280658123E+02  0.10235652636E+03  0.00000000000E+00 0. -1.
<scales pt_clust_5="13000.00000" pt_clust_6="13000.00000" pt_clust_7="13000.00000" pt_clust_8="13000.00000" pt_clust_9="37.12721" pt_clust_10="131.66517"></scales>
<clustering>
<clus scale="   37.127">  9 10 -1 -1</clus>
<clus scale="   91.152">  5  6 -1 -1</clus>
<clus scale="   92.930">  7  8 -1 -1</clus>
<clus scale="  131.665">  2  9  1 -1</clus>
<clus scale="  164.472">  2  5  1 -1</clus>
<clus scale="  131.665">  2  5  1 -1</clus>
</clustering>
</event>
<event>
10    2  0.2243624E-006  0.5238338E+03  0.7546771E-02  0.1052084E+00
         21   -1    0    0  503  502  0.00000000000E+00  0.00000000000E+00  0.21908705058E+03  0.21908705058E+03  0.00000000000E+00 0. -1.
          1   -1    0    0  502    0 -0.00000000000E+00 -0.00000000000E+00 -0.16522711036E+04  0.16522711036E+04  0.00000000000E+00 0. -1.
         23    2    1    2    0    0  0.89783651814E+02  0.59906825100E+02 -0.22749495417E+03  0.26732646085E+03  0.89775000269E+02 0.  0.
         23    2    1    2    0    0 -0.12442992126E+03 -0.54259712491E+03 -0.66933404230E+03  0.87541707462E+03  0.91937745691E+02 0.  0.
        -11    1    3    3    0    0  0.56125601831E+02  0.64103093782E+02 -0.21485033240E+03  0.23112757331E+03  0.00000000000E+00 0.  1.
         11    1    3    3    0    0  0.33658049983E+02 -0.41962686827E+01 -0.12644621771E+02  0.36198887541E+02  0.00000000000E+00 0. -1.
        -11    1    4    4    0    0 -0.16736657726E+02 -0.13406491819E+02 -0.45534868654E+02  0.50331640129E+02  0.00000000000E+00 0.  1.
         11    1    4    4    0    0 -0.10769326353E+03 -0.52919063309E+03 -0.62379917365E+03  0.82508543449E+03  0.00000000000E+00 0. -1.
         21    1    1    2  503  501  0.14782278913E+02  0.49211157341E+02 -0.22626094094E+02  0.56144402309E+02  0.00000000000E+00 0. -1.
          1    1    1    2  501    0  0.19863990530E+02  0.43347914247E+03 -0.51372896243E+03  0.67247021638E+03  0.00000000000E+00 0. -1.
<scales pt_clust_5="13000.00000" pt_clust_6="13000.00000" pt_clust_7="13000.00000" pt_clust_8="13000.00000" pt_clust_9="32.66748" pt_clust_10="32.66748"></scales>
<clustering>
<clus scale="   32.667">  9 10 -1 -1</clus>
<clus scale="   89.775">  5  6 -1 -1</clus>
<clus scale="   91.938">  7  8 -1 -1</clus>
<clus scale="  140.390">  2  5  1 -1</clus>
<clus scale="  523.299">  2  7  1 -1</clus>
<clus scale="  523.834">  1  5  2 -1</clus>
</clustering>
</event>
<event>
10    2  0.1671105E-006  0.1463716E+03  0.7546771E-02  0.1205327E+00
          2   -1    0    0  503    0 -0.00000000000E+00  0.00000000000E+00  0.13445688059E+04  0.13445688059E+04  0.00000000000E+00 0. -1.
         21   -1    0    0  501  502  0.00000000000E+00 -0.00000000000E+00 -0.85942136563E+02  0.85942136563E+02  0.00000000000E+00 0. -1.
         23    2    1    2    0    0 -0.12384817968E+03 -0.18708409147E+02  0.77705429293E+03  0.79239365810E+03  0.91574882150E+02 0.  0.
         23    2    1    2    0    0  0.55163300576E+02  0.12057231757E+03  0.36259495881E+03  0.39641638819E+03  0.89945401086E+02 0.  0.
        -11    1    3    3    0    0 -0.12293770029E+03  0.72155190501E+01  0.70794948780E+03  0.71858069773E+03  0.00000000000E+00 0. -1.
         11    1    3    3    0    0 -0.91047938432E+00 -0.25923928197E+02  0.69104805131E+02  0.73812960367E+02  0.00000000000E+00 0.  1.
        -13    1    4    4    0    0  0.69481286139E+02  0.10388514406E+03  0.34866414638E+03  0.37038690480E+03  0.00000000000E+00 0.  1.
         13    1    4    4    0    0 -0.14317985562E+02  0.16687173511E+02  0.13930812428E+02  0.26029483384E+02  0.00000000000E+00 0. -1.
         21    1    1    2  503  502  0.81068348291E+01 -0.12050121530E+03  0.12991771040E+03  0.17738341280E+03  0.00000000000E+00 0. -1.
          2    1    1    2  501    0  0.60578044272E+02  0.18637306876E+02 -0.10940292849E+02  0.64317483339E+02  0.00000000000E+00 0. -1.
<scales pt_clust_5="13000.00000" pt_clust_6="13000.00000" pt_clust_7="13000.00000" pt_clust_8="13000.00000" pt_clust_9="117.60808" pt_clust_10="63.38019"></scales>
<clustering>
<clus scale="   63.380">  2 10  1 -1</clus>
<clus scale="   89.945">  7  8 -1 -1</clus>
<clus scale="   91.575">  5  6 -1 -1</clus>
<clus scale="  117.608">  2  9  1 -1</clus>
<clus scale="  145.358">  2  7  1 -1</clus>
<clus scale="   63.380">  2  5  1 -1</clus>
</clustering>
</event>
<event>
10    2  0.1671105E-006  0.1487130E+03  0.7546771E-02  0.1204218E+00
         21   -1    0    0  501  502  0.00000000000E+00  0.00000000000E+00  0.61977177029E+03  0.61977177029E+03  0.00000000000E+00 0. -1.
         -3   -1    0    0    0  501 -0.00000000000E+00 -0.00000000000E+00 -0.65297678358E+02  0.65297678358E+02  0.00000000000E+00 0.  1.
         23    2    1    2    0    0  0.99801194964E+02 -0.62723742578E+02  0.12549765578E+03  0.19938262918E+03  0.10054464090E+03 0.  0.
         23    2    1    2    0    0 -0.66372487614E+02  0.78413355071E+02  0.16297494283E+03  0.21273887875E+03  0.90238778668E+02 0.  0.
        -11    1    4    4    0    0  0.14264764318E+02  0.45659661925E+02  0.75220953145E+02  0.89143031248E+02  0.00000000000E+00 0.  1.
         11    1    4    4    0    0 -0.80637251932E+02  0.32753693146E+02  0.87753989690E+02  0.12359584750E+03  0.00000000000E+00 0. -1.
        -11    1    3    3    0    0  0.75471177844E+02 -0.72611803488E+02  0.43716270448E+02  0.11348781870E+03  0.00000000000E+00 0.  1.
         11    1    3    3    0    0  0.24330017120E+02  0.98880609102E+01  0.81781385328E+02  0.85894810482E+02  0.00000000000E+00 0. -1.
         21    1    1    2  503  502 -0.16505309584E+02  0.11329007108E+02  0.40221454008E+02  0.44928131599E+02  0.00000000000E+00 0.  1.
         -3    1    1    2    0  503 -0.16923397766E+02 -0.27018619602E+02  0.22578003931E+03  0.22801980911E+03  0.00000000000E+00 0.  1.
<scales pt_clust_5="13000.00000" pt_clust_6="13000.00000" pt_clust_7="13000.00000" pt_clust_8="13000.00000" pt_clust_9="20.01928" pt_clust_10="32.51606"></scales>
<clustering>
<clus scale="   20.019">  1  9  2 -1</clus>
<clus scale="   32.516">  1 10  2 -1</clus>
<clus scale="   90.239">  5  6 -1 -1</clus>
<clus scale="  100.545">  7  8 -1 -1</clus>
<clus scale="  141.948">  1  5  2 -1</clus>
<clus scale="   20.019">  1  5  2 -1</clus>
</clustering>
</event>
<event>
10    2  0.1671105E-006  0.1217602E+03  0.7546771E-02  0.1240569E+00
         21   -1    0    0  503  502  0.00000000000E+00  0.00000000000E+00  0.44455868440E+03  0.44455868440E+03  0.00000000000E+00 0. -1.
         -2   -1    0    0    0  501 -0.00000000000E+00 -0.00000000000E+00 -0.69520697578E+02  0.69520697578E+02  0.00000000000E+00 0.  1.
         23    2    1    2    0    0  0.63135328598E+02 -0.37491703926E+02  0.67045560438E+02  0.13552363837E+03  0.92086110805E+02 0.  0.
         23    2    1    2    0    0 -0.81440239903E+02 -0.15009025848E+02  0.17431440380E+03  0.21431512337E+03  0.93207709987E+02 0.  0.
        -11    1    4    4    0    0  0.20978547891E+01  0.20158987497E+02  0.83815963721E+02  0.86231673683E+02  0.00000000000E+00 0. -1.
         11    1    4    4    0    0 -0.83538094692E+02 -0.35168013345E+02  0.90498440080E+02  0.12808344969E+03  0.00000000000E+00 0.  1.
        -11    1    3    3    0    0 -0.20674898488E+02  0.71852246850E+01  0.19492609082E+02  0.29309395935E+02  0.00000000000E+00 0.  1.
         11    1    3    3    0    0  0.83810227086E+02 -0.44676928611E+02  0.47552951357E+02  0.10621424244E+03  0.00000000000E+00 0. -1.
         21    1    1    2  503  501  0.32533762336E+02  0.69204599617E+01  0.15332913772E+02  0.36625629039E+02  0.00000000000E+00 0. -1.
         -2    1    1    2    0  502 -0.14228851031E+02  0.45580269812E+02  0.11834510881E+03  0.12761499119E+03  0.00000000000E+00 0.  1.
<scales pt_clust_5="13000.00000" pt_clust_6="13000.00000" pt_clust_7="13000.00000" pt_clust_8="13000.00000" pt_clust_9="33.26167" pt_clust_10="47.57790"></scales>
<clustering>
<clus scale="   33.262">  2  9  1 -1</clus>
<clus scale="   47.578">  1 10  2 -1</clus>
<clus scale="   92.086">  7  8 -1 -1</clus>
<clus scale="   93.208">  5  6 -1 -1</clus>
<clus scale="  120.904">  2  7  1 -1</clus>
<clus scale="   47.578">  1  5  2 -1</clus>
</clustering>
</event>
<event>
10    2  0.1671105E-006  0.1234009E+03  0.7546771E-02  0.1237664E+00
         -1   -1    0    0    0  501 -0.00000000000E+00  0.00000000000E+00  0.99870773470E+03  0.99870773470E+03  0.00000000000E+00 0.  1.
         21   -1    0    0  501  502  0.00000000000E+00 -0.00000000000E+00 -0.60476170871E+02  0.60476170871E+02  0.00000000000E+00 0. -1.
         23    2    1    2    0    0 -0.59317256031E+02  0.33261924607E+02  0.47789385286E+03  0.49116647346E+03  0.90758347049E+02 0.  0.
         23    2    1    2    0    0  0.79613806340E+02 -0.11485810396E+03  0.31535874376E+03  0.35674215857E+03  0.91011473076E+02 0.  0.
        -11    1    4    4    0    0  0.59820341160E+02 -0.79505748056E+02  0.11384777458E+03  0.15119838943E+03  0.00000000000E+00 0. -1.
         11    1    4    4    0    0  0.19793465180E+02 -0.35352355904E+02  0.20151096918E+03  0.20554376914E+03  0.00000000000E+00 0.  1.
        -11    1    3    3    0    0  0.16917152825E+02  0.14958337022E+02  0.36928542419E+02  0.43285784634E+02  0.00000000000E+00 0.  1.
         11    1    3    3    0    0 -0.76234408856E+02  0.18303587585E+02  0.44096531044E+03  0.44788068883E+03  0.00000000000E+00 0. -1.
         21    1    1    2  503  502  0.39426233203E+02  0.10344050565E+02  0.21046924132E+01  0.40814911207E+02  0.00000000000E+00 0. -1.
         -1    1    1    2    0  503 -0.59722783512E+02  0.71252128788E+02  0.14287427479E+03  0.17046036233E+03  0.00000000000E+00 0.  1.
<scales pt_clust_5="13000.00000" pt_clust_6="13000.00000" pt_clust_7="13000.00000" pt_clust_8="13000.00000" pt_clust_9="40.76061" pt_clust_10="88.00813"></scales>
<clustering>
<clus scale="   40.761">  2  9  1 -1</clus>
<clus scale="   88.008">  2 10  1 -1</clus>
<clus scale="   90.758">  7  8 -1 -1</clus>
<clus scale="   91.011">  5  6 -1 -1</clus>
<clus scale="  123.214">  1  7  2 -1</clus>
<clus scale="   40.761">  2  5  1 -1</clus>
</clustering>
</event>
<event>
10    2  0.1671105E-006  0.9313425E+02  0.7546771E-02  0.1295522E+00
         21   -1    0    0  503  502  0.00000000000E+00  0.00000000000E+00  0.21545705758E+03  0.21545705758E+03  0.00000000000E+00 0. -1.
         -2   -1    0    0    0  501 -0.00000000000E+00 -0.00000000000E+00 -0.11625308692E+03  0.11625308692E+03  0.00000000000E+00 0.  1.
         23    2    1    2    0    0 -0.14617928357E+02  0.24774174769E+01 -0.42683272563E+02  0.10175248327E+03  0.91169538052E+02 0.  0.
         23    2    1    2    0    0  0.19391031344E+02 -0.24238832679E+00  0.32587560276E+02  0.98598542060E+02  0.91014573354E+02 0.  0.
        -13    1    3    3    0    0 -0.14011341778E+02 -0.43838421971E+02 -0.20105398475E+02  0.50223022482E+02  0.00000000000E+00 0.  1.
         13    1    3    3    0    0 -0.60658657921E+00  0.46315839448E+02 -0.22577874087E+02  0.51529460791E+02  0.00000000000E+00 0. -1.
        -13    1    4    4    0    0 -0.34489969467E+02 -0.11545882717E+02  0.40733200999E+01  0.36598597490E+02  0.00000000000E+00 0.  1.
         13    1    4    4    0    0  0.53881000811E+02  0.11303494390E+02  0.28514240176E+02  0.61999944570E+02  0.00000000000E+00 0. -1.
         21    1    1    2  503  501 -0.21918420187E+01  0.21005391169E+02  0.16330106644E+01  0.21182477509E+02  0.00000000000E+00 0.  1.
         -2    1    1    2    0  502 -0.25812609679E+01 -0.23240420319E+02  0.10766667228E+03  0.11017664165E+03  0.00000000000E+00 0.  1.
<scales pt_clust_5="13000.00000" pt_clust_6="13000.00000" pt_clust_7="13000.00000" pt_clust_8="13000.00000" pt_clust_9="21.11944" pt_clust_10="23.14018"></scales>
<clustering>
<clus scale="   21.119">  2  9  1 -1</clus>
<clus scale="   23.140">  1 10  2 -1</clus>
<clus scale="   91.015">  7  8 -1 -1</clus>
<clus scale="   91.170">  5  6 -1 -1</clus>
<clus scale="   92.983">  1  7  2 -1</clus>
<clus scale="   23.140">  1  5  2 -1</clus>
</clustering>
</event>
<event>
10    2  0.1671105E-006  0.9689703E+02  0.7546771E-02  0.1287657E+00
         21   -1    0    0  501  502  0.00000000000E+00  0.00000000000E+00  0.40302654992E+03  0.40302654992E+03  0.00000000000E+00 0.  1.
          1   -1    0    0  503    0 -0.00000000000E+00 -0.00000000000E+00 -0.91851007110E+02  0.91851007110E+02  0.00000000000E+00 0. -1.
         23    2    1    2    0    0 -0.16401943187E+02  0.16317209999E+02 -0.16847439948E+02  0.96427088976E+02  0.92081877550E+02 0.  0.
         23    2    1    2    0    0  0.56447068345E+02 -0.15903690009E+02  0.11532503601E+03  0.15803495848E+03  0.90752329391E+02 0.  0.
        -13    1    4    4    0    0  0.54394952006E+02  0.29982481185E+02  0.65295150469E+02  0.90117793229E+02  0.00000000000E+00 0.  1.
         13    1    4    4    0    0  0.20521163392E+01 -0.45886171194E+02  0.50029885541E+02  0.67917165249E+02  0.00000000000E+00 0. -1.
        -13    1    3    3    0    0 -0.20962258599E+02 -0.36169838527E+02 -0.27850439222E+01  0.41897851666E+02  0.00000000000E+00 0. -1.
         13    1    3    3    0    0  0.45603154112E+01  0.52487048525E+02 -0.14062396025E+02  0.54529237309E+02  0.00000000000E+00 0.  1.
         21    1    1    2  503  502 -0.74068139251E+02 -0.74167072894E+01  0.16842949261E+03  0.18414556954E+03  0.00000000000E+00 0.  1.
          1    1    1    2  501    0  0.34023014093E+02  0.70031872993E+01  0.44268454139E+02  0.56269940041E+02  0.00000000000E+00 0. -1.
<scales pt_clust_5="13000.00000" pt_clust_6="13000.00000" pt_clust_7="13000.00000" pt_clust_8="13000.00000" pt_clust_9="57.19969" pt_clust_10="34.73629"></scales>
<clustering>
<clus scale="   34.736">  1 10  2 -1</clus>
<clus scale="   57.200">  1  9  2 -1</clus>
<clus scale="   90.752">  5  6 -1 -1</clus>
<clus scale="   92.082">  7  8 -1 -1</clus>
<clus scale="   95.634">  1  5  2 -1</clus>
<clus scale="   34.736">  1  5  2 -1</clus>
</clustering>
</event>
<event>
10    2  0.1671105E-006  0.1424409E+03  0.7546771E-02  0.1229721E+00
          2   -1    0    0  503    0 -0.00000000000E+00  0.00000000000E+00  0.22138550987E+03  0.22138550987E+03  0.00000000000E+00 0. -1.
         21   -1    0    0  501  502  0.00000000000E+00 -0.00000000000E+00 -0.26773636837E+03  0.26773636837E+03  0.00000000000E+00 0. -1.
         23    2    1    2    0    0  0.32758355845E+01  0.17489532874E+02 -0.66124836871E+02  0.11347114958E+03  0.90479792639E+02 0.  0.
         23    2    1    2    0    0  0.27652622225E+02  0.41453737005E+02  0.90147513557E+02  0.13112506994E+03  0.81142651790E+02 0.  0.
        -11    1    3    3    0    0 -0.32672212624E+02 -0.13268640500E+02 -0.41576802540E+01  0.35507979435E+02  0.00000000000E+00 0.  1.
         11    1    3    3    0    0  0.35948048208E+02  0.30758173374E+02 -0.61967156617E+02  0.77963170141E+02  0.00000000000E+00 0. -1.
        -13    1    4    4    0    0  0.37559620274E+02  0.22202068829E+02  0.98647133074E+02  0.10786525761E+03  0.00000000000E+00 0. -1.
         13    1    4    4    0    0 -0.99069980486E+01  0.19251668176E+02 -0.84996195167E+01  0.23259812334E+02  0.00000000000E+00 0.  1.
         21    1    1    2  503  502  0.66452768547E+02  0.45443669846E+02  0.92986700239E+01  0.81040501238E+02  0.00000000000E+00 0. -1.
          2    1    1    2  501    0 -0.97381226357E+02 -0.10438693973E+03 -0.79672205217E+02  0.16348515748E+03  0.00000000000E+00 0. -1.
<scales pt_clust_5="13000.00000" pt_clust_6="13000.00000" pt_clust_7="13000.00000" pt_clust_8="13000.00000" pt_clust_9="80.50526" pt_clust_10="117.06951"></scales>
<clustering>
<clus scale="   80.505">  1  9  2 -1</clus>
<clus scale="   81.143">  7  8 -1 -1</clus>
<clus scale="   90.480">  5  6 -1 -1</clus>
<clus scale="   94.299">  1  5  2 -1</clus>
<clus scale="  117.070">  2 10  1 -1</clus>
<clus scale="  117.070">  2  5  1 -1</clus>
</clustering>
</event>
<event>
10    2  0.1671105E-006  0.1657938E+03  0.7546771E-02  0.1182928E+00
         21   -1    0    0  501  502  0.00000000000E+00  0.00000000000E+00  0.12219339624E+03  0.12219339624E+03  0.00000000000E+00 0. -1.
          1   -1    0    0  503    0 -0.00000000000E+00 -0.00000000000E+00 -0.83633753376E+03  0.83633753376E+03  0.00000000000E+00 0. -1.
         23    2    1    2    0    0  0.83400796752E+02 -0.51225940135E+02 -0.25782335139E+03  0.29138782377E+03  0.94096724050E+02 0.  0.
         23    2    1    2    0    0 -0.13364411166E+03  0.13469796821E+03 -0.47487854500E+03  0.51924418959E+03  0.90003359392E+02 0.  0.
        -11    1    3    3    0    0  0.70564338811E+02 -0.75273572414E+02 -0.16463052085E+03  0.19429010528E+03  0.00000000000E+00 0. -1.
         11    1    3    3    0    0  0.12836457941E+02  0.24047632279E+02 -0.93192830549E+02  0.97097718492E+02  0.00000000000E+00 0.  1.
        -13    1    4    4    0    0 -0.26876905015E+02 -0.23255071909E+01 -0.13364719259E+03  0.13634275960E+03  0.00000000000E+00 0.  1.
         13    1    4    4    0    0 -0.10676720664E+03  0.13702347540E+03 -0.34123135241E+03  0.38290143000E+03  0.00000000000E+00 0. -1.
         21    1    1    2  503  502  0.44424044797E+02  0.13798808990E+02 -0.72870201298E+01  0.47085067145E+02  0.00000000000E+00 0.  1.
          1    1    1    2  501    0  0.58192701101E+01 -0.97270837062E+02  0.25844779013E+02  0.10081384949E+03  0.00000000000E+00 0. -1.
<scales pt_clust_5="13000.00000" pt_clust_6="13000.00000" pt_clust_7="13000.00000" pt_clust_8="13000.00000" pt_clust_9="46.51777" pt_clust_10="94.77880"></scales>
<clustering>
<clus scale="   46.518">  1  9  2 -1</clus>
<clus scale="   90.003">  7  8 -1 -1</clus>
<clus scale="   94.097">  5  6 -1 -1</clus>
<clus scale="   94.779">  1 10  2 -1</clus>
<clus scale="  163.505">  1  7  2 -1</clus>
<clus scale="   46.518">  1  5  2 -1</clus>
</clustering>
</event>
<event>
10    2  0.1671105E-006  0.1433011E+03  0.7546771E-02  0.1215086E+00
          2   -1    0    0  502    0 -0.00000000000E+00  0.00000000000E+00  0.59918426784E+03  0.59918426784E+03  0.00000000000E+00 0. -1.
         21   -1    0    0  503  502  0.00000000000E+00 -0.00000000000E+00 -0.68994815199E+02  0.68994815199E+02  0.00000000000E+00 0.  1.
         23    2    1    2    0    0 -0.17216939920E+02 -0.79616142734E+02  0.31653802065E+03  0.33927755597E+03  0.90982351407E+02 0.  0.
         23    2    1    2    0    0 -0.48691117641E+02  0.10715846817E+03  0.17782227431E+03  0.24180332713E+03  0.11399265561E+03 0.  0.
        -11    1    3    3    0    0  0.31324648536E+02 -0.63762711200E+02  0.18650949264E+03  0.19958133127E+03  0.00000000000E+00 0. -1.
         11    1    3    3    0    0 -0.48541588456E+02 -0.15853431534E+02  0.13002852801E+03  0.13969622471E+03  0.00000000000E+00 0.  1.
        -13    1    4    4    0    0 -0.80460177302E+02  0.71922019624E+02  0.84324087150E+02  0.13695681331E+03  0.00000000000E+00 0.  1.
         13    1    4    4    0    0  0.31769059661E+02  0.35236448547E+02  0.93498187156E+02  0.10484651382E+03  0.00000000000E+00 0. -1.
         21    1    1    2  503  501  0.39138792979E+02 -0.13346479212E+01  0.29672243112E+02  0.49133170183E+02  0.00000000000E+00 0. -1.
          2    1    1    2  501    0  0.26769264582E+02 -0.26207677516E+02  0.61569145699E+01  0.37965029752E+02  0.00000000000E+00 0. -1.
<scales pt_clust_5="13000.00000" pt_clust_6="13000.00000" pt_clust_7="13000.00000" pt_clust_8="13000.00000" pt_clust_9="33.88002" pt_clust_10="79.38745"></scales>
<clustering>
<clus scale="   33.880">  9 10 -1 -1</clus>
<clus scale="   79.387">  2  9  1 -1</clus>
<clus scale="   90.982">  5  6 -1 -1</clus>
<clus scale="  113.993">  7  8 -1 -1</clus>
<clus scale="  125.772">  1  5  2 -1</clus>
<clus scale="   79.387">  2  5  1 -1</clus>
</clustering>
</event>
<event>
10    2  0.1671105E-006  0.1119923E+03  0.7546771E-02  0.1258533E+00
          1   -1    0    0  503    0 -0.00000000000E+00  0.00000000000E+00  0.80637837245E+03  0.80637837245E+03  0.00000000000E+00 0. -1.
         21   -1    0    0  501  502  0.00000000000E+00 -0.00000000000E+00 -0.31079507486E+02  0.31079507486E+02  0.00000000000E+00 0.  1.
         23    2    1    2    0    0  0.44637900401E+01 -0.53360496490E+02  0.44264391608E+03  0.45501501441E+03  0.90762100524E+02 0.  0.
         23    2    1    2    0    0 -0.45689912068E+02  0.63033690779E+02  0.29202913841E+03  0.31678234581E+03  0.94916925246E+02 0.  0.
        -13    1    4    4    0    0 -0.27642895596E+02 -0.68226277009E+01  0.18635999870E+02  0.34029081928E+02  0.00000000000E+00 0. -1.
         13    1    4    4    0    0 -0.18047016472E+02  0.69856318480E+02  0.27339313854E+03  0.28275326388E+03  0.00000000000E+00 0.  1.
        -13    1    3    3    0    0 -0.79024157102E+01  0.21076224060E+02  0.45464582024E+02  0.50731485424E+02  0.00000000000E+00 0. -1.
         13    1    3    3    0    0  0.12366205750E+02 -0.74436720550E+02  0.39717933406E+03  0.40428352899E+03  0.00000000000E+00 0.  1.
         21    1    1    2  503  502  0.19028315678E+02 -0.19475541638E+02  0.19548200843E+02  0.33518736191E+02  0.00000000000E+00 0.  1.
          1    1    1    2  501    0  0.22197806350E+02  0.98023473480E+01  0.21077609631E+02  0.32141783523E+02  0.00000000000E+00 0. -1.
<scales pt_clust_5="13000.00000" pt_clust_6="13000.00000" pt_clust_7="13000.00000" pt_clust_8="13000.00000" pt_clust_9="30.19899" pt_clust_10="24.26579"></scales>
<clustering>
<clus scale="   24.266">  2 10  1 -1</clus>
<clus scale="   30.199">  2  9  1 -1</clus>
<clus scale="   90.762">  7  8 -1 -1</clus>
<clus scale="   94.917">  5  6 -1 -1</clus>
<clus scale="  108.493">  1  7  2 -1</clus>
<clus scale="   24.266">  2  5  1 -1</clus>
</clustering>
</event>
<event>
10    2  0.1671105E-006  0.1235738E+03  0.7546771E-02  0.1237353E+00
         21   -1    0    0  503  502  0.00000000000E+00  0.00000000000E+00  0.83838425972E+02  0.83838425972E+02  0.00000000000E+00 0. -1.
          2   -1    0    0  502    0 -0.00000000000E+00 -0.00000000000E+00 -0.51398217638E+03  0.51398217638E+03  0.00000000000E+00 0. -1.
         23    2    1    2    0    0  0.50525480497E+02  0.31910265418E+01 -0.53666317682E+02  0.11774865741E+03  0.91769634624E+02 0.  0.
         23    2    1    2    0    0 -0.11470606723E+03  0.65592598843E+02 -0.11149970827E+03  0.19579960055E+03  0.91899008433E+02 0.  0.
        -11    1    3    3    0    0 -0.42303926709E+00  0.41213218994E+02 -0.19984285700E+02  0.45804803863E+02  0.00000000000E+00 0.  1.
         11    1    3    3    0    0  0.50948519764E+02 -0.38022192452E+02 -0.33682031982E+02  0.71943853549E+02  0.00000000000E+00 0. -1.
        -11    1    4    4    0    0 -0.26972222113E+02  0.63049541704E+02 -0.26209409009E+02  0.73414430430E+02  0.00000000000E+00 0.  1.
         11    1    4    4    0    0 -0.87733845113E+02  0.25430571396E+01 -0.85290299264E+02  0.12238517012E+03  0.00000000000E+00 0. -1.
         21    1    1    2  503  501  0.33217183121E+02 -0.63272380256E+02 -0.18726992103E+03  0.20044150938E+03  0.00000000000E+00 0. -1.
          2    1    1    2  501    0  0.30963403608E+02 -0.55112451287E+01 -0.77707803422E+02  0.83830835010E+02  0.00000000000E+00 0. -1.
<scales pt_clust_5="13000.00000" pt_clust_6="13000.00000" pt_clust_7="13000.00000" pt_clust_8="13000.00000" pt_clust_9="27.73000" pt_clust_10="102.94456"></scales>
<clustering>
<clus scale="   27.730">  9 10 -1 -1</clus>
<clus scale="   91.770">  5  6 -1 -1</clus>
<clus scale="   91.899">  7  8 -1 -1</clus>
<clus scale="  102.945">  1  9  2 -1</clus>
<clus scale="  123.478">  2  5  1 -1</clus>
<clus scale="  102.945">  1  5  2 -1</clus>
</clustering>
</event>
<event>
10    2  0.1671105E-006  0.1157341E+03  0.7546771E-02  0.1251333E+00
         21   -1    0    0  503  502  0.00000000000E+00  0.00000000000E+00  0.35715536624E+03  0.35715536624E+03  0.00000000000E+00 0. -1.
         -3   -1    0    0    0  501 -0.00000000000E+00 -0.00000000000E+00 -0.95030061126E+02  0.95030061126E+02  0.00000000000E+00 0.  1.
         23    2    1    2    0    0  0.21741925826E+02  0.77763781818E+02  0.18722280727E+02  0.12219841277E+03  0.89788703000E+02 0.  0.
         23    2    1    2    0    0 -0.40966300033E+02 -0.42065667340E+02  0.60884760693E+02  0.12551841174E+03  0.92737044879E+02 0.  0.
        -11    1    3    3    0    0  0.18492400201E+02  0.93384900026E+01 -0.31188474456E+02  0.37441917681E+02  0.00000000000E+00 0.  1.
         11    1    3    3    0    0  0.32495256246E+01  0.68425291815E+02  0.49910755182E+02  0.84756495088E+02  0.00000000000E+00 0. -1.
        -13    1    4    4    0    0  0.25011806958E+02 -0.34617967962E+02  0.17213686504E+02  0.46046771833E+02  0.00000000000E+00 0. -1.
         13    1    4    4    0    0 -0.65978106991E+02 -0.74476993776E+01  0.43671074189E+02  0.79471639903E+02  0.00000000000E+00 0.  1.
         21    1    1    2  503  501  0.51289443908E+02 -0.29439050896E+02  0.10874570608E+03  0.12378567512E+03  0.00000000000E+00 0. -1.
         -3    1    1    2    0  502 -0.32065069701E+02 -0.62590635822E+01  0.73772557612E+02  0.80682927739E+02  0.00000000000E+00 0.  1.
<scales pt_clust_5="13000.00000" pt_clust_6="13000.00000" pt_clust_7="13000.00000" pt_clust_8="13000.00000" pt_clust_9="49.68210" pt_clust_10="32.67024"></scales>
<clustering>
<clus scale="   32.670">  1 10  2 -1</clus>
<clus scale="   49.682">  1  9  2 -1</clus>
<clus scale="   89.789">  5  6 -1 -1</clus>
<clus scale="   92.737">  7  8 -1 -1</clus>
<clus scale="  113.385">  2  5  1 -1</clus>
<clus scale="   32.670">  1  5  2 -1</clus>
</clustering>
</event>
<event>
10    2  0.1671105E-006  0.1393186E+03  0.7546771E-02  0.1231617E+00
         -1   -1    0    0    0  501 -0.00000000000E+00  0.00000000000E+00  0.27148528905E+03  0.27148528905E+03  0.00000000000E+00 0.  1.
         21   -1    0    0  501  502  0.00000000000E+00 -0.00000000000E+00 -0.40927340279E+03  0.40927340279E+03  0.00000000000E+00 0.  1.
         23    2    1    2    0    0  0.18319231931E+02  0.28115811769E+02  0.78504835739E+02  0.12472383645E+03  0.90922676023E+02 0.  0.
         23    2    1    2    0    0  0.23561168518E+02  0.69698221667E+02  0.13983215808E+03  0.18277332832E+03  0.91869942564E+02 0.  0.
        -11    1    4    4    0    0  0.98334417065E+01  0.29945077133E+02  0.13704691277E+03  0.14062453741E+03  0.00000000000E+00 0.  1.
         11    1    4    4    0    0  0.13727726811E+02  0.39753144534E+02  0.27852453019E+01  0.42148790910E+02  0.00000000000E+00 0. -1.
        -13    1    3    3    0    0  0.45649042963E+02  0.11773782078E+02  0.79987345340E+02  0.92846284160E+02  0.00000000000E+00 0.  1.
         13    1    3    3    0    0 -0.27329811032E+02  0.16342029690E+02 -0.14825096010E+01  0.31877552292E+02  0.00000000000E+00 0. -1.
         21    1    1    2  503  502 -0.31006093861E+02 -0.36530156016E+02 -0.12396229146E+03  0.13290026282E+03  0.00000000000E+00 0.  1.
         -1    1    1    2    0  503 -0.10874306588E+02 -0.61283877420E+02 -0.23216281610E+03  0.24036126425E+03  0.00000000000E+00 0.  1.
<scales pt_clust_5="13000.00000" pt_clust_6="13000.00000" pt_clust_7="13000.00000" pt_clust_8="13000.00000" pt_clust_9="30.10791" pt_clust_10="110.21395"></scales>
<clustering>
<clus scale="   30.108">  9 10 -1 -1</clus>
<clus scale="   90.923">  7  8 -1 -1</clus>
<clus scale="   91.870">  5  6 -1 -1</clus>
<clus scale="   96.918">  1  7  2 -1</clus>
<clus scale="  110.214">  2  9  1 -1</clus>
<clus scale="  110.214">  2  5  1 -1</clus>
</clustering>
</event>
<event>
10    2  0.1671105E-006  0.1076682E+03  0.7546771E-02  0.1265686E+00
          1   -1    0    0  503    0 -0.00000000000E+00  0.00000000000E+00  0.27267489288E+03  0.27267489288E+03  0.00000000000E+00 0. -1.
         21   -1    0    0  501  502  0.00000000000E+00 -0.00000000000E+00 -0.23381216434E+03  0.23381216434E+03  0.00000000000E+00 0. -1.
         23    2    1    2    0    0 -0.15841807444E+02 -0.45230650374E+02  0.11797286809E+03  0.15536625604E+03  0.89018544771E+02 0.  0.
         23    2    1    2    0    0  0.85721706245E+02  0.81085847110E+02 -0.39797182991E+02  0.15414032615E+03  0.90842164490E+02 0.  0.
        -11    1    4    4    0    0  0.10479073251E+03  0.63910460746E+02 -0.37651176224E+02  0.12838713208E+03  0.00000000000E+00 0. -1.
         11    1    4    4    0    0 -0.19069026270E+02  0.17175386363E+02 -0.21460067669E+01  0.25753194067E+02  0.00000000000E+00 0.  1.
        -11    1    3    3    0    0  0.29388907808E+01 -0.69575241878E+02  0.90030143116E+02  0.11381905829E+03  0.00000000000E+00 0. -1.
         11    1    3    3    0    0 -0.18780698225E+02  0.24344591504E+02  0.27942724975E+02  0.41547197743E+02  0.00000000000E+00 0.  1.
         21    1    1    2  503  502 -0.31803158909E+02 -0.10704164953E+03 -0.30590436716E+02  0.11578052716E+03  0.00000000000E+00 0. -1.
          1    1    1    2  501    0 -0.38076739891E+02  0.71186452795E+02 -0.87225198440E+01  0.81199947874E+02  0.00000000000E+00 0. -1.
<scales pt_clust_5="13000.00000" pt_clust_6="13000.00000" pt_clust_7="13000.00000" pt_clust_8="13000.00000" pt_clust_9="92.09126" pt_clust_10="80.73010"></scales>
<clustering>
<clus scale="   80.730">  2 10  1 -1</clus>
<clus scale="   89.019">  7  8 -1 -1</clus>
<clus scale="   90.842">  5  6 -1 -1</clus>
<clus scale="   92.091">  2  9  1 -1</clus>
<clus scale="  106.134">  1  7  2 -1</clus>
<clus scale="   80.730">  2  5  1 -1</clus>
</clustering>
</event>
<event>
10    2  0.1671105E-006  0.1168677E+03  0.7546771E-02  0.1255129E+00
         21   -1    0    0  501  502  0.00000000000E+00  0.00000000000E+00  0.79706955039E+02  0.79706955039E+02  0.00000000000E+00 0.  1.
          2   -1    0    0  503    0 -0.00000000000E+00 -0.00000000000E+00 -0.31760419727E+03  0.31760419727E+03  0.00000000000E+00 0. -1.
         23    2    1    2    0    0  0.30490284677E+01 -0.32524939208E+02 -0.11021990191E+03  0.15684882103E+03  0.10670500287E+03 0.  0.
         23    2    1    2    0    0 -0.66336893281E+02  0.40367090907E+02 -0.93002068201E+02  0.15111317725E+03  0.90309037256E+02 0.  0.
        -11    1    4    4    0    0 -0.79677731108E+02  0.20815926460E+02 -0.36936179199E+02  0.90255886028E+02  0.00000000000E+00 0.  1.
         11    1    4    4    0    0  0.13340837827E+02  0.19551164447E+02 -0.56065889002E+02  0.60857291221E+02  0.00000000000E+00 0. -1.
        -11    1    3    3    0    0  0.29510673398E+02 -0.63849410644E+02 -0.64513969257E+02  0.95444640045E+02  0.00000000000E+00 0. -1.
         11    1    3    3    0    0 -0.26461644931E+02  0.31324471437E+02 -0.45705932654E+02  0.61404180989E+02  0.00000000000E+00 0.  1.
         21    1    1    2  503  502  0.33231379908E+02 -0.30127952564E+02 -0.17023639821E+02  0.47977311815E+02  0.00000000000E+00 0. -1.
          2    1    1    2  501    0  0.30056484905E+02  0.22285800864E+02 -0.17651632297E+02  0.41371842208E+02  0.00000000000E+00 0. -1.
<scales pt_clust_5="13000.00000" pt_clust_6="13000.00000" pt_clust_7="13000.00000" pt_clust_8="13000.00000" pt_clust_9="47.26772" pt_clust_10="37.41723"></scales>
<clustering>
<clus scale="   37.417">  1 10  2 -1</clus>
<clus scale="   47.268">  1  9  2 -1</clus>
<clus scale="   90.309">  5  6 -1 -1</clus>
<clus scale="  102.117">  1  5  2 -1</clus>
<clus scale="  106.705">  7  8 -1 -1</clus>
<clus scale="   37.417">  1  5  2 -1</clus>
</clustering>
</event>
<event>
10    2  0.1671105E-006  0.1088440E+03  0.7546771E-02  0.1265898E+00
          1   -1    0    0  503    0 -0.00000000000E+00  0.00000000000E+00  0.46933155563E+03  0.46933155563E+03  0.00000000000E+00 0. -1.
         21   -1    0    0  501  502  0.00000000000E+00 -0.00000000000E+00 -0.52528288557E+02  0.52528288557E+02  0.00000000000E+00 0. -1.
         23    2    1    2    0    0  0.10083610143E+02 -0.30296102669E+02  0.18699819072E+03  0.21308115431E+03  0.97034643070E+02 0.  0.
         23    2    1    2    0    0 -0.66441590941E+02  0.31066378345E+02  0.14310054462E+03  0.18410132700E+03  0.89643336969E+02 0.  0.
        -13    1    4    4    0    0 -0.45332999347E+02  0.54815854660E+02  0.53419832637E+02  0.88958064676E+02  0.00000000000E+00 0.  1.
         13    1    4    4    0    0 -0.21108591594E+02 -0.23749476315E+02  0.89680711981E+02  0.95143262324E+02  0.00000000000E+00 0. -1.
        -13    1    3    3    0    0 -0.35711437153E+02 -0.23285609374E+02  0.38219192831E+02  0.57255856016E+02  0.00000000000E+00 0.  1.
         13    1    3    3    0    0  0.45795047296E+02 -0.70104932948E+01  0.14877899789E+03  0.15582529829E+03  0.00000000000E+00 0. -1.
         21    1    1    2  503  502  0.27756677910E+02 -0.68671278412E+01  0.90756331013E+02  0.95154097296E+02  0.00000000000E+00 0. -1.
          1    1    1    2  501    0  0.28601302888E+02  0.60968521654E+01 -0.40517992850E+01  0.29523265583E+02  0.00000000000E+00 0. -1.
<scales pt_clust_5="13000.00000" pt_clust_6="13000.00000" pt_clust_7="13000.00000" pt_clust_8="13000.00000" pt_clust_9="28.59354" pt_clust_10="30.11702"></scales>
<clustering>
<clus scale="   28.594">  1  9  2 -1</clus>
<clus scale="   30.117">  2 10  1 -1</clus>
<clus scale="   89.643">  5  6 -1 -1</clus>
<clus scale="   97.035">  7  8 -1 -1</clus>
<clus scale="  102.309">  2  5  1 -1</clus>
<clus scale="   30.117">  2  5  1 -1</clus>
</clustering>
</event>
<event>
10    2  0.1671105E-006  0.2891535E+03  0.7546771E-02  0.1094869E+00
          2   -1    0    0  503    0 -0.00000000000E+00  0.00000000000E+00  0.25576163097E+03  0.25576163097E+03  0.00000000000E+00 0. -1.
         21   -1    0    0  501  502  0.00000000000E+00 -0.00000000000E+00 -0.89871388638E+03  0.89871388638E+03  0.00000000000E+00 0. -1.
         23    2    1    2    0    0  0.21264203112E+03 -0.73777033090E+02 -0.11011942718E+03  0.26786802901E+03  0.94695874850E+02 0.  0.
         23    2    1    2    0    0 -0.25898745858E+03 -0.21114376258E+03 -0.18094097741E+03  0.39113568065E+03  0.92689218335E+02 0.  0.
        -13    1    3    3    0    0  0.18986790031E+03 -0.88749712126E+02 -0.73248878642E+02  0.22201740741E+03  0.00000000000E+00 0. -1.
         13    1    3    3    0    0  0.22774130804E+02  0.14972679036E+02 -0.36870548535E+02  0.45850621596E+02  0.00000000000E+00 0.  1.
        -13    1    4    4    0    0 -0.21655427948E+02 -0.28526271881E+02 -0.56402064409E+02  0.66812413642E+02  0.00000000000E+00 0.  1.
         13    1    4    4    0    0 -0.23733203063E+03 -0.18261749070E+03 -0.12453891300E+03  0.32432326701E+03  0.00000000000E+00 0. -1.
         21    1    1    2  503  502  0.52773283101E+02 -0.14562290464E+01 -0.18542236526E+02  0.55954933185E+02  0.00000000000E+00 0. -1.
          2    1    1    2  501    0 -0.64278556370E+01  0.28637702472E+03 -0.33334961431E+03  0.43951687450E+03  0.00000000000E+00 0. -1.
<scales pt_clust_5="13000.00000" pt_clust_6="13000.00000" pt_clust_7="13000.00000" pt_clust_8="13000.00000" pt_clust_9="52.79337" pt_clust_10="273.89496"></scales>
<clustering>
<clus scale="   52.793">  1  9  2 -1</clus>
<clus scale="   92.689">  7  8 -1 -1</clus>
<clus scale="   94.696">  5  6 -1 -1</clus>
<clus scale="  259.759">  1  5  2 -1</clus>
<clus scale="  273.895">  2 10  1 -1</clus>
<clus scale="  273.895">  2  5  1 -1</clus>
</clustering>
</event>
<event>
10    2  0.1671105E-006  0.9885476E+02  0.7546771E-02  0.1283887E+00
         21   -1    0    0  503  502  0.00000000000E+00  0.00000000000E+00  0.29410779503E+03  0.29410779503E+03  0.00000000000E+00 0.  1.
         -1   -1    0    0    0  501 -0.00000000000E+00 -0.00000000000E+00 -0.81484645400E+02  0.81484645400E+02  0.00000000000E+00 0.  1.
         23    2    1    2    0    0  0.86257043092E+01 -0.44856110747E+02  0.15549054814E+02  0.10390271148E+03  0.92019165941E+02 0.  0.
         23    2    1    2    0    0  0.10487899063E+01 -0.10870326958E+02  0.13713671138E+03  0.16677682773E+03  0.94280266715E+02 0.  0.
        -11    1    4    4    0    0 -0.21260931452E+02 -0.34126944742E+02  0.12666099700E+03  0.13288974273E+03  0.00000000000E+00 0.  1.
         11    1    4    4    0    0  0.22309721358E+02  0.23256617783E+02  0.10475714382E+02  0.33887084997E+02  0.00000000000E+00 0. -1.
        -13    1    3    3    0    0 -0.32304991273E+02 -0.16866901573E+02  0.35104247190E+02  0.50600523718E+02  0.00000000000E+00 0. -1.
         13    1    3    3    0    0  0.40930695582E+02 -0.27989209174E+02 -0.19555192376E+02  0.53302187759E+02  0.00000000000E+00 0.  1.
         21    1    1    2  503  501 -0.21087292424E+02 -0.51602601017E+01  0.27345288841E+02  0.34915140096E+02  0.00000000000E+00 0.  1.
         -1    1    1    2    0  502  0.11412798209E+02  0.60886697807E+02  0.32592094601E+02  0.69997761131E+02  0.00000000000E+00 0.  1.
<scales pt_clust_5="13000.00000" pt_clust_6="13000.00000" pt_clust_7="13000.00000" pt_clust_8="13000.00000" pt_clust_9="21.70950" pt_clust_10="60.32348"></scales>
<clustering>
<clus scale="   21.709">  1  9  2 -1</clus>
<clus scale="   60.323">  1 10  2 -1</clus>
<clus scale="   92.019">  7  8 -1 -1</clus>
<clus scale="   94.280">  5  6 -1 -1</clus>
<clus scale="   96.701">  2  7  1 -1</clus>
<clus scale="   21.709">  1  5  2 -1</clus>
</clustering>
</event>
<event>
10    2  0.1671105E-006  0.9533066E+02  0.7546771E-02  0.1291060E+00
         21   -1    0    0  503  502  0.00000000000E+00  0.00000000000E+00  0.21765148570E+03  0.21765148570E+03  0.00000000000E+00 0. -1.
         -3   -1    0    0    0  501 -0.00000000000E+00 -0.00000000000E+00 -0.20062953876E+03  0.20062953876E+03  0.00000000000E+00 0.  1.
         23    2    1    2    0    0 -0.21788258440E+02 -0.25462899252E+01 -0.13664032445E+03  0.16631533729E+03  0.92244248357E+02 0.  0.
         23    2    1    2    0    0  0.32900432617E+02 -0.11832690865E+02  0.16634325473E+02  0.98981828732E+02  0.91094734182E+02 0.  0.
        -11    1    3    3    0    0 -0.51799312929E+02 -0.18816701778E+02 -0.10992622873E+03  0.12296752762E+03  0.00000000000E+00 0. -1.
         11    1    3    3    0    0  0.30011054489E+02  0.16270411853E+02 -0.26714095715E+02  0.43347809671E+02  0.00000000000E+00 0.  1.
        -13    1    4    4    0    0  0.54150533562E+02 -0.12950427435E+02 -0.17842632729E+02  0.58466686228E+02  0.00000000000E+00 0.  1.
         13    1    4    4    0    0 -0.21250100945E+02  0.11177365693E+01  0.34476958203E+02  0.40515142504E+02  0.00000000000E+00 0. -1.
         21    1    1    2  503  501 -0.27978475531E+02 -0.15442882360E+02  0.83756921915E+02  0.89646526298E+02  0.00000000000E+00 0. -1.
         -3    1    1    2    0  502  0.16866301354E+02  0.29821863150E+02  0.53271024004E+02  0.63337332132E+02  0.00000000000E+00 0.  1.
<scales pt_clust_5="13000.00000" pt_clust_6="13000.00000" pt_clust_7="13000.00000" pt_clust_8="13000.00000" pt_clust_9="31.95744" pt_clust_10="23.36584"></scales>
<clustering>
<clus scale="   31.957">  1  9  2 -1</clus>
<clus scale="   23.366">  1 10  2 -1</clus>
<clus scale="   91.095">  7  8 -1 -1</clus>
<clus scale="   92.244">  5  6 -1 -1</clus>
<clus scale="   94.219">  1  7  2 -1</clus>
<clus scale="   31.957">  1  5  2 -1</clus>
</clustering>
</event>
<event>
10    2  0.1671105E-006  0.1862589E+03  0.7546771E-02  0.1168149E+00
          1   -1    0    0  503    0 -0.00000000000E+00  0.00000000000E+00  0.45281099698E+03  0.45281099698E+03  0.00000000000E+00 0. -1.
         21   -1    0    0  501  502  0.00000000000E+00 -0.00000000000E+00 -0.49815882414E+03  0.49815882414E+03  0.00000000000E+00 0. -1.
         23    2    1    2    0    0  0.15626957877E+02 -0.16075717648E+03  0.26043831855E+03  0.31731672647E+03  0.82308660088E+02 0.  0.
         23    2    1    2    0    0  0.83359551613E+02  0.90615037699E+02  0.76338159802E+02  0.19099255594E+03  0.12446180892E+03 0.  0.
        -11    1    4    4    0    0  0.44948948851E+02  0.27896463048E+02  0.10050522763E+03  0.11357782105E+03  0.00000000000E+00 0. -1.
         11    1    4    4    0    0  0.38410602762E+02  0.62718574651E+02 -0.24167067825E+02  0.77414734889E+02  0.00000000000E+00 0.  1.
        -13    1    3    3    0    0 -0.27671756615E+02 -0.11188633673E+03  0.15231157292E+03  0.19100548083E+03  0.00000000000E+00 0.  1.
         13    1    3    3    0    0  0.43298714492E+02 -0.48870839746E+02  0.10812674564E+03  0.12631124564E+03  0.00000000000E+00 0. -1.
         21    1    1    2  503  502 -0.12668802804E+03 -0.15190621061E+02 -0.17179190496E+03  0.21399315416E+03  0.00000000000E+00 0. -1.
          1    1    1    2  501    0  0.27701518550E+02  0.85332759842E+02 -0.21033240056E+03  0.22866738455E+03  0.00000000000E+00 0. -1.
<scales pt_clust_5="13000.00000" pt_clust_6="13000.00000" pt_clust_7="13000.00000" pt_clust_8="13000.00000" pt_clust_9="116.12169" pt_clust_10="89.71652"></scales>
<clustering>
<clus scale="   82.309">  7  8 -1 -1</clus>
<clus scale="   89.717">  2 10  1 -1</clus>
<clus scale="  116.122">  2  9  1 -1</clus>
<clus scale="  124.462">  5  6 -1 -1</clus>
<clus scale="  161.172">  1  7  2 -1</clus>
<clus scale="   89.717">  2  5  1 -1</clus>
</clustering>
</event>
<event>
10    2  0.1671105E-006  0.1200155E+03  0.7546771E-02  0.1243137E+00
          1   -1    0    0  502    0 -0.00000000000E+00  0.00000000000E+00  0.48688441988E+03  0.48688441988E+03  0.00000000000E+00 0. -1.
         21   -1    0    0  503  502  0.00000000000E+00 -0.00000000000E+00 -0.11112830297E+03  0.11112830297E+03  0.00000000000E+00 0. -1.
         23    2    1    2    0    0  0.24450128205E+02  0.84961994593E+02  0.23494476570E+03  0.26723525229E+03  0.91647628682E+02 0.  0.
         23    2    1    2    0    0 -0.71890254643E+02 -0.36123867071E+02  0.20080614951E+03  0.23485586552E+03  0.91438642836E+02 0.  0.
        -11    1    4    4    0    0 -0.87121897956E+02 -0.52160741654E+01  0.14726071215E+03  0.17118162833E+03  0.00000000000E+00 0. -1.
         11    1    4    4    0    0  0.15231643314E+02 -0.30907792905E+02  0.53545437355E+02  0.63674237191E+02  0.00000000000E+00 0.  1.
        -11    1    3    3    0    0  0.36560991813E+02  0.69104854672E+01  0.30661876633E+02  0.48214226224E+02  0.00000000000E+00 0.  1.
         11    1    3    3    0    0 -0.12110863607E+02  0.78051509125E+02  0.20428288907E+03  0.21902102607E+03  0.00000000000E+00 0. -1.
         21    1    1    2  503  501  0.30017777752E+02 -0.11323592106E+02 -0.35503921507E+02  0.47852054937E+02  0.00000000000E+00 0. -1.
          1    1    1    2  501    0  0.17422348685E+02 -0.37514535417E+02 -0.24490876784E+02  0.48069550101E+02  0.00000000000E+00 0. -1.
<scales pt_clust_5="13000.00000" pt_clust_6="13000.00000" pt_clust_7="13000.00000" pt_clust_8="13000.00000" pt_clust_9="27.37062" pt_clust_10="74.84369"></scales>
<clustering>
<clus scale="   27.371">  9 10 -1 -1</clus>
<clus scale="   74.844">  2  9  1 -1</clus>
<clus scale="   91.439">  5  6 -1 -1</clus>
<clus scale="   91.648">  7  8 -1 -1</clus>
<clus scale="  119.856">  2  5  1 -1</clus>
<clus scale="   74.844">  2  5  1 -1</clus>
</clustering>
</event>
<event>
10    2  0.1671105E-006  0.1061951E+03  0.7546771E-02  0.1270752E+00
          2   -1    0    0  502    0 -0.00000000000E+00  0.00000000000E+00  0.78512299502E+02  0.78512299502E+02  0.00000000000E+00 0. -1.
         21   -1    0    0  503  502  0.00000000000E+00 -0.00000000000E+00 -0.38085656779E+03  0.38085656779E+03  0.00000000000E+00 0. -1.
         23    2    1    2    0    0 -0.39778806900E+02  0.63324847300E+02 -0.63653548878E+02  0.13384359812E+03  0.90939236361E+02 0.  0.
         23    2    1    2    0    0  0.51754647429E+02  0.40877262628E+02 -0.11065591208E+03  0.15718721877E+03  0.90075505745E+02 0.  0.
        -11    1    4    4    0    0  0.50434227106E+02 -0.82212739901E+01 -0.21584965060E+02  0.55471716455E+02  0.00000000000E+00 0. -1.
         11    1    4    4    0    0  0.13204203225E+01  0.49098536618E+02 -0.89070947016E+02  0.10171550231E+03  0.00000000000E+00 0.  1.
        -13    1    3    3    0    0 -0.25202733384E+02  0.82226411452E+02 -0.67930616379E+02  0.10959438467E+03  0.00000000000E+00 0. -1.
         13    1    3    3    0    0 -0.14576073515E+02 -0.18901564152E+02  0.42770675014E+01  0.24249213449E+02  0.00000000000E+00 0.  1.
         21    1    1    2  503  501  0.73958798528E+01 -0.46294136424E+02 -0.42742326038E+02  0.63440937423E+02  0.00000000000E+00 0. -1.
          2    1    1    2  501    0 -0.19371720382E+02 -0.57907973505E+02 -0.85292481297E+02  0.10489711298E+03  0.00000000000E+00 0. -1.
<scales pt_clust_5="13000.00000" pt_clust_6="13000.00000" pt_clust_7="13000.00000" pt_clust_8="13000.00000" pt_clust_9="26.91131" pt_clust_10="109.29221"></scales>
<clustering>
<clus scale="   26.911">  9 10 -1 -1</clus>
<clus scale="   90.076">  5  6 -1 -1</clus>
<clus scale="   90.939">  7  8 -1 -1</clus>
<clus scale="  109.292">  2  9  1 -1</clus>
<clus scale="  109.292">  2  5  1 -1</clus>
<clus scale="  106.195">  2  5  1 -1</clus>
</clustering>
</event>
<event>
10    2  0.1671105E-006  0.1057478E+03  0.7546771E-02  0.1270873E+00
         21   -1    0    0  501  502  0.00000000000E+00  0.00000000000E+00  0.21542393412E+03  0.21542393412E+03  0.00000000000E+00 0. -1.
          1   -1    0    0  503    0 -0.00000000000E+00 -0.00000000000E+00 -0.18484476436E+03  0.18484476436E+03  0.00000000000E+00 0. -1.
         23    2    1    2    0    0  0.46408567653E+02  0.12103190709E+02 -0.14012716134E+02  0.11178408412E+03  0.99995414260E+02 0.  0.
         23    2    1    2    0    0 -0.28960984797E+01 -0.64516917953E+02  0.11292347413E+03  0.16124871307E+03  0.95281773538E+02 0.  0.
        -13    1    3    3    0    0  0.77780449951E+02  0.57602399129E+01 -0.34137686075E+01  0.78068127776E+02  0.00000000000E+00 0.  1.
         13    1    3    3    0    0 -0.31371882298E+02  0.63429507964E+01 -0.10598947527E+02  0.33715956347E+02  0.00000000000E+00 0. -1.
        -13    1    4    4    0    0  0.46012767725E+02 -0.34915434615E+02  0.61214838904E+02  0.84163643399E+02  0.00000000000E+00 0.  1.
         13    1    4    4    0    0 -0.48908866205E+02 -0.29601483338E+02  0.51708635223E+02  0.77085069669E+02  0.00000000000E+00 0. -1.
         21    1    1    2  503  502 -0.57619119858E+02  0.82324030314E+01 -0.23619366752E+02  0.62814090128E+02  0.00000000000E+00 0. -1.
          1    1    1    2  501    0  0.14106650685E+02  0.44181324212E+02 -0.44712221482E+02  0.64421811156E+02  0.00000000000E+00 0. -1.
<scales pt_clust_5="13000.00000" pt_clust_6="13000.00000" pt_clust_7="13000.00000" pt_clust_8="13000.00000" pt_clust_9="57.63383" pt_clust_10="46.37876"></scales>
<clustering>
<clus scale="   46.379">  1 10  2 -1</clus>
<clus scale="   57.634">  2  9  1 -1</clus>
<clus scale="   95.282">  7  8 -1 -1</clus>
<clus scale="   99.995">  5  6 -1 -1</clus>
<clus scale="  101.302">  1  7  2 -1</clus>
<clus scale="   46.379">  1  5  2 -1</clus>
</clustering>
</event>
<event>
10    2  0.1671105E-006  0.1043346E+03  0.7546771E-02  0.1272457E+00
         21   -1    0    0  501  502  0.00000000000E+00  0.00000000000E+00  0.38377232726E+02  0.38377232726E+02  0.00000000000E+00 0.  1.
          1   -1    0    0  503    0 -0.00000000000E+00 -0.00000000000E+00 -0.75147972653E+03  0.75147972653E+03  0.00000000000E+00 0. -1.
         23    2    1    2    0    0 -0.50045742367E+02  0.23290159283E+02 -0.36291065496E+03  0.37842702477E+03  0.91955759707E+02 0.  0.
         23    2    1    2    0    0  0.48341478219E+02  0.31214435345E+02 -0.29686873268E+03  0.31540169295E+03  0.89643426895E+02 0.  0.
        -11    1    4    4    0    0 -0.10696094010E+02  0.35274047998E+02 -0.18711380767E+03  0.19070983695E+03  0.00000000000E+00 0. -1.
         11    1    4    4    0    0  0.59037572230E+02 -0.40596126522E+01 -0.10975492501E+03  0.12469185600E+03  0.00000000000E+00 0.  1.
        -11    1    3    3    0    0 -0.60477443787E+01  0.52686363226E+02 -0.15223123293E+03  0.16120414499E+03  0.00000000000E+00 0.  1.
         11    1    3    3    0    0 -0.43997997988E+02 -0.29396203943E+02 -0.21067942203E+03  0.21722287978E+03  0.00000000000E+00 0. -1.
         21    1    1    2  503  502  0.29827450847E+02 -0.32677233489E+02 -0.30603742338E+02  0.53796537599E+02  0.00000000000E+00 0.  1.
          1    1    1    2  501    0 -0.28123186700E+02 -0.21827361139E+02 -0.22719363827E+02  0.42231703934E+02  0.00000000000E+00 0. -1.
<scales pt_clust_5="13000.00000" pt_clust_6="13000.00000" pt_clust_7="13000.00000" pt_clust_8="13000.00000" pt_clust_9="45.42866" pt_clust_10="35.59982"></scales>
<clustering>
<clus scale="   35.600">  1 10  2 -1</clus>
<clus scale="   45.429">  1  9  2 -1</clus>
<clus scale="   89.643">  5  6 -1 -1</clus>
<clus scale="   91.956">  7  8 -1 -1</clus>
<clus scale="  102.302">  1  5  2 -1</clus>
<clus scale="   35.600">  1  5  2 -1</clus>
</clustering>
</event>
<event>
10    2  0.1671105E-006  0.2520089E+03  0.7546771E-02  0.1112103E+00
          1   -1    0    0  503    0 -0.00000000000E+00  0.00000000000E+00  0.39219902827E+03  0.39219902827E+03  0.00000000000E+00 0. -1.
         21   -1    0    0  501  502  0.00000000000E+00 -0.00000000000E+00 -0.41932222413E+03  0.41932222413E+03  0.00000000000E+00 0.  1.
         23    2    1    2    0    0  0.57583562095E+02  0.21206334799E+03  0.83962817989E+02  0.25236937338E+03  0.91399210251E+02 0.  0.
         23    2    1    2    0    0  0.70887129271E+02 -0.31296771763E+03 -0.15462817877E+03  0.36801522445E+03  0.92474614801E+02 0.  0.
        -11    1    3    3    0    0  0.65352214467E+02  0.11834052377E+03  0.15558399363E+02  0.13607885689E+03  0.00000000000E+00 0. -1.
         11    1    3    3    0    0 -0.77686523713E+01  0.93722824217E+02  0.68404418625E+02  0.11629051649E+03  0.00000000000E+00 0.  1.
        -13    1    4    4    0    0  0.42273678566E+02 -0.17305095718E+03 -0.13573338706E+03  0.22395814350E+03  0.00000000000E+00 0.  1.
         13    1    4    4    0    0  0.28613450704E+02 -0.13991676045E+03 -0.18894791710E+02  0.14405708094E+03  0.00000000000E+00 0. -1.
         21    1    1    2  503  502 -0.22102943150E+02 -0.90164956053E+01  0.28890670558E+02  0.37476767926E+02  0.00000000000E+00 0. -1.
          1    1    1    2  501    0 -0.10636774822E+03  0.10992086524E+03  0.14651494356E+02  0.15365988664E+03  0.00000000000E+00 0. -1.
<scales pt_clust_5="13000.00000" pt_clust_6="13000.00000" pt_clust_7="13000.00000" pt_clust_8="13000.00000" pt_clust_9="23.87126" pt_clust_10="155.13087"></scales>
<clustering>
<clus scale="   23.871">  1  9  2 -1</clus>
<clus scale="   91.399">  5  6 -1 -1</clus>
<clus scale="   92.475">  7  8 -1 -1</clus>
<clus scale="  155.131">  2 10  1 -1</clus>
<clus scale="  251.616">  1  5  2 -1</clus>
<clus scale="  155.131">  2  5  1 -1</clus>
</clustering>
</event>
<event>
10    2  0.1671105E-006  0.1316691E+03  0.7546771E-02  0.1225345E+00
          1   -1    0    0  502    0 -0.00000000000E+00  0.00000000000E+00  0.11565997547E+04  0.11565997547E+04  0.00000000000E+00 0. -1.
         21   -1    0    0  503  502  0.00000000000E+00 -0.00000000000E+00 -0.48136015563E+02  0.48136015563E+02  0.00000000000E+00 0.  1.
         23    2    1    2    0    0  0.69738558329E+02 -0.46652295629E+02  0.62885431821E+03  0.64093157939E+03  0.91080364055E+02 0.  0.
         23    2    1    2    0    0 -0.59861071107E+02  0.14610984633E+03  0.27817668619E+03  0.33295191278E+03  0.92429824490E+02 0.  0.
        -11    1    3    3    0    0  0.44805696894E+02  0.22593236785E+02  0.24524236356E+03  0.25032343419E+03  0.00000000000E+00 0. -1.
         11    1    3    3    0    0  0.24932861434E+02 -0.69245532414E+02  0.38361195465E+03  0.39060814519E+03  0.00000000000E+00 0.  1.
        -13    1    4    4    0    0  0.29882437112E+01  0.10777584218E+03  0.14379072605E+03  0.17972293860E+03  0.00000000000E+00 0. -1.
         13    1    4    4    0    0 -0.62849314819E+02  0.38334004143E+02  0.13438596014E+03  0.15322897418E+03  0.00000000000E+00 0.  1.
         21    1    1    2  503  501 -0.29735652114E+02 -0.53459842505E+02  0.91812977310E+02  0.11032582005E+03  0.00000000000E+00 0. -1.
          1    1    1    2  501    0  0.19858164892E+02 -0.45997708192E+02  0.10961975745E+03  0.12052645807E+03  0.00000000000E+00 0. -1.
<scales pt_clust_5="13000.00000" pt_clust_6="13000.00000" pt_clust_7="13000.00000" pt_clust_8="13000.00000" pt_clust_9="47.27008" pt_clust_10="112.77246"></scales>
<clustering>
<clus scale="   47.270">  9 10 -1 -1</clus>
<clus scale="   91.080">  5  6 -1 -1</clus>
<clus scale="   92.430">  7  8 -1 -1</clus>
<clus scale="  112.772">  2  9  1 -1</clus>
<clus scale="  130.725">  1  5  2 -1</clus>
<clus scale="  112.772">  2  5  1 -1</clus>
</clustering>
</event>
<event>
10    2  0.1671105E-006  0.1242349E+03  0.7546771E-02  0.1237048E+00
          1   -1    0    0  503    0 -0.00000000000E+00  0.00000000000E+00  0.39561512288E+03  0.39561512288E+03  0.00000000000E+00 0. -1.
         21   -1    0    0  501  502  0.00000000000E+00 -0.00000000000E+00 -0.30079093938E+03  0.30079093938E+03  0.00000000000E+00 0. -1.
         23    2    1    2    0    0  0.84222652669E+02 -0.29125630993E+02  0.39219426878E+02  0.13412233724E+03  0.92243592186E+02 0.  0.
         23    2    1    2    0    0 -0.61781582353E+01  0.91270419912E+02  0.12222575401E+03  0.17701398204E+03  0.89589930814E+02 0.  0.
        -13    1    3    3    0    0  0.90599619788E+02 -0.52028111777E+02  0.31282898026E+02  0.10905886131E+03  0.00000000000E+00 0.  1.
         13    1    3    3    0    0 -0.63769671188E+01  0.22902480784E+02  0.79365288525E+01  0.25063475935E+02  0.00000000000E+00 0. -1.
        -13    1    4    4    0    0 -0.38182673624E+02  0.87522008126E+02  0.85704098969E+02  0.12830904509E+03  0.00000000000E+00 0. -1.
         13    1    4    4    0    0  0.32004515389E+02  0.37484117858E+01  0.36521655041E+02  0.48704936948E+02  0.00000000000E+00 0.  1.
         21    1    1    2  503  502 -0.78403761041E+02  0.43749267847E+02  0.13231726963E+03  0.15990312075E+03  0.00000000000E+00 0. -1.
          1    1    1    2  501    0  0.35926660726E+00 -0.10589405677E+03 -0.19893826702E+03  0.22536662223E+03  0.00000000000E+00 0. -1.
<scales pt_clust_5="13000.00000" pt_clust_6="13000.00000" pt_clust_7="13000.00000" pt_clust_8="13000.00000" pt_clust_9="89.78390" pt_clust_10="103.64646"></scales>
<clustering>
<clus scale="   89.590">  7  8 -1 -1</clus>
<clus scale="   89.784">  1  9  2 -1</clus>
<clus scale="   92.244">  5  6 -1 -1</clus>
<clus scale="  103.646">  2 10  1 -1</clus>
<clus scale="  122.277">  2  7  1 -1</clus>
<clus scale="  103.646">  2  5  1 -1</clus>
</clustering>
</event>
<event>
10    2  0.1671105E-006  0.1472288E+03  0.7546771E-02  0.1228688E+00
          2   -1    0    0  503    0 -0.00000000000E+00  0.00000000000E+00  0.18510275391E+03  0.18510275391E+03  0.00000000000E+00 0. -1.
         21   -1    0    0  501  502  0.00000000000E+00 -0.00000000000E+00 -0.36784087834E+03  0.36784087834E+03  0.00000000000E+00 0. -1.
         23    2    1    2    0    0  0.17448155117E+02  0.25784273763E+02  0.97837489131E+02  0.13129581565E+03  0.81836116941E+02 0.  0.
         23    2    1    2    0    0  0.12323944586E+01  0.98796662231E+02 -0.35015271023E+02  0.13881466041E+03  0.91000777344E+02 0.  0.
        -11    1    3    3    0    0 -0.11851257235E+02 -0.18705187200E+02  0.27639993292E+01  0.22315376281E+02  0.00000000000E+00 0.  1.
         11    1    3    3    0    0  0.29299412352E+02  0.44489460964E+02  0.95073489802E+02  0.10898043936E+03  0.00000000000E+00 0. -1.
        -13    1    4    4    0    0 -0.44873598574E+02  0.48911726019E+02 -0.16114614503E+02  0.68305765435E+02  0.00000000000E+00 0. -1.
         13    1    4    4    0    0  0.46105993032E+02  0.49884936212E+02 -0.18900656519E+02  0.70508894979E+02  0.00000000000E+00 0.  1.
         21    1    1    2  503  502 -0.21455924487E+02 -0.68778112708E+01 -0.42825657432E+02  0.48391093374E+02  0.00000000000E+00 0. -1.
          2    1    1    2  501    0  0.27753749111E+01 -0.11770312472E+03 -0.20273468510E+03  0.23444206282E+03  0.00000000000E+00 0. -1.
<scales pt_clust_5="13000.00000" pt_clust_6="13000.00000" pt_clust_7="13000.00000" pt_clust_8="13000.00000" pt_clust_9="22.53133" pt_clust_10="115.73752"></scales>
<clustering>
<clus scale="   22.531">  2  9  1 -1</clus>
<clus scale="   81.836">  5  6 -1 -1</clus>
<clus scale="   87.238">  1  5  2 -1</clus>
<clus scale="   91.001">  7  8 -1 -1</clus>
<clus scale="  115.738">  2 10  1 -1</clus>
<clus scale="   22.531">  2  5  1 -1</clus>
</clustering>
</event>
<event>
10    2  0.1671105E-006  0.9384262E+02  0.7546771E-02  0.1294646E+00
         21   -1    0    0  503  502  0.00000000000E+00  0.00000000000E+00  0.13495980162E+03  0.13495980162E+03  0.00000000000E+00 0.  1.
         -4   -1    0    0    0  501 -0.00000000000E+00 -0.00000000000E+00 -0.15964903763E+03  0.15964903763E+03  0.00000000000E+00 0.  1.
         23    2    1    2    0    0  0.71203385233E+01  0.32354906056E+01 -0.37909695612E+02  0.98896021105E+02  0.91006100613E+02 0.  0.
         23    2    1    2    0    0  0.44724263541E+02 -0.46640269025E+01  0.58233074630E+02  0.11818075439E+03  0.92485603376E+02 0.  0.
        -11    1    3    3    0    0 -0.37779242778E+01 -0.31048608561E+02  0.15179300517E+02  0.34766362617E+02  0.00000000000E+00 0.  1.
         11    1    3    3    0    0  0.10898262801E+02  0.34284099167E+02 -0.53088996129E+02  0.64129658488E+02  0.00000000000E+00 0. -1.
        -11    1    4    4    0    0  0.33407804894E+02 -0.31505609466E+02 -0.72702806732E+01  0.46492384717E+02  0.00000000000E+00 0. -1.
         11    1    4    4    0    0  0.11316458647E+02  0.26841582563E+02  0.65503355303E+02  0.71688369676E+02  0.00000000000E+00 0.  1.
         21    1    1    2  503  501 -0.26692946531E+02 -0.14918874745E+02 -0.11797022942E+02  0.32775844283E+02  0.00000000000E+00 0.  1.
         -4    1    1    2    0  502 -0.25151655534E+02  0.16347411042E+02 -0.33215592082E+02  0.44756219470E+02  0.00000000000E+00 0.  1.
<scales pt_clust_5="13000.00000" pt_clust_6="13000.00000" pt_clust_7="13000.00000" pt_clust_8="13000.00000" pt_clust_9="31.78737" pt_clust_10="29.99741"></scales>
<clustering>
<clus scale="   29.997">  1 10  2 -1</clus>
<clus scale="   31.787">  2  9  1 -1</clus>
<clus scale="   91.006">  5  6 -1 -1</clus>
<clus scale="   92.385">  2  5  1 -1</clus>
<clus scale="   92.486">  7  8 -1 -1</clus>
<clus scale="   29.997">  1  5  2 -1</clus>
</clustering>
</event>
<event>
10    2  0.1671105E-006  0.2727175E+03  0.7546771E-02  0.1114380E+00
          2   -1    0    0  503    0 -0.00000000000E+00  0.00000000000E+00  0.15844760001E+04  0.15844760001E+04  0.00000000000E+00 0. -1.
         21   -1    0    0  501  502  0.00000000000E+00 -0.00000000000E+00 -0.23635870001E+03  0.23635870001E+03  0.00000000000E+00 0.  1.
         23    2    1    2    0    0  0.62442373608E+02  0.15018046188E+03  0.53033780890E+03  0.56212447487E+03  0.90953353693E+02 0.  0.
         23    2    1    2    0    0  0.43566484509E+02 -0.37072029600E+03  0.88221379660E+03  0.96211325881E+03  0.89605599347E+02 0.  0.
        -11    1    4    4    0    0  0.10003582055E+02 -0.16557828126E+03  0.50323516171E+03  0.52986966970E+03  0.00000000000E+00 0. -1.
         11    1    4    4    0    0  0.33562902454E+02 -0.20514201474E+03  0.37897863489E+03  0.43224358912E+03  0.00000000000E+00 0.  1.
        -11    1    3    3    0    0  0.85657648019E+02  0.12259859456E+03  0.40621666409E+03  0.43287368393E+03  0.00000000000E+00 0. -1.
         11    1    3    3    0    0 -0.23215274410E+02  0.27581867324E+02  0.12412114480E+03  0.12925079094E+03  0.00000000000E+00 0.  1.
         21    1    1    2  503  502  0.28505860064E+02  0.69793525465E+01  0.13697619896E+02  0.32387037696E+02  0.00000000000E+00 0.  1.
          2    1    1    2  501    0 -0.13451471818E+03  0.21356048157E+03 -0.78131925289E+02  0.26420992874E+03  0.00000000000E+00 0. -1.
<scales pt_clust_5="13000.00000" pt_clust_6="13000.00000" pt_clust_7="13000.00000" pt_clust_8="13000.00000" pt_clust_9="29.34784" pt_clust_10="257.57654"></scales>
<clustering>
<clus scale="   29.348">  2  9  1 -1</clus>
<clus scale="   89.606">  5  6 -1 -1</clus>
<clus scale="   90.953">  7  8 -1 -1</clus>
<clus scale="  187.419">  1  7  2 -1</clus>
<clus scale="  257.577">  2 10  1 -1</clus>
<clus scale="   29.348">  2  5  1 -1</clus>
</clustering>
</event>
<event>
10    2  0.1671105E-006  0.1747753E+03  0.7546771E-02  0.1173415E+00
         21   -1    0    0  503  502  0.00000000000E+00  0.00000000000E+00  0.91277418268E+02  0.91277418268E+02  0.00000000000E+00 0. -1.
         -4   -1    0    0    0  501 -0.00000000000E+00 -0.00000000000E+00 -0.61867832709E+03  0.61867832709E+03  0.00000000000E+00 0.  1.
         23    2    1    2    0    0  0.67193436833E+01  0.15136323251E+03 -0.42285861138E+03  0.45837996405E+03  0.91360869595E+02 0.  0.
         23    2    1    2    0    0 -0.61055808215E+01 -0.13300382419E+03 -0.39404394079E+02  0.16809616528E+03  0.94743438518E+02 0.  0.
        -11    1    4    4    0    0  0.35505197376E+00 -0.10148227849E+03  0.17253323390E+02  0.10293908916E+03  0.00000000000E+00 0. -1.
         11    1    4    4    0    0 -0.64606327952E+01 -0.31521545702E+02 -0.56657717469E+02  0.65157076119E+02  0.00000000000E+00 0.  1.
        -13    1    3    3    0    0 -0.17389034090E+02  0.49113291008E+02 -0.54766432157E+02  0.75590051934E+02  0.00000000000E+00 0. -1.
         13    1    3    3    0    0  0.24108377773E+02  0.10224994150E+03 -0.36809217922E+03  0.38278991212E+03  0.00000000000E+00 0.  1.
         21    1    1    2  503  501  0.23315889537E+02 -0.24243655019E+01 -0.30370334399E+02  0.38364898860E+02  0.00000000000E+00 0. -1.
         -4    1    1    2    0  502 -0.23929652399E+02 -0.15935042814E+02 -0.34767568969E+02  0.45114717171E+02  0.00000000000E+00 0.  1.
<scales pt_clust_5="13000.00000" pt_clust_6="13000.00000" pt_clust_7="13000.00000" pt_clust_8="13000.00000" pt_clust_9="23.44159" pt_clust_10="27.53410"></scales>
<clustering>
<clus scale="   23.442">  2  9  1 -1</clus>
<clus scale="   27.534">  1 10  2 -1</clus>
<clus scale="   91.361">  7  8 -1 -1</clus>
<clus scale="   94.743">  5  6 -1 -1</clus>
<clus scale="  172.965">  2  7  1 -1</clus>
<clus scale="   27.534">  1  5  2 -1</clus>
</clustering>
</event>
<event>
10    2  0.1671105E-006  0.1092684E+03  0.7546771E-02  0.1264383E+00
         21   -1    0    0  501  502  0.00000000000E+00  0.00000000000E+00  0.15945484043E+03  0.15945484043E+03  0.00000000000E+00 0. -1.
         -2   -1    0    0    0  501 -0.00000000000E+00 -0.00000000000E+00 -0.19436974482E+03  0.19436974482E+03  0.00000000000E+00 0.  1.
         23    2    1    2    0    0 -0.46527280041E+02  0.45173128152E+02 -0.64479256149E+02  0.12995781630E+03  0.92336667948E+02 0.  0.
         23    2    1    2    0    0  0.34201110584E+02 -0.20457405024E+02  0.76433202587E+02  0.12191960019E+03  0.86221418838E+02 0.  0.
        -11    1    3    3    0    0  0.26932982827E+02  0.12232718822E+02 -0.53297285762E+01  0.30057128612E+02  0.00000000000E+00 0.  1.
         11    1    3    3    0    0 -0.73460262868E+02  0.32940409330E+02 -0.59149527573E+02  0.99900687683E+02  0.00000000000E+00 0. -1.
        -13    1    4    4    0    0  0.10318445055E+02 -0.45628479206E+02  0.11308508795E+02  0.48128066595E+02  0.00000000000E+00 0.  1.
         13    1    4    4    0    0  0.23882665530E+02  0.25171074182E+02  0.65124693792E+02  0.73791533591E+02  0.00000000000E+00 0. -1.
         21    1    1    2  503  502 -0.15080332927E+02  0.14513071390E+02  0.13504746297E+02  0.24908308953E+02  0.00000000000E+00 0. -1.
         -2    1    1    2    0  503  0.27406502384E+02 -0.39228794518E+02 -0.60373597128E+02  0.77038859820E+02  0.00000000000E+00 0.  1.
<scales pt_clust_5="13000.00000" pt_clust_6="13000.00000" pt_clust_7="13000.00000" pt_clust_8="13000.00000" pt_clust_9="20.92954" pt_clust_10="46.63476"></scales>
<clustering>
<clus scale="   20.930">  1  9  2 -1</clus>
<clus scale="   46.635">  1 10  2 -1</clus>
<clus scale="   86.221">  7  8 -1 -1</clus>
<clus scale="   92.337">  5  6 -1 -1</clus>
<clus scale="  104.152">  1  7  2 -1</clus>
<clus scale="   20.930">  1  5  2 -1</clus>
</clustering>
</event>
<event>
10    2  0.1671105E-006  0.1025364E+03  0.7546771E-02  0.1275889E+00
         21   -1    0    0  501  502  0.00000000000E+00  0.00000000000E+00  0.27535050844E+03  0.27535050844E+03  0.00000000000E+00 0.  1.
          1   -1    0    0  503    0 -0.00000000000E+00 -0.00000000000E+00 -0.12249026308E+03  0.12249026308E+03  0.00000000000E+00 0. -1.
         23    2    1    2    0    0 -0.46704271676E+02  0.19477736068E+02 -0.41942938504E+02  0.11231528155E+03  0.91076018713E+02 0.  0.
         23    2    1    2    0    0  0.46451663035E+02  0.34643609934E+02  0.87190929070E+02  0.13755890263E+03  0.89231479159E+02 0.  0.
        -11    1    3    3    0    0 -0.19834248384E+02  0.55525562142E+02 -0.27768179755E+02  0.65173286453E+02  0.00000000000E+00 0. -1.
         11    1    3    3    0    0 -0.26870023291E+02 -0.36047826074E+02 -0.14174758749E+02  0.47141995099E+02  0.00000000000E+00 0.  1.
        -13    1    4    4    0    0  0.32498133533E+02 -0.94900181775E+01 -0.51706753525E+01  0.34247992813E+02  0.00000000000E+00 0. -1.
         13    1    4    4    0    0  0.13953529502E+02  0.44133628111E+02  0.92361604422E+02  0.10331090982E+03  0.00000000000E+00 0.  1.
         21    1    1    2  503  502  0.35797260202E+02 -0.37390020337E+02  0.27209064016E+02  0.58478975909E+02  0.00000000000E+00 0.  1.
          1    1    1    2  501    0 -0.35544651562E+02 -0.16731325665E+02  0.80403190776E+02  0.89487611434E+02  0.00000000000E+00 0. -1.
<scales pt_clust_5="13000.00000" pt_clust_6="13000.00000" pt_clust_7="13000.00000" pt_clust_8="13000.00000" pt_clust_9="49.66401" pt_clust_10="39.28561"></scales>
<clustering>
<clus scale="   39.286">  1 10  2 -1</clus>
<clus scale="   49.664">  1  9  2 -1</clus>
<clus scale="   89.231">  7  8 -1 -1</clus>
<clus scale="   91.076">  5  6 -1 -1</clus>
<clus scale="  100.902">  1  7  2 -1</clus>
<clus scale="   39.286">  1  5  2 -1</clus>
</clustering>
</event>
<event>
10    2  0.1671105E-006  0.2446276E+03  0.7546771E-02  0.1116754E+00
          1   -1    0    0  502    0 -0.00000000000E+00  0.00000000000E+00  0.15044937710E+04  0.15044937710E+04  0.00000000000E+00 0. -1.
         21   -1    0    0  503  502  0.00000000000E+00 -0.00000000000E+00 -0.18269256815E+03  0.18269256815E+03  0.00000000000E+00 0.  1.
         23    2    1    2    0    0 -0.18644317644E+03  0.95114998221E+02  0.90199469475E+03  0.93038667147E+03  0.90647714560E+02 0.  0.
         23    2    1    2    0    0  0.38998104930E+03  0.44479038836E-01  0.28993187218E+03  0.49434949196E+03  0.90750806596E+02 0.  0.
        -11    1    4    4    0    0  0.31989173338E+03  0.20420716470E+01  0.18934167167E+03  0.37173264555E+03  0.00000000000E+00 0.  1.
         11    1    4    4    0    0  0.70089315929E+02 -0.19975926081E+01  0.10059020051E+03  0.12261684641E+03  0.00000000000E+00 0. -1.
        -13    1    3    3    0    0 -0.51931909893E+02  0.45706352643E+02  0.15451713911E+03  0.16929719495E+03  0.00000000000E+00 0.  1.
         13    1    3    3    0    0 -0.13451126654E+03  0.49408645578E+02  0.74747755564E+03  0.76108947652E+03  0.00000000000E+00 0. -1.
         21    1    1    2  503  501 -0.64773130099E+02 -0.50843558432E+02  0.49523137032E+02  0.96089369434E+02  0.00000000000E+00 0.  1.
          1    1    1    2  501    0 -0.13876474277E+03 -0.44315918828E+02  0.80351498896E+02  0.16636080630E+03  0.00000000000E+00 0. -1.
<scales pt_clust_5="13000.00000" pt_clust_6="13000.00000" pt_clust_7="13000.00000" pt_clust_8="13000.00000" pt_clust_9="29.40586" pt_clust_10="228.06287"></scales>
<clustering>
<clus scale="   29.406">  9 10 -1 -1</clus>
<clus scale="   90.648">  7  8 -1 -1</clus>
<clus scale="   90.751">  5  6 -1 -1</clus>
<clus scale="  228.063">  2  9  1 -1</clus>
<clus scale="  244.589">  1  7  2 -1</clus>
<clus scale="  228.063">  2  5  1 -1</clus>
</clustering>
</event>
<event>
10    2  0.1671105E-006  0.1013415E+03  0.7546771E-02  0.1277620E+00
         21   -1    0    0  501  502  0.00000000000E+00  0.00000000000E+00  0.21546140621E+03  0.21546140621E+03  0.00000000000E+00 0.  1.
          1   -1    0    0  503    0 -0.00000000000E+00 -0.00000000000E+00 -0.12202738598E+03  0.12202738598E+03  0.00000000000E+00 0. -1.
         23    2    1    2    0    0  0.13781216780E+02  0.44923148813E+01 -0.34310364794E+02  0.98810898162E+02  0.91522071842E+02 0.  0.
         23    2    1    2    0    0 -0.73121552474E+02 -0.51902125691E+01  0.63131089243E+02  0.13299831890E+03  0.91265100986E+02 0.  0.
        -13    1    4    4    0    0 -0.25875715131E+02  0.25150492887E+02  0.67645263156E+02  0.76667995627E+02  0.00000000000E+00 0.  1.
         13    1    4    4    0    0 -0.47245837343E+02 -0.30340705456E+02 -0.45141739125E+01  0.56330323272E+02  0.00000000000E+00 0. -1.
        -13    1    3    3    0    0  0.22911919707E+02  0.38055178298E+02 -0.44185143106E+02  0.62653647390E+02  0.00000000000E+00 0.  1.
         13    1    3    3    0    0 -0.91307029273E+01 -0.33562863416E+02  0.98747783124E+01  0.36157250772E+02  0.00000000000E+00 0. -1.
         21    1    1    2  503  502  0.31008288180E+02 -0.15168569775E+02  0.13227402488E+01  0.34544885101E+02  0.00000000000E+00 0.  1.
          1    1    1    2  501    0  0.28332047514E+02  0.15866467463E+02  0.63290555532E+02  0.71134690030E+02  0.00000000000E+00 0. -1.
<scales pt_clust_5="13000.00000" pt_clust_6="13000.00000" pt_clust_7="13000.00000" pt_clust_8="13000.00000" pt_clust_9="36.89654" pt_clust_10="32.47229"></scales>
<clustering>
<clus scale="   32.472">  1 10  2 -1</clus>
<clus scale="   36.897">  2  9  1 -1</clus>
<clus scale="   91.265">  5  6 -1 -1</clus>
<clus scale="   91.522">  7  8 -1 -1</clus>
<clus scale="  101.110">  1  5  2 -1</clus>
<clus scale="   32.472">  1  5  2 -1</clus>
</clustering>
</event>
<event>
10    2  0.1671105E-006  0.8254189E+03  0.7546771E-02  0.9818922E-01
          2   -1    0    0  502    0 -0.00000000000E+00  0.00000000000E+00  0.12262467366E+04  0.12262467366E+04  0.00000000000E+00 0. -1.
         21   -1    0    0  503  502  0.00000000000E+00 -0.00000000000E+00 -0.24430566857E+04  0.24430566857E+04  0.00000000000E+00 0. -1.
         23    2    1    2    0    0  0.29051879637E+03  0.26463172854E+02  0.66814959428E+03  0.73448844352E+03  0.89151123170E+02 0.  0.
         23    2    1    2    0    0 -0.51034676196E+03 -0.79441108401E+03 -0.73291538756E+02  0.95147208431E+03  0.91567951476E+02 0.  0.
        -11    1    4    4    0    0 -0.92684051405E+01 -0.46761554226E+02  0.55465575852E+01  0.47992818093E+02  0.00000000000E+00 0.  1.
         11    1    4    4    0    0 -0.50107835682E+03 -0.74764952978E+03 -0.78838096342E+02  0.90347926622E+03  0.00000000000E+00 0. -1.
        -13    1    3    3    0    0  0.26283868955E+03 -0.52560672848E+01  0.58043463022E+03  0.63719397591E+03  0.00000000000E+00 0.  1.
         13    1    3    3    0    0  0.27680106824E+02  0.31719240139E+02  0.87714964056E+02  0.97294467613E+02  0.00000000000E+00 0. -1.
         21    1    1    2  503  501 -0.14289082957E+02  0.39712966886E+02 -0.92284971706E+02  0.10147814362E+03  0.00000000000E+00 0.  1.
          2    1    1    2  501    0  0.23411704854E+03  0.72823494427E+03 -0.17193830329E+04  0.18818647508E+04  0.00000000000E+00 0. -1.
<scales pt_clust_5="13000.00000" pt_clust_6="13000.00000" pt_clust_7="13000.00000" pt_clust_8="13000.00000" pt_clust_9="27.23111" pt_clust_10="27.23111"></scales>
<clustering>
<clus scale="   27.231">  9 10 -1 -1</clus>
<clus scale="   89.151">  7  8 -1 -1</clus>
<clus scale="   91.568">  5  6 -1 -1</clus>
<clus scale="  305.040">  1  7  2 -1</clus>
<clus scale="  822.351">  1  5  2 -1</clus>
<clus scale="  825.419">  2  5  1 -1</clus>
</clustering>
</event>
<event>
10    2  0.1671105E-006  0.1080577E+03  0.7546771E-02  0.1264909E+00
         -3   -1    0    0    0  501 -0.00000000000E+00  0.00000000000E+00  0.46938960279E+02  0.46938960279E+02  0.00000000000E+00 0.  1.
         21   -1    0    0  503  502  0.00000000000E+00 -0.00000000000E+00 -0.53662730752E+03  0.53662730752E+03  0.00000000000E+00 0.  1.
         23    2    1    2    0    0  0.31638973516E+02 -0.57497070491E+02 -0.66981851131E+02  0.13062806222E+03  0.90940554751E+02 0.  0.
         23    2    1    2    0    0  0.26699805873E+00  0.33581248756E+02 -0.24307809951E+03  0.26229608675E+03  0.92652593637E+02 0.  0.
        -13    1    3    3    0    0  0.40930618290E+02 -0.67387157551E+01 -0.67262947555E+02  0.79025501690E+02  0.00000000000E+00 0. -1.
         13    1    3    3    0    0 -0.92916447739E+01 -0.50758354736E+02  0.28109642358E+00  0.51602560531E+02  0.00000000000E+00 0.  1.
        -13    1    4    4    0    0  0.39464205306E+02  0.60840461023E+01 -0.17214614502E+03  0.17671653676E+03  0.00000000000E+00 0.  1.
         13    1    4    4    0    0 -0.39197207247E+02  0.27497202654E+02 -0.70931954490E+02  0.85579549997E+02  0.00000000000E+00 0. -1.
         21    1    1    2  503  501 -0.23178221881E+02 -0.60802805063E+00 -0.14740884429E+03  0.14922120172E+03  0.00000000000E+00 0.  1.
         -3    1    1    2    0  502 -0.87277496944E+01  0.24523849786E+02 -0.32219552308E+02  0.41420917107E+02  0.00000000000E+00 0.  1.
<scales pt_clust_5="13000.00000" pt_clust_6="13000.00000" pt_clust_7="13000.00000" pt_clust_8="13000.00000" pt_clust_9="23.18620" pt_clust_10="26.79483"></scales>
<clustering>
<clus scale="   23.186">  2  9  1 -1</clus>
<clus scale="   26.795">  2 10  1 -1</clus>
<clus scale="   90.941">  5  6 -1 -1</clus>
<clus scale="   92.653">  7  8 -1 -1</clus>
<clus scale="  106.593">  1  5  2 -1</clus>
<clus scale="   23.186">  2  5  1 -1</clus>
</clustering>
</event>
<event>
10    2  0.1671105E-006  0.9482088E+02  0.7546771E-02  0.1293820E+00
          1   -1    0    0  503    0 -0.00000000000E+00  0.00000000000E+00  0.15892049304E+03  0.15892049304E+03  0.00000000000E+00 0. -1.
         21   -1    0    0  501  502  0.00000000000E+00 -0.00000000000E+00 -0.14323968845E+03  0.14323968845E+03  0.00000000000E+00 0.  1.
         23    2    1    2    0    0 -0.33551808576E+02  0.73350439687E+00  0.48229564679E+02  0.10583598895E+03  0.88027857867E+02 0.  0.
         23    2    1    2    0    0  0.82464736280E+01 -0.25359014133E+00  0.15369062469E+02  0.93669533375E+02  0.92030998942E+02 0.  0.
        -11    1    4    4    0    0  0.19139607059E+02  0.33168920172E+02  0.36293030329E+02  0.52760647022E+02  0.00000000000E+00 0.  1.
         11    1    4    4    0    0 -0.10893133432E+02 -0.33422510313E+02 -0.20923967860E+02  0.40908886353E+02  0.00000000000E+00 0. -1.
        -13    1    3    3    0    0 -0.48986301102E+02  0.32463415720E+02  0.33069566425E+02  0.67432390432E+02  0.00000000000E+00 0.  1.
         13    1    3    3    0    0  0.15434492526E+02 -0.31729911323E+02  0.15159998254E+02  0.38403598519E+02  0.00000000000E+00 0. -1.
         21    1    1    2  503  502 -0.31758245243E+02  0.85862939039E+01 -0.19795152196E+02  0.38394773529E+02  0.00000000000E+00 0.  1.
          1    1    1    2  501    0  0.57063580190E+02 -0.90662081595E+01 -0.28122670358E+02  0.64259885641E+02  0.00000000000E+00 0. -1.
<scales pt_clust_5="13000.00000" pt_clust_6="13000.00000" pt_clust_7="13000.00000" pt_clust_8="13000.00000" pt_clust_9="32.89849" pt_clust_10="44.56406"></scales>
<clustering>
<clus scale="   32.898">  2  9  1 -1</clus>
<clus scale="   44.564">  2 10  1 -1</clus>
<clus scale="   88.028">  7  8 -1 -1</clus>
<clus scale="   90.941">  1  7  2 -1</clus>
<clus scale="   92.031">  5  6 -1 -1</clus>
<clus scale="   32.898">  2  5  1 -1</clus>
</clustering>
</event>
<event>
10    2  0.1671105E-006  0.9539914E+02  0.7546771E-02  0.1290608E+00
          1   -1    0    0  503    0 -0.00000000000E+00  0.00000000000E+00  0.10653748950E+03  0.10653748950E+03  0.00000000000E+00 0. -1.
         21   -1    0    0  501  502  0.00000000000E+00 -0.00000000000E+00 -0.32022573229E+03  0.32022573229E+03  0.00000000000E+00 0. -1.
         23    2    1    2    0    0 -0.51884671045E+01  0.16476521523E+02  0.36067659631E+02  0.10001894210E+03  0.91676151512E+02 0.  0.
         23    2    1    2    0    0 -0.20144235111E+02 -0.50913199836E+02 -0.44695024320E+02  0.11527772264E+03  0.91067908793E+02 0.  0.
        -11    1    4    4    0    0  0.33542478918E+02 -0.30841470361E+02 -0.56255848870E+01  0.45912322870E+02  0.00000000000E+00 0.  1.
         11    1    4    4    0    0 -0.53686714029E+02 -0.20071729474E+02 -0.39069439433E+02  0.69365399768E+02  0.00000000000E+00 0. -1.
        -11    1    3    3    0    0  0.30224034032E+02 -0.75153333364E+01 -0.14017996468E+02  0.34153721515E+02  0.00000000000E+00 0.  1.
         11    1    3    3    0    0 -0.35412501137E+02  0.23991854860E+02  0.50085656100E+02  0.65865220589E+02  0.00000000000E+00 0. -1.
         21    1    1    2  503  502  0.19251824172E+02  0.10033889650E+02 -0.14072864013E+03  0.14239333491E+03  0.00000000000E+00 0. -1.
          1    1    1    2  501    0  0.60808780438E+01  0.24402788662E+02 -0.64332237974E+02  0.69073222127E+02  0.00000000000E+00 0. -1.
<scales pt_clust_5="13000.00000" pt_clust_6="13000.00000" pt_clust_7="13000.00000" pt_clust_8="13000.00000" pt_clust_9="21.70971" pt_clust_10="31.11923"></scales>
<clustering>
<clus scale="   21.710">  2  9  1 -1</clus>
<clus scale="   31.119">  2 10  1 -1</clus>
<clus scale="   91.068">  5  6 -1 -1</clus>
<clus scale="   91.676">  7  8 -1 -1</clus>
<clus scale="   94.815">  2  5  1 -1</clus>
<clus scale="   21.710">  2  5  1 -1</clus>
</clustering>
</event>
<event>
10    2  0.1671105E-006  0.1873390E+03  0.7546771E-02  0.1172218E+00
         -1   -1    0    0    0  501 -0.00000000000E+00  0.00000000000E+00  0.44390812653E+03  0.44390812653E+03  0.00000000000E+00 0.  1.
         21   -1    0    0  501  502  0.00000000000E+00 -0.00000000000E+00 -0.26030601744E+03  0.26030601744E+03  0.00000000000E+00 0.  1.
         23    2    1    2    0    0 -0.10872765746E+03 -0.31000539697E+02 -0.68869255698E+02  0.15991739223E+03  0.89709871260E+02 0.  0.
         23    2    1    2    0    0  0.19848974047E+03  0.14623682867E+03  0.27415702519E+03  0.38017022091E+03  0.92649529282E+02 0.  0.
        -11    1    4    4    0    0  0.12515976630E+02  0.50443212657E+02  0.75644694913E+02  0.91778468295E+02  0.00000000000E+00 0.  1.
         11    1    4    4    0    0  0.18597376384E+03  0.95793616010E+02  0.19851233028E+03  0.28839175261E+03  0.00000000000E+00 0. -1.
        -13    1    3    3    0    0 -0.70848867588E+02  0.26244020952E+02 -0.32659318863E+02  0.82310034521E+02  0.00000000000E+00 0.  1.
         13    1    3    3    0    0 -0.37878789868E+02 -0.57244560649E+02 -0.36209936836E+02  0.77607357714E+02  0.00000000000E+00 0. -1.
         21    1    1    2  503  502 -0.46461765765E+02 -0.12105450428E+02 -0.20661328089E+02  0.52269762640E+02  0.00000000000E+00 0.  1.
         -1    1    1    2    0  503 -0.43300317248E+02 -0.10313083854E+03 -0.10243323136E+01  0.11185676819E+03  0.00000000000E+00 0.  1.
<scales pt_clust_5="13000.00000" pt_clust_6="13000.00000" pt_clust_7="13000.00000" pt_clust_8="13000.00000" pt_clust_9="46.92904" pt_clust_10="177.88367"></scales>
<clustering>
<clus scale="   46.929">  9 10 -1 -1</clus>
<clus scale="   89.710">  7  8 -1 -1</clus>
<clus scale="   92.650">  5  6 -1 -1</clus>
<clus scale="  144.328">  1  7  2 -1</clus>
<clus scale="  177.884">  2  9  1 -1</clus>
<clus scale="  177.884">  2  5  1 -1</clus>
</clustering>
</event>
<event>
10    2  0.2881219E-006  0.4908104E+03  0.7546771E-02  0.1074279E+00
          1   -1    0    0  502    0 -0.00000000000E+00  0.00000000000E+00  0.28147541687E+04  0.28147541687E+04  0.00000000000E+00 0. -1.
         21   -1    0    0  503  502  0.00000000000E+00 -0.00000000000E+00 -0.23663246011E+03  0.23663246011E+03  0.00000000000E+00 0. -1.
         23    2    1    2    0    0 -0.15870813942E+02 -0.91002911388E+01  0.23469342077E+02  0.94998320589E+02  0.90217364532E+02 0.  0.
         23    2    1    2    0    0  0.45920830511E+03  0.17592863281E+03  0.23884771327E+04  0.24402625745E+04  0.90748377036E+02 0.  0.
        -11    1    4    4    0    0  0.99735737077E+02  0.13790325878E+01  0.53087414797E+03  0.54016338266E+03  0.00000000000E+00 0.  1.
         11    1    4    4    0    0  0.35947256803E+03  0.17454960022E+03  0.18576029847E+04  0.19000991918E+04  0.00000000000E+00 0. -1.
        -13    1    3    3    0    0  0.25264012632E+02  0.24689052712E+01 -0.21279991756E+02  0.33124067936E+02  0.00000000000E+00 0. -1.
         13    1    3    3    0    0 -0.41134826574E+02 -0.11569196410E+02  0.44749333832E+02  0.61874252652E+02  0.00000000000E+00 0.  1.
         21    1    1    2  503  501 -0.33602657425E+02  0.19732164038E+01  0.45955036234E+02  0.56964002004E+02  0.00000000000E+00 0. -1.
          1    1    1    2  501    0 -0.40973483374E+03 -0.16880155808E+03  0.12022019766E+03  0.45916173176E+03  0.00000000000E+00 0. -1.
<scales pt_clust_5="13000.00000" pt_clust_6="13000.00000" pt_clust_7="13000.00000" pt_clust_8="13000.00000" pt_clust_9="33.06319" pt_clust_10="33.06319"></scales>
<clustering>
<clus scale="   33.063">  9 10 -1 -1</clus>
<clus scale="   90.217">  7  8 -1 -1</clus>
<clus scale="   90.748">  5  6 -1 -1</clus>
<clus scale="   92.054">  1  7  2 -1</clus>
<clus scale="  484.498">  1  5  2 -1</clus>
<clus scale="  490.810">  2  5  1 -1</clus>
</clustering>
</event>
<event>
10    2  0.1671105E-006  0.9862129E+02  0.7546771E-02  0.1285840E+00
          1   -1    0    0  503    0 -0.00000000000E+00  0.00000000000E+00  0.45089060970E+03  0.45089060970E+03  0.00000000000E+00 0. -1.
         21   -1    0    0  501  502  0.00000000000E+00 -0.00000000000E+00 -0.48677768627E+02  0.48677768627E+02  0.00000000000E+00 0. -1.
         23    2    1    2    0    0  0.11030998853E+02  0.48702469121E+02  0.23318225129E+03  0.25448956378E+03  0.88867104829E+02 0.  0.
         23    2    1    2    0    0  0.47415567425E+01 -0.76655755922E+01  0.16262399641E+03  0.18799237976E+03  0.93879322694E+02 0.  0.
        -11    1    3    3    0    0  0.39263742606E+02 -0.54500618363E+01  0.73141900319E+02  0.83193042015E+02  0.00000000000E+00 0.  1.
         11    1    3    3    0    0 -0.28232743753E+02  0.54152530957E+02  0.16004035097E+03  0.17129652176E+03  0.00000000000E+00 0. -1.
        -13    1    4    4    0    0  0.25010782017E+02  0.32148096634E+02  0.11806486356E+03  0.12489335988E+03  0.00000000000E+00 0. -1.
         13    1    4    4    0    0 -0.20269225274E+02 -0.39813672226E+02  0.44559132845E+02  0.63099019876E+02  0.00000000000E+00 0.  1.
         21    1    1    2  503  502 -0.11300161460E+02 -0.16725973252E+02  0.20385781200E+02  0.28688532646E+02  0.00000000000E+00 0.  1.
          1    1    1    2  501    0 -0.44723941362E+01 -0.24310920277E+02 -0.13979187827E+02  0.28397902146E+02  0.00000000000E+00 0. -1.
<scales pt_clust_5="13000.00000" pt_clust_6="13000.00000" pt_clust_7="13000.00000" pt_clust_8="13000.00000" pt_clust_9="20.18544" pt_clust_10="33.73996"></scales>
<clustering>
<clus scale="   20.185">  2  9  1 -1</clus>
<clus scale="   33.740">  2 10  1 -1</clus>
<clus scale="   88.867">  5  6 -1 -1</clus>
<clus scale="   93.863">  1  5  2 -1</clus>
<clus scale="   93.879">  7  8 -1 -1</clus>
<clus scale="   20.185">  2  5  1 -1</clus>
</clustering>
</event>
<event>
10    2  0.1671105E-006  0.1130125E+03  0.7546771E-02  0.1260772E+00
         -3   -1    0    0    0  501 -0.00000000000E+00  0.00000000000E+00  0.37722704397E+03  0.37722704397E+03  0.00000000000E+00 0.  1.
         21   -1    0    0  503  502  0.00000000000E+00 -0.00000000000E+00 -0.19311092596E+03  0.19311092596E+03  0.00000000000E+00 0.  1.
         23    2    1    2    0    0 -0.44919272969E+02 -0.34992679005E+02  0.11578934124E+03  0.15677328179E+03  0.89041909620E+02 0.  0.
         23    2    1    2    0    0 -0.77907376773E+02 -0.29088543801E+02  0.39509757116E+02  0.12768941423E+03  0.88475210440E+02 0.  0.
        -11    1    4    4    0    0 -0.85829645165E+02 -0.50244141239E+01  0.50898006734E+02  0.99912861113E+02  0.00000000000E+00 0.  1.
         11    1    4    4    0    0  0.79222683911E+01 -0.24064129677E+02 -0.11388249618E+02  0.27776553115E+02  0.00000000000E+00 0. -1.
        -11    1    3    3    0    0 -0.49790910687E+02  0.17338750947E+02  0.51084929039E+02  0.73412785306E+02  0.00000000000E+00 0.  1.
         11    1    3    3    0    0  0.48716377182E+01 -0.52331429952E+02  0.64704412205E+02  0.83360496482E+02  0.00000000000E+00 0. -1.
         21    1    1    2  503  501  0.46246024016E+02  0.85205121117E+02  0.12687629615E+03  0.15967530155E+03  0.00000000000E+00 0.  1.
         -3    1    1    2    0  502  0.76580625726E+02 -0.21123898311E+02 -0.98059276494E+02  0.12619997236E+03  0.00000000000E+00 0.  1.
<scales pt_clust_5="13000.00000" pt_clust_6="13000.00000" pt_clust_7="13000.00000" pt_clust_8="13000.00000" pt_clust_9="70.31327" pt_clust_10="79.44062"></scales>
<clustering>
<clus scale="   79.441">  2 10  1 -1</clus>
<clus scale="   88.475">  5  6 -1 -1</clus>
<clus scale="   89.042">  7  8 -1 -1</clus>
<clus scale="  101.034">  1  7  2 -1</clus>
<clus scale="   70.313">  1  9  2 -1</clus>
<clus scale="   79.441">  2  5  1 -1</clus>
</clustering>
</event>
<event>
10    2  0.1671105E-006  0.2261217E+03  0.7546771E-02  0.1166350E+00
          1   -1    0    0  503    0 -0.00000000000E+00  0.00000000000E+00  0.65513668909E+03  0.65513668909E+03  0.00000000000E+00 0. -1.
         21   -1    0    0  501  502  0.00000000000E+00 -0.00000000000E+00 -0.25235558537E+03  0.25235558537E+03  0.00000000000E+00 0. -1.
         23    2    1    2    0    0 -0.85714869161E+01  0.64872783551E+01  0.24749630275E+03  0.26382787569E+03  0.90747853692E+02 0.  0.
         23    2    1    2    0    0 -0.11971869657E+03  0.12610664549E+03  0.27349830482E+03  0.33584900653E+03  0.88078261213E+02 0.  0.
        -11    1    4    4    0    0 -0.32178366940E+02  0.94033522875E+02  0.16672921240E+03  0.19410404682E+03  0.00000000000E+00 0. -1.
         11    1    4    4    0    0 -0.87540329629E+02  0.32073122612E+02  0.10676909243E+03  0.14174495971E+03  0.00000000000E+00 0.  1.
        -13    1    3    3    0    0 -0.34068915942E+02 -0.16344143811E+02  0.46398996898E+02  0.59838858475E+02  0.00000000000E+00 0.  1.
         13    1    3    3    0    0  0.25497429026E+02  0.22831422167E+02  0.20109730585E+03  0.20398901722E+03  0.00000000000E+00 0. -1.
         21    1    1    2  503  502 -0.32444949084E+01  0.37205319320E+02  0.29116707079E+02  0.47355518834E+02  0.00000000000E+00 0. -1.
          1    1    1    2  501    0  0.13153467839E+03 -0.16979924316E+03 -0.14733021093E+03  0.26045987340E+03  0.00000000000E+00 0. -1.
<scales pt_clust_5="13000.00000" pt_clust_6="13000.00000" pt_clust_7="13000.00000" pt_clust_8="13000.00000" pt_clust_9="37.34652" pt_clust_10="208.26243"></scales>
<clustering>
<clus scale="   37.347">  1  9  2 -1</clus>
<clus scale="   88.078">  5  6 -1 -1</clus>
<clus scale="   90.748">  7  8 -1 -1</clus>
<clus scale="   93.880">  1  7  2 -1</clus>
<clus scale="  208.262">  2 10  1 -1</clus>
<clus scale="  208.262">  2  5  1 -1</clus>
</clustering>
</event>
<event>
10    2  0.1671105E-006  0.9487839E+02  0.7546771E-02  0.1295328E+00
         21   -1    0    0  503  502  0.00000000000E+00  0.00000000000E+00  0.33839419572E+02  0.33839419572E+02  0.00000000000E+00 0.  1.
         -4   -1    0    0    0  501 -0.00000000000E+00 -0.00000000000E+00 -0.62753023882E+03  0.62753023882E+03  0.00000000000E+00 0.  1.
         23    2    1    2    0    0 -0.28958049990E+01 -0.37930014726E+02 -0.16598008788E+03  0.18996319848E+03  0.84199498216E+02 0.  0.
         23    2    1    2    0    0 -0.49945155328E+02 -0.75839785057E+01 -0.16537580071E+03  0.19545278427E+03  0.91107629456E+02 0.  0.
        -13    1    3    3    0    0  0.19043706741E+02 -0.53530410581E+02 -0.14530875678E+03  0.15602180111E+03  0.00000000000E+00 0.  1.
         13    1    3    3    0    0 -0.21939511740E+02  0.15600395855E+02 -0.20671331103E+02  0.33941397375E+02  0.00000000000E+00 0. -1.
        -13    1    4    4    0    0 -0.58874755279E+02 -0.37410448986E+02 -0.89757871211E+02  0.11367609224E+03  0.00000000000E+00 0.  1.
         13    1    4    4    0    0  0.89295999510E+01  0.29826470480E+02 -0.75617929502E+02  0.81776692026E+02  0.00000000000E+00 0. -1.
         21    1    1    2  503  501  0.20676105338E+01  0.21057886714E+02 -0.13576720706E+03  0.13740612839E+03  0.00000000000E+00 0. -1.
         -4    1    1    2    0  502  0.50773349793E+02  0.24456106518E+02 -0.12656772360E+03  0.13854754726E+03  0.00000000000E+00 0.  1.
<scales pt_clust_5="13000.00000" pt_clust_6="13000.00000" pt_clust_7="13000.00000" pt_clust_8="13000.00000" pt_clust_9="21.15915" pt_clust_10="59.52705"></scales>
<clustering>
<clus scale="   21.159">  2  9  1 -1</clus>
<clus scale="   59.527">  1 10  2 -1</clus>
<clus scale="   84.199">  5  6 -1 -1</clus>
<clus scale="   88.266">  2  5  1 -1</clus>
<clus scale="   91.108">  7  8 -1 -1</clus>
<clus scale="   59.527">  1  5  2 -1</clus>
</clustering>
</event>
<event>
10    2  0.1671105E-006  0.9942580E+02  0.7546771E-02  0.1282387E+00
         -1   -1    0    0    0  501 -0.00000000000E+00  0.00000000000E+00  0.34717285104E+03  0.34717285104E+03  0.00000000000E+00 0.  1.
         21   -1    0    0  503  502  0.00000000000E+00 -0.00000000000E+00 -0.53642380903E+02  0.53642380903E+02  0.00000000000E+00 0. -1.
         23    2    1    2    0    0  0.22519442322E+02 -0.29748240179E+02  0.19874931322E+03  0.22288700623E+03  0.93729637607E+02 0.  0.
         23    2    1    2    0    0  0.91684371454E+01  0.32686011119E+02  0.63409606287E+02  0.11676633883E+03  0.91984586488E+02 0.  0.
        -13    1    4    4    0    0  0.45550438128E+02  0.28383567570E+02  0.59172670588E+02  0.79886633839E+02  0.00000000000E+00 0.  1.
         13    1    4    4    0    0 -0.36382000982E+02  0.43024435483E+01  0.42369356987E+01  0.36879704989E+02  0.00000000000E+00 0. -1.
        -13    1    3    3    0    0 -0.61833167782E+01 -0.59230102264E+02  0.11085106212E+03  0.12583479802E+03  0.00000000000E+00 0.  1.
         13    1    3    3    0    0  0.28702759100E+02  0.29481862084E+02  0.87898251102E+02  0.97052208212E+02  0.00000000000E+00 0. -1.
         21    1    1    2  503  501 -0.87028177771E+01 -0.21029550633E+02  0.17913681723E+02  0.28963442992E+02  0.00000000000E+00 0.  1.
         -1    1    1    2    0  502 -0.22985061690E+02  0.18091779693E+02  0.13457868909E+02  0.32198443890E+02  0.00000000000E+00 0.  1.
<scales pt_clust_5="13000.00000" pt_clust_6="13000.00000" pt_clust_7="13000.00000" pt_clust_8="13000.00000" pt_clust_9="22.75920" pt_clust_10="28.37247"></scales>
<clustering>
<clus scale="   22.759">  2  9  1 -1</clus>
<clus scale="   28.372">  2 10  1 -1</clus>
<clus scale="   91.985">  5  6 -1 -1</clus>
<clus scale="   93.730">  7  8 -1 -1</clus>
<clus scale="   97.782">  2  5  1 -1</clus>
<clus scale="   22.759">  2  5  1 -1</clus>
</clustering>
</event>
<event>
10    2  0.1671105E-006  0.1177798E+03  0.7546771E-02  0.1247080E+00
          1   -1    0    0  503    0 -0.00000000000E+00  0.00000000000E+00  0.48736061769E+03  0.48736061769E+03  0.00000000000E+00 0. -1.
         21   -1    0    0  501  502  0.00000000000E+00 -0.00000000000E+00 -0.11889876287E+03  0.11889876287E+03  0.00000000000E+00 0. -1.
         23    2    1    2    0    0  0.51263593960E+02 -0.19975761609E+02  0.25684846529E+03  0.28134880799E+03  0.10079201615E+03 0.  0.
         23    2    1    2    0    0 -0.73625550684E+02 -0.34237745782E+01  0.18107830832E+03  0.21961050418E+03  0.10003487320E+03 0.  0.
        -11    1    4    4    0    0 -0.39952269913E+02 -0.34380845073E+01  0.50806835869E+01  0.40420510165E+02  0.00000000000E+00 0.  1.
         11    1    4    4    0    0 -0.33673280771E+02  0.14309929109E-01  0.17599762474E+03  0.17918999402E+03  0.00000000000E+00 0. -1.
        -11    1    3    3    0    0  0.16302532523E+02  0.34866219964E+02  0.16086827959E+03  0.16540867341E+03  0.00000000000E+00 0.  1.
         11    1    3    3    0    0  0.34961061437E+02 -0.54841981573E+02  0.95980185697E+02  0.11594013458E+03  0.00000000000E+00 0. -1.
         21    1    1    2  503  502  0.20755816782E+02 -0.12458694810E+02 -0.64713058754E+02  0.69092712929E+02  0.00000000000E+00 0. -1.
          1    1    1    2  501    0  0.16061399412E+01  0.35858230998E+02 -0.47518600423E+01  0.36207355463E+02  0.00000000000E+00 0. -1.
<scales pt_clust_5="13000.00000" pt_clust_6="13000.00000" pt_clust_7="13000.00000" pt_clust_8="13000.00000" pt_clust_9="24.20791" pt_clust_10="32.45989"></scales>
<clustering>
<clus scale="   24.208">  2  9  1 -1</clus>
<clus scale="   32.460">  2 10  1 -1</clus>
<clus scale="  100.035">  5  6 -1 -1</clus>
<clus scale="  100.792">  7  8 -1 -1</clus>
<clus scale="  117.133">  2  5  1 -1</clus>
<clus scale="   24.208">  2  5  1 -1</clus>
</clustering>
</event>
<event>
10    2  0.1671105E-006  0.1016389E+03  0.7546771E-02  0.1277231E+00
         -3   -1    0    0    0  501 -0.00000000000E+00  0.00000000000E+00  0.66490874213E+02  0.66490874213E+02  0.00000000000E+00 0.  1.
         21   -1    0    0  503  502  0.00000000000E+00 -0.00000000000E+00 -0.38386477094E+03  0.38386477094E+03  0.00000000000E+00 0.  1.
         23    2    1    2    0    0 -0.66605925363E+01 -0.41164246399E+02 -0.56310462129E+02  0.11586238552E+03  0.92273319863E+02 0.  0.
         23    2    1    2    0    0 -0.29703685448E+02  0.42183501212E+02 -0.86360003970E+02  0.13601209034E+03  0.91539509114E+02 0.  0.
        -13    1    3    3    0    0  0.34273528210E+02 -0.16879173768E+02 -0.56574163201E+02  0.68265783412E+02  0.00000000000E+00 0. -1.
         13    1    3    3    0    0 -0.40934120746E+02 -0.24285072631E+02  0.26370107143E+00  0.47596602108E+02  0.00000000000E+00 0.  1.
        -13    1    4    4    0    0  0.30015339731E+02  0.28866439246E+01 -0.10893677366E+02  0.32061277873E+02  0.00000000000E+00 0. -1.
         13    1    4    4    0    0 -0.59719025179E+02  0.39296857287E+02 -0.75466326604E+02  0.10395081246E+03  0.00000000000E+00 0.  1.
         21    1    1    2  503  501 -0.24396800576E+02  0.10963366202E+02 -0.87689839777E+02  0.91678281381E+02  0.00000000000E+00 0.  1.
         -3    1    1    2    0  502  0.60761078561E+02 -0.11982621014E+02 -0.87013590855E+02  0.10680288792E+03  0.00000000000E+00 0.  1.
<scales pt_clust_5="13000.00000" pt_clust_6="13000.00000" pt_clust_7="13000.00000" pt_clust_8="13000.00000" pt_clust_9="26.74695" pt_clust_10="53.38476"></scales>
<clustering>
<clus scale="   26.747">  2  9  1 -1</clus>
<clus scale="   53.385">  2 10  1 -1</clus>
<clus scale="   91.540">  7  8 -1 -1</clus>
<clus scale="   92.273">  5  6 -1 -1</clus>
<clus scale="  100.973">  2  7  1 -1</clus>
<clus scale="   26.747">  2  5  1 -1</clus>
</clustering>
</event>
<event>
10    2  0.1671105E-006  0.8938403E+02  0.7546771E-02  0.1306975E+00
         -2   -1    0    0    0  501 -0.00000000000E+00  0.00000000000E+00  0.27333224634E+03  0.27333224634E+03  0.00000000000E+00 0.  1.
         21   -1    0    0  501  502  0.00000000000E+00 -0.00000000000E+00 -0.10509873421E+03  0.10509873421E+03  0.00000000000E+00 0.  1.
         23    2    1    2    0    0  0.25021686330E+02  0.26463482966E+00  0.16122629014E+03  0.18366010854E+03  0.84326532105E+02 0.  0.
         23    2    1    2    0    0  0.21863217415E+02 -0.19003021882E+02  0.61314415434E+02  0.11153596692E+03  0.88553369559E+02 0.  0.
        -13    1    3    3    0    0 -0.60596654160E+01 -0.25690083838E+02  0.11922931818E+02  0.28963015307E+02  0.00000000000E+00 0. -1.
         13    1    3    3    0    0  0.31081351746E+02  0.25954718667E+02  0.14930335832E+03  0.15469709323E+03  0.00000000000E+00 0.  1.
        -13    1    4    4    0    0  0.19303780439E+02  0.13761501794E+02 -0.15269179676E+02  0.28198629733E+02  0.00000000000E+00 0. -1.
         13    1    4    4    0    0  0.25594369761E+01 -0.32764523676E+02  0.76583595110E+02  0.83337337186E+02  0.00000000000E+00 0.  1.
         21    1    1    2  503  502 -0.23714734435E+02 -0.96594373267E+01 -0.15875263611E+02  0.30128348005E+02  0.00000000000E+00 0.  1.
         -2    1    1    2    0  503 -0.23170169310E+02  0.28397824379E+02 -0.38431929834E+02  0.53106557091E+02  0.00000000000E+00 0.  1.
<scales pt_clust_5="13000.00000" pt_clust_6="13000.00000" pt_clust_7="13000.00000" pt_clust_8="13000.00000" pt_clust_9="25.60651" pt_clust_10="43.05696"></scales>
<clustering>
<clus scale="   25.607">  2  9  1 -1</clus>
<clus scale="   43.057">  2 10  1 -1</clus>
<clus scale="   84.327">  5  6 -1 -1</clus>
<clus scale="   85.198">  1  5  2 -1</clus>
<clus scale="   88.553">  7  8 -1 -1</clus>
<clus scale="   25.607">  2  5  1 -1</clus>
</clustering>
</event>
<event>
10    2  0.1671105E-006  0.2251139E+03  0.7546771E-02  0.1130692E+00
         21   -1    0    0  503  502  0.00000000000E+00  0.00000000000E+00  0.29701285425E+03  0.29701285425E+03  0.00000000000E+00 0. -1.
         -2   -1    0    0    0  501 -0.00000000000E+00 -0.00000000000E+00 -0.29351921942E+03  0.29351921942E+03  0.00000000000E+00 0. -1.
         23    2    1    2    0    0  0.12058693588E+03  0.19640739414E+03 -0.95837815863E+02  0.26455110350E+03  0.87665990185E+02 0.  0.
         23    2    1    2    0    0 -0.59068566914E+02 -0.15209915827E+03  0.69999773234E+02  0.20148274017E+03  0.95247450298E+02 0.  0.
        -13    1    4    4    0    0 -0.36625905162E+02 -0.63640027138E+02  0.81270097927E+02  0.10952779921E+03  0.00000000000E+00 0.  1.
         13    1    4    4    0    0 -0.22442661752E+02 -0.88459131135E+02 -0.11270324693E+02  0.91954940957E+02  0.00000000000E+00 0. -1.
        -13    1    3    3    0    0  0.56095239885E+02  0.80612380347E+02  0.45002004794E+01  0.98312174258E+02  0.00000000000E+00 0.  1.
         13    1    3    3    0    0  0.64491695994E+02  0.11579501380E+03 -0.10033801634E+03  0.16623892924E+03  0.00000000000E+00 0. -1.
         21    1    1    2  503  501 -0.19020378956E+02 -0.65988044105E+02  0.34737978946E+00  0.68675450149E+02  0.00000000000E+00 0. -1.
         -2    1    1    2    0  502 -0.42497990009E+02  0.21679808233E+02  0.28984297669E+02  0.55822779859E+02  0.00000000000E+00 0. -1.
<scales pt_clust_5="13000.00000" pt_clust_6="13000.00000" pt_clust_7="13000.00000" pt_clust_8="13000.00000" pt_clust_9="67.74451" pt_clust_10="47.70842"></scales>
<clustering>
<clus scale="   47.708">  1 10  2 -1</clus>
<clus scale="   67.745">  1  9  2 -1</clus>
<clus scale="   87.666">  7  8 -1 -1</clus>
<clus scale="   95.247">  5  6 -1 -1</clus>
<clus scale="  222.012">  2  7  1 -1</clus>
<clus scale="   47.708">  1  5  2 -1</clus>
</clustering>
</event>
<event>
10    2  0.1671105E-006  0.1411785E+03  0.7546771E-02  0.1218064E+00
          1   -1    0    0  502    0 -0.00000000000E+00  0.00000000000E+00  0.26716098278E+03  0.26716098278E+03  0.00000000000E+00 0. -1.
         21   -1    0    0  503  502  0.00000000000E+00 -0.00000000000E+00 -0.27433252306E+03  0.27433252306E+03  0.00000000000E+00 0. -1.
         23    2    1    2    0    0  0.10633073041E+03 -0.75330630537E+02  0.16054249902E+03  0.23470818165E+03  0.11105452902E+03 0.  0.
         23    2    1    2    0    0 -0.31754179965E+02  0.23725490532E+02  0.15599483657E+02  0.97322580019E+02  0.87504936117E+02 0.  0.
        -11    1    3    3    0    0  0.84830057169E+02 -0.10392977308E+03  0.13776590514E+03  0.19229399614E+03  0.00000000000E+00 0. -1.
         11    1    3    3    0    0  0.21500673241E+02  0.28599142544E+02  0.22776593881E+02  0.42414185515E+02  0.00000000000E+00 0.  1.
        -13    1    4    4    0    0  0.27656737476E+02  0.20684342272E+02 -0.38147747154E+01  0.34746073868E+02  0.00000000000E+00 0. -1.
         13    1    4    4    0    0 -0.59410917441E+02  0.30411482594E+01  0.19414258372E+02  0.62576506151E+02  0.00000000000E+00 0.  1.
         21    1    1    2  503  501 -0.81039704564E+01  0.27719140213E+02 -0.36515684964E+02  0.46555561641E+02  0.00000000000E+00 0.  1.
          1    1    1    2  501    0 -0.66472579989E+02  0.23885999793E+02 -0.14679783800E+03  0.16290718253E+03  0.00000000000E+00 0. -1.
<scales pt_clust_5="13000.00000" pt_clust_6="13000.00000" pt_clust_7="13000.00000" pt_clust_8="13000.00000" pt_clust_9="28.87949" pt_clust_10="83.40064"></scales>
<clustering>
<clus scale="   28.879">  2  9  1 -1</clus>
<clus scale="   83.401">  2 10  1 -1</clus>
<clus scale="   87.505">  7  8 -1 -1</clus>
<clus scale="  111.055">  5  6 -1 -1</clus>
<clus scale="  123.513">  2  7  1 -1</clus>
<clus scale="   28.879">  2  5  1 -1</clus>
</clustering>
</event>
<event>
10    2  0.1671105E-006  0.1046898E+03  0.7546771E-02  0.1273009E+00
          1   -1    0    0  503    0 -0.00000000000E+00  0.00000000000E+00  0.92403538018E+03  0.92403538018E+03  0.00000000000E+00 0. -1.
         21   -1    0    0  501  502  0.00000000000E+00 -0.00000000000E+00 -0.36101884064E+02  0.36101884064E+02  0.00000000000E+00 0. -1.
         23    2    1    2    0    0 -0.34361449696E+02  0.13056753762E+02  0.47652208222E+03  0.48761750432E+03  0.96676510215E+02 0.  0.
         23    2    1    2    0    0  0.30327588956E+02 -0.35946911969E+02  0.40316190443E+03  0.41614502742E+03  0.91788994566E+02 0.  0.
        -11    1    4    4    0    0 -0.18182137949E+02 -0.48676107705E+02  0.17584529859E+03  0.18336172621E+03  0.00000000000E+00 0. -1.
         11    1    4    4    0    0  0.48509726906E+02  0.12729195736E+02  0.22731660585E+03  0.23278330121E+03  0.00000000000E+00 0.  1.
        -13    1    3    3    0    0 -0.66405679628E+02  0.18052231015E+02  0.36693992196E+03  0.37333698405E+03  0.00000000000E+00 0. -1.
         13    1    3    3    0    0  0.32044229932E+02 -0.49954772525E+01  0.10958216026E+03  0.11428052027E+03  0.00000000000E+00 0.  1.
         21    1    1    2  503  502 -0.20999534560E+02  0.22231787619E+02  0.25173746627E+01  0.30685012753E+02  0.00000000000E+00 0. -1.
          1    1    1    2  501    0  0.25033395300E+02  0.65837058849E+00  0.57321348011E+01  0.25689719762E+02  0.00000000000E+00 0. -1.
<scales pt_clust_5="13000.00000" pt_clust_6="13000.00000" pt_clust_7="13000.00000" pt_clust_8="13000.00000" pt_clust_9="23.80039" pt_clust_10="25.04205"></scales>
<clustering>
<clus scale="   25.042">  2 10  1 -1</clus>
<clus scale="   23.800">  2  9  1 -1</clus>
<clus scale="   91.789">  5  6 -1 -1</clus>
<clus scale="   96.677">  7  8 -1 -1</clus>
<clus scale="  100.194">  2  5  1 -1</clus>
<clus scale="   25.042">  2  5  1 -1</clus>
</clustering>
</event>
<event>
10    2  0.1671105E-006  0.2426562E+03  0.7546771E-02  0.1145824E+00
         21   -1    0    0  501  502  0.00000000000E+00  0.00000000000E+00  0.85365915558E+03  0.85365915558E+03  0.00000000000E+00 0.  1.
          1   -1    0    0  503    0 -0.00000000000E+00 -0.00000000000E+00 -0.55429442798E+03  0.55429442798E+03  0.00000000000E+00 0. -1.
         23    2    1    2    0    0  0.80250780812E+02 -0.15914069560E+02 -0.44015795607E+03  0.45710608678E+03  0.92268645011E+02 0.  0.
         23    2    1    2    0    0 -0.14248585340E+03 -0.21501133891E+03  0.53690397674E+03  0.60251363451E+03  0.90690160674E+02 0.  0.
        -13    1    3    3    0    0  0.77479953772E+02 -0.37153247561E+02 -0.41616515256E+03  0.42494345653E+03  0.00000000000E+00 0. -1.
         13    1    3    3    0    0  0.27708270409E+01  0.21239178001E+02 -0.23992803506E+02  0.32162630251E+02  0.00000000000E+00 0.  1.
        -13    1    4    4    0    0 -0.10403356600E+03 -0.20982525465E+03  0.47163768689E+03  0.52658496753E+03  0.00000000000E+00 0.  1.
         13    1    4    4    0    0 -0.38452287400E+02 -0.51860842653E+01  0.65266289857E+02  0.75928666971E+02  0.00000000000E+00 0. -1.
         21    1    1    2  503  502 -0.46491298222E+02  0.63340671658E+02  0.29283645188E+02  0.83851138167E+02  0.00000000000E+00 0.  1.
          1    1    1    2  501    0  0.10872637081E+03  0.16758473682E+03  0.17333506174E+03  0.26448272411E+03  0.00000000000E+00 0. -1.
<scales pt_clust_5="13000.00000" pt_clust_6="13000.00000" pt_clust_7="13000.00000" pt_clust_8="13000.00000" pt_clust_9="78.57151" pt_clust_10="225.07199"></scales>
<clustering>
<clus scale="   78.572">  1  9  2 -1</clus>
<clus scale="   90.690">  7  8 -1 -1</clus>
<clus scale="   92.269">  5  6 -1 -1</clus>
<clus scale="  122.910">  2  5  1 -1</clus>
<clus scale="  225.072">  1 10  2 -1</clus>
<clus scale="   78.572">  1  5  2 -1</clus>
</clustering>
</event>
<event>
10    2  0.1671105E-006  0.9924760E+02  0.7546771E-02  0.1283448E+00
          3   -1    0    0  502    0 -0.00000000000E+00  0.00000000000E+00  0.41572595139E+03  0.41572595139E+03  0.00000000000E+00 0. -1.
         21   -1    0    0  503  502  0.00000000000E+00 -0.00000000000E+00 -0.45512700946E+02  0.45512700946E+02  0.00000000000E+00 0.  1.
         23    2    1    2    0    0  0.32559936009E+02  0.10271884525E+02  0.19672034181E+03  0.21810978136E+03  0.87791359480E+02 0.  0.
         23    2    1    2    0    0 -0.25794676675E+02 -0.55448710743E+02  0.12545534849E+03  0.16659050789E+03  0.90958386028E+02 0.  0.
        -11    1    4    4    0    0 -0.54120202603E+02 -0.44516796350E+02  0.52474958838E+02  0.87546346538E+02  0.00000000000E+00 0.  1.
         11    1    4    4    0    0  0.28325525927E+02 -0.10931914393E+02  0.72980389647E+02  0.79044161356E+02  0.00000000000E+00 0. -1.
        -13    1    3    3    0    0  0.35984008943E+02 -0.27374789229E+02  0.15655555275E+03  0.16295357953E+03  0.00000000000E+00 0.  1.
         13    1    3    3    0    0 -0.34240729337E+01  0.37646673754E+02  0.40164789058E+02  0.55156201829E+02  0.00000000000E+00 0. -1.
         21    1    1    2  503  501 -0.18825034212E+02  0.13557878222E+02  0.90226764956E+01  0.24891899608E+02  0.00000000000E+00 0.  1.
          3    1    1    2  501    0  0.12059774878E+02  0.31618947997E+02  0.39014883648E+02  0.51646463467E+02  0.00000000000E+00 0. -1.
<scales pt_clust_5="13000.00000" pt_clust_6="13000.00000" pt_clust_7="13000.00000" pt_clust_8="13000.00000" pt_clust_9="23.19909" pt_clust_10="35.04548"></scales>
<clustering>
<clus scale="   23.199">  2  9  1 -1</clus>
<clus scale="   35.045">  2 10  1 -1</clus>
<clus scale="   87.791">  7  8 -1 -1</clus>
<clus scale="   90.958">  5  6 -1 -1</clus>
<clus scale="   96.353">  1  7  2 -1</clus>
<clus scale="   23.199">  2  5  1 -1</clus>
</clustering>
</event>
<event>
10    2  0.1671105E-006  0.1460355E+03  0.7546771E-02  0.1205890E+00
          1   -1    0    0  503    0 -0.00000000000E+00  0.00000000000E+00  0.68757559159E+03  0.68757559159E+03  0.00000000000E+00 0. -1.
         21   -1    0    0  501  502  0.00000000000E+00 -0.00000000000E+00 -0.81234287397E+02  0.81234287397E+02  0.00000000000E+00 0. -1.
         23    2    1    2    0    0  0.13521727256E+03  0.44639444588E+02  0.48176475195E+03  0.51051562316E+03  0.90843461259E+02 0.  0.
         23    2    1    2    0    0 -0.41432640476E+02 -0.53919114802E+02  0.79963909852E+02  0.13730790184E+03  0.88517220872E+02 0.  0.
        -11    1    3    3    0    0  0.18827286819E+02 -0.26461594957E+02  0.97107339895E+02  0.10239393634E+03  0.00000000000E+00 0.  1.
         11    1    3    3    0    0  0.11638998574E+03  0.71101039545E+02  0.38465741206E+03  0.40812168682E+03  0.00000000000E+00 0. -1.
        -13    1    4    4    0    0 -0.18753283936E+02 -0.61176676000E+02  0.90853001017E+02  0.11112398093E+03  0.00000000000E+00 0.  1.
         13    1    4    4    0    0 -0.22679356540E+02  0.72575611977E+01 -0.10889091165E+02  0.26183920906E+02  0.00000000000E+00 0. -1.
         21    1    1    2  503  502 -0.29615195316E+02  0.93446609846E+01 -0.14012005863E+02  0.34069323310E+02  0.00000000000E+00 0. -1.
          1    1    1    2  501    0 -0.64169436771E+02 -0.64990770611E-01  0.58624648252E+02  0.86917030679E+02  0.00000000000E+00 0. -1.
<scales pt_clust_5="13000.00000" pt_clust_6="13000.00000" pt_clust_7="13000.00000" pt_clust_8="13000.00000" pt_clust_9="31.05451" pt_clust_10="71.52970"></scales>
<clustering>
<clus scale="   31.055">  2  9  1 -1</clus>
<clus scale="   71.530">  2 10  1 -1</clus>
<clus scale="   88.517">  7  8 -1 -1</clus>
<clus scale="   90.843">  5  6 -1 -1</clus>
<clus scale="  144.600">  2  7  1 -1</clus>
<clus scale="   31.055">  2  5  1 -1</clus>
</clustering>
</event>
<event>
10    2  0.1671105E-006  0.2396503E+03  0.7546771E-02  0.1156710E+00
          1   -1    0    0  502    0 -0.00000000000E+00  0.00000000000E+00  0.13050869988E+03  0.13050869988E+03  0.00000000000E+00 0. -1.
         21   -1    0    0  503  502  0.00000000000E+00 -0.00000000000E+00 -0.68637308744E+03  0.68637308744E+03  0.00000000000E+00 0. -1.
         23    2    1    2    0    0 -0.21604570586E+02  0.34873980614E+02 -0.18826471494E+03  0.21254170149E+03  0.89707413225E+02 0.  0.
         23    2    1    2    0    0  0.22772097303E+03 -0.56390047144E+02 -0.20003390513E+03  0.32142584731E+03  0.90908377744E+02 0.  0.
        -13    1    4    4    0    0  0.11433993664E+03 -0.74920754820E+02 -0.11025898424E+03  0.17562398532E+03  0.00000000000E+00 0.  1.
         13    1    4    4    0    0  0.11338103639E+03  0.18530707677E+02 -0.89774920890E+02  0.14580186199E+03  0.00000000000E+00 0. -1.
        -13    1    3    3    0    0  0.12604779240E+02  0.41018867353E+02 -0.16554884068E+03  0.17102001810E+03  0.00000000000E+00 0. -1.
         13    1    3    3    0    0 -0.34209349826E+02 -0.61448867392E+01 -0.22715874255E+02  0.41521683392E+02  0.00000000000E+00 0.  1.
         21    1    1    2  503  501 -0.44406091195E+02  0.41367468644E+02 -0.71472492833E+02  0.93762922464E+02  0.00000000000E+00 0.  1.
          1    1    1    2  501    0 -0.16171031125E+03 -0.19851402115E+02 -0.96093274649E+02  0.18915131605E+03  0.00000000000E+00 0. -1.
<scales pt_clust_5="13000.00000" pt_clust_6="13000.00000" pt_clust_7="13000.00000" pt_clust_8="13000.00000" pt_clust_9="57.94979" pt_clust_10="57.94979"></scales>
<clustering>
<clus scale="   57.950">  9 10 -1 -1</clus>
<clus scale="   89.707">  7  8 -1 -1</clus>
<clus scale="   90.908">  5  6 -1 -1</clus>
<clus scale="   98.643">  1  7  2 -1</clus>
<clus scale="  238.078">  1  5  2 -1</clus>
<clus scale="  239.650">  2  5  1 -1</clus>
</clustering>
</event>
<event>
10    2  0.1671105E-006  0.1046306E+03  0.7546771E-02  0.1271804E+00
          1   -1    0    0  502    0 -0.00000000000E+00  0.00000000000E+00  0.42462582634E+03  0.42462582634E+03  0.00000000000E+00 0. -1.
         21   -1    0    0  503  502  0.00000000000E+00 -0.00000000000E+00 -0.88210358720E+02  0.88210358720E+02  0.00000000000E+00 0. -1.
         23    2    1    2    0    0  0.21932487088E+02 -0.41950558980E+02  0.29074779890E+03  0.30815943082E+03  0.90482422867E+02 0.  0.
         23    2    1    2    0    0  0.20551167652E+01  0.59360066565E+02  0.58817228308E+02  0.12478132526E+03  0.92644869147E+02 0.  0.
        -13    1    3    3    0    0  0.42304422705E+02 -0.31525517754E+02  0.27585675740E+03  0.28085667707E+03  0.00000000000E+00 0. -1.
         13    1    3    3    0    0 -0.20371935618E+02 -0.10425041226E+02  0.14891041500E+02  0.27302753750E+02  0.00000000000E+00 0.  1.
        -13    1    4    4    0    0 -0.33336544198E+02  0.86472716437E+01 -0.62633557090E+01  0.35004715549E+02  0.00000000000E+00 0.  1.
         13    1    4    4    0    0  0.35391660963E+02  0.50712794921E+02  0.65080584017E+02  0.89776609707E+02  0.00000000000E+00 0. -1.
         21    1    1    2  503  501  0.21160110873E+02 -0.25073113258E+02 -0.26633742452E+01  0.32916635050E+02  0.00000000000E+00 0.  1.
          1    1    1    2  501    0 -0.45147714726E+02  0.76636056735E+01 -0.10486185343E+02  0.46978793938E+02  0.00000000000E+00 0. -1.
<scales pt_clust_5="13000.00000" pt_clust_6="13000.00000" pt_clust_7="13000.00000" pt_clust_8="13000.00000" pt_clust_9="32.80871" pt_clust_10="36.60418"></scales>
<clustering>
<clus scale="   32.809">  2  9  1 -1</clus>
<clus scale="   36.604">  2 10  1 -1</clus>
<clus scale="   90.482">  5  6 -1 -1</clus>
<clus scale="   92.645">  7  8 -1 -1</clus>
<clus scale="  102.721">  1  5  2 -1</clus>
<clus scale="   32.809">  2  5  1 -1</clus>
</clustering>
</event>
<event>
10    2  0.1671105E-006  0.2452248E+03  0.7546771E-02  0.1116591E+00
          2   -1    0    0  503    0 -0.00000000000E+00  0.00000000000E+00  0.62056631059E+03  0.62056631059E+03  0.00000000000E+00 0. -1.
         21   -1    0    0  501  502  0.00000000000E+00 -0.00000000000E+00 -0.34539696759E+03  0.34539696759E+03  0.00000000000E+00 0.  1.
         23    2    1    2    0    0 -0.19263998759E+03  0.16098103097E+03  0.30933843854E+03  0.40883543784E+03  0.91820959095E+02 0.  0.
         23    2    1    2    0    0  0.20918421246E+03 -0.68208893881E+02 -0.23142799308E+03  0.33122005305E+03  0.87962035076E+02 0.  0.
        -11    1    4    4    0    0  0.14369340245E+03 -0.81474737768E+02 -0.19338013817E+03  0.25432617766E+03  0.00000000000E+00 0.  1.
         11    1    4    4    0    0  0.65490810010E+02  0.13265843887E+02 -0.38047854903E+02  0.76893875390E+02  0.00000000000E+00 0. -1.
        -11    1    3    3    0    0 -0.96413616289E+02  0.13747804602E+03  0.20444585995E+03  0.26456361842E+03  0.00000000000E+00 0. -1.
         11    1    3    3    0    0 -0.96226371302E+02  0.23502984945E+02  0.10489257859E+03  0.14427181942E+03  0.00000000000E+00 0.  1.
         21    1    1    2  503  502  0.14952798037E+02 -0.35445855049E+02  0.39557347295E+02  0.55179511907E+02  0.00000000000E+00 0. -1.
          2    1    1    2  501    0 -0.31497022908E+02 -0.57326282036E+02  0.15770155025E+03  0.17072827538E+03  0.00000000000E+00 0. -1.
<scales pt_clust_5="13000.00000" pt_clust_6="13000.00000" pt_clust_7="13000.00000" pt_clust_8="13000.00000" pt_clust_9="38.47070" pt_clust_10="72.76171"></scales>
<clustering>
<clus scale="   38.471">  1  9  2 -1</clus>
<clus scale="   72.762">  2 10  1 -1</clus>
<clus scale="   87.962">  5  6 -1 -1</clus>
<clus scale="   91.821">  7  8 -1 -1</clus>
<clus scale="  243.806">  2  5  1 -1</clus>
<clus scale="   72.762">  2  5  1 -1</clus>
</clustering>
</event>
<event>
10    2  0.1671105E-006  0.1101841E+03  0.7546771E-02  0.1263780E+00
         -1   -1    0    0    0  501 -0.00000000000E+00  0.00000000000E+00  0.26765202388E+03  0.26765202388E+03  0.00000000000E+00 0.  1.
         21   -1    0    0  503  502  0.00000000000E+00 -0.00000000000E+00 -0.26583559359E+03  0.26583559359E+03  0.00000000000E+00 0.  1.
         23    2    1    2    0    0  0.28340661994E+01 -0.55749406692E+02  0.19255043277E+03  0.22194288019E+03  0.95220505292E+02 0.  0.
         23    2    1    2    0    0  0.15498350429E+02  0.54320317341E+02  0.38207802333E+01  0.10341997521E+03  0.86545925198E+02 0.  0.
        -11    1    4    4    0    0 -0.29899061929E+02 -0.29119339915E+01 -0.22016560133E+01  0.30121098138E+02  0.00000000000E+00 0.  1.
         11    1    4    4    0    0  0.45397412358E+02  0.57232251332E+02  0.60224362466E+01  0.73298877070E+02  0.00000000000E+00 0. -1.
        -13    1    3    3    0    0 -0.28641251704E+02 -0.69301082624E+02  0.14609568181E+03  0.16421604549E+03  0.00000000000E+00 0.  1.
         13    1    3    3    0    0  0.31475317903E+02  0.13551675932E+02  0.46454750961E+02  0.57726834700E+02  0.00000000000E+00 0. -1.
         21    1    1    2  503  501  0.49789100869E+01  0.25963059438E+02 -0.29397984594E+02  0.39536204917E+02  0.00000000000E+00 0. -1.
         -1    1    1    2    0  502 -0.23311326715E+02 -0.24533970087E+02 -0.16515679812E+03  0.16858855716E+03  0.00000000000E+00 0.  1.
<scales pt_clust_5="13000.00000" pt_clust_6="13000.00000" pt_clust_7="13000.00000" pt_clust_8="13000.00000" pt_clust_9="26.43615" pt_clust_10="20.55792"></scales>
<clustering>
<clus scale="   26.436">  2  9  1 -1</clus>
<clus scale="   20.558">  2 10  1 -1</clus>
<clus scale="   86.546">  5  6 -1 -1</clus>
<clus scale="   95.221">  7  8 -1 -1</clus>
<clus scale="  102.780">  2  5  1 -1</clus>
<clus scale="   26.436">  2  5  1 -1</clus>
</clustering>
</event>
<event>
10    2  0.1671105E-006  0.9285546E+02  0.7546771E-02  0.1298362E+00
          2   -1    0    0  503    0 -0.00000000000E+00  0.00000000000E+00  0.50128286892E+03  0.50128286892E+03  0.00000000000E+00 0. -1.
         21   -1    0    0  501  502  0.00000000000E+00 -0.00000000000E+00 -0.72102238244E+02  0.72102238244E+02  0.00000000000E+00 0. -1.
         23    2    1    2    0    0 -0.35963523526E+02 -0.48384282630E+01  0.28402689682E+03  0.29947103482E+03  0.87720220969E+02 0.  0.
         23    2    1    2    0    0 -0.19347163881E+02  0.96750298675E+00  0.16420006868E+03  0.18902441285E+03  0.91615049450E+02 0.  0.
        -11    1    4    4    0    0 -0.19352825245E+02 -0.42698124015E+02  0.10891126639E+03  0.11857202699E+03  0.00000000000E+00 0. -1.
         11    1    4    4    0    0  0.56613647207E-02  0.43665627002E+02  0.55288802295E+02  0.70452385855E+02  0.00000000000E+00 0.  1.
        -11    1    3    3    0    0  0.12185901593E+02  0.23981847592E+02  0.34692229349E+02  0.43899612626E+02  0.00000000000E+00 0.  1.
         11    1    3    3    0    0 -0.48149425119E+02 -0.28820275855E+02  0.24933466747E+03  0.25557142219E+03  0.00000000000E+00 0. -1.
         21    1    1    2  503  502  0.30153743676E+02 -0.14671651265E+01  0.21368284663E+02  0.36986543778E+02  0.00000000000E+00 0. -1.
          2    1    1    2  501    0  0.25156943731E+02  0.53380904027E+01 -0.40414619488E+02  0.47903115717E+02  0.00000000000E+00 0. -1.
<scales pt_clust_5="13000.00000" pt_clust_6="13000.00000" pt_clust_7="13000.00000" pt_clust_8="13000.00000" pt_clust_9="37.18418" pt_clust_10="25.71706"></scales>
<clustering>
<clus scale="   25.717">  2 10  1 -1</clus>
<clus scale="   37.184">  2  9  1 -1</clus>
<clus scale="   87.720">  7  8 -1 -1</clus>
<clus scale="   89.015">  1  7  2 -1</clus>
<clus scale="   91.615">  5  6 -1 -1</clus>
<clus scale="   25.717">  2  5  1 -1</clus>
</clustering>
</event>
<event>
10    2  0.1671105E-006  0.1260997E+03  0.7546771E-02  0.1235168E+00
         -2   -1    0    0    0  501 -0.00000000000E+00  0.00000000000E+00  0.15791001286E+03  0.15791001286E+03  0.00000000000E+00 0.  1.
         21   -1    0    0  503  502  0.00000000000E+00 -0.00000000000E+00 -0.31121295322E+03  0.31121295322E+03  0.00000000000E+00 0. -1.
         23    2    1    2    0    0 -0.58947137695E+02 -0.34736896345E+02  0.84188478616E+02  0.14206272396E+03  0.91720775174E+02 0.  0.
         23    2    1    2    0    0  0.11758991405E+03  0.69535166676E+01 -0.18517518508E+03  0.23546255865E+03  0.85305498529E+02 0.  0.
        -11    1    3    3    0    0 -0.34113878208E+02 -0.18251582733E+02  0.10077848906E+03  0.10794989957E+03  0.00000000000E+00 0.  1.
         11    1    3    3    0    0 -0.24833259487E+02 -0.16485313612E+02 -0.16590010449E+02  0.34112824397E+02  0.00000000000E+00 0. -1.
        -11    1    4    4    0    0  0.10882503182E+03 -0.18407388755E+02 -0.17472777778E+03  0.20666764585E+03  0.00000000000E+00 0. -1.
         11    1    4    4    0    0  0.87648822286E+01  0.25360905422E+02 -0.10447407295E+02  0.28794912806E+02  0.00000000000E+00 0.  1.
         21    1    1    2  503  501 -0.24462621004E+02  0.27712806387E+02 -0.12270732532E+02  0.38948560193E+02  0.00000000000E+00 0. -1.
         -2    1    1    2    0  502 -0.34180155350E+02  0.70573289819E-01 -0.40045501367E+02  0.52649123260E+02  0.00000000000E+00 0.  1.
<scales pt_clust_5="13000.00000" pt_clust_6="13000.00000" pt_clust_7="13000.00000" pt_clust_8="13000.00000" pt_clust_9="39.23532" pt_clust_10="34.18023"></scales>
<clustering>
<clus scale="   34.180">  2 10  1 -1</clus>
<clus scale="   39.235">  1  9  2 -1</clus>
<clus scale="   85.305">  7  8 -1 -1</clus>
<clus scale="   91.721">  5  6 -1 -1</clus>
<clus scale="  121.513">  2  7  1 -1</clus>
<clus scale="   34.180">  2  5  1 -1</clus>
</clustering>
</event>
<event>
10    2  0.1671105E-006  0.1135143E+03  0.7546771E-02  0.1254534E+00
          3   -1    0    0  503    0 -0.00000000000E+00  0.00000000000E+00  0.21442477991E+03  0.21442477991E+03  0.00000000000E+00 0. -1.
         21   -1    0    0  501  502  0.00000000000E+00 -0.00000000000E+00 -0.21719094442E+03  0.21719094442E+03  0.00000000000E+00 0. -1.
         23    2    1    2    0    0  0.32466640464E+02 -0.64673359200E+02  0.11159785702E+03  0.15959813994E+03  0.88208607553E+02 0.  0.
         23    2    1    2    0    0  0.19990291368E+02  0.80456339601E+02  0.17321809772E+02  0.12158271719E+03  0.87232320238E+02 0.  0.
        -13    1    4    4    0    0 -0.27728255012E+02  0.61367728830E+02  0.19605170340E+02  0.70137129766E+02  0.00000000000E+00 0.  1.
         13    1    4    4    0    0  0.47718546380E+02  0.19088610771E+02 -0.22833605671E+01  0.51445587423E+02  0.00000000000E+00 0. -1.
        -13    1    3    3    0    0  0.28430062214E+02 -0.36209994653E+02  0.12091113589E+03  0.12937903591E+03  0.00000000000E+00 0. -1.
         13    1    3    3    0    0  0.40365782501E+01 -0.28463364547E+02 -0.93132788648E+01  0.30219104032E+02  0.00000000000E+00 0.  1.
         21    1    1    2  503  502 -0.28376568556E+02 -0.43563507126E+01 -0.18500933871E+02  0.34153945433E+02  0.00000000000E+00 0. -1.
          3    1    1    2  501    0 -0.24080363276E+02 -0.11426629688E+02 -0.11318489743E+03  0.11628092177E+03  0.00000000000E+00 0. -1.
<scales pt_clust_5="13000.00000" pt_clust_6="13000.00000" pt_clust_7="13000.00000" pt_clust_8="13000.00000" pt_clust_9="35.32515" pt_clust_10="26.65393"></scales>
<clustering>
<clus scale="   26.654">  2 10  1 -1</clus>
<clus scale="   35.325">  2  9  1 -1</clus>
<clus scale="   87.232">  5  6 -1 -1</clus>
<clus scale="   88.209">  7  8 -1 -1</clus>
<clus scale="  112.757">  2  5  1 -1</clus>
<clus scale="   26.654">  2  5  1 -1</clus>
</clustering>
</event>
<event>
10    2  0.1671105E-006  0.1889093E+03  0.7546771E-02  0.1167256E+00
          1   -1    0    0  502    0 -0.00000000000E+00  0.00000000000E+00  0.73673008453E+03  0.73673008453E+03  0.00000000000E+00 0. -1.
         21   -1    0    0  503  502  0.00000000000E+00 -0.00000000000E+00 -0.22309529685E+03  0.22309529685E+03  0.00000000000E+00 0.  1.
         23    2    1    2    0    0  0.94573561405E+01  0.12866619669E+03  0.53151659155E+03  0.55441334516E+03  0.90663324701E+02 0.  0.
         23    2    1    2    0    0  0.15248139904E+03  0.92935331023E+01 -0.50123403853E+02  0.18529415573E+03  0.92112006394E+02 0.  0.
        -11    1    4    4    0    0  0.13613458628E+03  0.33705300963E+02 -0.62339670827E+02  0.15347608105E+03  0.00000000000E+00 0.  1.
         11    1    4    4    0    0  0.16346812757E+02 -0.24411767861E+02  0.12216266974E+02  0.31818074677E+02  0.00000000000E+00 0. -1.
        -11    1    3    3    0    0  0.39285933094E+01  0.83959403021E+02  0.47380303328E+03  0.48120050867E+03  0.00000000000E+00 0. -1.
         11    1    3    3    0    0  0.55287628310E+01  0.44706793672E+02  0.57713558268E+02  0.73212836490E+02  0.00000000000E+00 0.  1.
         21    1    1    2  503  501 -0.58516897538E+02 -0.79015506014E+02  0.21055640970E+02  0.10055355541E+03  0.00000000000E+00 0.  1.
          1    1    1    2  501    0 -0.10342185764E+03 -0.58944223781E+02  0.11185959017E+02  0.11956432509E+03  0.00000000000E+00 0. -1.
<scales pt_clust_5="13000.00000" pt_clust_6="13000.00000" pt_clust_7="13000.00000" pt_clust_8="13000.00000" pt_clust_9="42.19290" pt_clust_10="171.34012"></scales>
<clustering>
<clus scale="   42.193">  9 10 -1 -1</clus>
<clus scale="   90.663">  7  8 -1 -1</clus>
<clus scale="   92.112">  5  6 -1 -1</clus>
<clus scale="  157.684">  1  7  2 -1</clus>
<clus scale="  171.340">  2  9  1 -1</clus>
<clus scale="  171.340">  2  5  1 -1</clus>
</clustering>
</event>
<event>
10    2  0.1671105E-006  0.2313322E+03  0.7546771E-02  0.1125899E+00
         -1   -1    0    0    0  501 -0.00000000000E+00  0.00000000000E+00  0.30919048404E+03  0.30919048404E+03  0.00000000000E+00 0.  1.
         21   -1    0    0  503  502  0.00000000000E+00 -0.00000000000E+00 -0.55690826621E+03  0.55690826621E+03  0.00000000000E+00 0.  1.
         23    2    1    2    0    0  0.29445826149E+02  0.23510023982E+03  0.11266640988E+03  0.27718647178E+03  0.89439592918E+02 0.  0.
         23    2    1    2    0    0  0.13508048610E+03 -0.13853400001E+03 -0.21609367619E+03  0.30437393222E+03  0.92242109914E+02 0.  0.
        -11    1    4    4    0    0  0.11946820946E+03 -0.92530994114E+02 -0.10761596163E+03  0.18551504828E+03  0.00000000000E+00 0.  1.
         11    1    4    4    0    0  0.15612276642E+02 -0.46003005893E+02 -0.10847771456E+03  0.11885888394E+03  0.00000000000E+00 0. -1.
        -11    1    3    3    0    0  0.38468113684E+02  0.20908891754E+03  0.12542868940E+03  0.24684069221E+03  0.00000000000E+00 0.  1.
         11    1    3    3    0    0 -0.90222875352E+01  0.26011322286E+02 -0.12762279515E+02  0.30345779572E+02  0.00000000000E+00 0. -1.
         21    1    1    2  503  501 -0.62113605433E+02  0.39591124249E+02 -0.56789769367E+02  0.93008789928E+02  0.00000000000E+00 0.  1.
         -1    1    1    2    0  502 -0.10241270682E+03 -0.13615736407E+03 -0.87500746498E+02  0.19152955632E+03  0.00000000000E+00 0.  1.
<scales pt_clust_5="13000.00000" pt_clust_6="13000.00000" pt_clust_7="13000.00000" pt_clust_8="13000.00000" pt_clust_9="73.65838" pt_clust_10="173.33091"></scales>
<clustering>
<clus scale="   73.658">  2  9  1 -1</clus>
<clus scale="   89.440">  7  8 -1 -1</clus>
<clus scale="   92.242">  5  6 -1 -1</clus>
<clus scale="  173.331">  2 10  1 -1</clus>
<clus scale="  230.229">  1  7  2 -1</clus>
<clus scale="   73.658">  2  5  1 -1</clus>
</clustering>
</event>
<event>
10    2  0.1671105E-006  0.2725951E+03  0.7546771E-02  0.1099958E+00
         21   -1    0    0  501  502  0.00000000000E+00  0.00000000000E+00  0.17289211434E+03  0.17289211434E+03  0.00000000000E+00 0. -1.
          2   -1    0    0  503    0 -0.00000000000E+00 -0.00000000000E+00 -0.13163519758E+04  0.13163519758E+04  0.00000000000E+00 0. -1.
         23    2    1    2    0    0  0.92027091989E+02 -0.14789245145E+03 -0.60172622953E+03  0.63303761404E+03  0.91219529867E+02 0.  0.
         23    2    1    2    0    0 -0.26091532265E+03  0.28322832855E+03 -0.31636426413E+03  0.50724508178E+03  0.94425280923E+02 0.  0.
        -13    1    4    4    0    0 -0.21012527868E+02  0.73074840153E+02 -0.79249322382E+02  0.10982674396E+03  0.00000000000E+00 0.  1.
         13    1    4    4    0    0 -0.23990279479E+03  0.21015348840E+03 -0.23711494175E+03  0.39741833782E+03  0.00000000000E+00 0. -1.
        -13    1    3    3    0    0  0.54888478738E+02 -0.13170007222E+02 -0.19269766380E+03  0.20079487997E+03  0.00000000000E+00 0. -1.
         13    1    3    3    0    0  0.37138613252E+02 -0.13472244422E+03 -0.40902856573E+03  0.43224273407E+03  0.00000000000E+00 0.  1.
         21    1    1    2  503  502  0.27007065881E+02 -0.85307388129E+02 -0.16331716401E+03  0.18622359715E+03  0.00000000000E+00 0.  1.
          2    1    1    2  501    0  0.14188116478E+03 -0.50028488975E+02 -0.62052203775E+02  0.16273779716E+03  0.00000000000E+00 0. -1.
<scales pt_clust_5="13000.00000" pt_clust_6="13000.00000" pt_clust_7="13000.00000" pt_clust_8="13000.00000" pt_clust_9="89.48034" pt_clust_10="155.90262"></scales>
<clustering>
<clus scale="   89.480">  2  9  1 -1</clus>
<clus scale="   91.220">  7  8 -1 -1</clus>
<clus scale="   94.425">  5  6 -1 -1</clus>
<clus scale="  155.903">  1 10  2 -1</clus>
<clus scale="  271.501">  2  7  1 -1</clus>
<clus scale="  155.903">  1  5  2 -1</clus>
</clustering>
</event>
<event>
10    2  0.1671105E-006  0.1789251E+03  0.7546771E-02  0.1199022E+00
          2   -1    0    0  502    0 -0.00000000000E+00  0.00000000000E+00  0.62190646711E+03  0.62190646711E+03  0.00000000000E+00 0. -1.
         21   -1    0    0  503  502  0.00000000000E+00 -0.00000000000E+00 -0.12957314409E+03  0.12957314409E+03  0.00000000000E+00 0. -1.
         23    2    1    2    0    0  0.15522883735E+00 -0.11845437321E+02 -0.92158023999E+01  0.91673663800E+02  0.90436669218E+02 0.  0.
         23    2    1    2    0    0  0.15168474736E+03 -0.20706925868E+02  0.46207168580E+03  0.49496066641E+03  0.89659238878E+02 0.  0.
        -11    1    4    4    0    0  0.91198192888E+02 -0.25529060954E+02  0.15261533571E+03  0.17961148079E+03  0.00000000000E+00 0. -1.
         11    1    4    4    0    0  0.60486554471E+02  0.48221350861E+01  0.30945635009E+03  0.31534918561E+03  0.00000000000E+00 0.  1.
        -13    1    3    3    0    0  0.41343118164E+02 -0.11441308591E+02 -0.22441451374E+02  0.48412557272E+02  0.00000000000E+00 0. -1.
         13    1    3    3    0    0 -0.41187889327E+02 -0.40412872943E+00  0.13225648974E+02  0.43261106528E+02  0.00000000000E+00 0.  1.
         21    1    1    2  503  501 -0.74210545888E+02  0.68932335360E+01  0.36606698816E+02  0.83034764935E+02  0.00000000000E+00 0. -1.
          2    1    1    2  501    0 -0.77629430307E+02  0.25659129652E+02  0.28707408018E+01  0.81810516054E+02  0.00000000000E+00 0. -1.
<scales pt_clust_5="13000.00000" pt_clust_6="13000.00000" pt_clust_7="13000.00000" pt_clust_8="13000.00000" pt_clust_9="36.98346" pt_clust_10="159.61162"></scales>
<clustering>
<clus scale="   36.983">  9 10 -1 -1</clus>
<clus scale="   89.659">  5  6 -1 -1</clus>
<clus scale="   90.437">  7  8 -1 -1</clus>
<clus scale="   91.209">  1  7  2 -1</clus>
<clus scale="  159.612">  2  9  1 -1</clus>
<clus scale="  159.612">  2  5  1 -1</clus>
</clustering>
</event>
<event>
10    2  0.1671105E-006  0.1554197E+03  0.7546771E-02  0.1194329E+00
          2   -1    0    0  503    0 -0.00000000000E+00  0.00000000000E+00  0.14017419295E+04  0.14017419295E+04  0.00000000000E+00 0. -1.
         21   -1    0    0  501  502  0.00000000000E+00 -0.00000000000E+00 -0.56124705505E+02  0.56124705505E+02  0.00000000000E+00 0. -1.
         23    2    1    2    0    0 -0.19760541512E+03 -0.13802398404E+02  0.70003658895E+03  0.73292079848E+03  0.88787750745E+02 0.  0.
         23    2    1    2    0    0  0.74571256574E+02  0.74285709599E+01  0.79213323368E+02  0.14196759643E+03  0.90906500661E+02 0.  0.
        -13    1    4    4    0    0  0.25858238798E+02  0.46630906279E+02  0.23692813380E+02  0.58347573557E+02  0.00000000000E+00 0. -1.
         13    1    4    4    0    0  0.48713017775E+02 -0.39202335319E+02  0.55520509987E+02  0.83620022868E+02  0.00000000000E+00 0.  1.
        -13    1    3    3    0    0 -0.35774122021E+02 -0.36892494394E+02  0.12641309201E+03  0.13645920189E+03  0.00000000000E+00 0.  1.
         13    1    3    3    0    0 -0.16183129310E+03  0.23090095990E+02  0.57362349694E+03  0.59646159659E+03  0.00000000000E+00 0. -1.
         21    1    1    2  503  502  0.74500240140E+02  0.13407859453E+01  0.45945139454E+03  0.46545425923E+03  0.00000000000E+00 0. -1.
          2    1    1    2  501    0  0.48533918409E+02  0.50330414986E+01  0.10691591710E+03  0.11752398084E+03  0.00000000000E+00 0. -1.
<scales pt_clust_5="13000.00000" pt_clust_6="13000.00000" pt_clust_7="13000.00000" pt_clust_8="13000.00000" pt_clust_9="77.38396" pt_clust_10="48.79419"></scales>
<clustering>
<clus scale="   48.794">  2 10  1 -1</clus>
<clus scale="   77.384">  1  9  2 -1</clus>
<clus scale="   88.788">  7  8 -1 -1</clus>
<clus scale="   90.907">  5  6 -1 -1</clus>
<clus scale="  154.190">  1  7  2 -1</clus>
<clus scale="   48.794">  2  5  1 -1</clus>
</clustering>
</event>
<event>
10    2  0.1671105E-006  0.1415190E+03  0.7546771E-02  0.1212219E+00
         21   -1    0    0  501  502  0.00000000000E+00  0.00000000000E+00  0.16570610894E+03  0.16570610894E+03  0.00000000000E+00 0. -1.
          1   -1    0    0  503    0 -0.00000000000E+00 -0.00000000000E+00 -0.10266718784E+04  0.10266718784E+04  0.00000000000E+00 0. -1.
         23    2    1    2    0    0 -0.61861709735E+02 -0.10371889763E+03 -0.71352342305E+03  0.72940463508E+03  0.91274123315E+02 0.  0.
         23    2    1    2    0    0 -0.55129100952E+02  0.10557202595E+03 -0.24939350083E+03  0.28973062214E+03  0.86960017920E+02 0.  0.
        -11    1    3    3    0    0 -0.57806903045E+01 -0.91443624040E+02 -0.49842638196E+03  0.50677826610E+03  0.00000000000E+00 0.  1.
         11    1    3    3    0    0 -0.56081019430E+02 -0.12275273591E+02 -0.21509704109E+03  0.22262636899E+03  0.00000000000E+00 0. -1.
        -13    1    4    4    0    0 -0.99370471313E+01  0.34864681253E+02 -0.12393675956E+02  0.38313106220E+02  0.00000000000E+00 0.  1.
         13    1    4    4    0    0 -0.45192053820E+02  0.70707344694E+02 -0.23699982487E+03  0.25141751592E+03  0.00000000000E+00 0. -1.
         21    1    1    2  503  502  0.10445898248E+03 -0.18971835766E+02  0.10773167768E+03  0.15125383946E+03  0.00000000000E+00 0. -1.
          1    1    1    2  501    0  0.12531828205E+02  0.17118707451E+02 -0.57805232577E+01  0.21988890651E+02  0.00000000000E+00 0. -1.
<scales pt_clust_5="13000.00000" pt_clust_6="13000.00000" pt_clust_7="13000.00000" pt_clust_8="13000.00000" pt_clust_9="114.86053" pt_clust_10="21.21549"></scales>
<clustering>
<clus scale="   21.215">  1 10  2 -1</clus>
<clus scale="   86.960">  7  8 -1 -1</clus>
<clus scale="   91.274">  5  6 -1 -1</clus>
<clus scale="  114.861">  1  9  2 -1</clus>
<clus scale="  138.776">  1  7  2 -1</clus>
<clus scale="   21.215">  1  5  2 -1</clus>
</clustering>
</event>
<event>
10    2  0.1671105E-006  0.9815737E+02  0.7546771E-02  0.1285063E+00
          4   -1    0    0  502    0 -0.00000000000E+00  0.00000000000E+00  0.11120740054E+03  0.11120740054E+03  0.00000000000E+00 0. -1.
         21   -1    0    0  503  502  0.00000000000E+00 -0.00000000000E+00 -0.20419976337E+03  0.20419976337E+03  0.00000000000E+00 0. -1.
         23    2    1    2    0    0  0.29858551007E+02 -0.39900866916E+02  0.19368770446E+02  0.10686650438E+03  0.92529391223E+02 0.  0.
         23    2    1    2    0    0 -0.22449759147E+02 -0.55323232555E+01 -0.10777195756E+02  0.94392598568E+02  0.90880231237E+02 0.  0.
        -11    1    4    4    0    0 -0.16747838953E+02 -0.45913879319E+02  0.79513734088E+01  0.49515641597E+02  0.00000000000E+00 0. -1.
         11    1    4    4    0    0 -0.57019201935E+01  0.40381556063E+02 -0.18728569165E+02  0.44876956971E+02  0.00000000000E+00 0.  1.
        -11    1    3    3    0    0 -0.27951962314E+02 -0.13183960393E+02  0.29091064375E+02  0.42443127068E+02  0.00000000000E+00 0.  1.
         11    1    3    3    0    0  0.57810513321E+02 -0.26716906523E+02 -0.97222939290E+01  0.64423377309E+02  0.00000000000E+00 0. -1.
         21    1    1    2  503  501  0.40101121971E+01  0.20016583884E+02 -0.65194298403E+02  0.68315746168E+02  0.00000000000E+00 0. -1.
          4    1    1    2  501    0 -0.11418904058E+02  0.25416606287E+02 -0.36389639117E+02  0.45832314802E+02  0.00000000000E+00 0. -1.
<scales pt_clust_5="13000.00000" pt_clust_6="13000.00000" pt_clust_7="13000.00000" pt_clust_8="13000.00000" pt_clust_9="20.41432" pt_clust_10="33.02473"></scales>
<clustering>
<clus scale="   20.414">  2  9  1 -1</clus>
<clus scale="   33.025">  2 10  1 -1</clus>
<clus scale="   90.880">  5  6 -1 -1</clus>
<clus scale="   92.529">  7  8 -1 -1</clus>
<clus scale="   96.604">  2  5  1 -1</clus>
<clus scale="   20.414">  2  5  1 -1</clus>
</clustering>
</event>
<event>
10    2  0.1671105E-006  0.2267327E+03  0.7546771E-02  0.1129442E+00
         21   -1    0    0  503  502  0.00000000000E+00  0.00000000000E+00  0.48705381149E+03  0.48705381149E+03  0.00000000000E+00 0.  1.
         -1   -1    0    0    0  501 -0.00000000000E+00 -0.00000000000E+00 -0.19911767903E+03  0.19911767903E+03  0.00000000000E+00 0.  1.
         23    2    1    2    0    0  0.17757479274E+03 -0.20810002319E+02  0.21489294315E+02  0.19911124637E+03  0.84956668057E+02 0.  0.
         23    2    1    2    0    0 -0.26580129345E+03  0.47362394064E+02  0.15669566780E+03  0.32537393235E+03  0.91766767283E+02 0.  0.
        -11    1    3    3    0    0  0.81681864234E+02  0.14010708724E+02  0.45162171378E+02  0.94381399795E+02  0.00000000000E+00 0. -1.
         11    1    3    3    0    0  0.95892928505E+02 -0.34820711043E+02 -0.23672877063E+02  0.10472984657E+03  0.00000000000E+00 0.  1.
        -13    1    4    4    0    0 -0.18971705219E+03  0.22952271389E+02  0.60773796914E+02  0.20053134678E+03  0.00000000000E+00 0.  1.
         13    1    4    4    0    0 -0.76084241263E+02  0.24410122675E+02  0.95921870883E+02  0.12484258557E+03  0.00000000000E+00 0. -1.
         21    1    1    2  503  501 -0.44497147025E+01 -0.24355639129E+02  0.33481660919E+02  0.41641550598E+02  0.00000000000E+00 0.  1.
         -1    1    1    2    0  502  0.92676215412E+02 -0.21967526168E+01  0.76269509424E+02  0.12004476121E+03  0.00000000000E+00 0.  1.
<scales pt_clust_5="13000.00000" pt_clust_6="13000.00000" pt_clust_7="13000.00000" pt_clust_8="13000.00000" pt_clust_9="24.75878" pt_clust_10="92.01195"></scales>
<clustering>
<clus scale="   24.759">  1  9  2 -1</clus>
<clus scale="   84.957">  5  6 -1 -1</clus>
<clus scale="   91.767">  7  8 -1 -1</clus>
<clus scale="   92.012">  1 10  2 -1</clus>
<clus scale="  224.063">  2  5  1 -1</clus>
<clus scale="   24.759">  1  5  2 -1</clus>
</clustering>
</event>
<event>
10    2  0.1671105E-006  0.3236310E+03  0.7546771E-02  0.1074310E+00
          1   -1    0    0  503    0 -0.00000000000E+00  0.00000000000E+00  0.20487732856E+04  0.20487732856E+04  0.00000000000E+00 0. -1.
         21   -1    0    0  501  502  0.00000000000E+00 -0.00000000000E+00 -0.12058355748E+03  0.12058355748E+03  0.00000000000E+00 0. -1.
         23    2    1    2    0    0 -0.33069608622E+03 -0.22530932802E+02  0.15654615844E+04  0.16034024625E+04  0.10179361618E+03 0.  0.
         23    2    1    2    0    0  0.24323081303E+03 -0.33946309245E+02  0.28353603491E+03  0.38634306194E+03  0.92491610941E+02 0.  0.
        -13    1    4    4    0    0  0.13882352560E+02 -0.16950049624E+02  0.66909678997E+02  0.70405461708E+02  0.00000000000E+00 0.  1.
         13    1    4    4    0    0  0.22934846047E+03 -0.16996259621E+02  0.21662635591E+03  0.31593760023E+03  0.00000000000E+00 0. -1.
        -13    1    3    3    0    0 -0.49557727603E+02 -0.41950085197E+02  0.29015801369E+03  0.29733390477E+03  0.00000000000E+00 0. -1.
         13    1    3    3    0    0 -0.28113835861E+03  0.19419152395E+02  0.12753035707E+04  0.13060685578E+04  0.00000000000E+00 0.  1.
         21    1    1    2  503  502  0.95213546964E+02  0.10853618323E+02  0.99730606297E+01  0.96347716603E+02  0.00000000000E+00 0. -1.
          1    1    1    2  501    0 -0.77482737810E+01  0.45623623723E+02  0.69219048196E+02  0.83263602020E+02  0.00000000000E+00 0. -1.
<scales pt_clust_5="13000.00000" pt_clust_6="13000.00000" pt_clust_7="13000.00000" pt_clust_8="13000.00000" pt_clust_9="96.48139" pt_clust_10="46.27689"></scales>
<clustering>
<clus scale="   46.277">  2 10  1 -1</clus>
<clus scale="   92.492">  5  6 -1 -1</clus>
<clus scale="   96.481">  2  9  1 -1</clus>
<clus scale="  101.794">  7  8 -1 -1</clus>
<clus scale="  320.827">  2  5  1 -1</clus>
<clus scale="   46.277">  2  5  1 -1</clus>
</clustering>
</event>
<event>
10    2  0.1671105E-006  0.2049006E+03  0.7546771E-02  0.1146233E+00
         21   -1    0    0  501  502  0.00000000000E+00  0.00000000000E+00  0.53713883815E+02  0.53713883815E+02  0.00000000000E+00 0. -1.
          1   -1    0    0  503    0 -0.00000000000E+00 -0.00000000000E+00 -0.22415272230E+04  0.22415272230E+04  0.00000000000E+00 0. -1.
         23    2    1    2    0    0 -0.11083565755E+03 -0.17427640914E+03 -0.65027088082E+03  0.68887596997E+03  0.95084561291E+02 0.  0.
         23    2    1    2    0    0  0.21242805652E+03 -0.45802320203E+01 -0.62956719976E+03  0.67039346559E+03  0.89027422529E+02 0.  0.
        -11    1    3    3    0    0 -0.10864373478E+03 -0.11351952835E+03 -0.54615538180E+03  0.56830963875E+03  0.00000000000E+00 0.  1.
         11    1    3    3    0    0 -0.21919227709E+01 -0.60756880792E+02 -0.10411549901E+03  0.12056633122E+03  0.00000000000E+00 0. -1.
        -13    1    4    4    0    0  0.13062513335E+03 -0.43203869640E+02 -0.42504299789E+03  0.44675614139E+03  0.00000000000E+00 0.  1.
         13    1    4    4    0    0  0.81802923172E+02  0.38623637620E+02 -0.20452420188E+03  0.22363732420E+03  0.00000000000E+00 0. -1.
         21    1    1    2  503  502  0.19238119565E+02  0.26635107991E+02 -0.13326441012E+03  0.13725500802E+03  0.00000000000E+00 0. -1.
          1    1    1    2  501    0 -0.12083051854E+03  0.15222153317E+03 -0.77471084853E+03  0.79871666328E+03  0.00000000000E+00 0. -1.
<scales pt_clust_5="13000.00000" pt_clust_6="13000.00000" pt_clust_7="13000.00000" pt_clust_8="13000.00000" pt_clust_9="32.85627" pt_clust_10="198.02605"></scales>
<clustering>
<clus scale="   32.856">  2  9  1 -1</clus>
<clus scale="   89.027">  7  8 -1 -1</clus>
<clus scale="   95.085">  5  6 -1 -1</clus>
<clus scale="  198.026">  1 10  2 -1</clus>
<clus scale="  202.161">  1  7  2 -1</clus>
<clus scale="  198.026">  1  5  2 -1</clus>
</clustering>
</event>
<event>
10    2  0.1671105E-006  0.1143622E+03  0.7546771E-02  0.1259982E+00
          1   -1    0    0  503    0 -0.00000000000E+00  0.00000000000E+00  0.95228374313E+02  0.95228374313E+02  0.00000000000E+00 0. -1.
         21   -1    0    0  501  502  0.00000000000E+00 -0.00000000000E+00 -0.26766087310E+03  0.26766087310E+03  0.00000000000E+00 0. -1.
         23    2    1    2    0    0 -0.46150075339E+01  0.18041317537E+01 -0.12307777431E+02  0.99130005956E+02  0.98238096020E+02 0.  0.
         23    2    1    2    0    0 -0.23371020184E+02 -0.20828633852E+02 -0.26753329655E+02  0.12091189940E+03  0.11368337695E+03 0.  0.
        -13    1    4    4    0    0 -0.57448450239E+02 -0.47169148303E+02 -0.11480500631E+02  0.75213395624E+02  0.00000000000E+00 0. -1.
         13    1    4    4    0    0  0.34077430055E+02  0.26340514452E+02 -0.15272829024E+02  0.45698503774E+02  0.00000000000E+00 0.  1.
        -13    1    3    3    0    0  0.25047337067E+02 -0.19511604627E+02 -0.41583526896E+02  0.52318844773E+02  0.00000000000E+00 0.  1.
         13    1    3    3    0    0 -0.29662344601E+02  0.21315736381E+02  0.29275749465E+02  0.46811161184E+02  0.00000000000E+00 0. -1.
         21    1    1    2  503  502  0.87712336789E+01  0.28381459870E+02 -0.73518880435E+02  0.79293553237E+02  0.00000000000E+00 0.  1.
          1    1    1    2  501    0  0.19214794039E+02 -0.93569577718E+01 -0.59852511269E+02  0.63553788825E+02  0.00000000000E+00 0. -1.
<scales pt_clust_5="13000.00000" pt_clust_6="13000.00000" pt_clust_7="13000.00000" pt_clust_8="13000.00000" pt_clust_9="29.55189" pt_clust_10="21.37197"></scales>
<clustering>
<clus scale="   21.372">  2 10  1 -1</clus>
<clus scale="   29.552">  2  9  1 -1</clus>
<clus scale="   98.238">  7  8 -1 -1</clus>
<clus scale="   99.023">  1  7  2 -1</clus>
<clus scale="  113.683">  5  6 -1 -1</clus>
<clus scale="   21.372">  2  5  1 -1</clus>
</clustering>
</event>
<event>
10    2  0.1671105E-006  0.1744206E+03  0.7546771E-02  0.1192427E+00
         21   -1    0    0  501  502  0.00000000000E+00  0.00000000000E+00  0.35385510848E+03  0.35385510848E+03  0.00000000000E+00 0.  1.
         -1   -1    0    0    0  501 -0.00000000000E+00 -0.00000000000E+00 -0.21879299525E+03  0.21879299525E+03  0.00000000000E+00 0.  1.
         23    2    1    2    0    0 -0.67226166262E+02  0.52426581479E+01 -0.75852813071E+02  0.13671685165E+03  0.91602431080E+02 0.  0.
         23    2    1    2    0    0 -0.91280241041E+02 -0.54839436400E+02 -0.21562297795E+02  0.14150115986E+03  0.90654284883E+02 0.  0.
        -11    1    3    3    0    0 -0.78314791647E+02  0.27148903943E+02 -0.75565347871E+02  0.11216234384E+03  0.00000000000E+00 0.  1.
         11    1    3    3    0    0  0.11088625386E+02 -0.21906245795E+02 -0.28746520055E+00  0.24554507814E+02  0.00000000000E+00 0. -1.
        -13    1    4    4    0    0 -0.10421392435E+03 -0.39017437434E+02 -0.35455156930E+02  0.11679028472E+03  0.00000000000E+00 0.  1.
         13    1    4    4    0    0  0.12933683311E+02 -0.15821998966E+02  0.13892859136E+02  0.24710875141E+02  0.00000000000E+00 0. -1.
         21    1    1    2  503  502  0.94212173405E+02  0.27536285260E+02  0.77030439046E+02  0.12477126738E+03  0.00000000000E+00 0.  1.
         -1    1    1    2    0  503  0.64294233897E+02  0.22060492992E+02  0.15544678505E+03  0.16965882484E+03  0.00000000000E+00 0.  1.
<scales pt_clust_5="13000.00000" pt_clust_6="13000.00000" pt_clust_7="13000.00000" pt_clust_8="13000.00000" pt_clust_9="59.19181" pt_clust_10="165.11706"></scales>
<clustering>
<clus scale="   59.192">  9 10 -1 -1</clus>
<clus scale="   90.654">  7  8 -1 -1</clus>
<clus scale="   91.602">  5  6 -1 -1</clus>
<clus scale="  113.745">  2  5  1 -1</clus>
<clus scale="  165.117">  1  9  2 -1</clus>
<clus scale="  165.117">  1  5  2 -1</clus>
</clustering>
</event>
<event>
10    2  0.1671105E-006  0.9947439E+02  0.7546771E-02  0.1286958E+00
          1   -1    0    0  503    0 -0.00000000000E+00  0.00000000000E+00  0.16225167698E+03  0.16225167698E+03  0.00000000000E+00 0. -1.
         21   -1    0    0  501  502  0.00000000000E+00 -0.00000000000E+00 -0.16041370754E+03  0.16041370754E+03  0.00000000000E+00 0.  1.
         23    2    1    2    0    0  0.28855824186E+02  0.21648562286E+02  0.99878655215E+02  0.13407126284E+03  0.81841547600E+02 0.  0.
         23    2    1    2    0    0 -0.19895896652E+02 -0.36162830738E+02 -0.77337377620E+02  0.12750146668E+03  0.92584863761E+02 0.  0.
        -11    1    4    4    0    0  0.13885544891E+02 -0.27113864305E+02 -0.86199339850E+02  0.91423717848E+02  0.00000000000E+00 0.  1.
         11    1    4    4    0    0 -0.33781441543E+02 -0.90489664331E+01  0.88619622299E+01  0.36077748832E+02  0.00000000000E+00 0. -1.
        -11    1    3    3    0    0  0.23781129008E+02 -0.28550259842E+02  0.55997456383E+02  0.67203977229E+02  0.00000000000E+00 0. -1.
         11    1    3    3    0    0  0.50746951785E+01  0.50198822128E+02  0.43881198831E+02  0.66867285612E+02  0.00000000000E+00 0.  1.
         21    1    1    2  503  502 -0.28808746349E+02 -0.35297705159E+01 -0.35213815884E+01  0.29237018904E+02  0.00000000000E+00 0. -1.
          1    1    1    2  501    0  0.19848818815E+02  0.18044038968E+02 -0.17181926569E+02  0.31855636099E+02  0.00000000000E+00 0. -1.
<scales pt_clust_5="13000.00000" pt_clust_6="13000.00000" pt_clust_7="13000.00000" pt_clust_8="13000.00000" pt_clust_9="26.45113" pt_clust_10="26.82467"></scales>
<clustering>
<clus scale="   26.825">  2 10  1 -1</clus>
<clus scale="   26.451">  2  9  1 -1</clus>
<clus scale="   81.842">  7  8 -1 -1</clus>
<clus scale="   89.561">  1  7  2 -1</clus>
<clus scale="   92.585">  5  6 -1 -1</clus>
<clus scale="   26.825">  2  5  1 -1</clus>
</clustering>
</event>
<event>
10    2  0.1671105E-006  0.1148819E+03  0.7546771E-02  0.1251983E+00
         21   -1    0    0  501  502  0.00000000000E+00  0.00000000000E+00  0.38935209049E+03  0.38935209049E+03  0.00000000000E+00 0. -1.
          2   -1    0    0  503    0 -0.00000000000E+00 -0.00000000000E+00 -0.12000179161E+03  0.12000179161E+03  0.00000000000E+00 0. -1.
         23    2    1    2    0    0 -0.82829782564E+02 -0.79793534214E+01 -0.52163301576E+02  0.13489647459E+03  0.92474893157E+02 0.  0.
         23    2    1    2    0    0  0.15369085544E+02  0.24945357974E+02  0.11907661451E+03  0.15325426175E+03  0.91919252315E+02 0.  0.
        -13    1    3    3    0    0 -0.42185353375E+02 -0.72267529690E+01 -0.76397615678E+02  0.87569547670E+02  0.00000000000E+00 0. -1.
         13    1    3    3    0    0 -0.40644429188E+02 -0.75260045231E+00  0.24234314102E+02  0.47326926918E+02  0.00000000000E+00 0.  1.
        -13    1    4    4    0    0  0.20301802004E+02 -0.24180821947E+02  0.91297326575E+02  0.96602676746E+02  0.00000000000E+00 0. -1.
         13    1    4    4    0    0 -0.49327164594E+01  0.49126179921E+02  0.27779287936E+02  0.56651585004E+02  0.00000000000E+00 0.  1.
         21    1    1    2  503  502  0.29858533995E+02 -0.64469089937E+01  0.24860212374E+02  0.39384322352E+02  0.00000000000E+00 0.  1.
          2    1    1    2  501    0  0.37602163025E+02 -0.10519095559E+02  0.17757677357E+03  0.18181882341E+03  0.00000000000E+00 0. -1.
<scales pt_clust_5="13000.00000" pt_clust_6="13000.00000" pt_clust_7="13000.00000" pt_clust_8="13000.00000" pt_clust_9="30.54660" pt_clust_10="54.39176"></scales>
<clustering>
<clus scale="   30.547">  1  9  2 -1</clus>
<clus scale="   54.392">  1 10  2 -1</clus>
<clus scale="   91.919">  7  8 -1 -1</clus>
<clus scale="   92.475">  5  6 -1 -1</clus>
<clus scale="  114.435">  1  7  2 -1</clus>
<clus scale="   30.547">  1  5  2 -1</clus>
</clustering>
</event>
<event>
10    2  0.1671105E-006  0.1255159E+03  0.7546771E-02  0.1234362E+00
         21   -1    0    0  503  502  0.00000000000E+00  0.00000000000E+00  0.19725147984E+03  0.19725147984E+03  0.00000000000E+00 0.  1.
         -1   -1    0    0    0  501 -0.00000000000E+00 -0.00000000000E+00 -0.24385416002E+03  0.24385416002E+03  0.00000000000E+00 0.  1.
         23    2    1    2    0    0 -0.91802860377E+02 -0.86315375678E+01 -0.12690002534E+03  0.18130224718E+03  0.90909954279E+02 0.  0.
         23    2    1    2    0    0  0.70683000907E+02  0.32442726679E+02 -0.52069278404E+01  0.11949178405E+03  0.90567970207E+02 0.  0.
        -11    1    4    4    0    0 -0.72126804553E+01  0.38662099066E+02  0.82842709241E+01  0.40192161030E+02  0.00000000000E+00 0.  1.
         11    1    4    4    0    0  0.77895681362E+02 -0.62193723865E+01 -0.13491198764E+02  0.79299623025E+02  0.00000000000E+00 0. -1.
        -13    1    3    3    0    0 -0.41650676182E+02 -0.81924520614E+01  0.25002753101E+01  0.42522305603E+02  0.00000000000E+00 0. -1.
         13    1    3    3    0    0 -0.50152184195E+02 -0.43908550634E+00 -0.12940030065E+03  0.13877994158E+03  0.00000000000E+00 0.  1.
         21    1    1    2  503  501  0.11883988745E+01  0.42018286720E+02  0.26509300546E+02  0.49695993060E+02  0.00000000000E+00 0.  1.
         -1    1    1    2    0  502  0.19931460596E+02 -0.65829475832E+02  0.58994972449E+02  0.90615615564E+02  0.00000000000E+00 0.  1.
<scales pt_clust_5="13000.00000" pt_clust_6="13000.00000" pt_clust_7="13000.00000" pt_clust_8="13000.00000" pt_clust_9="42.03509" pt_clust_10="50.42975"></scales>
<clustering>
<clus scale="   42.035">  1  9  2 -1</clus>
<clus scale="   50.430">  1 10  2 -1</clus>
<clus scale="   90.568">  5  6 -1 -1</clus>
<clus scale="   90.910">  7  8 -1 -1</clus>
<clus scale="  125.268">  1  5  2 -1</clus>
<clus scale="   42.035">  1  5  2 -1</clus>
</clustering>
</event>
<event>
10    2  0.1671105E-006  0.1536402E+03  0.7546771E-02  0.1214875E+00
         21   -1    0    0  503  502  0.00000000000E+00  0.00000000000E+00  0.44935359485E+02  0.44935359485E+02  0.00000000000E+00 0.  1.
          1   -1    0    0  502    0 -0.00000000000E+00 -0.00000000000E+00 -0.13605184401E+04  0.13605184401E+04  0.00000000000E+00 0. -1.
         23    2    1    2    0    0 -0.39314619313E+02  0.25563839484E+02 -0.45051406129E+03  0.46202900229E+03  0.91152237254E+02 0.  0.
         23    2    1    2    0    0  0.12622926764E+03  0.29098005348E+02 -0.14616088223E+03  0.21579841335E+03  0.91790139914E+02 0.  0.
        -13    1    3    3    0    0  0.18239343116E+02  0.33140848110E+02 -0.10357331074E+03  0.11026522637E+03  0.00000000000E+00 0.  1.
         13    1    3    3    0    0 -0.57553962429E+02 -0.75770086262E+01 -0.34694075056E+03  0.35176377592E+03  0.00000000000E+00 0. -1.
        -13    1    4    4    0    0  0.85445445482E+02  0.44418368576E+02 -0.14262004955E+03  0.17208833241E+03  0.00000000000E+00 0. -1.
         13    1    4    4    0    0  0.40783822160E+02 -0.15320363228E+02 -0.35408326853E+01  0.43710080937E+02  0.00000000000E+00 0.  1.
         21    1    1    2  503  501 -0.21110322418E+02 -0.28472539196E+02 -0.14066167682E+03  0.14505874164E+03  0.00000000000E+00 0.  1.
          1    1    1    2  501    0 -0.65804325910E+02 -0.26189305635E+02 -0.57824646023E+03  0.58256764225E+03  0.00000000000E+00 0. -1.
<scales pt_clust_5="13000.00000" pt_clust_6="13000.00000" pt_clust_7="13000.00000" pt_clust_8="13000.00000" pt_clust_9="32.17977" pt_clust_10="131.33571"></scales>
<clustering>
<clus scale="   32.180">  9 10 -1 -1</clus>
<clus scale="   91.152">  5  6 -1 -1</clus>
<clus scale="   91.790">  7  8 -1 -1</clus>
<clus scale="  102.508">  2  5  1 -1</clus>
<clus scale="  131.336">  1  9  2 -1</clus>
<clus scale="  131.336">  1  5  2 -1</clus>
</clustering>
</event>
<event>
10    2  0.1671105E-006  0.2830222E+03  0.7546771E-02  0.1094065E+00
          2   -1    0    0  503    0 -0.00000000000E+00  0.00000000000E+00  0.74222856956E+03  0.74222856956E+03  0.00000000000E+00 0. -1.
         21   -1    0    0  501  502  0.00000000000E+00 -0.00000000000E+00 -0.13617007217E+03  0.13617007217E+03  0.00000000000E+00 0. -1.
         23    2    1    2    0    0 -0.10401893977E+03  0.26301025356E+03  0.28106601057E+03  0.40897890488E+03  0.90946737305E+02 0.  0.
         23    2    1    2    0    0  0.82186260535E+02 -0.24099124374E+03  0.20646388005E+03  0.34009837383E+03  0.90599167394E+02 0.  0.
        -11    1    4    4    0    0 -0.19781541003E+02 -0.34087103793E+02  0.34626232122E+02  0.52461566508E+02  0.00000000000E+00 0.  1.
         11    1    4    4    0    0  0.10196780154E+03 -0.20690413995E+03  0.17183764793E+03  0.28763680732E+03  0.00000000000E+00 0. -1.
        -13    1    3    3    0    0 -0.81960395907E+02  0.13842081438E+03  0.10476050094E+03  0.19197028652E+03  0.00000000000E+00 0.  1.
         13    1    3    3    0    0 -0.22058543868E+02  0.12458943918E+03  0.17630550963E+03  0.21700861835E+03  0.00000000000E+00 0. -1.
         21    1    1    2  503  502 -0.38758468733E+01 -0.23136964618E+02  0.36837294271E+02  0.43672961543E+02  0.00000000000E+00 0. -1.
          2    1    1    2  501    0  0.25708526113E+02  0.11179547950E+01  0.81691312498E+02  0.85648401476E+02  0.00000000000E+00 0. -1.
<scales pt_clust_5="13000.00000" pt_clust_6="13000.00000" pt_clust_7="13000.00000" pt_clust_8="13000.00000" pt_clust_9="23.45935" pt_clust_10="25.29976"></scales>
<clustering>
<clus scale="   23.459">  1  9  2 -1</clus>
<clus scale="   25.300">  2 10  1 -1</clus>
<clus scale="   90.599">  5  6 -1 -1</clus>
<clus scale="   90.947">  7  8 -1 -1</clus>
<clus scale="  282.911">  2  5  1 -1</clus>
<clus scale="   25.300">  2  5  1 -1</clus>
</clustering>
</event>
<event>
10    2  0.1671105E-006  0.2212138E+03  0.7546771E-02  0.1133118E+00
         -1   -1    0    0    0  501 -0.00000000000E+00  0.00000000000E+00  0.18603200861E+03  0.18603200861E+03  0.00000000000E+00 0.  1.
         21   -1    0    0  501  502  0.00000000000E+00 -0.00000000000E+00 -0.62707046825E+03  0.62707046825E+03  0.00000000000E+00 0. -1.
         23    2    1    2    0    0 -0.80927569678E+02  0.15985173367E+03 -0.51348972505E+02  0.20759179297E+03  0.91409995285E+02 0.  0.
         23    2    1    2    0    0  0.15347589208E+02 -0.28035065586E+03 -0.31257159269E+03  0.42960734893E+03  0.89607114470E+02 0.  0.
        -11    1    3    3    0    0 -0.39531815282E+02  0.13263550679E+03 -0.30976887010E+01  0.13843604211E+03  0.00000000000E+00 0.  1.
         11    1    3    3    0    0 -0.41395754396E+02  0.27216226888E+02 -0.48251283804E+02  0.69155750858E+02  0.00000000000E+00 0. -1.
        -13    1    4    4    0    0 -0.20565934543E+02 -0.15418630136E+03 -0.11933982154E+03  0.19605704832E+03  0.00000000000E+00 0.  1.
         13    1    4    4    0    0  0.35913523751E+02 -0.12616435450E+03 -0.19323177114E+03  0.23355030061E+03  0.00000000000E+00 0. -1.
         21    1    1    2  503  502 -0.14818087255E+02  0.27890397470E+02 -0.32719804977E+02  0.45475659628E+02  0.00000000000E+00 0.  1.
         -1    1    1    2    0  503  0.80398067725E+02  0.92608524717E+02 -0.44398089473E+02  0.13042767533E+03  0.00000000000E+00 0.  1.
<scales pt_clust_5="13000.00000" pt_clust_6="13000.00000" pt_clust_7="13000.00000" pt_clust_8="13000.00000" pt_clust_9="31.58243" pt_clust_10="124.40260"></scales>
<clustering>
<clus scale="   31.582">  2  9  1 -1</clus>
<clus scale="   89.607">  7  8 -1 -1</clus>
<clus scale="   91.410">  5  6 -1 -1</clus>
<clus scale="  124.403">  2 10  1 -1</clus>
<clus scale="  220.475">  2  7  1 -1</clus>
<clus scale="   31.582">  2  5  1 -1</clus>
</clustering>
</event>
<event>
10    2  0.1671105E-006  0.1200428E+03  0.7546771E-02  0.1244560E+00
         21   -1    0    0  501  502  0.00000000000E+00  0.00000000000E+00  0.61317038743E+02  0.61317038743E+02  0.00000000000E+00 0. -1.
          2   -1    0    0  503    0 -0.00000000000E+00 -0.00000000000E+00 -0.68309708559E+03  0.68309708559E+03  0.00000000000E+00 0. -1.
         23    2    1    2    0    0 -0.55357632016E+02  0.66559682107E+01 -0.29809234498E+03  0.31773209036E+03  0.94793806641E+02 0.  0.
         23    2    1    2    0    0  0.13230778091E+03 -0.20699618169E+02 -0.16406727731E+03  0.23015867836E+03  0.90117271683E+02 0.  0.
        -11    1    4    4    0    0  0.57170911031E+02  0.26948402936E+02 -0.10757335650E+03  0.12476680856E+03  0.00000000000E+00 0.  1.
         11    1    4    4    0    0  0.75136869880E+02 -0.47648021105E+02 -0.56493920811E+02  0.10539186980E+03  0.00000000000E+00 0. -1.
        -11    1    3    3    0    0  0.14439009297E+02  0.29253710347E+02 -0.56452728320E+02  0.65201035984E+02  0.00000000000E+00 0.  1.
         11    1    3    3    0    0 -0.69796641313E+02 -0.22597742136E+02 -0.24163961665E+03  0.25253105438E+03  0.00000000000E+00 0. -1.
         21    1    1    2  503  502  0.58474566623E+01 -0.23147197174E+02 -0.32960453071E+02  0.40698611194E+02  0.00000000000E+00 0. -1.
          2    1    1    2  501    0 -0.82797605558E+02  0.37190847133E+02 -0.12665997149E+03  0.15582474442E+03  0.00000000000E+00 0. -1.
<scales pt_clust_5="13000.00000" pt_clust_6="13000.00000" pt_clust_7="13000.00000" pt_clust_8="13000.00000" pt_clust_9="23.87437" pt_clust_10="87.13494"></scales>
<clustering>
<clus scale="   23.874">  1  9  2 -1</clus>
<clus scale="   87.135">  1 10  2 -1</clus>
<clus scale="   90.117">  5  6 -1 -1</clus>
<clus scale="   94.794">  7  8 -1 -1</clus>
<clus scale="  116.385">  1  5  2 -1</clus>
<clus scale="   23.874">  1  5  2 -1</clus>
</clustering>
</event>
<event>
10    2  0.1671105E-006  0.2680840E+03  0.7546771E-02  0.1102457E+00
         21   -1    0    0  501  502  0.00000000000E+00  0.00000000000E+00  0.49202212321E+03  0.49202212321E+03  0.00000000000E+00 0. -1.
          2   -1    0    0  503    0 -0.00000000000E+00 -0.00000000000E+00 -0.24936925968E+03  0.24936925968E+03  0.00000000000E+00 0. -1.
         23    2    1    2    0    0 -0.17403257159E+03 -0.11379592207E+03  0.64971391805E+02  0.23562448159E+03  0.89781772746E+02 0.  0.
         23    2    1    2    0    0  0.28617071015E+03  0.13029807337E+03  0.17886786615E+03  0.37310254877E+03  0.91326530033E+02 0.  0.
        -13    1    4    4    0    0  0.16648137337E+03  0.88886710756E+02  0.56516388367E+02  0.19700506893E+03  0.00000000000E+00 0. -1.
         13    1    4    4    0    0  0.11968933678E+03  0.41411362614E+02  0.12235147779E+03  0.17609747985E+03  0.00000000000E+00 0.  1.
        -13    1    3    3    0    0 -0.12662938040E+03 -0.11985220596E+03  0.31241981199E+02  0.17713162519E+03  0.00000000000E+00 0. -1.
         13    1    3    3    0    0 -0.47403191188E+02  0.60562838932E+01  0.33729410606E+02  0.58492856395E+02  0.00000000000E+00 0.  1.
         21    1    1    2  503  502 -0.21746187699E+02 -0.32203744697E+02  0.10305831154E+02  0.40201840850E+02  0.00000000000E+00 0. -1.
          2    1    1    2  501    0 -0.90391950861E+02  0.15701593393E+02 -0.11492225586E+02  0.92462511671E+02  0.00000000000E+00 0. -1.
<scales pt_clust_5="13000.00000" pt_clust_6="13000.00000" pt_clust_7="13000.00000" pt_clust_8="13000.00000" pt_clust_9="38.85843" pt_clust_10="95.59782"></scales>
<clustering>
<clus scale="   38.858">  2  9  1 -1</clus>
<clus scale="   89.782">  7  8 -1 -1</clus>
<clus scale="   91.327">  5  6 -1 -1</clus>
<clus scale="   95.598">  1 10  2 -1</clus>
<clus scale="  267.562">  2  7  1 -1</clus>
<clus scale="   95.598">  1  5  2 -1</clus>
</clustering>
</event>
<event>
10    2  0.1671105E-006  0.1369589E+03  0.7546771E-02  0.1231534E+00
          1   -1    0    0  503    0 -0.00000000000E+00  0.00000000000E+00  0.42292805779E+03  0.42292805779E+03  0.00000000000E+00 0. -1.
         21   -1    0    0  501  502  0.00000000000E+00 -0.00000000000E+00 -0.13216152195E+03  0.13216152195E+03  0.00000000000E+00 0. -1.
         23    2    1    2    0    0  0.94621304725E+02 -0.23055269936E+02  0.19326217092E+03  0.23637368818E+03  0.95065855988E+02 0.  0.
         23    2    1    2    0    0  0.35258976965E+02 -0.25357296173E+02  0.13839945415E+02  0.10125264525E+03  0.90412201357E+02 0.  0.
        -11    1    4    4    0    0 -0.85882005006E+01 -0.25637433306E+02 -0.29210781713E+02  0.39803328286E+02  0.00000000000E+00 0.  1.
         11    1    4    4    0    0  0.43847177466E+02  0.28013713310E+00  0.43050727128E+02  0.61449316959E+02  0.00000000000E+00 0. -1.
        -11    1    3    3    0    0  0.74724809070E+02 -0.12201658472E+01  0.19285621544E+03  0.20683037912E+03  0.00000000000E+00 0. -1.
         11    1    3    3    0    0  0.19896495655E+02 -0.21835104089E+02  0.40595547893E+00  0.29543309053E+02  0.00000000000E+00 0.  1.
         21    1    1    2  503  502 -0.66910220987E+02  0.98839084247E+02  0.58738802569E+02  0.13302777595E+03  0.00000000000E+00 0. -1.
          1    1    1    2  501    0 -0.62970060703E+02 -0.50426518138E+02  0.24925616931E+02  0.84435470366E+02  0.00000000000E+00 0. -1.
<scales pt_clust_5="13000.00000" pt_clust_6="13000.00000" pt_clust_7="13000.00000" pt_clust_8="13000.00000" pt_clust_9="98.59125" pt_clust_10="80.67256"></scales>
<clustering>
<clus scale="   80.673">  2 10  1 -1</clus>
<clus scale="   90.412">  5  6 -1 -1</clus>
<clus scale="   95.066">  7  8 -1 -1</clus>
<clus scale="  102.188">  2  5  1 -1</clus>
<clus scale="   98.591">  2  9  1 -1</clus>
<clus scale="   80.673">  2  5  1 -1</clus>
</clustering>
</event>
<event>
10    2  0.1671105E-006  0.2402860E+03  0.7546771E-02  0.1120074E+00
         21   -1    0    0  503  502  0.00000000000E+00  0.00000000000E+00  0.15744894738E+03  0.15744894738E+03  0.00000000000E+00 0. -1.
          1   -1    0    0  502    0 -0.00000000000E+00 -0.00000000000E+00 -0.23569976446E+04  0.23569976446E+04  0.00000000000E+00 0. -1.
         23    2    1    2    0    0 -0.16580826989E+03 -0.10195863770E+03 -0.10734247523E+04  0.10946047115E+04  0.89614894568E+02 0.  0.
         23    2    1    2    0    0  0.13618617086E+03  0.25127377242E+03 -0.11967142702E+04  0.12341747873E+04  0.96835836297E+02 0.  0.
        -11    1    4    4    0    0  0.14087236503E+03  0.17589957870E+03 -0.85350465280E+03  0.88275470962E+03  0.00000000000E+00 0.  1.
         11    1    4    4    0    0 -0.46861941703E+01  0.75374193724E+02 -0.34320961739E+03  0.35142007764E+03  0.00000000000E+00 0. -1.
        -11    1    3    3    0    0 -0.14028959086E+03 -0.41733816289E+02 -0.81448143379E+03  0.82752817880E+03  0.00000000000E+00 0. -1.
         11    1    3    3    0    0 -0.25518679037E+02 -0.60224821413E+02 -0.25894331853E+03  0.26707653267E+03  0.00000000000E+00 0.  1.
         21    1    1    2  503  501  0.50537830991E+02 -0.87612972857E+02  0.19813986625E+02  0.10306648068E+03  0.00000000000E+00 0.  1.
          1    1    1    2  501    0 -0.20915731958E+02 -0.61702161865E+02  0.50776338688E+02  0.82600612544E+02  0.00000000000E+00 0. -1.
<scales pt_clust_5="13000.00000" pt_clust_6="13000.00000" pt_clust_7="13000.00000" pt_clust_8="13000.00000" pt_clust_9="63.78789" pt_clust_10="171.72442"></scales>
<clustering>
<clus scale="   63.788">  9 10 -1 -1</clus>
<clus scale="   89.615">  7  8 -1 -1</clus>
<clus scale="   96.836">  5  6 -1 -1</clus>
<clus scale="  171.724">  1  9  2 -1</clus>
<clus scale="  237.468">  2  7  1 -1</clus>
<clus scale="  171.724">  1  5  2 -1</clus>
</clustering>
</event>
<event>
10    2  0.1671105E-006  0.1039342E+03  0.7546771E-02  0.1272735E+00
         21   -1    0    0  503  502  0.00000000000E+00  0.00000000000E+00  0.24985033054E+02  0.24985033054E+02  0.00000000000E+00 0. -1.
          1   -1    0    0  502    0 -0.00000000000E+00 -0.00000000000E+00 -0.74248975791E+03  0.74248975791E+03  0.00000000000E+00 0. -1.
         23    2    1    2    0    0  0.28999152707E+02  0.23799814876E+02 -0.27158812210E+03  0.28839832597E+03  0.89476836726E+02 0.  0.
         23    2    1    2    0    0 -0.27538680966E+02 -0.70906031995E+02 -0.25402150452E+03  0.28022390237E+03  0.90622659303E+02 0.  0.
        -11    1    3    3    0    0  0.92493974467E+00  0.53292677945E+02 -0.18816259847E+03  0.19556617422E+03  0.00000000000E+00 0.  1.
         11    1    3    3    0    0  0.28074212963E+02 -0.29492863069E+02 -0.83425523624E+02  0.92832151744E+02  0.00000000000E+00 0. -1.
        -13    1    4    4    0    0 -0.29597696874E+02 -0.11998467440E+02 -0.17396457921E+02  0.36367892837E+02  0.00000000000E+00 0.  1.
         13    1    4    4    0    0  0.20590159087E+01 -0.58907564554E+02 -0.23662504660E+03  0.24385600953E+03  0.00000000000E+00 0. -1.
         21    1    1    2  503  501  0.10300707164E+02  0.24959936814E+02 -0.10436572540E+03  0.10780216905E+03  0.00000000000E+00 0.  1.
          1    1    1    2  501    0 -0.11761178905E+02  0.22146280304E+02 -0.87529372837E+02  0.91050393573E+02  0.00000000000E+00 0. -1.
<scales pt_clust_5="13000.00000" pt_clust_6="13000.00000" pt_clust_7="13000.00000" pt_clust_8="13000.00000" pt_clust_9="21.49402" pt_clust_10="52.14035"></scales>
<clustering>
<clus scale="   21.494">  9 10 -1 -1</clus>
<clus scale="   52.140">  1  9  2 -1</clus>
<clus scale="   89.477">  5  6 -1 -1</clus>
<clus scale="   90.623">  7  8 -1 -1</clus>
<clus scale="  102.937">  2  5  1 -1</clus>
<clus scale="   52.140">  1  5  2 -1</clus>
</clustering>
</event>
<event>
10    2  0.1671105E-006  0.1277158E+03  0.7546771E-02  0.1246329E+00
          1   -1    0    0  503    0 -0.00000000000E+00  0.00000000000E+00  0.77845874207E+02  0.77845874207E+02  0.00000000000E+00 0. -1.
         21   -1    0    0  501  502  0.00000000000E+00 -0.00000000000E+00 -0.65337312109E+03  0.65337312109E+03  0.00000000000E+00 0.  1.
         23    2    1    2    0    0  0.44405771078E+01  0.27133968544E+02  0.66485182101E+01  0.94102220666E+02  0.89749953571E+02 0.  0.
         23    2    1    2    0    0  0.27646547357E+02  0.32405102595E+02 -0.29911142753E+03  0.32703308552E+03  0.12517416142E+03 0.  0.
        -13    1    4    4    0    0  0.80786333546E+01  0.65821948264E+02 -0.27147714521E+03  0.27945953833E+03  0.00000000000E+00 0.  1.
         13    1    4    4    0    0  0.19567914002E+02 -0.33416845669E+02 -0.27634282320E+02  0.47573547190E+02  0.00000000000E+00 0. -1.
        -13    1    3    3    0    0  0.43497251695E+02  0.30544117971E+02  0.12126467418E+02  0.54516100921E+02  0.00000000000E+00 0.  1.
         13    1    3    3    0    0 -0.39056674587E+02 -0.34101494267E+01 -0.54779492074E+01  0.39586119745E+02  0.00000000000E+00 0. -1.
         21    1    1    2  503  502  0.26282889945E+02  0.11844089626E+02 -0.34453618840E+02  0.44923541870E+02  0.00000000000E+00 0.  1.
          1    1    1    2  501    0 -0.58370014410E+02 -0.71383160765E+02 -0.24861071872E+03  0.26516014724E+03  0.00000000000E+00 0. -1.
<scales pt_clust_5="13000.00000" pt_clust_6="13000.00000" pt_clust_7="13000.00000" pt_clust_8="13000.00000" pt_clust_9="28.82833" pt_clust_10="89.28074"></scales>
<clustering>
<clus scale="   28.828">  1  9  2 -1</clus>
<clus scale="   89.281">  2 10  1 -1</clus>
<clus scale="   89.750">  7  8 -1 -1</clus>
<clus scale="   93.262">  1  7  2 -1</clus>
<clus scale="  125.174">  5  6 -1 -1</clus>
<clus scale="   89.281">  2  5  1 -1</clus>
</clustering>
</event>
<event>
10    2  0.1671105E-006  0.1251405E+03  0.7546771E-02  0.1236397E+00
          2   -1    0    0  503    0 -0.00000000000E+00  0.00000000000E+00  0.46924797145E+03  0.46924797145E+03  0.00000000000E+00 0. -1.
         21   -1    0    0  501  502  0.00000000000E+00 -0.00000000000E+00 -0.49701807522E+02  0.49701807522E+02  0.00000000000E+00 0. -1.
         23    2    1    2    0    0 -0.66590942936E+02  0.13093004625E+02  0.17251491318E+03  0.20895235265E+03  0.96404927048E+02 0.  0.
         23    2    1    2    0    0  0.83093682169E+02 -0.41511264941E+02  0.15880960909E+03  0.20538100334E+03  0.91285921482E+02 0.  0.
        -11    1    4    4    0    0  0.21908510418E+01  0.24717406030E+02  0.21763916382E+02  0.33006333413E+02  0.00000000000E+00 0.  1.
         11    1    4    4    0    0  0.80902831127E+02 -0.66228670971E+02  0.13704569270E+03  0.17237466992E+03  0.00000000000E+00 0. -1.
        -13    1    3    3    0    0 -0.20397495118E+01 -0.28741325752E+02  0.12498939281E+02  0.31407767625E+02  0.00000000000E+00 0.  1.
         13    1    3    3    0    0 -0.64551193425E+02  0.41834330377E+02  0.16001597390E+03  0.17754458503E+03  0.00000000000E+00 0. -1.
         21    1    1    2  503  502 -0.23004313541E+02 -0.35496850070E+01  0.42390155873E+02  0.48360355872E+02  0.00000000000E+00 0. -1.
          2    1    1    2  501    0  0.65015743089E+01  0.31967945323E+02  0.45831485787E+02  0.56256067105E+02  0.00000000000E+00 0. -1.
<scales pt_clust_5="13000.00000" pt_clust_6="13000.00000" pt_clust_7="13000.00000" pt_clust_8="13000.00000" pt_clust_9="23.27657" pt_clust_10="31.76045"></scales>
<clustering>
<clus scale="   23.277">  1  9  2 -1</clus>
<clus scale="   31.760">  2 10  1 -1</clus>
<clus scale="   91.286">  5  6 -1 -1</clus>
<clus scale="   96.405">  7  8 -1 -1</clus>
<clus scale="  121.241">  2  5  1 -1</clus>
<clus scale="   31.760">  2  5  1 -1</clus>
</clustering>
</event>
<event>
10    2  0.1671105E-006  0.3104203E+03  0.7546771E-02  0.1122755E+00
         21   -1    0    0  503  502  0.00000000000E+00  0.00000000000E+00  0.17569571318E+03  0.17569571318E+03  0.00000000000E+00 0.  1.
          3   -1    0    0  502    0 -0.00000000000E+00 -0.00000000000E+00 -0.10298874506E+04  0.10298874506E+04  0.00000000000E+00 0. -1.
         23    2    1    2    0    0  0.18680083818E+02  0.47245619049E+02 -0.47970845587E+03  0.49064458626E+03  0.89614805369E+02 0.  0.
         23    2    1    2    0    0  0.50148778176E+02 -0.31326750391E+03 -0.17366951905E+03  0.37390703082E+03  0.94836369066E+02 0.  0.
        -11    1    3    3    0    0  0.25013071047E+02 -0.21141477127E+02 -0.19764396944E+03  0.20033909861E+03  0.00000000000E+00 0.  1.
         11    1    3    3    0    0 -0.63329872289E+01  0.68387096175E+02 -0.28206448643E+03  0.29030548765E+03  0.00000000000E+00 0. -1.
        -11    1    4    4    0    0 -0.29015361617E+01 -0.40760838154E+02  0.86514809800E+01  0.41769761338E+02  0.00000000000E+00 0. -1.
         11    1    4    4    0    0  0.53050314337E+02 -0.27250666575E+03 -0.18232100003E+03  0.33213726949E+03  0.00000000000E+00 0.  1.
         21    1    1    2  503  501 -0.25973110995E+02  0.13417467163E+03 -0.10809752171E+03  0.17424844104E+03  0.00000000000E+00 0. -1.
          3    1    1    2  501    0 -0.42855750999E+02  0.13184721322E+03 -0.92716240810E+02  0.16678310567E+03  0.00000000000E+00 0. -1.
<scales pt_clust_5="13000.00000" pt_clust_6="13000.00000" pt_clust_7="13000.00000" pt_clust_8="13000.00000" pt_clust_9="21.55435" pt_clust_10="296.37514"></scales>
<clustering>
<clus scale="   21.554">  9 10 -1 -1</clus>
<clus scale="   89.615">  5  6 -1 -1</clus>
<clus scale="   94.836">  7  8 -1 -1</clus>
<clus scale="  103.014">  2  5  1 -1</clus>
<clus scale="  296.375">  1  9  2 -1</clus>
<clus scale="  296.375">  1  5  2 -1</clus>
</clustering>
</event>
<event>
10    2  0.1671105E-006  0.2125985E+03  0.7546771E-02  0.1139647E+00
         -3   -1    0    0    0  501 -0.00000000000E+00  0.00000000000E+00  0.19836697807E+03  0.19836697807E+03  0.00000000000E+00 0.  1.
         21   -1    0    0  503  502  0.00000000000E+00 -0.00000000000E+00 -0.68409299291E+03  0.68409299291E+03  0.00000000000E+00 0. -1.
         23    2    1    2    0    0  0.14032412909E+03  0.89010176663E+02  0.86356120002E+02  0.20760794761E+03  0.89610310207E+02 0.  0.
         23    2    1    2    0    0 -0.16893288295E+03 -0.13636353030E+03 -0.56236879616E+03  0.60966181562E+03  0.91079828664E+02 0.  0.
        -13    1    4    4    0    0 -0.59586165866E+02 -0.86652210427E+02 -0.17571311121E+03  0.20477845146E+03  0.00000000000E+00 0.  1.
         13    1    4    4    0    0 -0.10934671708E+03 -0.49711319876E+02 -0.38665568495E+03  0.40488336415E+03  0.00000000000E+00 0. -1.
        -13    1    3    3    0    0  0.93202284690E+02  0.18772302961E+02  0.77321210364E+02  0.12254645977E+03  0.00000000000E+00 0.  1.
         13    1    3    3    0    0  0.47121844402E+02  0.70237873702E+02  0.90349096382E+01  0.85061487844E+02  0.00000000000E+00 0. -1.
         21    1    1    2  503  501  0.54362470389E+01  0.39063071741E+02 -0.23855389667E+01  0.39511607811E+02  0.00000000000E+00 0.  1.
         -3    1    1    2    0  502  0.23172506815E+02  0.82902819001E+01 -0.73277997156E+01  0.25678599937E+02  0.00000000000E+00 0.  1.
<scales pt_clust_5="13000.00000" pt_clust_6="13000.00000" pt_clust_7="13000.00000" pt_clust_8="13000.00000" pt_clust_9="39.80330" pt_clust_10="24.61086"></scales>
<clustering>
<clus scale="   24.611">  2 10  1 -1</clus>
<clus scale="   39.803">  1  9  2 -1</clus>
<clus scale="   89.610">  7  8 -1 -1</clus>
<clus scale="   91.080">  5  6 -1 -1</clus>
<clus scale="  211.973">  1  7  2 -1</clus>
<clus scale="   24.611">  2  5  1 -1</clus>
</clustering>
</event>
<event>
10    2  0.1671105E-006  0.2809697E+03  0.7546771E-02  0.1095457E+00
          1   -1    0    0  503    0 -0.00000000000E+00  0.00000000000E+00  0.13932736287E+04  0.13932736287E+04  0.00000000000E+00 0. -1.
         21   -1    0    0  501  502  0.00000000000E+00 -0.00000000000E+00 -0.15325793376E+03  0.15325793376E+03  0.00000000000E+00 0. -1.
         23    2    1    2    0    0  0.20022812183E+03 -0.61088959472E+02  0.47829887619E+03  0.53002722275E+03  0.91301041338E+02 0.  0.
         23    2    1    2    0    0 -0.33453486212E+03  0.10033086143E+03  0.76005759517E+03  0.84215186521E+03  0.97736177416E+02 0.  0.
        -11    1    4    4    0    0 -0.15112807679E+03  0.53627648440E+02  0.46243268964E+03  0.48944827379E+03  0.00000000000E+00 0. -1.
         11    1    4    4    0    0 -0.18340678532E+03  0.46703212991E+02  0.29762490553E+03  0.35270359142E+03  0.00000000000E+00 0.  1.
        -13    1    3    3    0    0  0.11991649736E+03  0.44083975436E+00  0.32436698717E+03  0.34582380347E+03  0.00000000000E+00 0.  1.
         13    1    3    3    0    0  0.80311624464E+02 -0.61529799227E+02  0.15393188902E+03  0.18420341928E+03  0.00000000000E+00 0. -1.
         21    1    1    2  503  502  0.32107456815E+01 -0.23122713856E+02  0.31238575723E+02  0.38997658867E+02  0.00000000000E+00 0. -1.
          1    1    1    2  501    0  0.13109599461E+03 -0.16119188103E+02 -0.29579352195E+02  0.13535481559E+03  0.00000000000E+00 0. -1.
<scales pt_clust_5="13000.00000" pt_clust_6="13000.00000" pt_clust_7="13000.00000" pt_clust_8="13000.00000" pt_clust_9="23.34457" pt_clust_10="135.97193"></scales>
<clustering>
<clus scale="   23.345">  2  9  1 -1</clus>
<clus scale="   91.301">  7  8 -1 -1</clus>
<clus scale="   97.736">  5  6 -1 -1</clus>
<clus scale="  135.972">  2 10  1 -1</clus>
<clus scale="  278.797">  1  7  2 -1</clus>
<clus scale="   23.345">  2  5  1 -1</clus>
</clustering>
</event>
<event>
10    2  0.1671105E-006  0.1095426E+03  0.7546771E-02  0.1276348E+00
         21   -1    0    0  503  502  0.00000000000E+00  0.00000000000E+00  0.26208091927E+03  0.26208091927E+03  0.00000000000E+00 0.  1.
         -1   -1    0    0    0  501 -0.00000000000E+00 -0.00000000000E+00 -0.77058035173E+02  0.77058035173E+02  0.00000000000E+00 0.  1.
         23    2    1    2    0    0 -0.36745313261E+02  0.23367004366E+02  0.23971961104E+02  0.11410518397E+03  0.10270882703E+03 0.  0.
         23    2    1    2    0    0  0.23450282342E+02 -0.16680080255E+02  0.10509869217E+03  0.13096646218E+03  0.72652173412E+02 0.  0.
        -11    1    4    4    0    0 -0.23605360412E+02  0.34644670925E+01  0.52007529322E+02  0.57218866456E+02  0.00000000000E+00 0. -1.
         11    1    4    4    0    0  0.47055642753E+02 -0.20144547347E+02  0.53091162850E+02  0.73747595727E+02  0.00000000000E+00 0.  1.
        -13    1    3    3    0    0 -0.32752241147E+02  0.61054801999E+02  0.30407667012E+02  0.75663890730E+02  0.00000000000E+00 0.  1.
         13    1    3    3    0    0 -0.39930721145E+01 -0.37687797634E+02 -0.64357059076E+01  0.38441293239E+02  0.00000000000E+00 0. -1.
         21    1    1    2  503  501  0.32793221382E+02  0.22566903779E+02  0.35840133666E+02  0.53564687024E+02  0.00000000000E+00 0.  1.
         -1    1    1    2    0  502 -0.19498190463E+02 -0.29253827891E+02  0.20112097160E+02  0.40502621270E+02  0.00000000000E+00 0.  1.
<scales pt_clust_5="13000.00000" pt_clust_6="13000.00000" pt_clust_7="13000.00000" pt_clust_8="13000.00000" pt_clust_9="33.60560" pt_clust_10="35.15632"></scales>
<clustering>
<clus scale="   35.156">  1 10  2 -1</clus>
<clus scale="   33.606">  1  9  2 -1</clus>
<clus scale="   72.652">  5  6 -1 -1</clus>
<clus scale="   82.029">  1  5  2 -1</clus>
<clus scale="  102.709">  7  8 -1 -1</clus>
<clus scale="   35.156">  1  5  2 -1</clus>
</clustering>
</event>
<event>
10    2  0.1671105E-006  0.1801246E+03  0.7546771E-02  0.1168347E+00
         21   -1    0    0  503  502  0.00000000000E+00  0.00000000000E+00  0.16766918718E+03  0.16766918718E+03  0.00000000000E+00 0. -1.
          1   -1    0    0  502    0 -0.00000000000E+00 -0.00000000000E+00 -0.38803274540E+03  0.38803274540E+03  0.00000000000E+00 0. -1.
         23    2    1    2    0    0 -0.17101773979E+02  0.17614285474E+03 -0.11853446674E+03  0.23043038478E+03  0.87914540754E+02 0.  0.
         23    2    1    2    0    0 -0.63503721219E+02 -0.11630802147E+03  0.20407842991E+02  0.16334227424E+03  0.93294908926E+02 0.  0.
        -11    1    4    4    0    0 -0.54705399609E+02 -0.17312291992E+02 -0.12356748459E+02  0.58694850139E+02  0.00000000000E+00 0.  1.
         11    1    4    4    0    0 -0.87983216099E+01 -0.98995729479E+02  0.32764591451E+02  0.10464742410E+03  0.00000000000E+00 0. -1.
        -13    1    3    3    0    0 -0.44181768144E+02  0.14521886252E+03 -0.70961954334E+02  0.16755937942E+03  0.00000000000E+00 0. -1.
         13    1    3    3    0    0  0.27079994165E+02  0.30923992216E+02 -0.47572512404E+02  0.62871005359E+02  0.00000000000E+00 0.  1.
         21    1    1    2  503  501  0.25125350322E+02 -0.94570805928E+01 -0.13989202770E+02  0.30272386696E+02  0.00000000000E+00 0.  1.
          1    1    1    2  501    0  0.55480144876E+02 -0.50377752672E+02 -0.10824773170E+03  0.13165688686E+03  0.00000000000E+00 0. -1.
<scales pt_clust_5="13000.00000" pt_clust_6="13000.00000" pt_clust_7="13000.00000" pt_clust_8="13000.00000" pt_clust_9="20.74894" pt_clust_10="106.20373"></scales>
<clustering>
<clus scale="   20.749">  9 10 -1 -1</clus>
<clus scale="   87.915">  7  8 -1 -1</clus>
<clus scale="   93.295">  5  6 -1 -1</clus>
<clus scale="  106.204">  1  9  2 -1</clus>
<clus scale="  177.398">  2  7  1 -1</clus>
<clus scale="  106.204">  1  5  2 -1</clus>
</clustering>
</event>
<event>
10    2  0.1671105E-006  0.1145661E+03  0.7546771E-02  0.1256640E+00
          2   -1    0    0  503    0 -0.00000000000E+00  0.00000000000E+00  0.12229689118E+04  0.12229689118E+04  0.00000000000E+00 0. -1.
         21   -1    0    0  501  502  0.00000000000E+00 -0.00000000000E+00 -0.33716361185E+02  0.33716361185E+02  0.00000000000E+00 0. -1.
         23    2    1    2    0    0  0.38642358553E+02 -0.18268881776E+02  0.45143064286E+03  0.46227513546E+03  0.89898229351E+02 0.  0.
         23    2    1    2    0    0 -0.56756431001E+02  0.45235059199E+02  0.48803051212E+03  0.50356818639E+03  0.10069575238E+03 0.  0.
        -11    1    4    4    0    0  0.19952156373E+01  0.62319382674E+02  0.27079435900E+03  0.27787995827E+03  0.00000000000E+00 0.  1.
         11    1    4    4    0    0 -0.58751646638E+02 -0.17084323475E+02  0.21723615312E+03  0.22568822812E+03  0.00000000000E+00 0. -1.
        -13    1    3    3    0    0  0.32857379728E+02  0.31815540317E+02  0.27518906112E+03  0.27896389617E+03  0.00000000000E+00 0.  1.
         13    1    3    3    0    0  0.57849788249E+01 -0.50084422093E+02  0.17624158174E+03  0.18331123929E+03  0.00000000000E+00 0. -1.
         21    1    1    2  503  502  0.13392290740E+02 -0.54955120214E+02  0.25567252050E+03  0.26185464752E+03  0.00000000000E+00 0. -1.
          2    1    1    2  501    0  0.47217817079E+01  0.27988942791E+02 -0.58811248586E+01  0.28987303611E+02  0.00000000000E+00 0. -1.
<scales pt_clust_5="13000.00000" pt_clust_6="13000.00000" pt_clust_7="13000.00000" pt_clust_8="13000.00000" pt_clust_9="51.65709" pt_clust_10="28.38443"></scales>
<clustering>
<clus scale="   28.384">  2 10  1 -1</clus>
<clus scale="   51.657">  2  9  1 -1</clus>
<clus scale="   89.898">  7  8 -1 -1</clus>
<clus scale="  100.696">  5  6 -1 -1</clus>
<clus scale="  105.202">  1  7  2 -1</clus>
<clus scale="   28.384">  2  5  1 -1</clus>
</clustering>
</event>
<event>
10    2  0.1671105E-006  0.1504644E+03  0.7546771E-02  0.1201161E+00
         21   -1    0    0  501  502  0.00000000000E+00  0.00000000000E+00  0.21114476011E+03  0.21114476011E+03  0.00000000000E+00 0.  1.
         -1   -1    0    0    0  501 -0.00000000000E+00 -0.00000000000E+00 -0.57760663184E+03  0.57760663184E+03  0.00000000000E+00 0.  1.
         23    2    1    2    0    0  0.10641319731E+03 -0.80489363775E+02 -0.47779244699E+03  0.50490007842E+03  0.94000853937E+02 0.  0.
         23    2    1    2    0    0 -0.26792258510E+02  0.35908870810E+02 -0.23889899214E+02  0.11232221584E+03  0.10019122101E+03 0.  0.
        -11    1    4    4    0    0 -0.34126608286E+02 -0.20973589651E+02 -0.35825648388E+02  0.53740058972E+02  0.00000000000E+00 0. -1.
         11    1    4    4    0    0  0.73343497756E+01  0.56882460460E+02  0.11935749174E+02  0.58582156865E+02  0.00000000000E+00 0.  1.
        -11    1    3    3    0    0  0.55887913559E+02 -0.78279808084E+02 -0.19285472031E+03  0.21550900301E+03  0.00000000000E+00 0. -1.
         11    1    3    3    0    0  0.50525283750E+02 -0.22095556913E+01 -0.28493772669E+03  0.28939107540E+03  0.00000000000E+00 0.  1.
         21    1    1    2  503  502 -0.49356050946E+02 -0.16595943561E+01  0.74954710938E+02  0.89760696912E+02  0.00000000000E+00 0.  1.
         -1    1    1    2    0  503 -0.30264887853E+02  0.46240087322E+02  0.60265763540E+02  0.81768400788E+02  0.00000000000E+00 0.  1.
<scales pt_clust_5="13000.00000" pt_clust_6="13000.00000" pt_clust_7="13000.00000" pt_clust_8="13000.00000" pt_clust_9="49.38394" pt_clust_10="73.20144"></scales>
<clustering>
<clus scale="   49.384">  1  9  2 -1</clus>
<clus scale="   73.201">  1 10  2 -1</clus>
<clus scale="   94.001">  7  8 -1 -1</clus>
<clus scale="  100.191">  5  6 -1 -1</clus>
<clus scale="  146.415">  2  7  1 -1</clus>
<clus scale="   49.384">  1  5  2 -1</clus>
</clustering>
</event>
<event>
10    2  0.1671105E-006  0.3091293E+03  0.7546771E-02  0.1081357E+00
          1   -1    0    0  502    0 -0.00000000000E+00  0.00000000000E+00  0.12218706853E+04  0.12218706853E+04  0.00000000000E+00 0. -1.
         21   -1    0    0  503  502  0.00000000000E+00 -0.00000000000E+00 -0.13023432827E+03  0.13023432827E+03  0.00000000000E+00 0. -1.
         23    2    1    2    0    0  0.13740551559E+03  0.19789872939E+03  0.39712617593E+03  0.47278679280E+03  0.88170114127E+02 0.  0.
         23    2    1    2    0    0 -0.18427360082E+03 -0.30566780396E+03  0.65254528300E+03  0.75098544705E+03  0.10379898352E+03 0.  0.
        -11    1    3    3    0    0  0.14871570454E+03  0.17973195433E+03  0.34529478994E+03  0.41671144470E+03  0.00000000000E+00 0. -1.
         11    1    3    3    0    0 -0.11310188956E+02  0.18166775064E+02  0.51831385991E+02  0.56075348097E+02  0.00000000000E+00 0.  1.
        -13    1    4    4    0    0 -0.13873999743E+02 -0.11038737229E+03  0.22539275262E+03  0.25135582898E+03  0.00000000000E+00 0.  1.
         13    1    4    4    0    0 -0.17039960108E+03 -0.19528043167E+03  0.42715253038E+03  0.49962961807E+03  0.00000000000E+00 0. -1.
         21    1    1    2  503  501  0.11918560597E+02  0.35707579736E+02  0.28278067834E+02  0.47082188328E+02  0.00000000000E+00 0. -1.
          1    1    1    2  501    0  0.34949524639E+02  0.72061494832E+02  0.13686830301E+02  0.81250585435E+02  0.00000000000E+00 0. -1.
<scales pt_clust_5="13000.00000" pt_clust_6="13000.00000" pt_clust_7="13000.00000" pt_clust_8="13000.00000" pt_clust_9="20.53846" pt_clust_10="121.27757"></scales>
<clustering>
<clus scale="   20.538">  9 10 -1 -1</clus>
<clus scale="   88.170">  5  6 -1 -1</clus>
<clus scale="  103.799">  7  8 -1 -1</clus>
<clus scale="  121.278">  2  9  1 -1</clus>
<clus scale="  304.238">  1  5  2 -1</clus>
<clus scale="  121.278">  2  5  1 -1</clus>
</clustering>
</event>
<event>
10    2  0.1671105E-006  0.2767196E+03  0.7546771E-02  0.1103883E+00
         21   -1    0    0  503  502  0.00000000000E+00  0.00000000000E+00  0.81342697325E+03  0.81342697325E+03  0.00000000000E+00 0. -1.
          1   -1    0    0  502    0 -0.00000000000E+00 -0.00000000000E+00 -0.51039754708E+03  0.51039754708E+03  0.00000000000E+00 0. -1.
         23    2    1    2    0    0 -0.20092539066E+03 -0.81465508491E+02 -0.35799467473E+03  0.42795909966E+03  0.89337350285E+02 0.  0.
         23    2    1    2    0    0  0.20953469470E+03 -0.19380321897E+03  0.46706371227E+03  0.55481809242E+03  0.90609758806E+02 0.  0.
        -11    1    4    4    0    0  0.13840547886E+03 -0.15308346658E+03  0.39508431066E+03  0.44573785664E+03  0.00000000000E+00 0. -1.
         11    1    4    4    0    0  0.71129215837E+02 -0.40719752388E+02  0.71979401618E+02  0.10908023578E+03  0.00000000000E+00 0.  1.
        -13    1    3    3    0    0 -0.16229868174E+03 -0.86931552529E+02 -0.23267631865E+03  0.29670899241E+03  0.00000000000E+00 0. -1.
         13    1    3    3    0    0 -0.38626708919E+02  0.54660440382E+01 -0.12531835608E+03  0.13125010724E+03  0.00000000000E+00 0.  1.
         21    1    1    2  503  501 -0.26109503252E+02  0.22567427988E+03  0.16693587535E+03  0.28191873516E+03  0.00000000000E+00 0. -1.
          1    1    1    2  501    0  0.17500199211E+02  0.49594447581E+02  0.27024513280E+02  0.59128593094E+02  0.00000000000E+00 0. -1.
<scales pt_clust_5="13000.00000" pt_clust_6="13000.00000" pt_clust_7="13000.00000" pt_clust_8="13000.00000" pt_clust_9="25.66636" pt_clust_10="266.85075"></scales>
<clustering>
<clus scale="   25.666">  9 10 -1 -1</clus>
<clus scale="   89.337">  7  8 -1 -1</clus>
<clus scale="   90.610">  5  6 -1 -1</clus>
<clus scale="  234.497">  2  7  1 -1</clus>
<clus scale="  266.851">  1  9  2 -1</clus>
<clus scale="  266.851">  1  5  2 -1</clus>
</clustering>
</event>
<event>
10    2  0.1671105E-006  0.1671858E+03  0.7546771E-02  0.1182804E+00
         -1   -1    0    0    0  501 -0.00000000000E+00  0.00000000000E+00  0.67761064151E+03  0.67761064151E+03  0.00000000000E+00 0.  1.
         21   -1    0    0  503  502  0.00000000000E+00 -0.00000000000E+00 -0.21522800329E+03  0.21522800329E+03  0.00000000000E+00 0.  1.
         23    2    1    2    0    0 -0.13638881289E+03  0.58543030859E+02  0.48707240423E+03  0.51963983189E+03  0.10371515402E+03 0.  0.
         23    2    1    2    0    0  0.98141914631E+02 -0.19529664382E+02  0.11867944237E+03  0.18019565201E+03  0.91500927666E+02 0.  0.
        -11    1    3    3    0    0 -0.19163460866E+02 -0.67963804856E+01  0.75469933597E+01  0.21688386958E+02  0.00000000000E+00 0. -1.
         11    1    3    3    0    0 -0.11722535202E+03  0.65339411345E+02  0.47952541087E+03  0.49795144493E+03  0.00000000000E+00 0.  1.
        -11    1    4    4    0    0  0.68446109817E+02 -0.53120200346E+02  0.56116961037E+02  0.10322663876E+03  0.00000000000E+00 0. -1.
         11    1    4    4    0    0  0.29695804814E+02  0.33590535964E+02  0.62562481337E+02  0.76969013251E+02  0.00000000000E+00 0.  1.
         21    1    1    2  503  501 -0.87368320425E+01 -0.32527714778E+02  0.77966900999E+01  0.34571271879E+02  0.00000000000E+00 0.  1.
         -1    1    1    2    0  502  0.46983730297E+02 -0.64856516992E+01 -0.15116589849E+03  0.15843188901E+03  0.00000000000E+00 0.  1.
<scales pt_clust_5="13000.00000" pt_clust_6="13000.00000" pt_clust_7="13000.00000" pt_clust_8="13000.00000" pt_clust_9="33.68062" pt_clust_10="51.09523"></scales>
<clustering>
<clus scale="   33.681">  2  9  1 -1</clus>
<clus scale="   51.095">  2 10  1 -1</clus>
<clus scale="   91.501">  7  8 -1 -1</clus>
<clus scale="  103.715">  5  6 -1 -1</clus>
<clus scale="  159.896">  2  7  1 -1</clus>
<clus scale="   33.681">  2  5  1 -1</clus>
</clustering>
</event>
<event>
10    2  0.1671105E-006  0.1654526E+03  0.7546771E-02  0.1198218E+00
         21   -1    0    0  501  502  0.00000000000E+00  0.00000000000E+00  0.12771786329E+03  0.12771786329E+03  0.00000000000E+00 0.  1.
          1   -1    0    0  503    0 -0.00000000000E+00 -0.00000000000E+00 -0.65792231884E+03  0.65792231884E+03  0.00000000000E+00 0. -1.
         23    2    1    2    0    0 -0.11524111895E+03  0.55961810181E+02 -0.34208984088E+03  0.37702269714E+03  0.93318889996E+02 0.  0.
         23    2    1    2    0    0 -0.79510646116E+02  0.18795975613E+01 -0.10133228387E+03  0.15827907566E+03  0.91970420809E+02 0.  0.
        -11    1    4    4    0    0 -0.24342856365E+02  0.16690413586E+02  0.11607738438E+02  0.31715676775E+02  0.00000000000E+00 0.  1.
         11    1    4    4    0    0 -0.55167789751E+02 -0.14810816024E+02 -0.11294002231E+03  0.12656339888E+03  0.00000000000E+00 0. -1.
        -13    1    3    3    0    0 -0.12595652272E+03  0.28815720037E+02 -0.28411457015E+03  0.31211613273E+03  0.00000000000E+00 0. -1.
         13    1    3    3    0    0  0.10715403765E+02  0.27146090144E+02 -0.57975270732E+02  0.64906564416E+02  0.00000000000E+00 0.  1.
         21    1    1    2  503  502  0.16590970843E+03 -0.58466265332E+02 -0.19321452097E+02  0.17696794638E+03  0.00000000000E+00 0.  1.
          1    1    1    2  501    0  0.28842056640E+02  0.62485758994E+00 -0.67460878705E+02  0.73370462952E+02  0.00000000000E+00 0. -1.
<scales pt_clust_5="13000.00000" pt_clust_6="13000.00000" pt_clust_7="13000.00000" pt_clust_8="13000.00000" pt_clust_9="136.62405" pt_clust_10="28.84884"></scales>
<clustering>
<clus scale="   28.849">  1 10  2 -1</clus>
<clus scale="   91.970">  5  6 -1 -1</clus>
<clus scale="   93.319">  7  8 -1 -1</clus>
<clus scale="  117.393">  1  5  2 -1</clus>
<clus scale="  136.624">  1  9  2 -1</clus>
<clus scale="   28.849">  1  5  2 -1</clus>
</clustering>
</event>
<event>
10    2  0.2214490E-006  0.9730874E+02  0.7546771E-02  0.1286143E+00
         -2   -1    0    0    0  501 -0.00000000000E+00  0.00000000000E+00  0.22633189268E+03  0.22633189268E+03  0.00000000000E+00 0.  1.
         21   -1    0    0  503  502  0.00000000000E+00 -0.00000000000E+00 -0.10727524880E+04  0.10727524880E+04  0.00000000000E+00 0.  1.
         23    2    1    2    0    0  0.20088277670E+02 -0.56966648198E+02  0.11734358713E+03  0.16041723229E+03  0.91188996421E+02 0.  0.
         23    2    1    2    0    0 -0.35404678408E+02 -0.44296029380E+02  0.26224869537E+02  0.11040350776E+03  0.91025058477E+02 0.  0.
        -11    1    4    4    0    0  0.27023832388E+02 -0.74887358810E+01 -0.94966974618E+01  0.29606687499E+02  0.00000000000E+00 0. -1.
         11    1    4    4    0    0 -0.62428510796E+02 -0.36807293499E+02  0.35721566999E+02  0.80796820257E+02  0.00000000000E+00 0.  1.
        -11    1    3    3    0    0 -0.91909789810E+01 -0.74397672513E+02  0.74653136989E+02  0.10579498397E+03  0.00000000000E+00 0.  1.
         11    1    3    3    0    0  0.29279256651E+02  0.17431024315E+02  0.42690450145E+02  0.54622248327E+02  0.00000000000E+00 0. -1.
         21    1    1    2  503  501 -0.21731228458E+01  0.16952405824E+03 -0.88960518105E+03  0.90561609246E+03  0.00000000000E+00 0.  1.
         -2    1    1    2    0  502  0.17489523584E+02 -0.68261380660E+02 -0.10038387092E+03  0.12264754814E+03  0.00000000000E+00 0.  1.
<scales pt_clust_5="13000.00000" pt_clust_6="13000.00000" pt_clust_7="13000.00000" pt_clust_8="13000.00000" pt_clust_9="106.72439" pt_clust_10="70.46630"></scales>
<clustering>
<clus scale="   70.466">  2 10  1 -1</clus>
<clus scale="   91.025">  5  6 -1 -1</clus>
<clus scale="   91.189">  7  8 -1 -1</clus>
<clus scale="  106.724">  2  9  1 -1</clus>
<clus scale="   97.155">  2  5  1 -1</clus>
<clus scale="   70.466">  2  5  1 -1</clus>
</clustering>
</event>
<event>
10    2  0.1671105E-006  0.2087878E+03  0.7546771E-02  0.1177348E+00
         21   -1    0    0  501  502  0.00000000000E+00  0.00000000000E+00  0.48535649604E+03  0.48535649604E+03  0.00000000000E+00 0. -1.
          1   -1    0    0  503    0 -0.00000000000E+00 -0.00000000000E+00 -0.36426954354E+03  0.36426954354E+03  0.00000000000E+00 0. -1.
         23    2    1    2    0    0  0.19409685501E+02 -0.23731820172E+02 -0.99181371336E+02  0.13610617226E+03  0.88022784136E+02 0.  0.
         23    2    1    2    0    0 -0.20946730796E+03  0.33781571389E+02 -0.14473549088E+03  0.27280828258E+03  0.91968739563E+02 0.  0.
        -11    1    3    3    0    0 -0.27052455897E+02  0.52457919240E+01 -0.62722287832E+01  0.28261184634E+02  0.00000000000E+00 0. -1.
         11    1    3    3    0    0  0.46462141398E+02 -0.28977612096E+02 -0.92909142552E+02  0.10784498763E+03  0.00000000000E+00 0.  1.
        -13    1    4    4    0    0 -0.17074502617E+03  0.16338055675E+02 -0.15264142810E+03  0.22960880122E+03  0.00000000000E+00 0. -1.
         13    1    4    4    0    0 -0.38722281787E+02  0.17443515713E+02  0.79059372117E+01  0.43199481368E+02  0.00000000000E+00 0.  1.
         21    1    1    2  503  502  0.15402381104E+03 -0.75261304776E+02  0.23517975497E+03  0.29102768856E+03  0.00000000000E+00 0. -1.
          1    1    1    2  501    0  0.36033811417E+02  0.65211553558E+02  0.12982405975E+03  0.14968389617E+03  0.00000000000E+00 0. -1.
<scales pt_clust_5="13000.00000" pt_clust_6="13000.00000" pt_clust_7="13000.00000" pt_clust_8="13000.00000" pt_clust_9="187.44093" pt_clust_10="74.50491"></scales>
<clustering>
<clus scale="   74.505">  1 10  2 -1</clus>
<clus scale="   88.023">  5  6 -1 -1</clus>
<clus scale="   91.969">  7  8 -1 -1</clus>
<clus scale="   92.807">  2  5  1 -1</clus>
<clus scale="  187.441">  1  9  2 -1</clus>
<clus scale="   74.505">  1  5  2 -1</clus>
</clustering>
</event>
<event>
10    2  0.1671105E-006  0.9654582E+02  0.7546771E-02  0.1288032E+00
         21   -1    0    0  503  502  0.00000000000E+00  0.00000000000E+00  0.24427086537E+03  0.24427086537E+03  0.00000000000E+00 0.  1.
         -1   -1    0    0    0  501 -0.00000000000E+00 -0.00000000000E+00 -0.20181487008E+03  0.20181487008E+03  0.00000000000E+00 0.  1.
         23    2    1    2    0    0  0.28942860791E+02  0.20047361885E+02 -0.11421332898E+03  0.15080847112E+03  0.91972411826E+02 0.  0.
         23    2    1    2    0    0 -0.23500046539E+02  0.39390425308E+02 -0.13924732372E+02  0.10421672230E+03  0.92538474383E+02 0.  0.
        -11    1    3    3    0    0  0.16401629680E+01 -0.35392404592E+02 -0.53561375610E+02  0.64219416025E+02  0.00000000000E+00 0. -1.
         11    1    3    3    0    0  0.27302697823E+02  0.55439766477E+02 -0.60651953365E+02  0.86589055097E+02  0.00000000000E+00 0.  1.
        -11    1    4    4    0    0 -0.34747887166E+02 -0.16272499952E+02 -0.25752070135E+02  0.46210161582E+02  0.00000000000E+00 0. -1.
         11    1    4    4    0    0  0.11247840628E+02  0.55662925260E+02  0.11827337763E+02  0.58006560714E+02  0.00000000000E+00 0.  1.
         21    1    1    2  503  501 -0.35594186198E+01 -0.28145891805E+02  0.14521097270E+02  0.31870408726E+02  0.00000000000E+00 0. -1.
         -1    1    1    2    0  502 -0.18833956323E+01 -0.31291895388E+02  0.15607295937E+03  0.15919013331E+03  0.00000000000E+00 0.  1.
<scales pt_clust_5="13000.00000" pt_clust_6="13000.00000" pt_clust_7="13000.00000" pt_clust_8="13000.00000" pt_clust_9="28.37007" pt_clust_10="51.55050"></scales>
<clustering>
<clus scale="   28.370">  1  9  2 -1</clus>
<clus scale="   51.551">  1 10  2 -1</clus>
<clus scale="   91.972">  5  6 -1 -1</clus>
<clus scale="   92.538">  7  8 -1 -1</clus>
<clus scale="   96.003">  2  5  1 -1</clus>
<clus scale="   28.370">  1  5  2 -1</clus>
</clustering>
</event>
<event>
10    2  0.1671105E-006  0.1775384E+03  0.7546771E-02  0.1181961E+00
          4   -1    0    0  502    0 -0.00000000000E+00  0.00000000000E+00  0.13821121752E+03  0.13821121752E+03  0.00000000000E+00 0. -1.
         21   -1    0    0  503  502  0.00000000000E+00 -0.00000000000E+00 -0.51660861573E+03  0.51660861573E+03  0.00000000000E+00 0. -1.
         23    2    1    2    0    0 -0.88616999815E+02 -0.44041375884E+02  0.76258365681E+01  0.13628130066E+03  0.93390706610E+02 0.  0.
         23    2    1    2    0    0 -0.22403840248E+02 -0.10702229658E+03 -0.10760874869E+03  0.18084367449E+03  0.95755353817E+02 0.  0.
        -11    1    3    3    0    0 -0.36878410217E+02 -0.63212101459E+02 -0.18121548580E+02  0.75393484028E+02  0.00000000000E+00 0.  1.
         11    1    3    3    0    0 -0.51738589598E+02  0.19170725575E+02  0.25747385148E+02  0.60887816635E+02  0.00000000000E+00 0. -1.
        -11    1    4    4    0    0 -0.46667468002E+02 -0.20853886883E+02 -0.62067797622E+02  0.80406148207E+02  0.00000000000E+00 0.  1.
         11    1    4    4    0    0  0.24263627754E+02 -0.86168409696E+02 -0.45540951071E+02  0.10043752628E+03  0.00000000000E+00 0. -1.
         21    1    1    2  503  501  0.75462222704E+02  0.12260372780E+03 -0.22898168615E+03  0.27047889699E+03  0.00000000000E+00 0. -1.
          4    1    1    2  501    0  0.35558617360E+02  0.28459944662E+02 -0.49432799939E+02  0.67215961114E+02  0.00000000000E+00 0. -1.
<scales pt_clust_5="13000.00000" pt_clust_6="13000.00000" pt_clust_7="13000.00000" pt_clust_8="13000.00000" pt_clust_9="20.87428" pt_clust_10="154.03938"></scales>
<clustering>
<clus scale="   20.874">  9 10 -1 -1</clus>
<clus scale="   93.391">  5  6 -1 -1</clus>
<clus scale="   95.755">  7  8 -1 -1</clus>
<clus scale="  136.068">  1  5  2 -1</clus>
<clus scale="  154.039">  2  9  1 -1</clus>
<clus scale="  154.039">  2  5  1 -1</clus>
</clustering>
</event>
<event>
10    2  0.1671105E-006  0.3153051E+03  0.7546771E-02  0.1123029E+00
         21   -1    0    0  501  502  0.00000000000E+00  0.00000000000E+00  0.61976557169E+03  0.61976557169E+03  0.00000000000E+00 0. -1.
          1   -1    0    0  503    0 -0.00000000000E+00 -0.00000000000E+00 -0.31141609149E+03  0.31141609149E+03  0.00000000000E+00 0. -1.
         23    2    1    2    0    0  0.17108093970E+02 -0.32590343670E+02 -0.48552826838E+02  0.10903818571E+03  0.90427493442E+02 0.  0.
         23    2    1    2    0    0 -0.24678806168E+02  0.37202504910E+02  0.58081360073E+02  0.11584576724E+03  0.89742562668E+02 0.  0.
        -11    1    3    3    0    0 -0.34831652618E+02 -0.29094240638E+02 -0.19225992505E+02  0.49288514385E+02  0.00000000000E+00 0. -1.
         11    1    3    3    0    0  0.51939746588E+02 -0.34961030314E+01 -0.29326834333E+02  0.59749671330E+02  0.00000000000E+00 0.  1.
        -13    1    4    4    0    0 -0.36532929976E+02 -0.60465127678E+01  0.60503990218E+02  0.70936225736E+02  0.00000000000E+00 0.  1.
         13    1    4    4    0    0  0.11854123808E+02  0.43249017678E+02 -0.24226301450E+01  0.44909541505E+02  0.00000000000E+00 0. -1.
         21    1    1    2  503  502  0.31829763937E+03 -0.11632195133E+02  0.21534585709E+03  0.38447696076E+03  0.00000000000E+00 0. -1.
          1    1    1    2  501    0 -0.31072692718E+03  0.70200338934E+01  0.83475089877E+02  0.32182074945E+03  0.00000000000E+00 0. -1.
<scales pt_clust_5="13000.00000" pt_clust_6="13000.00000" pt_clust_7="13000.00000" pt_clust_8="13000.00000" pt_clust_9="315.30506" pt_clust_10="13000.00000"></scales>
<clustering>
<clus scale="   89.743">  7  8 -1 -1</clus>
<clus scale="   90.427">  5  6 -1 -1</clus>
<clus scale="   97.632">  2  5  1 -1</clus>
<clus scale="   98.294">  2  7  1 -1</clus>
<clus scale="  315.305">  1  9  2 -1</clus>
<clus scale="  315.305">  1  5  2 -1</clus>
</clustering>
</event>
<event>
10    2  0.1671105E-006  0.3251971E+03  0.7546771E-02  0.1091377E+00
         21   -1    0    0  501  502  0.00000000000E+00  0.00000000000E+00  0.10381025678E+03  0.10381025678E+03  0.00000000000E+00 0. -1.
          1   -1    0    0  503    0 -0.00000000000E+00 -0.00000000000E+00 -0.33968196515E+04  0.33968196515E+04  0.00000000000E+00 0. -1.
         23    2    1    2    0    0 -0.17464422144E+03 -0.40197922868E+02 -0.45587247137E+03  0.49787726142E+03  0.89137984024E+02 0.  0.
         23    2    1    2    0    0  0.41178052136E+03 -0.54936484046E+02 -0.16425805777E+04  0.16967395155E+04  0.90955012164E+02 0.  0.
        -13    1    3    3    0    0 -0.38710300889E+01 -0.22568274303E+02 -0.24190392767E+02  0.33308962475E+02  0.00000000000E+00 0. -1.
         13    1    3    3    0    0 -0.17077319135E+03 -0.17629648565E+02 -0.43168207861E+03  0.46456829894E+03  0.00000000000E+00 0.  1.
        -13    1    4    4    0    0  0.13421146841E+03 -0.61405286066E+02 -0.58023883481E+03  0.59871565274E+03  0.00000000000E+00 0.  1.
         13    1    4    4    0    0  0.27756905295E+03  0.64688020200E+01 -0.10623417428E+04  0.10980238627E+04  0.00000000000E+00 0. -1.
         21    1    1    2  503  502  0.28230803917E+02  0.21840582248E+03 -0.67133940044E+03  0.70653709893E+03  0.00000000000E+00 0. -1.
          1    1    1    2  501    0 -0.26536710383E+03 -0.12327141557E+03 -0.52321694523E+03  0.59947603244E+03  0.00000000000E+00 0. -1.
<scales pt_clust_5="13000.00000" pt_clust_6="13000.00000" pt_clust_7="13000.00000" pt_clust_8="13000.00000" pt_clust_9="209.32396" pt_clust_10="312.21838"></scales>
<clustering>
<clus scale="   89.138">  5  6 -1 -1</clus>
<clus scale="   90.955">  7  8 -1 -1</clus>
<clus scale="  200.155">  2  5  1 -1</clus>
<clus scale="  209.324">  2  9  1 -1</clus>
<clus scale="  312.218">  1 10  2 -1</clus>
<clus scale="  312.218">  1  5  2 -1</clus>
</clustering>
</event>
<event>
10    2  0.1671105E-006  0.1103991E+03  0.7546771E-02  0.1274064E+00
          1   -1    0    0  503    0 -0.00000000000E+00  0.00000000000E+00  0.28507612446E+02  0.28507612446E+02  0.00000000000E+00 0. -1.
         21   -1    0    0  501  502  0.00000000000E+00 -0.00000000000E+00 -0.67704813219E+03  0.67704813219E+03  0.00000000000E+00 0.  1.
         23    2    1    2    0    0 -0.15325451698E+02  0.40910015629E+02 -0.20190433886E+03  0.23037738550E+03  0.10197979629E+03 0.  0.
         23    2    1    2    0    0 -0.32952488936E+02 -0.31498646614E+02 -0.32322277614E+03  0.33432394709E+03  0.72259998072E+02 0.  0.
        -13    1    3    3    0    0 -0.10196880952E+02  0.71137152260E+02 -0.17646981826E+03  0.19054151141E+03  0.00000000000E+00 0. -1.
         13    1    3    3    0    0 -0.51285707464E+01 -0.30227136631E+02 -0.25434520601E+02  0.39835874096E+02  0.00000000000E+00 0.  1.
        -13    1    4    4    0    0 -0.23060486177E+02  0.19325167666E+02 -0.16856390439E+03  0.17122802923E+03  0.00000000000E+00 0. -1.
         13    1    4    4    0    0 -0.98920027595E+01 -0.50823814279E+02 -0.15465887174E+03  0.16309591787E+03  0.00000000000E+00 0.  1.
         21    1    1    2  503  502  0.25029438827E+02  0.18768907861E+02 -0.60196915179E+02  0.67841088636E+02  0.00000000000E+00 0. -1.
          1    1    1    2  501    0  0.23248501808E+02 -0.28180276876E+02 -0.63216489565E+02  0.73013323401E+02  0.00000000000E+00 0. -1.
<scales pt_clust_5="13000.00000" pt_clust_6="13000.00000" pt_clust_7="13000.00000" pt_clust_8="13000.00000" pt_clust_9="31.28490" pt_clust_10="37.33883"></scales>
<clustering>
<clus scale="   31.285">  1  9  2 -1</clus>
<clus scale="   37.339">  2 10  1 -1</clus>
<clus scale="   72.260">  7  8 -1 -1</clus>
<clus scale="   83.723">  2  7  1 -1</clus>
<clus scale="  101.980">  5  6 -1 -1</clus>
<clus scale="   37.339">  2  5  1 -1</clus>
</clustering>
</event>
<event>
10    2  0.1671105E-006  0.2897393E+03  0.7546771E-02  0.1090486E+00
          1   -1    0    0  503    0 -0.00000000000E+00  0.00000000000E+00  0.64001295057E+03  0.64001295057E+03  0.00000000000E+00 0. -1.
         21   -1    0    0  501  502  0.00000000000E+00 -0.00000000000E+00 -0.34298550997E+03  0.34298550997E+03  0.00000000000E+00 0. -1.
         23    2    1    2    0    0  0.28709889071E+03  0.18330136455E+03  0.30252505574E+03  0.46520998731E+03  0.94200635111E+02 0.  0.
         23    2    1    2    0    0 -0.22639093759E+03  0.35156559606E+01  0.86198410724E+02  0.25994353042E+03  0.94208579945E+02 0.  0.
        -11    1    3    3    0    0  0.27215025778E+03  0.15396483335E+03  0.29805717808E+03  0.43198265489E+03  0.00000000000E+00 0. -1.
         11    1    3    3    0    0  0.14948632922E+02  0.29336531204E+02  0.44678776593E+01  0.33227332425E+02  0.00000000000E+00 0.  1.
        -13    1    4    4    0    0 -0.17868670634E+03  0.98163693521E+01  0.10590600998E+03  0.20794562530E+03  0.00000000000E+00 0.  1.
         13    1    4    4    0    0 -0.47704231247E+02 -0.63007133915E+01 -0.19707599259E+02  0.51997905118E+02  0.00000000000E+00 0. -1.
         21    1    1    2  503  502 -0.94930787613E+01  0.23063124902E+02 -0.87651835283E+01  0.26435860434E+02  0.00000000000E+00 0. -1.
          1    1    1    2  501    0 -0.51214874358E+02 -0.20988014542E+03 -0.82930842338E+02  0.23140908238E+03  0.00000000000E+00 0. -1.
<scales pt_clust_5="13000.00000" pt_clust_6="13000.00000" pt_clust_7="13000.00000" pt_clust_8="13000.00000" pt_clust_9="24.94045" pt_clust_10="206.42497"></scales>
<clustering>
<clus scale="   24.940">  2  9  1 -1</clus>
<clus scale="   94.201">  5  6 -1 -1</clus>
<clus scale="   94.209">  7  8 -1 -1</clus>
<clus scale="  206.425">  2 10  1 -1</clus>
<clus scale="  289.737">  1  5  2 -1</clus>
<clus scale="   24.940">  2  5  1 -1</clus>
</clustering>
</event>
<event>
10    2  0.1671105E-006  0.1360194E+03  0.7546771E-02  0.1233169E+00
          2   -1    0    0  502    0 -0.00000000000E+00  0.00000000000E+00  0.49296093189E+03  0.49296093189E+03  0.00000000000E+00 0. -1.
         21   -1    0    0  503  502  0.00000000000E+00 -0.00000000000E+00 -0.62562251677E+02  0.62562251677E+02  0.00000000000E+00 0. -1.
         23    2    1    2    0    0 -0.28620275003E+01  0.39883925846E+02  0.86634908319E+02  0.13296684195E+03  0.92604832354E+02 0.  0.
         23    2    1    2    0    0  0.63074609920E+02  0.54582903347E+02  0.21771498181E+03  0.25072457280E+03  0.92224174400E+02 0.  0.
        -13    1    3    3    0    0  0.21390017387E+01  0.64726971925E+02  0.30931283118E+02  0.71769774267E+02  0.00000000000E+00 0. -1.
         13    1    3    3    0    0 -0.50010292389E+01 -0.24843046080E+02  0.55703625201E+02  0.61197067679E+02  0.00000000000E+00 0.  1.
        -13    1    4    4    0    0  0.81107917448E+01 -0.25671922845E+02  0.42181868202E+02  0.50041408556E+02  0.00000000000E+00 0.  1.
         13    1    4    4    0    0  0.54963818175E+02  0.80254826192E+02  0.17553311361E+03  0.20068316424E+03  0.00000000000E+00 0. -1.
         21    1    1    2  503  501 -0.26039537617E+02 -0.18170551913E+02  0.23379875646E+02  0.39431523701E+02  0.00000000000E+00 0. -1.
          2    1    1    2  501    0 -0.34173044803E+02 -0.76296277280E+02  0.10266891444E+03  0.13240024513E+03  0.00000000000E+00 0. -1.
<scales pt_clust_5="13000.00000" pt_clust_6="13000.00000" pt_clust_7="13000.00000" pt_clust_8="13000.00000" pt_clust_9="20.33133" pt_clust_10="105.28199"></scales>
<clustering>
<clus scale="   20.331">  9 10 -1 -1</clus>
<clus scale="   92.224">  7  8 -1 -1</clus>
<clus scale="   92.605">  5  6 -1 -1</clus>
<clus scale="  100.869">  1  5  2 -1</clus>
<clus scale="  105.282">  2  9  1 -1</clus>
<clus scale="  105.282">  2  5  1 -1</clus>
</clustering>
</event>
<event>
10    2  0.1671105E-006  0.1168763E+03  0.7546771E-02  0.1249841E+00
          1   -1    0    0  503    0 -0.00000000000E+00  0.00000000000E+00  0.26731591141E+03  0.26731591141E+03  0.00000000000E+00 0. -1.
         21   -1    0    0  501  502  0.00000000000E+00 -0.00000000000E+00 -0.36975551283E+03  0.36975551283E+03  0.00000000000E+00 0. -1.
         23    2    1    2    0    0  0.77976900274E+00  0.86436587272E+02  0.18897052356E+03  0.22763016656E+03  0.92917933101E+02 0.  0.
         23    2    1    2    0    0  0.34464956212E+02 -0.29320029172E+02  0.12534726770E+01  0.99432722203E+02  0.88531337579E+02 0.  0.
        -13    1    4    4    0    0 -0.21497165900E+01 -0.38581552265E+02  0.32439983642E+02  0.50453047433E+02  0.00000000000E+00 0.  1.
         13    1    4    4    0    0  0.36614672802E+02  0.92615230932E+01 -0.31186510965E+02  0.48979674770E+02  0.00000000000E+00 0. -1.
        -13    1    3    3    0    0 -0.14197628886E+01  0.22066068185E+02 -0.54880432689E+01  0.22782574717E+02  0.00000000000E+00 0.  1.
         13    1    3    3    0    0  0.21995318913E+01  0.64370519087E+02  0.19445856683E+03  0.20484759184E+03  0.00000000000E+00 0. -1.
         21    1    1    2  503  502 -0.52081628789E+02 -0.15679964382E+02 -0.12188707422E+03  0.13347215516E+03  0.00000000000E+00 0. -1.
          1    1    1    2  501    0  0.16836903574E+02 -0.41436593719E+02 -0.17077652344E+03  0.17653638032E+03  0.00000000000E+00 0. -1.
<scales pt_clust_5="13000.00000" pt_clust_6="13000.00000" pt_clust_7="13000.00000" pt_clust_8="13000.00000" pt_clust_9="59.25028" pt_clust_10="44.72664"></scales>
<clustering>
<clus scale="   44.727">  2 10  1 -1</clus>
<clus scale="   59.250">  2  9  1 -1</clus>
<clus scale="   88.531">  5  6 -1 -1</clus>
<clus scale="   92.918">  7  8 -1 -1</clus>
<clus scale="  113.420">  2  5  1 -1</clus>
<clus scale="   44.727">  2  5  1 -1</clus>
</clustering>
</event>
<event>
10    2  0.1671105E-006  0.2532473E+03  0.7546771E-02  0.1111303E+00
         21   -1    0    0  503  502  0.00000000000E+00  0.00000000000E+00  0.30480310578E+03  0.30480310578E+03  0.00000000000E+00 0. -1.
          1   -1    0    0  502    0 -0.00000000000E+00 -0.00000000000E+00 -0.78534809483E+03  0.78534809483E+03  0.00000000000E+00 0. -1.
         23    2    1    2    0    0 -0.12989759849E+03 -0.23657534714E+03 -0.55851624011E+03  0.62702805848E+03  0.91556074001E+02 0.  0.
         23    2    1    2    0    0 -0.29111082549E+01  0.18943133333E+03 -0.10123807212E+03  0.23327311147E+03  0.90964238524E+02 0.  0.
        -11    1    4    4    0    0  0.41549980264E+02  0.59052220492E+02 -0.29973393578E+02  0.78179088813E+02  0.00000000000E+00 0.  1.
         11    1    4    4    0    0 -0.44461088519E+02  0.13037911284E+03 -0.71264678540E+02  0.15509402266E+03  0.00000000000E+00 0. -1.
        -13    1    3    3    0    0  0.47643749026E+01 -0.54523197229E+02 -0.72413528358E+02  0.90770024752E+02  0.00000000000E+00 0.  1.
         13    1    3    3    0    0 -0.13466197339E+03 -0.18205214991E+03 -0.48610271175E+03  0.53625803372E+03  0.00000000000E+00 0. -1.
         21    1    1    2  503  501  0.49862975828E+02  0.81874897235E+01  0.47162678682E+02  0.69120688703E+02  0.00000000000E+00 0. -1.
          1    1    1    2  501    0  0.82945730913E+02  0.38956524086E+02  0.13204664449E+03  0.16072934196E+03  0.00000000000E+00 0. -1.
<scales pt_clust_5="13000.00000" pt_clust_6="13000.00000" pt_clust_7="13000.00000" pt_clust_8="13000.00000" pt_clust_9="21.70477" pt_clust_10="143.92726"></scales>
<clustering>
<clus scale="   21.705">  9 10 -1 -1</clus>
<clus scale="   90.964">  5  6 -1 -1</clus>
<clus scale="   91.556">  7  8 -1 -1</clus>
<clus scale="  143.927">  1  9  2 -1</clus>
<clus scale="  253.034">  1  5  2 -1</clus>
<clus scale="  143.927">  1  5  2 -1</clus>
</clustering>
</event>
<event>
10    2  0.1671105E-006  0.1049105E+03  0.7546771E-02  0.1273230E+00
         21   -1    0    0  503  502  0.00000000000E+00  0.00000000000E+00  0.29334238292E+03  0.29334238292E+03  0.00000000000E+00 0. -1.
         -3   -1    0    0    0  501 -0.00000000000E+00 -0.00000000000E+00 -0.21229362793E+03  0.21229362793E+03  0.00000000000E+00 0.  1.
         23    2    1    2    0    0  0.10219205738E+01  0.39824615370E+02 -0.10236054959E+03  0.14623489541E+03  0.96539723503E+02 0.  0.
         23    2    1    2    0    0  0.11526894233E+03 -0.37546855333E+02  0.16229310412E+03  0.22176180012E+03  0.90236073356E+02 0.  0.
        -11    1    3    3    0    0 -0.35899026833E+02  0.69228002544E+01 -0.87128622063E+02  0.94488422960E+02  0.00000000000E+00 0.  1.
         11    1    3    3    0    0  0.36920947407E+02  0.32901815115E+02 -0.15231927522E+02  0.51746472453E+02  0.00000000000E+00 0. -1.
        -13    1    4    4    0    0  0.22450320431E+02 -0.29790604681E+02  0.32400224028E+01  0.37443220480E+02  0.00000000000E+00 0.  1.
         13    1    4    4    0    0  0.92818621901E+02 -0.77562506510E+01  0.15905308172E+03  0.18431857964E+03  0.00000000000E+00 0. -1.
         21    1    1    2  503  501 -0.26860107202E+02  0.30580210991E+02  0.76984642065E+01  0.41423194159E+02  0.00000000000E+00 0.  1.
         -3    1    1    2    0  502 -0.89430755703E+02 -0.32857971028E+02  0.13417736248E+02  0.96216121164E+02  0.00000000000E+00 0.  1.
<scales pt_clust_5="13000.00000" pt_clust_6="13000.00000" pt_clust_7="13000.00000" pt_clust_8="13000.00000" pt_clust_9="40.70153" pt_clust_10="98.57168"></scales>
<clustering>
<clus scale="   40.702">  1  9  2 -1</clus>
<clus scale="   90.236">  7  8 -1 -1</clus>
<clus scale="   96.540">  5  6 -1 -1</clus>
<clus scale="   98.572">  1 10  2 -1</clus>
<clus scale="   99.140">  1  7  2 -1</clus>
<clus scale="   40.702">  1  5  2 -1</clus>
</clustering>
</event>
<event>
10    2  0.1671105E-006  0.1245068E+03  0.7546771E-02  0.1236145E+00
          1   -1    0    0  503    0 -0.00000000000E+00  0.00000000000E+00  0.98280100286E+03  0.98280100286E+03  0.00000000000E+00 0. -1.
         21   -1    0    0  501  502  0.00000000000E+00 -0.00000000000E+00 -0.95969588461E+02  0.95969588461E+02  0.00000000000E+00 0. -1.
         23    2    1    2    0    0  0.52815158120E+02  0.26408726408E+02  0.39554434002E+03  0.41016626721E+03  0.91072389237E+02 0.  0.
         23    2    1    2    0    0 -0.63265833132E+02 -0.12620898025E+03  0.52119355089E+03  0.54777622115E+03  0.92112966693E+02 0.  0.
        -11    1    4    4    0    0  0.21406785603E+02 -0.22740667530E+02  0.15057320616E+03  0.15377801808E+03  0.00000000000E+00 0.  1.
         11    1    4    4    0    0 -0.84672618736E+02 -0.10346831272E+03  0.37062034473E+03  0.39399820307E+03  0.00000000000E+00 0. -1.
        -13    1    3    3    0    0  0.69813770402E+02  0.42257610544E+02  0.25578406438E+03  0.26848678883E+03  0.00000000000E+00 0.  1.
         13    1    3    3    0    0 -0.16998612281E+02 -0.15848884137E+02  0.13976027564E+03  0.14167947838E+03  0.00000000000E+00 0. -1.
         21    1    1    2  503  502  0.20900339024E+02  0.11319767445E+02 -0.20223256397E+02  0.31208034312E+02  0.00000000000E+00 0. -1.
          1    1    1    2  501    0 -0.10449664012E+02  0.88480486402E+02 -0.96832201108E+01  0.89620068643E+02  0.00000000000E+00 0. -1.
<scales pt_clust_5="13000.00000" pt_clust_6="13000.00000" pt_clust_7="13000.00000" pt_clust_8="13000.00000" pt_clust_9="23.76891" pt_clust_10="96.57742"></scales>
<clustering>
<clus scale="   23.769">  2  9  1 -1</clus>
<clus scale="   91.072">  7  8 -1 -1</clus>
<clus scale="   92.113">  5  6 -1 -1</clus>
<clus scale="   96.577">  2 10  1 -1</clus>
<clus scale="  123.739">  1  7  2 -1</clus>
<clus scale="   23.769">  2  5  1 -1</clus>
</clustering>
</event>
<event>
10    2  0.1671105E-006  0.1203431E+03  0.7546771E-02  0.1242972E+00
          2   -1    0    0  503    0 -0.00000000000E+00  0.00000000000E+00  0.51315320821E+03  0.51315320821E+03  0.00000000000E+00 0. -1.
         21   -1    0    0  501  502  0.00000000000E+00 -0.00000000000E+00 -0.87865574519E+02  0.87865574519E+02  0.00000000000E+00 0.  1.
         23    2    1    2    0    0 -0.33177068822E+02 -0.30643695861E+02  0.13158139402E+03  0.16734938361E+03  0.93018272144E+02 0.  0.
         23    2    1    2    0    0  0.92786700570E+02  0.63116441358E+02  0.47535438856E+02  0.15414465664E+03  0.94381673271E+02 0.  0.
        -11    1    3    3    0    0  0.15336307540E+02  0.25060148918E+02  0.33400306975E+02  0.44483636303E+02  0.00000000000E+00 0. -1.
         11    1    3    3    0    0 -0.48513376362E+02 -0.55703844779E+02  0.98181087042E+02  0.12286574731E+03  0.00000000000E+00 0.  1.
        -11    1    4    4    0    0  0.79034226726E+02 -0.67229325680E+00  0.39621196627E+02  0.88412104344E+02  0.00000000000E+00 0.  1.
         11    1    4    4    0    0  0.13752473844E+02  0.63788734615E+02  0.79142422289E+01  0.65732552291E+02  0.00000000000E+00 0. -1.
         21    1    1    2  503  502 -0.60051458774E+00 -0.64480097330E+02  0.10527948792E+03  0.12345774235E+03  0.00000000000E+00 0.  1.
          2    1    1    2  501    0 -0.59009117161E+02  0.32007351833E+02  0.14089131289E+03  0.15606700013E+03  0.00000000000E+00 0. -1.
<scales pt_clust_5="13000.00000" pt_clust_6="13000.00000" pt_clust_7="13000.00000" pt_clust_8="13000.00000" pt_clust_9="64.48289" pt_clust_10="59.77047"></scales>
<clustering>
<clus scale="   64.483">  1  9  2 -1</clus>
<clus scale="   59.770">  2 10  1 -1</clus>
<clus scale="   93.018">  5  6 -1 -1</clus>
<clus scale="   94.382">  7  8 -1 -1</clus>
<clus scale="  119.277">  1  5  2 -1</clus>
<clus scale="   59.770">  2  5  1 -1</clus>
</clustering>
</event>
<event>
10    2  0.1671105E-006  0.2815460E+03  0.7546771E-02  0.1135973E+00
         21   -1    0    0  503  502  0.00000000000E+00  0.00000000000E+00  0.86086988578E+03  0.86086988578E+03  0.00000000000E+00 0. -1.
          2   -1    0    0  502    0 -0.00000000000E+00 -0.00000000000E+00 -0.28315728869E+03  0.28315728869E+03  0.00000000000E+00 0. -1.
         23    2    1    2    0    0  0.12641375716E+02  0.29938822369E+02 -0.15629092330E+03  0.18541503760E+03  0.94317262450E+02 0.  0.
         23    2    1    2    0    0  0.24571999442E+03 -0.64352549670E+02  0.15115315976E+03  0.31038789774E+03  0.94730159134E+02 0.  0.
        -13    1    3    3    0    0 -0.26534111382E+02  0.53271277923E+01 -0.54083716057E+01  0.27598692736E+02  0.00000000000E+00 0.  1.
         13    1    3    3    0    0  0.39175487097E+02  0.24611694576E+02 -0.15088255169E+03  0.15781634486E+03  0.00000000000E+00 0. -1.
        -13    1    4    4    0    0  0.17982319863E+03 -0.69997344744E+02  0.14971403986E+03  0.24423411876E+03  0.00000000000E+00 0. -1.
         13    1    4    4    0    0  0.65896795787E+02  0.56447950738E+01  0.14391199024E+01  0.66153778974E+02  0.00000000000E+00 0.  1.
         21    1    1    2  503  501 -0.18331997644E+03 -0.26311632638E+02  0.34577128414E+03  0.39224519973E+03  0.00000000000E+00 0. -1.
          2    1    1    2  501    0 -0.75041393692E+02  0.60725359940E+02  0.23707907649E+03  0.25597903941E+03  0.00000000000E+00 0. -1.
<scales pt_clust_5="13000.00000" pt_clust_6="13000.00000" pt_clust_7="13000.00000" pt_clust_8="13000.00000" pt_clust_9="80.86490" pt_clust_10="80.86490"></scales>
<clustering>
<clus scale="   80.865">  9 10 -1 -1</clus>
<clus scale="   94.317">  5  6 -1 -1</clus>
<clus scale="   94.730">  7  8 -1 -1</clus>
<clus scale="   99.759">  2  5  1 -1</clus>
<clus scale="  275.130">  2  7  1 -1</clus>
<clus scale="  281.546">  1  5  2 -1</clus>
</clustering>
</event>
<event>
10    2  0.1671105E-006  0.1268670E+03  0.7546771E-02  0.1241721E+00
         -1   -1    0    0    0  501 -0.00000000000E+00  0.00000000000E+00  0.31073069257E+03  0.31073069257E+03  0.00000000000E+00 0.  1.
         21   -1    0    0  503  502  0.00000000000E+00 -0.00000000000E+00 -0.13199689148E+03  0.13199689148E+03  0.00000000000E+00 0.  1.
         23    2    1    2    0    0 -0.68776544724E+02 -0.80466150604E+02  0.22511298601E+03  0.26505775254E+03  0.91513612178E+02 0.  0.
         23    2    1    2    0    0  0.55792481607E+02  0.31414842347E+02 -0.72320413145E+02  0.11185731736E+03  0.56410317896E+02 0.  0.
        -11    1    4    4    0    0  0.21079015655E+02  0.43580860195E+02 -0.44240515026E+02  0.65580785647E+02  0.00000000000E+00 0. -1.
         11    1    4    4    0    0  0.34713465952E+02 -0.12166017848E+02 -0.28079898119E+02  0.46276531709E+02  0.00000000000E+00 0.  1.
        -13    1    3    3    0    0 -0.40160727161E+02 -0.64391483042E+02  0.21886262523E+03  0.23164627305E+03  0.00000000000E+00 0.  1.
         13    1    3    3    0    0 -0.28615817563E+02 -0.16074667562E+02  0.62503607820E+01  0.33411479493E+02  0.00000000000E+00 0. -1.
         21    1    1    2  503  501 -0.40980479197E+01  0.24331500734E+02  0.25890136718E+02  0.35764718704E+02  0.00000000000E+00 0.  1.
         -1    1    1    2    0  502  0.17082111037E+02  0.24719807523E+02  0.51091505753E-01  0.30047795456E+02  0.00000000000E+00 0.  1.
<scales pt_clust_5="13000.00000" pt_clust_6="13000.00000" pt_clust_7="13000.00000" pt_clust_8="13000.00000" pt_clust_9="24.67420" pt_clust_10="31.01254"></scales>
<clustering>
<clus scale="   24.674">  1  9  2 -1</clus>
<clus scale="   31.013">  2 10  1 -1</clus>
<clus scale="   56.410">  5  6 -1 -1</clus>
<clus scale="   91.514">  7  8 -1 -1</clus>
<clus scale="  104.416">  2  5  1 -1</clus>
<clus scale="   31.013">  2  5  1 -1</clus>
</clustering>
</event>
<event>
10    2  0.1671105E-006  0.9392714E+02  0.7546771E-02  0.1295856E+00
          2   -1    0    0  503    0 -0.00000000000E+00  0.00000000000E+00  0.55203040211E+03  0.55203040211E+03  0.00000000000E+00 0. -1.
         21   -1    0    0  501  502  0.00000000000E+00 -0.00000000000E+00 -0.22403408210E+03  0.22403408210E+03  0.00000000000E+00 0. -1.
         23    2    1    2    0    0  0.31739388171E+01 -0.14871225302E+01  0.41495255087E+03  0.42459523103E+03  0.89906647797E+02 0.  0.
         23    2    1    2    0    0  0.10892561478E+02  0.23934922362E+02  0.91783729888E+02  0.13381168709E+03  0.93753859264E+02 0.  0.
        -11    1    3    3    0    0  0.43031551640E+01  0.43357866429E+02  0.24372410708E+03  0.24758808957E+03  0.00000000000E+00 0.  1.
         11    1    3    3    0    0 -0.11292163470E+01 -0.44844988959E+02  0.17122844379E+03  0.17700714146E+03  0.00000000000E+00 0. -1.
        -13    1    4    4    0    0  0.43495957661E+02  0.87420887342E+01  0.86823224052E+02  0.97501767590E+02  0.00000000000E+00 0.  1.
         13    1    4    4    0    0 -0.32603396183E+02  0.15192833628E+02  0.49605058364E+01  0.36309919505E+02  0.00000000000E+00 0. -1.
         21    1    1    2  503  502  0.25983134250E+02 -0.12986458253E+02  0.49044257569E+01  0.29458865480E+02  0.00000000000E+00 0. -1.
          2    1    1    2  501    0 -0.40049634545E+02 -0.94613415790E+01 -0.18364438651E+03  0.18819870060E+03  0.00000000000E+00 0. -1.
<scales pt_clust_5="13000.00000" pt_clust_6="13000.00000" pt_clust_7="13000.00000" pt_clust_8="13000.00000" pt_clust_9="29.04774" pt_clust_10="27.06252"></scales>
<clustering>
<clus scale="   29.048">  2  9  1 -1</clus>
<clus scale="   27.063">  2 10  1 -1</clus>
<clus scale="   89.907">  5  6 -1 -1</clus>
<clus scale="   90.087">  1  5  2 -1</clus>
<clus scale="   93.754">  7  8 -1 -1</clus>
<clus scale="   29.048">  2  5  1 -1</clus>
</clustering>
</event>
<event>
10    2  0.1671105E-006  0.9935387E+02  0.7546771E-02  0.1282022E+00
         21   -1    0    0  501  502  0.00000000000E+00  0.00000000000E+00  0.17001156546E+03  0.17001156546E+03  0.00000000000E+00 0. -1.
         -3   -1    0    0    0  501 -0.00000000000E+00 -0.00000000000E+00 -0.21924568562E+03  0.21924568562E+03  0.00000000000E+00 0.  1.
         23    2    1    2    0    0  0.20733294648E+02 -0.30603207137E+02 -0.15825253407E+03  0.18710190596E+03  0.92719107415E+02 0.  0.
         23    2    1    2    0    0 -0.54481147124E+02 -0.10365318358E+02  0.79498995751E+02  0.13363356293E+03  0.91990236441E+02 0.  0.
        -11    1    3    3    0    0 -0.14034953207E+02  0.18457965114E+02 -0.10253638082E+03  0.10512557148E+03  0.00000000000E+00 0. -1.
         11    1    3    3    0    0  0.34768247855E+02 -0.49061172250E+02 -0.55716153254E+02  0.81976334481E+02  0.00000000000E+00 0.  1.
        -11    1    4    4    0    0 -0.57745261595E+02 -0.41284705855E+02  0.73092007768E+02  0.10188907583E+03  0.00000000000E+00 0.  1.
         11    1    4    4    0    0  0.32641144704E+01  0.30919387497E+02  0.64069879826E+01  0.31744487103E+02  0.00000000000E+00 0. -1.
         21    1    1    2  503  502  0.20230030274E+02  0.43637004587E+01  0.19031745730E+02  0.28115891451E+02  0.00000000000E+00 0. -1.
         -3    1    1    2    0  503  0.13517822202E+02  0.36604825036E+02  0.10487672430E+02  0.40405890734E+02  0.00000000000E+00 0.  1.
<scales pt_clust_5="13000.00000" pt_clust_6="13000.00000" pt_clust_7="13000.00000" pt_clust_8="13000.00000" pt_clust_9="20.69531" pt_clust_10="41.06255"></scales>
<clustering>
<clus scale="   20.695">  1  9  2 -1</clus>
<clus scale="   41.063">  1 10  2 -1</clus>
<clus scale="   91.990">  7  8 -1 -1</clus>
<clus scale="   92.719">  5  6 -1 -1</clus>
<clus scale="   98.674">  1  7  2 -1</clus>
<clus scale="   20.695">  1  5  2 -1</clus>
</clustering>
</event>
<event>
10    2  0.1671105E-006  0.1121647E+03  0.7546771E-02  0.1256793E+00
         21   -1    0    0  501  502  0.00000000000E+00  0.00000000000E+00  0.14315205653E+03  0.14315205653E+03  0.00000000000E+00 0. -1.
          1   -1    0    0  503    0 -0.00000000000E+00 -0.00000000000E+00 -0.26695087765E+03  0.26695087765E+03  0.00000000000E+00 0. -1.
         23    2    1    2    0    0 -0.59057379749E+02  0.55930210565E+02 -0.14748105484E+03  0.19148652522E+03  0.91106889134E+02 0.  0.
         23    2    1    2    0    0  0.54991112210E+02  0.16536909002E+02 -0.37256529061E+02  0.11434648095E+03  0.91594633936E+02 0.  0.
        -11    1    3    3    0    0 -0.68085388112E+02  0.15598535695E+02 -0.12794998847E+03  0.14577425678E+03  0.00000000000E+00 0.  1.
         11    1    3    3    0    0  0.90280083627E+01  0.40331674870E+02 -0.19531066379E+02  0.45712268449E+02  0.00000000000E+00 0. -1.
        -11    1    4    4    0    0  0.25781249460E+02 -0.36948680855E+02 -0.27064247529E+02  0.52558075830E+02  0.00000000000E+00 0.  1.
         11    1    4    4    0    0  0.29209862750E+02  0.53485589856E+02 -0.10192281532E+02  0.61788405118E+02  0.00000000000E+00 0. -1.
         21    1    1    2  503  502 -0.17865759962E+02 -0.15910572060E+02  0.18394027963E+02  0.30177341616E+02  0.00000000000E+00 0. -1.
          1    1    1    2  501    0  0.21932027501E+02 -0.56556547507E+02  0.42544734828E+02  0.74092586389E+02  0.00000000000E+00 0. -1.
<scales pt_clust_5="13000.00000" pt_clust_6="13000.00000" pt_clust_7="13000.00000" pt_clust_8="13000.00000" pt_clust_9="23.92345" pt_clust_10="65.69560"></scales>
<clustering>
<clus scale="   23.923">  1  9  2 -1</clus>
<clus scale="   65.696">  1 10  2 -1</clus>
<clus scale="   91.107">  5  6 -1 -1</clus>
<clus scale="   91.595">  7  8 -1 -1</clus>
<clus scale="  111.767">  2  5  1 -1</clus>
<clus scale="   23.923">  1  5  2 -1</clus>
</clustering>
</event>
<event>
10    2  0.1671105E-006  0.1777199E+03  0.7546771E-02  0.1184676E+00
         -1   -1    0    0    0  501 -0.00000000000E+00  0.00000000000E+00  0.55193620552E+03  0.55193620552E+03  0.00000000000E+00 0.  1.
         21   -1    0    0  501  502  0.00000000000E+00 -0.00000000000E+00 -0.11430716125E+03  0.11430716125E+03  0.00000000000E+00 0.  1.
         23    2    1    2    0    0 -0.85743085196E+02 -0.26352681018E+02  0.22768904873E+03  0.26103737619E+03  0.90839795257E+02 0.  0.
         23    2    1    2    0    0  0.16926079658E+03 -0.67243805898E+02  0.72762328579E+02  0.21701842089E+03  0.92906898867E+02 0.  0.
        -13    1    4    4    0    0  0.58100300750E+02 -0.26421294383E+02  0.75122679091E+02  0.98575588550E+02  0.00000000000E+00 0. -1.
         13    1    4    4    0    0  0.11116049583E+03 -0.40822511515E+02 -0.23603505118E+01  0.11844283234E+03  0.00000000000E+00 0.  1.
        -13    1    3    3    0    0 -0.52609845959E+02  0.29049279577E+02  0.13813839928E+03  0.15064486016E+03  0.00000000000E+00 0. -1.
         13    1    3    3    0    0 -0.33133239236E+02 -0.55401960594E+02  0.89550649452E+02  0.11039251604E+03  0.00000000000E+00 0.  1.
         21    1    1    2  503  502 -0.41618048430E+02  0.48537038311E+02  0.48484463978E+02  0.80241194473E+02  0.00000000000E+00 0. -1.
         -1    1    1    2    0  503 -0.41899662953E+02  0.45059448605E+02  0.88693202989E+02  0.10794637521E+03  0.00000000000E+00 0.  1.
<scales pt_clust_5="13000.00000" pt_clust_6="13000.00000" pt_clust_7="13000.00000" pt_clust_8="13000.00000" pt_clust_9="28.79089" pt_clust_10="154.31796"></scales>
<clustering>
<clus scale="   28.791">  9 10 -1 -1</clus>
<clus scale="   90.840">  7  8 -1 -1</clus>
<clus scale="   92.907">  5  6 -1 -1</clus>
<clus scale="  127.664">  1  7  2 -1</clus>
<clus scale="  154.318">  2  9  1 -1</clus>
<clus scale="  154.318">  2  5  1 -1</clus>
</clustering>
</event>
<event>
10    2  0.1671105E-006  0.1627423E+03  0.7546771E-02  0.1203690E+00
         21   -1    0    0  501  502  0.00000000000E+00  0.00000000000E+00  0.19849359482E+03  0.19849359482E+03  0.00000000000E+00 0. -1.
          1   -1    0    0  503    0 -0.00000000000E+00 -0.00000000000E+00 -0.67230414044E+03  0.67230414044E+03  0.00000000000E+00 0. -1.
         23    2    1    2    0    0  0.29401625208E+02 -0.48108437679E+02 -0.58121178835E+02  0.12496541614E+03  0.95180914369E+02 0.  0.
         23    2    1    2    0    0 -0.14094186182E+03  0.11169336297E+03 -0.51045637803E+03  0.54949642022E+03  0.95081997317E+02 0.  0.
        -13    1    3    3    0    0  0.56961504377E+02 -0.17139007818E+02 -0.81553384185E+01  0.60040553916E+02  0.00000000000E+00 0.  1.
         13    1    3    3    0    0 -0.27559879169E+02 -0.30969429860E+02 -0.49965840417E+02  0.64924862220E+02  0.00000000000E+00 0. -1.
        -13    1    4    4    0    0 -0.80324964790E+02  0.11767692350E+03 -0.36207053161E+03  0.38909514023E+03  0.00000000000E+00 0. -1.
         13    1    4    4    0    0 -0.60616897031E+02 -0.59835605315E+01 -0.14838584643E+03  0.16040127999E+03  0.00000000000E+00 0.  1.
         21    1    1    2  503  502  0.18112593188E+02  0.26594868710E+02 -0.50278626300E+01  0.32567352922E+02  0.00000000000E+00 0. -1.
          1    1    1    2  501    0  0.93427643425E+02 -0.90179793998E+02  0.99794873876E+02  0.16376854598E+03  0.00000000000E+00 0. -1.
<scales pt_clust_5="13000.00000" pt_clust_6="13000.00000" pt_clust_7="13000.00000" pt_clust_8="13000.00000" pt_clust_9="32.17690" pt_clust_10="132.07747"></scales>
<clustering>
<clus scale="   32.177">  1  9  2 -1</clus>
<clus scale="   95.082">  7  8 -1 -1</clus>
<clus scale="   95.181">  5  6 -1 -1</clus>
<clus scale="  109.553">  2  5  1 -1</clus>
<clus scale="  132.077">  1 10  2 -1</clus>
<clus scale="   32.177">  1  5  2 -1</clus>
</clustering>
</event>
<event>
10    2  0.1671105E-006  0.2232132E+03  0.7546771E-02  0.1132312E+00
          2   -1    0    0  503    0 -0.00000000000E+00  0.00000000000E+00  0.51682046826E+03  0.51682046826E+03  0.00000000000E+00 0. -1.
         21   -1    0    0  501  502  0.00000000000E+00 -0.00000000000E+00 -0.64618185992E+03  0.64618185992E+03  0.00000000000E+00 0. -1.
         23    2    1    2    0    0  0.12440117935E+02 -0.19372733557E+03  0.30669897937E+03  0.37397280229E+03  0.90035303225E+02 0.  0.
         23    2    1    2    0    0  0.15338363956E+02  0.21436345132E+03  0.72190050564E+02  0.24783613633E+03  0.10012188770E+03 0.  0.
        -11    1    3    3    0    0 -0.36809815783E+02 -0.84389336626E+02  0.15888591157E+03  0.18363348161E+03  0.00000000000E+00 0.  1.
         11    1    3    3    0    0  0.49249933718E+02 -0.10933799894E+03  0.14781306780E+03  0.19033932068E+03  0.00000000000E+00 0. -1.
        -11    1    4    4    0    0 -0.33921822211E+02  0.15528461873E+03  0.60305530643E+02  0.17000223487E+03  0.00000000000E+00 0. -1.
         11    1    4    4    0    0  0.49260186167E+02  0.59078832599E+02  0.11884519921E+02  0.77833901458E+02  0.00000000000E+00 0.  1.
         21    1    1    2  503  502 -0.80613889719E+02 -0.28706729967E+02 -0.10996466397E+03  0.13933737074E+03  0.00000000000E+00 0.  1.
          2    1    1    2  501    0  0.52835407828E+02  0.80706142067E+01 -0.39828575763E+03  0.40185601882E+03  0.00000000000E+00 0. -1.
<scales pt_clust_5="13000.00000" pt_clust_6="13000.00000" pt_clust_7="13000.00000" pt_clust_8="13000.00000" pt_clust_9="59.21416" pt_clust_10="53.44825"></scales>
<clustering>
<clus scale="   53.448">  2 10  1 -1</clus>
<clus scale="   59.214">  2  9  1 -1</clus>
<clus scale="   90.035">  5  6 -1 -1</clus>
<clus scale="  100.122">  7  8 -1 -1</clus>
<clus scale="  218.875">  1  5  2 -1</clus>
<clus scale="   53.448">  2  5  1 -1</clus>
</clustering>
</event>
<event>
10    2  0.1671105E-006  0.1287225E+03  0.7546771E-02  0.1229460E+00
         21   -1    0    0  503  502  0.00000000000E+00  0.00000000000E+00  0.23755343002E+03  0.23755343002E+03  0.00000000000E+00 0. -1.
         -1   -1    0    0    0  501 -0.00000000000E+00 -0.00000000000E+00 -0.24007260436E+03  0.24007260436E+03  0.00000000000E+00 0.  1.
         23    2    1    2    0    0 -0.34005859951E+01  0.42702384050E+02 -0.82203009736E+02  0.12995909229E+03  0.91087722945E+02 0.  0.
         23    2    1    2    0    0  0.10043725556E+03 -0.13072632046E+03  0.21513135861E+02  0.18974343230E+03  0.91448028522E+02 0.  0.
        -11    1    3    3    0    0 -0.24877552294E+02 -0.21450776392E+02 -0.30313157182E+02  0.44698052690E+02  0.00000000000E+00 0.  1.
         11    1    3    3    0    0  0.21476966299E+02  0.64153160442E+02 -0.51889852554E+02  0.85261039603E+02  0.00000000000E+00 0. -1.
        -11    1    4    4    0    0  0.32612171299E+02 -0.51994519943E+02 -0.35815051732E+02  0.71061253517E+02  0.00000000000E+00 0.  1.
         11    1    4    4    0    0  0.67825084262E+02 -0.78731800515E+02  0.57328187592E+02  0.11868217878E+03  0.00000000000E+00 0. -1.
         21    1    1    2  503  501 -0.42900599610E+02  0.33924376960E+02 -0.97997936442E+01  0.55564023923E+02  0.00000000000E+00 0.  1.
         -1    1    1    2    0  502 -0.54136069956E+02  0.54099559448E+02  0.67970493180E+02  0.10235948586E+03  0.00000000000E+00 0.  1.
<scales pt_clust_5="13000.00000" pt_clust_6="13000.00000" pt_clust_7="13000.00000" pt_clust_8="13000.00000" pt_clust_9="54.69301" pt_clust_10="81.03992"></scales>
<clustering>
<clus scale="   54.693">  2  9  1 -1</clus>
<clus scale="   81.040">  1 10  2 -1</clus>
<clus scale="   91.088">  5  6 -1 -1</clus>
<clus scale="   91.448">  7  8 -1 -1</clus>
<clus scale="  128.467">  2  5  1 -1</clus>
<clus scale="   81.040">  1  5  2 -1</clus>
</clustering>
</event>
<event>
10    2  0.1671105E-006  0.1948426E+03  0.7546771E-02  0.1168069E+00
         21   -1    0    0  501  502  0.00000000000E+00  0.00000000000E+00  0.22824950884E+03  0.22824950884E+03  0.00000000000E+00 0.  1.
          1   -1    0    0  503    0 -0.00000000000E+00 -0.00000000000E+00 -0.11853366149E+04  0.11853366149E+04  0.00000000000E+00 0. -1.
         23    2    1    2    0    0 -0.19859097837E+02  0.79623571537E+02 -0.29506268171E+03  0.32018879288E+03  0.93405460417E+02 0.  0.
         23    2    1    2    0    0  0.18566749772E+03 -0.30664653914E+02  0.14749733821E+03  0.24955748591E+03  0.71489392807E+02 0.  0.
        -11    1    4    4    0    0  0.15619830131E+03 -0.47111398456E+02  0.14001011295E+03  0.21498889489E+03  0.00000000000E+00 0.  1.
         11    1    4    4    0    0  0.29469196405E+02  0.16446744542E+02  0.74872252617E+01  0.34568591017E+02  0.00000000000E+00 0. -1.
        -13    1    3    3    0    0  0.83577287519E+01  0.86497939994E+02 -0.26272592520E+03  0.27672487605E+03  0.00000000000E+00 0. -1.
         13    1    3    3    0    0 -0.28216826589E+02 -0.68743684573E+01 -0.32336756512E+02  0.43463916830E+02  0.00000000000E+00 0.  1.
         21    1    1    2  503  502 -0.41588349153E+02  0.59110421894E+02 -0.28885692959E+03  0.29776158002E+03  0.00000000000E+00 0. -1.
          1    1    1    2  501    0 -0.12422005073E+03 -0.10806933952E+03 -0.52066483296E+03  0.54607826493E+03  0.00000000000E+00 0. -1.
<scales pt_clust_5="13000.00000" pt_clust_6="13000.00000" pt_clust_7="13000.00000" pt_clust_8="13000.00000" pt_clust_9="72.27470" pt_clust_10="181.25375"></scales>
<clustering>
<clus scale="   71.489">  5  6 -1 -1</clus>
<clus scale="   72.275">  2  9  1 -1</clus>
<clus scale="   93.405">  7  8 -1 -1</clus>
<clus scale="  141.053">  2  7  1 -1</clus>
<clus scale="  181.254">  1 10  2 -1</clus>
<clus scale="  181.254">  1  5  2 -1</clus>
</clustering>
</event>
<event>
10    2  0.1671105E-006  0.1061158E+03  0.7546771E-02  0.1270478E+00
         21   -1    0    0  503  502  0.00000000000E+00  0.00000000000E+00  0.28830946805E+03  0.28830946805E+03  0.00000000000E+00 0. -1.
          1   -1    0    0  502    0 -0.00000000000E+00 -0.00000000000E+00 -0.13122865583E+03  0.13122865583E+03  0.00000000000E+00 0. -1.
         23    2    1    2    0    0  0.20138382538E+02 -0.25730066176E+01 -0.23954219739E+02  0.10212649482E+03  0.97179429336E+02 0.  0.
         23    2    1    2    0    0 -0.74337367231E+02 -0.19161932720E+02 -0.54139735726E+01  0.11962782585E+03  0.91587563433E+02 0.  0.
        -13    1    4    4    0    0 -0.43177754543E+02 -0.46757740655E+02  0.24683552748E+02  0.68263332579E+02  0.00000000000E+00 0. -1.
         13    1    4    4    0    0 -0.31159612689E+02  0.27595807935E+02 -0.30097526321E+02  0.51364493272E+02  0.00000000000E+00 0.  1.
        -13    1    3    3    0    0  0.44079511471E+02  0.30402850158E+02  0.23924144283E+01  0.53600935402E+02  0.00000000000E+00 0.  1.
         13    1    3    3    0    0 -0.23941128933E+02 -0.32975856775E+02 -0.26346634167E+02  0.48525559415E+02  0.00000000000E+00 0. -1.
         21    1    1    2  503  501  0.20474557925E+02  0.23111873924E+02  0.69257134594E+02  0.75828206695E+02  0.00000000000E+00 0.  1.
          1    1    1    2  501    0  0.33724426769E+02 -0.13769345861E+01  0.11719187093E+03  0.12195559652E+03  0.00000000000E+00 0. -1.
<scales pt_clust_5="13000.00000" pt_clust_6="13000.00000" pt_clust_7="13000.00000" pt_clust_8="13000.00000" pt_clust_9="29.40616" pt_clust_10="65.99395"></scales>
<clustering>
<clus scale="   29.406">  9 10 -1 -1</clus>
<clus scale="   65.994">  1  9  2 -1</clus>
<clus scale="   91.588">  5  6 -1 -1</clus>
<clus scale="   97.179">  7  8 -1 -1</clus>
<clus scale="  101.020">  1  5  2 -1</clus>
<clus scale="   65.994">  1  5  2 -1</clus>
</clustering>
</event>
<event>
10    2  0.1671105E-006  0.1640601E+03  0.7546771E-02  0.1204820E+00
         21   -1    0    0  503  502  0.00000000000E+00  0.00000000000E+00  0.38928473564E+02  0.38928473564E+02  0.00000000000E+00 0.  1.
          2   -1    0    0  502    0 -0.00000000000E+00 -0.00000000000E+00 -0.13383535530E+04  0.13383535530E+04  0.00000000000E+00 0. -1.
         23    2    1    2    0    0 -0.23240805231E+02  0.35070580689E+02 -0.23804043542E+03  0.25838622811E+03  0.91269454499E+02 0.  0.
         23    2    1    2    0    0  0.96379692843E+02 -0.14857915738E+03 -0.60507690060E+03  0.63691050205E+03  0.90399783097E+02 0.  0.
        -11    1    3    3    0    0  0.30019678171E+02  0.13210715519E+02 -0.37856902539E+02  0.50088413349E+02  0.00000000000E+00 0.  1.
         11    1    3    3    0    0 -0.53260483403E+02  0.21859865171E+02 -0.20018353288E+03  0.20829781476E+03  0.00000000000E+00 0. -1.
        -13    1    4    4    0    0  0.61407264538E+02 -0.11686999183E+03 -0.54358710631E+03  0.55938930029E+03  0.00000000000E+00 0.  1.
         13    1    4    4    0    0  0.34972428305E+02 -0.31709165550E+02 -0.61489794294E+02  0.77521201769E+02  0.00000000000E+00 0. -1.
         21    1    1    2  503  501 -0.81619161545E+01  0.27311818620E+02 -0.26815262701E+02  0.39135797237E+02  0.00000000000E+00 0.  1.
          2    1    1    2  501    0 -0.64976971457E+02  0.86196758068E+02 -0.42949248074E+03  0.44284949919E+03  0.00000000000E+00 0. -1.
<scales pt_clust_5="13000.00000" pt_clust_6="13000.00000" pt_clust_7="13000.00000" pt_clust_8="13000.00000" pt_clust_9="28.50530" pt_clust_10="136.90733"></scales>
<clustering>
<clus scale="   28.505">  1  9  2 -1</clus>
<clus scale="   90.400">  7  8 -1 -1</clus>
<clus scale="   91.269">  5  6 -1 -1</clus>
<clus scale="  104.360">  2  5  1 -1</clus>
<clus scale="  136.907">  1 10  2 -1</clus>
<clus scale="   28.505">  1  5  2 -1</clus>
</clustering>
</event>
<event>
10    2  0.1671105E-006  0.9871623E+02  0.7546771E-02  0.1284668E+00
          1   -1    0    0  503    0 -0.00000000000E+00  0.00000000000E+00  0.61342136356E+03  0.61342136356E+03  0.00000000000E+00 0. -1.
         21   -1    0    0  501  502  0.00000000000E+00 -0.00000000000E+00 -0.68032576497E+02  0.68032576497E+02  0.00000000000E+00 0. -1.
         23    2    1    2    0    0 -0.43961135441E+02 -0.21059583594E+02  0.43915197499E+03  0.45064130128E+03  0.88583507466E+02 0.  0.
         23    2    1    2    0    0  0.35670011618E+02 -0.23443066005E+02  0.93197294535E+02  0.13328694858E+03  0.85192416794E+02 0.  0.
        -11    1    4    4    0    0  0.15329053413E+02 -0.46529246285E+02  0.89848633678E+02  0.10233634551E+03  0.00000000000E+00 0. -1.
         11    1    4    4    0    0  0.20340958205E+02  0.23086180280E+02  0.33486608571E+01  0.30950603066E+02  0.00000000000E+00 0.  1.
        -13    1    3    3    0    0 -0.68341507392E+02 -0.34613859041E+01  0.34781167330E+03  0.35447919954E+03  0.00000000000E+00 0. -1.
         13    1    3    3    0    0  0.24380371951E+02 -0.17598197690E+02  0.91340301687E+02  0.96162101738E+02  0.00000000000E+00 0.  1.
         21    1    1    2  503  502 -0.11937390401E+02  0.38624781520E+02  0.44208244142E+02  0.59906125623E+02  0.00000000000E+00 0.  1.
          1    1    1    2  501    0  0.20228514225E+02  0.58778680787E+01 -0.31168726602E+02  0.37619564576E+02  0.00000000000E+00 0. -1.
<scales pt_clust_5="13000.00000" pt_clust_6="13000.00000" pt_clust_7="13000.00000" pt_clust_8="13000.00000" pt_clust_9="40.64226" pt_clust_10="21.06519"></scales>
<clustering>
<clus scale="   21.065">  2 10  1 -1</clus>
<clus scale="   40.642">  2  9  1 -1</clus>
<clus scale="   85.192">  5  6 -1 -1</clus>
<clus scale="   88.584">  7  8 -1 -1</clus>
<clus scale="   95.685">  2  5  1 -1</clus>
<clus scale="   21.065">  2  5  1 -1</clus>
</clustering>
</event>
<event>
10    2  0.1671105E-006  0.2842858E+03  0.7546771E-02  0.1093448E+00
         21   -1    0    0  501  502  0.00000000000E+00  0.00000000000E+00  0.13543814814E+04  0.13543814814E+04  0.00000000000E+00 0. -1.
          1   -1    0    0  503    0 -0.00000000000E+00 -0.00000000000E+00 -0.13836684443E+03  0.13836684443E+03  0.00000000000E+00 0. -1.
         23    2    1    2    0    0 -0.42559834886E+01 -0.29993644351E+03  0.26897540155E+03  0.41285830923E+03  0.90134529012E+02 0.  0.
         23    2    1    2    0    0  0.14400445194E+03  0.21555579928E+03  0.31615568284E+03  0.41905563387E+03  0.91932712920E+02 0.  0.
        -13    1    3    3    0    0 -0.19431401421E+02 -0.10650792669E+02  0.30165921201E+02  0.37429955217E+02  0.00000000000E+00 0.  1.
         13    1    3    3    0    0  0.15175417932E+02 -0.28928565084E+03  0.23880948034E+03  0.37542835401E+03  0.00000000000E+00 0. -1.
        -13    1    4    4    0    0  0.43254185574E+02  0.60280059492E+02  0.16196338489E+03  0.17814810745E+03  0.00000000000E+00 0.  1.
         13    1    4    4    0    0  0.10075026637E+03  0.15527573979E+03  0.15419229794E+03  0.24090752642E+03  0.00000000000E+00 0. -1.
         21    1    1    2  503  502  0.12126117320E+01 -0.20467832124E+02  0.52620136133E+02  0.56473722259E+02  0.00000000000E+00 0. -1.
          1    1    1    2  501    0 -0.14096108018E+03  0.10484847635E+03  0.57826341650E+03  0.60436066052E+03  0.00000000000E+00 0. -1.
<scales pt_clust_5="13000.00000" pt_clust_6="13000.00000" pt_clust_7="13000.00000" pt_clust_8="13000.00000" pt_clust_9="20.50372" pt_clust_10="169.82993"></scales>
<clustering>
<clus scale="   20.504">  1  9  2 -1</clus>
<clus scale="   90.135">  5  6 -1 -1</clus>
<clus scale="   91.933">  7  8 -1 -1</clus>
<clus scale="  169.830">  1 10  2 -1</clus>
<clus scale="  283.709">  2  5  1 -1</clus>
<clus scale="   20.504">  1  5  2 -1</clus>
</clustering>
</event>
<event>
10    2  0.1671105E-006  0.3082947E+03  0.7546771E-02  0.1081372E+00
          2   -1    0    0  503    0 -0.00000000000E+00  0.00000000000E+00  0.64762755403E+03  0.64762755403E+03  0.00000000000E+00 0. -1.
         21   -1    0    0  501  502  0.00000000000E+00 -0.00000000000E+00 -0.33780827671E+03  0.33780827671E+03  0.00000000000E+00 0. -1.
         23    2    1    2    0    0  0.20368758695E+03  0.30814443878E+03  0.33373891037E+03  0.50655030753E+03  0.93647880572E+02 0.  0.
         23    2    1    2    0    0 -0.96101830579E+02 -0.19427761366E+03  0.48323998879E+02  0.23882306166E+03  0.87874301716E+02 0.  0.
        -11    1    4    4    0    0  0.11811404867E+00 -0.63801235857E+02 -0.13681216594E+02  0.65251722853E+02  0.00000000000E+00 0.  1.
         11    1    4    4    0    0 -0.96219944627E+02 -0.13047637781E+03  0.62005215473E+02  0.17357133881E+03  0.00000000000E+00 0. -1.
        -13    1    3    3    0    0  0.17005072875E+03  0.19533644557E+03  0.26352289351E+03  0.36948327800E+03  0.00000000000E+00 0. -1.
         13    1    3    3    0    0  0.33636858207E+02  0.11280799321E+03  0.70216016860E+02  0.13706702953E+03  0.00000000000E+00 0.  1.
         21    1    1    2  503  502 -0.43452172535E+00 -0.31106926050E+02  0.49183588599E+02  0.58196692731E+02  0.00000000000E+00 0.  1.
          2    1    1    2  501    0 -0.10715123465E+03 -0.82759899063E+02 -0.12142722053E+03  0.18186576881E+03  0.00000000000E+00 0. -1.
<scales pt_clust_5="13000.00000" pt_clust_6="13000.00000" pt_clust_7="13000.00000" pt_clust_8="13000.00000" pt_clust_9="31.10996" pt_clust_10="136.38109"></scales>
<clustering>
<clus scale="   31.110">  1  9  2 -1</clus>
<clus scale="   87.874">  5  6 -1 -1</clus>
<clus scale="   93.648">  7  8 -1 -1</clus>
<clus scale="  136.381">  2 10  1 -1</clus>
<clus scale="  306.590">  2  5  1 -1</clus>
<clus scale="  136.381">  2  5  1 -1</clus>
</clustering>
</event>
<event>
10    2  0.1671105E-006  0.1603803E+03  0.7546771E-02  0.1199050E+00
         -4   -1    0    0    0  501 -0.00000000000E+00  0.00000000000E+00  0.11578627862E+04  0.11578627862E+04  0.00000000000E+00 0.  1.
         21   -1    0    0  503  502  0.00000000000E+00 -0.00000000000E+00 -0.53665112755E+02  0.53665112755E+02  0.00000000000E+00 0.  1.
         23    2    1    2    0    0  0.80065890398E+02 -0.54707519169E+02  0.49292880831E+03  0.51012412834E+03  0.88568373514E+02 0.  0.
         23    2    1    2    0    0  0.10082613526E+03  0.52774911811E+02  0.28494450392E+03  0.32028057425E+03  0.91843209094E+02 0.  0.
        -11    1    4    4    0    0 -0.12737049856E+02  0.16949278361E+02  0.17383136605E+02  0.27416854565E+02  0.00000000000E+00 0. -1.
         11    1    4    4    0    0  0.11356318511E+03  0.35825633450E+02  0.26756136732E+03  0.29286371968E+03  0.00000000000E+00 0.  1.
        -11    1    3    3    0    0  0.99028548612E+01  0.17634309380E+02  0.28874361758E+02  0.35252860432E+02  0.00000000000E+00 0. -1.
         11    1    3    3    0    0  0.70163035537E+02 -0.72341828549E+02  0.46405444656E+03  0.47487126791E+03  0.00000000000E+00 0.  1.
         21    1    1    2  503  501 -0.25740332001E+02  0.24273044772E+02  0.32214587195E+02  0.47848981412E+02  0.00000000000E+00 0.  1.
         -4    1    1    2    0  502 -0.15515169365E+03 -0.22340437414E+02  0.29410977402E+03  0.33327421497E+03  0.00000000000E+00 0.  1.
<scales pt_clust_5="13000.00000" pt_clust_6="13000.00000" pt_clust_7="13000.00000" pt_clust_8="13000.00000" pt_clust_9="35.38001" pt_clust_10="131.47884"></scales>
<clustering>
<clus scale="   35.380">  2  9  1 -1</clus>
<clus scale="   88.568">  7  8 -1 -1</clus>
<clus scale="   91.843">  5  6 -1 -1</clus>
<clus scale="  126.573">  1  7  2 -1</clus>
<clus scale="  131.479">  2 10  1 -1</clus>
<clus scale="   35.380">  2  5  1 -1</clus>
</clustering>
</event>
<event>
10    2  0.1671105E-006  0.4348556E+03  0.7546771E-02  0.1050324E+00
         -3   -1    0    0    0  501 -0.00000000000E+00  0.00000000000E+00  0.92867580387E+03  0.92867580387E+03  0.00000000000E+00 0.  1.
         21   -1    0    0  501  502  0.00000000000E+00 -0.00000000000E+00 -0.39737941768E+03  0.39737941768E+03  0.00000000000E+00 0. -1.
         23    2    1    2    0    0  0.18333893328E+03  0.15841454189E+03  0.28412155086E+03  0.38379374456E+03  0.88680613230E+02 0.  0.
         23    2    1    2    0    0 -0.50100686372E+03 -0.83129991413E+02 -0.22645801605E+02  0.51642239519E+03  0.90888860476E+02 0.  0.
        -13    1    4    4    0    0 -0.15077156397E+02 -0.17449518399E+02 -0.11913607793E+02  0.25956509550E+02  0.00000000000E+00 0.  1.
         13    1    4    4    0    0 -0.48592970732E+03 -0.65680473014E+02 -0.10732193811E+02  0.49046588564E+03  0.00000000000E+00 0. -1.
        -13    1    3    3    0    0  0.13918234293E+03  0.83025699631E+02  0.13483713478E+03  0.21082230503E+03  0.00000000000E+00 0. -1.
         13    1    3    3    0    0  0.44156590347E+02  0.75388842255E+02  0.14928441608E+03  0.17297143953E+03  0.00000000000E+00 0.  1.
         21    1    1    2  503  502  0.99368042071E+02 -0.24473194751E+02  0.11201032623E+03  0.15172098809E+03  0.00000000000E+00 0.  1.
         -3    1    1    2    0  503  0.21829988837E+03 -0.50811355721E+02  0.15781031071E+03  0.27411809371E+03  0.00000000000E+00 0.  1.
<scales pt_clust_5="13000.00000" pt_clust_6="13000.00000" pt_clust_7="13000.00000" pt_clust_8="13000.00000" pt_clust_9="29.87743" pt_clust_10="427.54398"></scales>
<clustering>
<clus scale="   29.877">  9 10 -1 -1</clus>
<clus scale="   88.681">  7  8 -1 -1</clus>
<clus scale="   90.889">  5  6 -1 -1</clus>
<clus scale="  258.017">  1  7  2 -1</clus>
<clus scale="  427.544">  2  9  1 -1</clus>
<clus scale="  427.544">  2  5  1 -1</clus>
</clustering>
</event>
<event>
10    2  0.1671105E-006  0.1171336E+03  0.7546771E-02  0.1254446E+00
          3   -1    0    0  503    0 -0.00000000000E+00  0.00000000000E+00  0.11605047645E+03  0.11605047645E+03  0.00000000000E+00 0. -1.
         21   -1    0    0  501  502  0.00000000000E+00 -0.00000000000E+00 -0.31408948972E+03  0.31408948972E+03  0.00000000000E+00 0.  1.
         23    2    1    2    0    0  0.56893384795E+01  0.21403982278E+02 -0.13197985599E+02  0.92725086324E+02  0.89068826085E+02 0.  0.
         23    2    1    2    0    0 -0.46143920079E+02 -0.78315639313E+02 -0.18184250063E+02  0.14027833061E+03  0.10528410311E+03 0.  0.
        -11    1    4    4    0    0 -0.75458506672E+02 -0.32015679854E+02 -0.23363921102E+02  0.85234164482E+02  0.00000000000E+00 0.  1.
         11    1    4    4    0    0  0.29314586593E+02 -0.46299959459E+02  0.51796710392E+01  0.55044166132E+02  0.00000000000E+00 0. -1.
        -13    1    3    3    0    0 -0.30485331661E+02  0.18594537406E+02  0.22189933764E+02  0.42041710577E+02  0.00000000000E+00 0.  1.
         13    1    3    3    0    0  0.36174670140E+02  0.28094448719E+01 -0.35387919363E+02  0.50683375747E+02  0.00000000000E+00 0. -1.
         21    1    1    2  503  502 -0.12655443136E+02  0.26967979567E+02 -0.14322155395E+02  0.33053839385E+02  0.00000000000E+00 0. -1.
          3    1    1    2  501    0  0.53110024735E+02  0.29943677468E+02 -0.15233462221E+03  0.16408270985E+03  0.00000000000E+00 0. -1.
<scales pt_clust_5="13000.00000" pt_clust_6="13000.00000" pt_clust_7="13000.00000" pt_clust_8="13000.00000" pt_clust_9="29.78980" pt_clust_10="61.11381"></scales>
<clustering>
<clus scale="   29.790">  1  9  2 -1</clus>
<clus scale="   61.114">  2 10  1 -1</clus>
<clus scale="   89.069">  7  8 -1 -1</clus>
<clus scale="  102.805">  1  7  2 -1</clus>
<clus scale="  105.284">  5  6 -1 -1</clus>
<clus scale="   61.114">  2  5  1 -1</clus>
</clustering>
</event>
<event>
10    2  0.1671105E-006  0.1125441E+03  0.7546771E-02  0.1259377E+00
          3   -1    0    0  502    0 -0.00000000000E+00  0.00000000000E+00  0.13509425944E+03  0.13509425944E+03  0.00000000000E+00 0.  1.
         21   -1    0    0  503  502  0.00000000000E+00 -0.00000000000E+00 -0.25195180411E+03  0.25195180411E+03  0.00000000000E+00 0. -1.
         23    2    1    2    0    0 -0.76205765895E+02 -0.23996056665E+02  0.41411855278E+02  0.12377839702E+03  0.84988354027E+02 0.  0.
         23    2    1    2    0    0  0.11918389968E+02 -0.24149040540E+02 -0.11060994185E+03  0.14762719240E+03  0.93989385149E+02 0.  0.
        -11    1    4    4    0    0  0.13527377322E+02  0.16032866076E+02  0.79497529240E+01  0.22433040440E+02  0.00000000000E+00 0.  1.
         11    1    4    4    0    0 -0.16089873542E+01 -0.40181906616E+02 -0.11855969477E+03  0.12519415196E+03  0.00000000000E+00 0. -1.
        -13    1    3    3    0    0  0.12260011989E+02 -0.24476998658E+02  0.16110143843E+02  0.31764258089E+02  0.00000000000E+00 0.  1.
         13    1    3    3    0    0 -0.88465777884E+02  0.48094199310E+00  0.25301711435E+02  0.92014138932E+02  0.00000000000E+00 0. -1.
         21    1    1    2  503  501 -0.10467947948E+02  0.24812052017E+02 -0.14637733665E+02  0.30650923418E+02  0.00000000000E+00 0. -1.
          3    1    1    2  501    0  0.74755323876E+02  0.23333045189E+02 -0.33021724440E+02  0.84989550713E+02  0.00000000000E+00 0.  1.
<scales pt_clust_5="13000.00000" pt_clust_6="13000.00000" pt_clust_7="13000.00000" pt_clust_8="13000.00000" pt_clust_9="26.92983" pt_clust_10="77.94890"></scales>
<clustering>
<clus scale="   26.930">  2  9  1 -1</clus>
<clus scale="   77.949">  2 10  1 -1</clus>
<clus scale="   84.988">  7  8 -1 -1</clus>
<clus scale="   93.989">  5  6 -1 -1</clus>
<clus scale="  105.144">  1  7  2 -1</clus>
<clus scale="   26.930">  2  5  1 -1</clus>
</clustering>
</event>
<event>
10    2  0.1671105E-006  0.9457346E+02  0.7546771E-02  0.1292256E+00
         21   -1    0    0  503  502  0.00000000000E+00  0.00000000000E+00  0.44391210185E+02  0.44391210185E+02  0.00000000000E+00 0. -1.
          4   -1    0    0  502    0 -0.00000000000E+00 -0.00000000000E+00 -0.63024707985E+03  0.63024707985E+03  0.00000000000E+00 0. -1.
         23    2    1    2    0    0  0.89016963980E+01 -0.26620022398E+02 -0.36984369401E+03  0.38193021170E+03  0.91095899046E+02 0.  0.
         23    2    1    2    0    0 -0.59592282549E+02 -0.30907986382E+02 -0.14684978817E+03  0.18549574690E+03  0.91308641819E+02 0.  0.
        -13    1    4    4    0    0  0.12477932118E+02  0.18993471571E+02 -0.15231908433E+02  0.27358029658E+02  0.00000000000E+00 0.  1.
         13    1    4    4    0    0 -0.72070214667E+02 -0.49901457954E+02 -0.13161787974E+03  0.15813771724E+03  0.00000000000E+00 0. -1.
        -13    1    3    3    0    0 -0.19937505971E+02  0.22446932159E+02 -0.62206384535E+02  0.69072448810E+02  0.00000000000E+00 0.  1.
         13    1    3    3    0    0  0.28839202369E+02 -0.49066954557E+02 -0.30763730947E+03  0.31285776289E+03  0.00000000000E+00 0. -1.
         21    1    1    2  503  501  0.34558904181E+02  0.20887289183E+02 -0.24494208334E+02  0.47228835995E+02  0.00000000000E+00 0. -1.
          4    1    1    2  501    0  0.16131681970E+02  0.36640719598E+02 -0.44668179146E+02  0.59983495430E+02  0.00000000000E+00 0. -1.
<scales pt_clust_5="13000.00000" pt_clust_6="13000.00000" pt_clust_7="13000.00000" pt_clust_8="13000.00000" pt_clust_9="28.72128" pt_clust_10="81.92099"></scales>
<clustering>
<clus scale="   28.721">  9 10 -1 -1</clus>
<clus scale="   81.921">  1  9  2 -1</clus>
<clus scale="   91.096">  7  8 -1 -1</clus>
<clus scale="   91.309">  5  6 -1 -1</clus>
<clus scale="   94.368">  2  7  1 -1</clus>
<clus scale="   81.921">  1  5  2 -1</clus>
</clustering>
</event>
<event>
10    2  0.1671105E-006  0.1113394E+03  0.7546771E-02  0.1258849E+00
         -3   -1    0    0    0  501 -0.00000000000E+00  0.00000000000E+00  0.33633038688E+03  0.33633038688E+03  0.00000000000E+00 0.  1.
         21   -1    0    0  503  502  0.00000000000E+00 -0.00000000000E+00 -0.12971611678E+03  0.12971611678E+03  0.00000000000E+00 0. -1.
         23    2    1    2    0    0  0.50587591787E+02 -0.14368759509E+02  0.20897433971E+03  0.23347735554E+03  0.89865650835E+02 0.  0.
         23    2    1    2    0    0 -0.10543738127E+03  0.51420109704E+02  0.25912271819E+02  0.15120946536E+03  0.91824765355E+02 0.  0.
        -11    1    4    4    0    0 -0.10201135682E+03  0.73715634886E+02  0.17199624620E+02  0.12702810254E+03  0.00000000000E+00 0. -1.
         11    1    4    4    0    0 -0.34260244456E+01 -0.22295525182E+02  0.87126471988E+01  0.24181362820E+02  0.00000000000E+00 0.  1.
        -13    1    3    3    0    0  0.22668483408E+02 -0.38829876292E+02  0.18231319875E+03  0.18777572226E+03  0.00000000000E+00 0.  1.
         13    1    3    3    0    0  0.27919108379E+02  0.24461116784E+02  0.26661140962E+02  0.45701633279E+02  0.00000000000E+00 0. -1.
         21    1    1    2  503  501  0.54354175603E+01 -0.22948424596E+02 -0.20605258189E+01  0.23673185721E+02  0.00000000000E+00 0.  1.
         -3    1    1    2    0  502  0.49414371922E+02 -0.14102925599E+02 -0.26211815618E+02  0.57686497041E+02  0.00000000000E+00 0.  1.
<scales pt_clust_5="13000.00000" pt_clust_6="13000.00000" pt_clust_7="13000.00000" pt_clust_8="13000.00000" pt_clust_9="23.58334" pt_clust_10="56.01407"></scales>
<clustering>
<clus scale="   23.583">  2  9  1 -1</clus>
<clus scale="   56.014">  2 10  1 -1</clus>
<clus scale="   89.866">  7  8 -1 -1</clus>
<clus scale="   91.825">  5  6 -1 -1</clus>
<clus scale="  109.729">  1  7  2 -1</clus>
<clus scale="   23.583">  2  5  1 -1</clus>
</clustering>
</event>
<event>
10    2  0.1671105E-006  0.1472891E+03  0.7546771E-02  0.1204213E+00
          1   -1    0    0  503    0 -0.00000000000E+00  0.00000000000E+00  0.10761073253E+03  0.10761073253E+03  0.00000000000E+00 0. -1.
         21   -1    0    0  501  502  0.00000000000E+00 -0.00000000000E+00 -0.32546022923E+03  0.32546022923E+03  0.00000000000E+00 0. -1.
         23    2    1    2    0    0  0.94557610327E+02 -0.15461929019E+02 -0.54782450395E+02  0.14331847844E+03  0.91426782031E+02 0.  0.
         23    2    1    2    0    0 -0.14078311616E+03  0.36169244656E+02 -0.12524310736E+03  0.21334257071E+03  0.93279775303E+02 0.  0.
        -11    1    3    3    0    0  0.60070204523E+01 -0.40074491961E+02 -0.16163866300E+02  0.43627053240E+02  0.00000000000E+00 0. -1.
         11    1    3    3    0    0  0.88550589875E+02  0.24612562941E+02 -0.38618584095E+02  0.99691425204E+02  0.00000000000E+00 0.  1.
        -13    1    4    4    0    0 -0.28176025581E+02 -0.24547823518E+02 -0.48762288207E+01  0.37686359131E+02  0.00000000000E+00 0.  1.
         13    1    4    4    0    0 -0.11260709057E+03  0.60717068175E+02 -0.12036687854E+03  0.17565621158E+03  0.00000000000E+00 0. -1.
         21    1    1    2  503  502  0.12279299164E+02 -0.24713540955E+02 -0.31090661823E+02  0.41571258666E+02  0.00000000000E+00 0. -1.
          1    1    1    2  501    0  0.33946206665E+02  0.40062253185E+01 -0.67332771168E+01  0.34838653949E+02  0.00000000000E+00 0. -1.
<scales pt_clust_5="13000.00000" pt_clust_6="13000.00000" pt_clust_7="13000.00000" pt_clust_8="13000.00000" pt_clust_9="27.59602" pt_clust_10="34.90029"></scales>
<clustering>
<clus scale="   27.596">  2  9  1 -1</clus>
<clus scale="   34.900">  2 10  1 -1</clus>
<clus scale="   91.427">  5  6 -1 -1</clus>
<clus scale="   93.280">  7  8 -1 -1</clus>
<clus scale="  146.123">  1  5  2 -1</clus>
<clus scale="   27.596">  2  5  1 -1</clus>
</clustering>
</event>
<event>
10    2  0.1671105E-006  0.1221397E+03  0.7546771E-02  0.1240095E+00
         21   -1    0    0  503  502  0.00000000000E+00  0.00000000000E+00  0.41848387297E+03  0.41848387297E+03  0.00000000000E+00 0.  1.
         -2   -1    0    0    0  501 -0.00000000000E+00 -0.00000000000E+00 -0.37616514933E+03  0.37616514933E+03  0.00000000000E+00 0.  1.
         23    2    1    2    0    0  0.12004287575E+02  0.85834879407E+02 -0.26952838586E+03  0.29787140261E+03  0.92574792797E+02 0.  0.
         23    2    1    2    0    0  0.12437443986E+02 -0.63720449106E+02 -0.52734893168E+02  0.12358748412E+03  0.90983029328E+02 0.  0.
        -11    1    3    3    0    0  0.32148218912E+02  0.82205908109E+02 -0.26130881456E+03  0.27581445915E+03  0.00000000000E+00 0.  1.
         11    1    3    3    0    0 -0.20143931337E+02  0.36289712979E+01 -0.82195713041E+01  0.22056943461E+02  0.00000000000E+00 0. -1.
        -13    1    4    4    0    0 -0.83965770058E+01 -0.70234088971E+02 -0.47767927094E+01  0.70895327826E+02  0.00000000000E+00 0. -1.
         13    1    4    4    0    0  0.20834020992E+02  0.65136398647E+01 -0.47958100459E+02  0.52692156291E+02  0.00000000000E+00 0.  1.
         21    1    1    2  503  501 -0.28559298601E+01  0.21128085556E+02  0.42986595117E+02  0.47983327254E+02  0.00000000000E+00 0.  1.
         -2    1    1    2    0  502 -0.21585801701E+02 -0.43242515857E+02  0.32159540756E+03  0.32520680832E+03  0.00000000000E+00 0.  1.
<scales pt_clust_5="13000.00000" pt_clust_6="13000.00000" pt_clust_7="13000.00000" pt_clust_8="13000.00000" pt_clust_9="21.32023" pt_clust_10="34.64356"></scales>
<clustering>
<clus scale="   21.320">  1  9  2 -1</clus>
<clus scale="   34.644">  1 10  2 -1</clus>
<clus scale="   90.983">  7  8 -1 -1</clus>
<clus scale="   92.575">  5  6 -1 -1</clus>
<clus scale="  120.938">  1  7  2 -1</clus>
<clus scale="   21.320">  1  5  2 -1</clus>
</clustering>
</event>
<event>
10    2  0.1671105E-006  0.1637523E+03  0.7546771E-02  0.1192188E+00
         -3   -1    0    0    0  501 -0.00000000000E+00  0.00000000000E+00  0.36978691459E+03  0.36978691459E+03  0.00000000000E+00 0.  1.
         21   -1    0    0  501  502  0.00000000000E+00 -0.00000000000E+00 -0.10637523509E+03  0.10637523509E+03  0.00000000000E+00 0. -1.
         23    2    1    2    0    0 -0.12949889189E+03  0.33085058968E+02  0.18068039004E+03  0.25727713286E+03  0.12522593828E+03 0.  0.
         23    2    1    2    0    0  0.82717956218E+02  0.18062699932E+02  0.70016994211E+02  0.14153066960E+03  0.89218997696E+02 0.  0.
        -13    1    3    3    0    0 -0.18361450748E+02  0.29717265085E+02  0.13085115395E+03  0.13543368564E+03  0.00000000000E+00 0.  1.
         13    1    3    3    0    0 -0.11113744114E+03  0.33677938827E+01  0.49829236098E+02  0.12184344722E+03  0.00000000000E+00 0. -1.
        -13    1    4    4    0    0  0.69718507524E+02  0.51066050413E+02  0.40757419974E+02  0.95548830862E+02  0.00000000000E+00 0.  1.
         13    1    4    4    0    0  0.12999448693E+02 -0.33003350481E+02  0.29259574237E+02  0.45981838739E+02  0.00000000000E+00 0. -1.
         21    1    1    2  503  502  0.15269399928E+02 -0.39337008359E+02  0.28807704859E+01  0.42294841759E+02  0.00000000000E+00 0. -1.
         -3    1    1    2    0  503  0.31511535747E+02 -0.11810750541E+02  0.98335247616E+01  0.35059505454E+02  0.00000000000E+00 0.  1.
<scales pt_clust_5="13000.00000" pt_clust_6="13000.00000" pt_clust_7="13000.00000" pt_clust_8="13000.00000" pt_clust_9="28.48613" pt_clust_10="76.30230"></scales>
<clustering>
<clus scale="   28.486">  9 10 -1 -1</clus>
<clus scale="   76.302">  2  9  1 -1</clus>
<clus scale="   89.219">  7  8 -1 -1</clus>
<clus scale="  125.226">  5  6 -1 -1</clus>
<clus scale="  138.179">  2  7  1 -1</clus>
<clus scale="   76.302">  2  5  1 -1</clus>
</clustering>
</event>
<event>
10    2  0.1671105E-006  0.1867540E+03  0.7546771E-02  0.1162893E+00
          3   -1    0    0  503    0 -0.00000000000E+00  0.00000000000E+00  0.25203891436E+03  0.25203891436E+03  0.00000000000E+00 0. -1.
         21   -1    0    0  501  502  0.00000000000E+00 -0.00000000000E+00 -0.65171895619E+03  0.65171895619E+03  0.00000000000E+00 0.  1.
         23    2    1    2    0    0  0.15057694776E+03  0.44786176191E+02  0.14269965176E+03  0.22559013938E+03  0.76475496719E+02 0.  0.
         23    2    1    2    0    0 -0.21720943724E+03  0.38963974610E+02 -0.18831826063E+03  0.30382644728E+03  0.90269661766E+02 0.  0.
        -13    1    4    4    0    0 -0.16690499855E+03  0.64756933499E+02 -0.16210356706E+03  0.24151253680E+03  0.00000000000E+00 0.  1.
         13    1    4    4    0    0 -0.50304438690E+02 -0.25792958889E+02 -0.26214693567E+02  0.62313910477E+02  0.00000000000E+00 0. -1.
        -13    1    3    3    0    0  0.26304517008E+02  0.36548629491E+02  0.64032651435E+02  0.78280970756E+02  0.00000000000E+00 0.  1.
         13    1    3    3    0    0  0.12427243075E+03  0.82375466996E+01  0.78667000327E+02  0.14730916862E+03  0.00000000000E+00 0. -1.
         21    1    1    2  503  502 -0.48348276176E+01 -0.19439308667E+02 -0.28185033786E+02  0.34578293901E+02  0.00000000000E+00 0. -1.
          3    1    1    2  501    0  0.71467317100E+02 -0.64310842133E+02 -0.32587639918E+03  0.33976298999E+03  0.00000000000E+00 0. -1.
<scales pt_clust_5="13000.00000" pt_clust_6="13000.00000" pt_clust_7="13000.00000" pt_clust_8="13000.00000" pt_clust_9="20.03153" pt_clust_10="101.63490"></scales>
<clustering>
<clus scale="   20.032">  2  9  1 -1</clus>
<clus scale="   76.475">  7  8 -1 -1</clus>
<clus scale="   90.270">  5  6 -1 -1</clus>
<clus scale="  101.635">  2 10  1 -1</clus>
<clus scale="  180.491">  1  7  2 -1</clus>
<clus scale="   20.032">  2  5  1 -1</clus>
</clustering>
</event>
<event>
10    2  0.1671105E-006  0.1714345E+03  0.7546771E-02  0.1192746E+00
          1   -1    0    0  503    0 -0.00000000000E+00  0.00000000000E+00  0.30105089256E+03  0.30105089256E+03  0.00000000000E+00 0. -1.
         21   -1    0    0  501  502  0.00000000000E+00 -0.00000000000E+00 -0.32870005496E+03  0.32870005496E+03  0.00000000000E+00 0. -1.
         23    2    1    2    0    0  0.15047449927E+02  0.61348628356E+02  0.11549990776E+03  0.16466378662E+03  0.98913366042E+02 0.  0.
         23    2    1    2    0    0  0.13612065142E+03  0.40155469398E+02 -0.88672743061E+02  0.19033916495E+03  0.90690952613E+02 0.  0.
        -11    1    3    3    0    0 -0.99359407614E+01  0.80423770005E+02  0.10246302492E+03  0.13063451755E+03  0.00000000000E+00 0.  1.
         11    1    3    3    0    0  0.24983390688E+02 -0.19075141649E+02  0.13036882842E+02  0.34029269071E+02  0.00000000000E+00 0. -1.
        -11    1    4    4    0    0  0.37186262522E+01  0.34498960889E+02 -0.28003242628E+02  0.44589102719E+02  0.00000000000E+00 0.  1.
         11    1    4    4    0    0  0.13240202517E+03  0.56565085086E+01 -0.60669500433E+02  0.14575006223E+03  0.00000000000E+00 0. -1.
         21    1    1    2  503  502 -0.85576954892E+02 -0.15027432082E+03 -0.77977837014E+02  0.18970063197E+03  0.00000000000E+00 0. -1.
          1    1    1    2  501    0 -0.65591146457E+02  0.48770223064E+02  0.23501509913E+02  0.85047363977E+02  0.00000000000E+00 0. -1.
<scales pt_clust_5="13000.00000" pt_clust_6="13000.00000" pt_clust_7="13000.00000" pt_clust_8="13000.00000" pt_clust_9="145.48176" pt_clust_10="81.73579"></scales>
<clustering>
<clus scale="   81.736">  2 10  1 -1</clus>
<clus scale="   90.691">  7  8 -1 -1</clus>
<clus scale="   98.913">  5  6 -1 -1</clus>
<clus scale="  118.955">  1  5  2 -1</clus>
<clus scale="  145.482">  1  9  2 -1</clus>
<clus scale="   81.736">  2  5  1 -1</clus>
</clustering>
</event>
<event>
10    2  0.1671105E-006  0.9602629E+02  0.7546771E-02  0.1296108E+00
         -4   -1    0    0    0  501 -0.00000000000E+00  0.00000000000E+00  0.97425797377E+02  0.97425797377E+02  0.00000000000E+00 0.  1.
         21   -1    0    0  501  502  0.00000000000E+00 -0.00000000000E+00 -0.35884604724E+03  0.35884604724E+03  0.00000000000E+00 0. -1.
         23    2    1    2    0    0  0.22049328155E+02 -0.33653694674E+01 -0.18261349347E+02  0.88211627620E+02  0.83368553925E+02 0.  0.
         23    2    1    2    0    0  0.50965925391E+02 -0.40953564133E+02 -0.20991191880E+03  0.23972368828E+03  0.95549532192E+02 0.  0.
        -13    1    3    3    0    0  0.44977735282E+02  0.99776624521E+01 -0.34097093323E+02  0.57316334427E+02  0.00000000000E+00 0.  1.
         13    1    3    3    0    0 -0.22928407127E+02 -0.13343031920E+02  0.15835743976E+02  0.30895293192E+02  0.00000000000E+00 0. -1.
        -13    1    4    4    0    0  0.14653853590E+01  0.20248218135E+02 -0.60352487603E+01  0.21179280429E+02  0.00000000000E+00 0.  1.
         13    1    4    4    0    0  0.49500540032E+02 -0.61201782269E+02 -0.20387667004E+03  0.21854440785E+03  0.00000000000E+00 0. -1.
         21    1    1    2  503  502 -0.17955088876E+02  0.47367600303E+02 -0.49521097410E+02  0.70840764138E+02  0.00000000000E+00 0.  1.
         -4    1    1    2    0  503 -0.55060164670E+02 -0.30486667024E+01  0.16274115699E+02  0.57495764574E+02  0.00000000000E+00 0.  1.
<scales pt_clust_5="13000.00000" pt_clust_6="13000.00000" pt_clust_7="13000.00000" pt_clust_8="13000.00000" pt_clust_9="50.65644" pt_clust_10="56.29970"></scales>
<clustering>
<clus scale="   50.656">  2  9  1 -1</clus>
<clus scale="   56.300">  2 10  1 -1</clus>
<clus scale="   83.369">  5  6 -1 -1</clus>
<clus scale="   83.915">  1  5  2 -1</clus>
<clus scale="   95.550">  7  8 -1 -1</clus>
<clus scale="   50.656">  2  5  1 -1</clus>
</clustering>
</event>
<event>
10    2  0.1671105E-006  0.1339588E+03  0.7546771E-02  0.1221749E+00
          2   -1    0    0  503    0 -0.00000000000E+00  0.00000000000E+00  0.65465326331E+03  0.65465326331E+03  0.00000000000E+00 0. -1.
         21   -1    0    0  501  502  0.00000000000E+00 -0.00000000000E+00 -0.64498470289E+02  0.64498470289E+02  0.00000000000E+00 0. -1.
         23    2    1    2    0    0 -0.11054826373E+03  0.89322601809E+02  0.26722776207E+03  0.31607524503E+03  0.91068314426E+02 0.  0.
         23    2    1    2    0    0  0.27977835811E+02 -0.41480715675E+02  0.69076779988E+02  0.12461847690E+03  0.90855677761E+02 0.  0.
        -11    1    3    3    0    0 -0.84452376924E+01  0.60078123870E+02  0.75083772544E+02  0.96531217267E+02  0.00000000000E+00 0.  1.
         11    1    3    3    0    0 -0.10210302604E+03  0.29244477938E+02  0.19214398953E+03  0.21954402776E+03  0.00000000000E+00 0. -1.
        -11    1    4    4    0    0 -0.21126490461E+02  0.60930406612E+01 -0.62812351126E+01  0.22867174251E+02  0.00000000000E+00 0. -1.
         11    1    4    4    0    0  0.49104326272E+02 -0.47573756336E+02  0.75358015101E+02  0.10175130265E+03  0.00000000000E+00 0.  1.
         21    1    1    2  503  502  0.38392061929E+02 -0.21934012527E+02  0.43736949037E+02  0.62193022404E+02  0.00000000000E+00 0. -1.
          2    1    1    2  501    0  0.44178365991E+02 -0.25907873607E+02  0.21011330192E+03  0.21626498926E+03  0.00000000000E+00 0. -1.
<scales pt_clust_5="13000.00000" pt_clust_6="13000.00000" pt_clust_7="13000.00000" pt_clust_8="13000.00000" pt_clust_9="44.21596" pt_clust_10="53.67523"></scales>
<clustering>
<clus scale="   44.216">  2  9  1 -1</clus>
<clus scale="   53.675">  2 10  1 -1</clus>
<clus scale="   90.856">  7  8 -1 -1</clus>
<clus scale="   91.068">  5  6 -1 -1</clus>
<clus scale="  133.814">  2  7  1 -1</clus>
<clus scale="   44.216">  2  5  1 -1</clus>
</clustering>
</event>
<event>
10    2  0.1671105E-006  0.1887445E+03  0.7546771E-02  0.1159752E+00
          1   -1    0    0  503    0 -0.00000000000E+00  0.00000000000E+00  0.84463380586E+03  0.84463380586E+03  0.00000000000E+00 0. -1.
         21   -1    0    0  501  502  0.00000000000E+00 -0.00000000000E+00 -0.96253474207E+02  0.96253474207E+02  0.00000000000E+00 0. -1.
         23    2    1    2    0    0 -0.22770004465E+02 -0.17843038915E+03  0.57183588445E+03  0.60627356982E+03  0.90639317350E+02 0.  0.
         23    2    1    2    0    0  0.12865780222E+02  0.14008807165E+03  0.20138410496E+03  0.26135740665E+03  0.89229704477E+02 0.  0.
        -11    1    3    3    0    0  0.29015293449E+02 -0.10621231286E+03  0.26879502505E+03  0.29047152726E+03  0.00000000000E+00 0.  1.
         11    1    3    3    0    0 -0.51785297914E+02 -0.72218076286E+02  0.30304085940E+03  0.31580204256E+03  0.00000000000E+00 0. -1.
        -13    1    4    4    0    0 -0.22559877161E+02  0.12438742267E+03  0.13873015469E+03  0.18768919733E+03  0.00000000000E+00 0.  1.
         13    1    4    4    0    0  0.35425657383E+02  0.15700648984E+02  0.62653950272E+02  0.73668209319E+02  0.00000000000E+00 0. -1.
         21    1    1    2  503  502 -0.18282910771E+02  0.21575676448E+02  0.52315387464E+01  0.28760104974E+02  0.00000000000E+00 0.  1.
          1    1    1    2  501    0  0.28187135014E+02  0.16766641049E+02 -0.30071196502E+02  0.44496198618E+02  0.00000000000E+00 0. -1.
<scales pt_clust_5="13000.00000" pt_clust_6="13000.00000" pt_clust_7="13000.00000" pt_clust_8="13000.00000" pt_clust_9="28.28029" pt_clust_10="33.10319"></scales>
<clustering>
<clus scale="   28.280">  2  9  1 -1</clus>
<clus scale="   33.103">  2 10  1 -1</clus>
<clus scale="   89.230">  7  8 -1 -1</clus>
<clus scale="   90.639">  5  6 -1 -1</clus>
<clus scale="  188.072">  2  7  1 -1</clus>
<clus scale="   28.280">  2  5  1 -1</clus>
</clustering>
</event>
<event>
10    2  0.2397973E-006  0.1443170E+03  0.7546771E-02  0.1224964E+00
         21   -1    0    0  501  502  0.00000000000E+00  0.00000000000E+00  0.99064900138E+03  0.99064900138E+03  0.00000000000E+00 0. -1.
          1   -1    0    0  503    0 -0.00000000000E+00 -0.00000000000E+00 -0.20871995156E+03  0.20871995156E+03  0.00000000000E+00 0. -1.
         23    2    1    2    0    0 -0.88567069711E+01 -0.34682176344E+02 -0.77830559091E+02  0.12675134505E+03  0.93418482801E+02 0.  0.
         23    2    1    2    0    0 -0.42376077243E+02  0.13099301866E+03 -0.32828731627E+02  0.16852676633E+03  0.91480284707E+02 0.  0.
        -11    1    3    3    0    0  0.36560249642E+02 -0.36798982064E+02 -0.26739927951E+02  0.58359580890E+02  0.00000000000E+00 0. -1.
         11    1    3    3    0    0 -0.45416956613E+02  0.21168057199E+01 -0.51090631140E+02  0.68391764158E+02  0.00000000000E+00 0.  1.
        -13    1    4    4    0    0 -0.21455447276E+02  0.98905471701E+02 -0.63480769700E+02  0.11946730378E+03  0.00000000000E+00 0. -1.
         13    1    4    4    0    0 -0.20920629967E+02  0.32087546956E+02  0.30652038074E+02  0.49059462552E+02  0.00000000000E+00 0.  1.
         21    1    1    2  503  502 -0.20968491822E+02  0.26586602685E+01  0.14462168568E+03  0.14615805859E+03  0.00000000000E+00 0. -1.
          1    1    1    2  501    0  0.72201276036E+02 -0.98969502581E+02  0.74796665487E+03  0.75793278297E+03  0.00000000000E+00 0. -1.
<scales pt_clust_5="13000.00000" pt_clust_6="13000.00000" pt_clust_7="13000.00000" pt_clust_8="13000.00000" pt_clust_9="21.13637" pt_clust_10="111.61873"></scales>
<clustering>
<clus scale="   21.136">  1  9  2 -1</clus>
<clus scale="   91.480">  7  8 -1 -1</clus>
<clus scale="   93.418">  5  6 -1 -1</clus>
<clus scale="  100.070">  2  5  1 -1</clus>
<clus scale="  111.619">  1 10  2 -1</clus>
<clus scale="   21.136">  1  5  2 -1</clus>
</clustering>
</event>
<event>
10    2  0.1671105E-006  0.3886247E+03  0.7546771E-02  0.1048438E+00
         -2   -1    0    0    0  501 -0.00000000000E+00  0.00000000000E+00  0.92276467676E+03  0.92276467676E+03  0.00000000000E+00 0.  1.
         21   -1    0    0  501  502  0.00000000000E+00 -0.00000000000E+00 -0.28776591905E+03  0.28776591905E+03  0.00000000000E+00 0. -1.
         23    2    1    2    0    0 -0.12513641541E+03  0.31965446487E+03  0.37843512224E+03  0.51966796526E+03  0.94887053908E+02 0.  0.
         23    2    1    2    0    0  0.28256420049E+03 -0.32397078324E+03  0.28291897383E+03  0.52852200191E+03  0.12038590017E+03 0.  0.
        -11    1    4    4    0    0  0.22407371746E+03 -0.26586411194E+03  0.16556987902E+03  0.38510536443E+03  0.00000000000E+00 0. -1.
         11    1    4    4    0    0  0.58490483027E+02 -0.58106671304E+02  0.11734909481E+03  0.14341663748E+03  0.00000000000E+00 0.  1.
        -13    1    3    3    0    0 -0.12242310705E+03  0.18883427244E+03  0.24868676601E+03  0.33539664158E+03  0.00000000000E+00 0.  1.
         13    1    3    3    0    0 -0.27133083558E+01  0.13082019243E+03  0.12974835623E+03  0.18427132369E+03  0.00000000000E+00 0. -1.
         21    1    1    2  503  502 -0.67492972647E+02 -0.86677899957E+01 -0.12086794992E+01  0.68058010889E+02  0.00000000000E+00 0.  1.
         -2    1    1    2    0  503 -0.89934812433E+02  0.12984108360E+02 -0.25146658863E+02  0.94282617747E+02  0.00000000000E+00 0.  1.
<scales pt_clust_5="13000.00000" pt_clust_6="13000.00000" pt_clust_7="13000.00000" pt_clust_8="13000.00000" pt_clust_9="25.34422" pt_clust_10="160.18700"></scales>
<clustering>
<clus scale="   25.344">  9 10 -1 -1</clus>
<clus scale="   94.887">  7  8 -1 -1</clus>
<clus scale="  120.386">  5  6 -1 -1</clus>
<clus scale="  160.187">  2  9  1 -1</clus>
<clus scale="  381.497">  1  7  2 -1</clus>
<clus scale="  160.187">  2  5  1 -1</clus>
</clustering>
</event>
<event>
10    2  0.1671105E-006  0.1650599E+03  0.7546771E-02  0.1193033E+00
         21   -1    0    0  503  502  0.00000000000E+00  0.00000000000E+00  0.23016345092E+03  0.23016345092E+03  0.00000000000E+00 0. -1.
          3   -1    0    0  502    0 -0.00000000000E+00 -0.00000000000E+00 -0.55111903752E+03  0.55111903752E+03  0.00000000000E+00 0. -1.
         23    2    1    2    0    0  0.26214116031E+02  0.92400285131E+02 -0.21894212061E+03  0.25588104313E+03  0.91183679919E+02 0.  0.
         23    2    1    2    0    0  0.20497439929E+02 -0.21573155607E+03 -0.23825580305E+03  0.33425669675E+03  0.89450893285E+02 0.  0.
        -13    1    3    3    0    0  0.42198823136E+02  0.15788646334E+02 -0.38749202173E+02  0.59426616059E+02  0.00000000000E+00 0. -1.
         13    1    3    3    0    0 -0.15984707104E+02  0.76611638797E+02 -0.18019291844E+03  0.19645442707E+03  0.00000000000E+00 0.  1.
        -13    1    4    4    0    0  0.43438738796E+02 -0.18709408265E+03 -0.22354010716E+03  0.29472241059E+03  0.00000000000E+00 0. -1.
         13    1    4    4    0    0 -0.22941298867E+02 -0.28637473412E+02 -0.14715695892E+02  0.39534286167E+02  0.00000000000E+00 0.  1.
         21    1    1    2  503  501 -0.30232085760E+02  0.66306921081E+02  0.59208778888E+02  0.93894974786E+02  0.00000000000E+00 0. -1.
          3    1    1    2  501    0 -0.16479470201E+02  0.57024349853E+02  0.77033558173E+02  0.97249773773E+02  0.00000000000E+00 0. -1.
<scales pt_clust_5="13000.00000" pt_clust_6="13000.00000" pt_clust_7="13000.00000" pt_clust_8="13000.00000" pt_clust_9="21.76850" pt_clust_10="140.80156"></scales>
<clustering>
<clus scale="   21.768">  9 10 -1 -1</clus>
<clus scale="   89.451">  7  8 -1 -1</clus>
<clus scale="   91.184">  5  6 -1 -1</clus>
<clus scale="  132.437">  2  5  1 -1</clus>
<clus scale="  140.802">  1  9  2 -1</clus>
<clus scale="  140.802">  1  5  2 -1</clus>
</clustering>
</event>
<event>
10    2  0.1671105E-006  0.1417765E+03  0.7546771E-02  0.1230365E+00
         21   -1    0    0  503  502  0.00000000000E+00  0.00000000000E+00  0.11546793613E+03  0.11546793613E+03  0.00000000000E+00 0.  1.
         -1   -1    0    0    0  501 -0.00000000000E+00 -0.00000000000E+00 -0.54183824962E+03  0.54183824962E+03  0.00000000000E+00 0.  1.
         23    2    1    2    0    0  0.13125525661E+02  0.23676240109E+02 -0.27393883529E+03  0.28986404717E+03  0.90806588944E+02 0.  0.
         23    2    1    2    0    0 -0.10828078618E+03  0.41000546153E+02 -0.17627235523E+03  0.22904443456E+03  0.89351196660E+02 0.  0.
        -11    1    3    3    0    0 -0.27511072330E+02  0.19475254131E+02 -0.39654186994E+02  0.52044204004E+02  0.00000000000E+00 0. -1.
         11    1    3    3    0    0  0.40636597991E+02  0.42009859783E+01 -0.23428464829E+03  0.23781984317E+03  0.00000000000E+00 0.  1.
        -13    1    4    4    0    0 -0.71268143714E+02  0.80808516452E+01 -0.35938227761E+02  0.80224713688E+02  0.00000000000E+00 0. -1.
         13    1    4    4    0    0 -0.37012642470E+02  0.32919694508E+02 -0.14033412746E+03  0.14881972087E+03  0.00000000000E+00 0.  1.
         21    1    1    2  503  501  0.91359935750E+02 -0.40345549811E+02  0.41441872625E+02  0.10812876609E+03  0.00000000000E+00 0.  1.
         -1    1    1    2    0  502  0.37953247732E+01 -0.24331236452E+02 -0.17600995602E+02  0.30268937933E+02  0.00000000000E+00 0.  1.
<scales pt_clust_5="13000.00000" pt_clust_6="13000.00000" pt_clust_7="13000.00000" pt_clust_8="13000.00000" pt_clust_9="110.07692" pt_clust_10="24.62547"></scales>
<clustering>
<clus scale="   24.625">  1 10  2 -1</clus>
<clus scale="   89.351">  7  8 -1 -1</clus>
<clus scale="   90.807">  5  6 -1 -1</clus>
<clus scale="   94.367">  2  5  1 -1</clus>
<clus scale="  110.077">  1  9  2 -1</clus>
<clus scale="   24.625">  1  5  2 -1</clus>
</clustering>
</event>
<event>
10    2  0.1671105E-006  0.1469150E+03  0.7546771E-02  0.1219836E+00
         -1   -1    0    0    0  501 -0.00000000000E+00  0.00000000000E+00  0.82491690949E+03  0.82491690949E+03  0.00000000000E+00 0.  1.
         21   -1    0    0  501  502  0.00000000000E+00 -0.00000000000E+00 -0.97774775392E+02  0.97774775392E+02  0.00000000000E+00 0.  1.
         23    2    1    2    0    0 -0.23802090098E+02 -0.47354199506E+02  0.12437339333E+03  0.16315246965E+03  0.91329226876E+02 0.  0.
         23    2    1    2    0    0  0.92610526429E+02  0.13231039613E+03  0.60741017967E+03  0.63533174644E+03  0.92825379840E+02 0.  0.
        -11    1    4    4    0    0  0.55182185342E+02  0.53827142382E+02  0.43985351774E+03  0.44655744524E+03  0.00000000000E+00 0.  1.
         11    1    4    4    0    0  0.37428341087E+02  0.78483253750E+02  0.16755666193E+03  0.18877430120E+03  0.00000000000E+00 0. -1.
        -11    1    3    3    0    0 -0.50399370553E+02  0.99685505260E+00  0.59645282315E+02  0.78093853628E+02  0.00000000000E+00 0.  1.
         11    1    3    3    0    0  0.26597280455E+02 -0.48351054559E+02  0.64728111013E+02  0.85058616024E+02  0.00000000000E+00 0. -1.
         21    1    1    2  503  502 -0.13786715412E+02 -0.55236680691E+02  0.14610304876E+02  0.58776061660E+02  0.00000000000E+00 0.  1.
         -1    1    1    2    0  503 -0.55021720920E+02 -0.29719515935E+02 -0.19251743775E+02  0.65431407128E+02  0.00000000000E+00 0.  1.
<scales pt_clust_5="13000.00000" pt_clust_6="13000.00000" pt_clust_7="13000.00000" pt_clust_8="13000.00000" pt_clust_9="56.07402" pt_clust_10="128.14546"></scales>
<clustering>
<clus scale="   56.074">  9 10 -1 -1</clus>
<clus scale="   91.329">  7  8 -1 -1</clus>
<clus scale="   92.825">  5  6 -1 -1</clus>
<clus scale="  105.594">  1  7  2 -1</clus>
<clus scale="  128.145">  2  9  1 -1</clus>
<clus scale="  128.145">  2  5  1 -1</clus>
</clustering>
</event>
<event>
10    2  0.1671105E-006  0.1211319E+03  0.7546771E-02  0.1242249E+00
         21   -1    0    0  503  502  0.00000000000E+00  0.00000000000E+00  0.42900877667E+03  0.42900877667E+03  0.00000000000E+00 0. -1.
          2   -1    0    0  502    0 -0.00000000000E+00 -0.00000000000E+00 -0.37705101794E+03  0.37705101794E+03  0.00000000000E+00 0. -1.
         23    2    1    2    0    0 -0.88243452796E+02  0.55802908628E+02 -0.26885533560E+03  0.30254548328E+03  0.91376727891E+02 0.  0.
         23    2    1    2    0    0  0.51079728147E+00 -0.20091361834E+02 -0.24490348255E+02  0.99700521241E+02  0.94533026207E+02 0.  0.
        -11    1    4    4    0    0  0.46741517475E+02 -0.34284270413E+01 -0.62473575671E+01  0.47281635382E+02  0.00000000000E+00 0.  1.
         11    1    4    4    0    0 -0.46230720193E+02 -0.16662934793E+02 -0.18242990688E+02  0.52418885859E+02  0.00000000000E+00 0. -1.
        -13    1    3    3    0    0 -0.47810379123E+02 -0.17300633374E+02 -0.67172595335E+02  0.84245485523E+02  0.00000000000E+00 0.  1.
         13    1    3    3    0    0 -0.40433073673E+02  0.73103542003E+02 -0.20168274027E+03  0.21829999776E+03  0.00000000000E+00 0. -1.
         21    1    1    2  503  501 -0.30466745662E+02 -0.77029404758E+02  0.16001000265E+03  0.18018033394E+03  0.00000000000E+00 0. -1.
          2    1    1    2  501    0  0.11819940118E+03  0.41317857964E+02  0.18529343993E+03  0.22363345615E+03  0.00000000000E+00 0. -1.
<scales pt_clust_5="13000.00000" pt_clust_6="13000.00000" pt_clust_7="13000.00000" pt_clust_8="13000.00000" pt_clust_9="82.83569" pt_clust_10="96.14073"></scales>
<clustering>
<clus scale="   82.836">  1  9  2 -1</clus>
<clus scale="   91.377">  7  8 -1 -1</clus>
<clus scale="   94.533">  5  6 -1 -1</clus>
<clus scale="   96.141">  1 10  2 -1</clus>
<clus scale="  118.685">  2  7  1 -1</clus>
<clus scale="   82.836">  1  5  2 -1</clus>
</clustering>
</event>
<event>
10    2  0.1671105E-006  0.1109501E+03  0.7546771E-02  0.1259269E+00
         21   -1    0    0  503  502  0.00000000000E+00  0.00000000000E+00  0.40529920127E+03  0.40529920127E+03  0.00000000000E+00 0. -1.
          3   -1    0    0  502    0 -0.00000000000E+00 -0.00000000000E+00 -0.10158025690E+03  0.10158025690E+03  0.00000000000E+00 0. -1.
         23    2    1    2    0    0  0.41373842722E+01 -0.52162332922E+02 -0.23403535084E+02  0.10856600068E+03  0.92199913903E+02 0.  0.
         23    2    1    2    0    0 -0.36595916285E+02  0.85981525621E+02  0.97178773983E+02  0.16266932162E+03  0.91024778194E+02 0.  0.
        -11    1    3    3    0    0 -0.43208016924E+02 -0.34845658826E+02 -0.99994631978E+01  0.56401612830E+02  0.00000000000E+00 0. -1.
         11    1    3    3    0    0  0.47345401197E+02 -0.17316674096E+02 -0.13404071886E+02  0.52164387846E+02  0.00000000000E+00 0.  1.
        -13    1    4    4    0    0  0.25347666911E+02  0.11338715474E+01  0.20189744856E+02  0.32425540548E+02  0.00000000000E+00 0.  1.
         13    1    4    4    0    0 -0.61943583196E+02  0.84847654074E+02  0.76989029128E+02  0.13024378107E+03  0.00000000000E+00 0. -1.
         21    1    1    2  503  501  0.10148308769E+02 -0.23265296586E+02  0.14429127810E+03  0.14650677503E+03  0.00000000000E+00 0.  1.
          3    1    1    2  501    0  0.22310223245E+02 -0.10553896114E+02  0.85652427367E+02  0.89137360844E+02  0.00000000000E+00 0. -1.
<scales pt_clust_5="13000.00000" pt_clust_6="13000.00000" pt_clust_7="13000.00000" pt_clust_8="13000.00000" pt_clust_9="21.07437" pt_clust_10="51.51748"></scales>
<clustering>
<clus scale="   21.074">  9 10 -1 -1</clus>
<clus scale="   51.517">  1  9  2 -1</clus>
<clus scale="   91.025">  7  8 -1 -1</clus>
<clus scale="   92.200">  5  6 -1 -1</clus>
<clus scale="  109.976">  1  7  2 -1</clus>
<clus scale="   51.517">  1  5  2 -1</clus>
</clustering>
</event>
<event>
10    2  0.1671105E-006  0.9079375E+02  0.7546771E-02  0.1301321E+00
          2   -1    0    0  503    0 -0.00000000000E+00  0.00000000000E+00  0.55558497992E+03  0.55558497992E+03  0.00000000000E+00 0. -1.
         21   -1    0    0  501  502  0.00000000000E+00 -0.00000000000E+00 -0.45447554358E+03  0.45447554358E+03  0.00000000000E+00 0. -1.
         23    2    1    2    0    0  0.16927285673E+02 -0.10603738988E+02  0.33738848963E+03  0.34979506348E+03  0.90147774358E+02 0.  0.
         23    2    1    2    0    0  0.30660767916E+02 -0.17838564742E+02  0.18010423189E+03  0.20478558107E+03  0.90781621436E+02 0.  0.
        -13    1    4    4    0    0 -0.12185900019E+02  0.25824580882E+02  0.24633075709E+02  0.37711981596E+02  0.00000000000E+00 0.  1.
         13    1    4    4    0    0  0.42846667935E+02 -0.43663145623E+02  0.15547115618E+03  0.16707359948E+03  0.00000000000E+00 0. -1.
        -13    1    3    3    0    0 -0.59399531962E+01 -0.46172008793E+02  0.12857118965E+03  0.13673949045E+03  0.00000000000E+00 0. -1.
         13    1    3    3    0    0  0.22867238869E+02  0.35568269805E+02  0.20881729998E+03  0.21305557303E+03  0.00000000000E+00 0.  1.
         21    1    1    2  503  502 -0.10607202700E+03  0.45998429274E+02 -0.20391152149E+03  0.23440784757E+03  0.00000000000E+00 0. -1.
          2    1    1    2  501    0  0.58483973412E+02 -0.17556125544E+02 -0.21247176369E+03  0.22107203137E+03  0.00000000000E+00 0. -1.
<scales pt_clust_5="13000.00000" pt_clust_6="13000.00000" pt_clust_7="13000.00000" pt_clust_8="13000.00000" pt_clust_9="60.07022" pt_clust_10="61.06220"></scales>
<clustering>
<clus scale="   61.062">  2 10  1 -1</clus>
<clus scale="   60.070">  2  9  1 -1</clus>
<clus scale="   90.148">  7  8 -1 -1</clus>
<clus scale="   90.160">  1  7  2 -1</clus>
<clus scale="   90.782">  5  6 -1 -1</clus>
<clus scale="   61.062">  2  5  1 -1</clus>
</clustering>
</event>
<event>
10    2  0.1671105E-006  0.1922926E+03  0.7546771E-02  0.1157938E+00
         21   -1    0    0  501  502  0.00000000000E+00  0.00000000000E+00  0.43605762713E+03  0.43605762713E+03  0.00000000000E+00 0.  1.
          1   -1    0    0  503    0 -0.00000000000E+00 -0.00000000000E+00 -0.37061976001E+03  0.37061976001E+03  0.00000000000E+00 0. -1.
         23    2    1    2    0    0  0.73309659376E+02 -0.15041792468E+03 -0.26873833231E+03  0.32978288835E+03  0.92393744224E+02 0.  0.
         23    2    1    2    0    0 -0.34210336966E+02  0.18296221441E+03  0.23152930837E+03  0.30697922518E+03  0.77362167730E+02 0.  0.
        -11    1    4    4    0    0  0.24245319598E+02  0.63996240784E+02  0.90108577283E+02  0.11314994502E+03  0.00000000000E+00 0. -1.
         11    1    4    4    0    0 -0.58455656564E+02  0.11896597363E+03  0.14142073109E+03  0.19382928016E+03  0.00000000000E+00 0.  1.
        -13    1    3    3    0    0 -0.96528771392E+01 -0.39147949275E+02 -0.20155813775E+02  0.45077675166E+02  0.00000000000E+00 0.  1.
         13    1    3    3    0    0  0.82962536515E+02 -0.11126997541E+03 -0.24858251854E+03  0.28470521319E+03  0.00000000000E+00 0. -1.
         21    1    1    2  503  502 -0.65921695985E+02 -0.21461708681E+02  0.66710739776E+01  0.69647528090E+02  0.00000000000E+00 0. -1.
          1    1    1    2  501    0  0.26822373575E+02 -0.11082581045E+02  0.95975817082E+02  0.10026774552E+03  0.00000000000E+00 0. -1.
<scales pt_clust_5="13000.00000" pt_clust_6="13000.00000" pt_clust_7="13000.00000" pt_clust_8="13000.00000" pt_clust_9="66.86860" pt_clust_10="29.02177"></scales>
<clustering>
<clus scale="   29.022">  1 10  2 -1</clus>
<clus scale="   66.869">  1  9  2 -1</clus>
<clus scale="   77.362">  5  6 -1 -1</clus>
<clus scale="   92.394">  7  8 -1 -1</clus>
<clus scale="  185.539">  1  5  2 -1</clus>
<clus scale="   29.022">  1  5  2 -1</clus>
</clustering>
</event>
<event>
10    2  0.1671105E-006  0.1130965E+03  0.7546771E-02  0.1255052E+00
         21   -1    0    0  501  502  0.00000000000E+00  0.00000000000E+00  0.12862703251E+03  0.12862703251E+03  0.00000000000E+00 0.  1.
          1   -1    0    0  503    0 -0.00000000000E+00 -0.00000000000E+00 -0.37679559232E+03  0.37679559232E+03  0.00000000000E+00 0. -1.
         23    2    1    2    0    0 -0.33289025109E+02 -0.47713449028E+02 -0.20665050316E+03  0.23263725818E+03  0.89615461979E+02 0.  0.
         23    2    1    2    0    0  0.97208222239E+02  0.54535181594E+02 -0.77459462767E+02  0.16247456487E+03  0.89300007587E+02 0.  0.
        -13    1    4    4    0    0  0.69030622076E+02  0.75430211489E+02 -0.36553288902E+02  0.10858676954E+03  0.00000000000E+00 0.  1.
         13    1    4    4    0    0  0.28177600163E+02 -0.20895029895E+02 -0.40906173865E+02  0.53887795330E+02  0.00000000000E+00 0. -1.
        -13    1    3    3    0    0 -0.38632586177E+02 -0.70068527321E+02 -0.13033497114E+03  0.15293554177E+03  0.00000000000E+00 0. -1.
         13    1    3    3    0    0  0.53435610682E+01  0.22355078293E+02 -0.76315532017E+02  0.79701716402E+02  0.00000000000E+00 0.  1.
         21    1    1    2  503  502  0.57822512716E+01 -0.21714093324E+02 -0.10947654974E+02  0.24995748201E+02  0.00000000000E+00 0. -1.
          1    1    1    2  501    0 -0.69701448402E+02  0.14892360758E+02  0.46889061089E+02  0.85315053584E+02  0.00000000000E+00 0. -1.
<scales pt_clust_5="13000.00000" pt_clust_6="13000.00000" pt_clust_7="13000.00000" pt_clust_8="13000.00000" pt_clust_9="22.47079" pt_clust_10="66.62991"></scales>
<clustering>
<clus scale="   22.471">  1  9  2 -1</clus>
<clus scale="   66.630">  1 10  2 -1</clus>
<clus scale="   89.300">  5  6 -1 -1</clus>
<clus scale="   89.615">  7  8 -1 -1</clus>
<clus scale="  112.847">  1  5  2 -1</clus>
<clus scale="   22.471">  1  5  2 -1</clus>
</clustering>
</event>
<event>
10    2  0.1671105E-006  0.9571306E+02  0.7546771E-02  0.1291660E+00
          1   -1    0    0  503    0 -0.00000000000E+00  0.00000000000E+00  0.15569281577E+03  0.15569281577E+03  0.00000000000E+00 0. -1.
         21   -1    0    0  501  502  0.00000000000E+00 -0.00000000000E+00 -0.10555033956E+03  0.10555033956E+03  0.00000000000E+00 0.  1.
         23    2    1    2    0    0 -0.35590376275E+02  0.22018351043E+02  0.49655159686E+02  0.11071317369E+03  0.89667660161E+02 0.  0.
         23    2    1    2    0    0  0.24360194495E+01  0.54452936557E+01  0.68298411225E+01  0.93857472631E+02  0.93418376271E+02 0.  0.
        -13    1    3    3    0    0  0.96215853276E+01 -0.28735592941E+02  0.21426004076E+02  0.37113108958E+02  0.00000000000E+00 0. -1.
         13    1    3    3    0    0 -0.45211961603E+02  0.50753943983E+02  0.28229155610E+02  0.73600064731E+02  0.00000000000E+00 0.  1.
        -13    1    4    4    0    0  0.16334710228E+02  0.42950565584E+02 -0.14939424990E+02  0.48319357004E+02  0.00000000000E+00 0.  1.
         13    1    4    4    0    0 -0.13898690779E+02 -0.37505271928E+02  0.21769266112E+02  0.45538115627E+02  0.00000000000E+00 0. -1.
         21    1    1    2  503  502  0.13553064643E+02 -0.16379429128E+02  0.14704678982E+02  0.25849542428E+02  0.00000000000E+00 0. -1.
          1    1    1    2  501    0  0.19601292183E+02 -0.11084215570E+02 -0.21047203579E+02  0.30822966576E+02  0.00000000000E+00 0. -1.
<scales pt_clust_5="13000.00000" pt_clust_6="13000.00000" pt_clust_7="13000.00000" pt_clust_8="13000.00000" pt_clust_9="21.25962" pt_clust_10="23.23669"></scales>
<clustering>
<clus scale="   21.260">  1  9  2 -1</clus>
<clus scale="   23.237">  2 10  1 -1</clus>
<clus scale="   89.668">  5  6 -1 -1</clus>
<clus scale="   92.056">  1  5  2 -1</clus>
<clus scale="   93.418">  7  8 -1 -1</clus>
<clus scale="   23.237">  2  5  1 -1</clus>
</clustering>
</event>
<event>
10    2  0.1671105E-006  0.9934287E+02  0.7546771E-02  0.1287011E+00
          2   -1    0    0  503    0 -0.00000000000E+00  0.00000000000E+00  0.52101048348E+03  0.52101048348E+03  0.00000000000E+00 0. -1.
         21   -1    0    0  501  502  0.00000000000E+00 -0.00000000000E+00 -0.91994046186E+02  0.91994046186E+02  0.00000000000E+00 0. -1.
         23    2    1    2    0    0 -0.12270818637E+02  0.28676274259E+02  0.38518336667E+03  0.39615872009E+03  0.87192911693E+02 0.  0.
         23    2    1    2    0    0  0.40930071861E+01  0.19781350501E+02  0.92729417483E+02  0.13568102174E+03  0.96966696642E+02 0.  0.
        -13    1    3    3    0    0  0.85670707103E+01 -0.29497705245E+02  0.13643031496E+03  0.13984541521E+03  0.00000000000E+00 0.  1.
         13    1    3    3    0    0 -0.20837889347E+02  0.58173979504E+02  0.24875305171E+03  0.25631330488E+03  0.00000000000E+00 0. -1.
        -13    1    4    4    0    0 -0.24701530812E+01  0.54294972505E+02  0.83025347356E+02  0.99233331090E+02  0.00000000000E+00 0. -1.
         13    1    4    4    0    0  0.65631602673E+01 -0.34513622004E+02  0.97040701270E+01  0.36447690648E+02  0.00000000000E+00 0.  1.
         21    1    1    2  503  502  0.23258318443E+02 -0.22778279834E+02 -0.14413761622E+02  0.35602751763E+02  0.00000000000E+00 0. -1.
          2    1    1    2  501    0 -0.15080506993E+02 -0.25679344925E+02 -0.34482585235E+02  0.45562036076E+02  0.00000000000E+00 0. -1.
<scales pt_clust_5="13000.00000" pt_clust_6="13000.00000" pt_clust_7="13000.00000" pt_clust_8="13000.00000" pt_clust_9="38.60722" pt_clust_10="29.78003"></scales>
<clustering>
<clus scale="   29.780">  2 10  1 -1</clus>
<clus scale="   38.607">  2  9  1 -1</clus>
<clus scale="   87.193">  5  6 -1 -1</clus>
<clus scale="   89.828">  1  5  2 -1</clus>
<clus scale="   96.967">  7  8 -1 -1</clus>
<clus scale="   29.780">  2  5  1 -1</clus>
</clustering>
</event>
<event>
10    2  0.1671105E-006  0.4452660E+03  0.7546771E-02  0.1053425E+00
         21   -1    0    0  503  502  0.00000000000E+00  0.00000000000E+00  0.41566604066E+03  0.41566604066E+03  0.00000000000E+00 0.  1.
          2   -1    0    0  502    0 -0.00000000000E+00 -0.00000000000E+00 -0.79262528356E+03  0.79262528356E+03  0.00000000000E+00 0. -1.
         23    2    1    2    0    0 -0.25273863815E+01  0.19395327064E+03 -0.18754911124E+03  0.28913837946E+03  0.10393302883E+03 0.  0.
         23    2    1    2    0    0  0.67141001129E+02 -0.53075322571E+03 -0.60604993401E+02  0.55168781591E+03  0.12033112800E+03 0.  0.
        -11    1    3    3    0    0 -0.52374213783E+02  0.11908907442E+03 -0.11288836771E+03  0.17224705942E+03  0.00000000000E+00 0. -1.
         11    1    3    3    0    0  0.49846827402E+02  0.74864196216E+02 -0.74660743528E+02  0.11689132004E+03  0.00000000000E+00 0.  1.
        -13    1    4    4    0    0  0.44781689246E+02 -0.46804095107E+03 -0.13942747246E+02  0.47038508881E+03  0.00000000000E+00 0.  1.
         13    1    4    4    0    0  0.22359311883E+02 -0.62712274634E+02 -0.46662246155E+02  0.81302727100E+02  0.00000000000E+00 0. -1.
         21    1    1    2  503  501 -0.16833836537E+02  0.14928438920E+03 -0.65244273686E+02  0.16378651398E+03  0.00000000000E+00 0. -1.
          2    1    1    2  501    0 -0.47779778211E+02  0.18751556587E+03 -0.63560864579E+02  0.20367861487E+03  0.00000000000E+00 0. -1.
<scales pt_clust_5="13000.00000" pt_clust_6="13000.00000" pt_clust_7="13000.00000" pt_clust_8="13000.00000" pt_clust_9="25.39570" pt_clust_10="429.66611"></scales>
<clustering>
<clus scale="   25.396">  9 10 -1 -1</clus>
<clus scale="  103.933">  5  6 -1 -1</clus>
<clus scale="  120.331">  7  8 -1 -1</clus>
<clus scale="  220.060">  2  5  1 -1</clus>
<clus scale="  429.666">  1  9  2 -1</clus>
<clus scale="  429.666">  1  5  2 -1</clus>
</clustering>
</event>
<event>
10    2  0.1671105E-006  0.1659843E+03  0.7546771E-02  0.1182196E+00
          4   -1    0    0  503    0 -0.00000000000E+00  0.00000000000E+00  0.85661173990E+03  0.85661173990E+03  0.00000000000E+00 0. -1.
         21   -1    0    0  501  502  0.00000000000E+00 -0.00000000000E+00 -0.79204097231E+02  0.79204097231E+02  0.00000000000E+00 0. -1.
         23    2    1    2    0    0  0.98516122811E+02 -0.63287362408E+02  0.35911170677E+03  0.38895019906E+03  0.92791824606E+02 0.  0.
         23    2    1    2    0    0 -0.18533424245E+03  0.85259287056E+02  0.21756418358E+03  0.31216395279E+03  0.92164157856E+02 0.  0.
        -13    1    4    4    0    0 -0.69596157637E+02  0.77708649438E+02  0.13087225236E+03  0.16736130315E+03  0.00000000000E+00 0.  1.
         13    1    4    4    0    0 -0.11573808481E+03  0.75506376186E+01  0.86691931220E+02  0.14480264964E+03  0.00000000000E+00 0. -1.
        -13    1    3    3    0    0  0.69825922242E+02 -0.39953279987E+02  0.33564608026E+03  0.34515245210E+03  0.00000000000E+00 0. -1.
         13    1    3    3    0    0  0.28690200569E+02 -0.23334082420E+02  0.23465626517E+02  0.43797746962E+02  0.00000000000E+00 0.  1.
         21    1    1    2  503  502  0.41408026692E+02 -0.36393218087E+02  0.42952739686E+02  0.69885827203E+02  0.00000000000E+00 0. -1.
          4    1    1    2  501    0  0.45410092946E+02  0.14421293439E+02  0.15777901263E+03  0.16481585807E+03  0.00000000000E+00 0. -1.
<scales pt_clust_5="13000.00000" pt_clust_6="13000.00000" pt_clust_7="13000.00000" pt_clust_8="13000.00000" pt_clust_9="59.94430" pt_clust_10="47.64507"></scales>
<clustering>
<clus scale="   47.645">  2 10  1 -1</clus>
<clus scale="   59.944">  2  9  1 -1</clus>
<clus scale="   92.164">  5  6 -1 -1</clus>
<clus scale="   92.792">  7  8 -1 -1</clus>
<clus scale="  165.634">  2  5  1 -1</clus>
<clus scale="   47.645">  2  5  1 -1</clus>
</clustering>
</event>
<event>
10    2  0.1671105E-006  0.2987227E+03  0.7546771E-02  0.1120096E+00
          2   -1    0    0  502    0 -0.00000000000E+00  0.00000000000E+00  0.17807764835E+03  0.17807764835E+03  0.00000000000E+00 0. -1.
         21   -1    0    0  503  502  0.00000000000E+00 -0.00000000000E+00 -0.77388132312E+03  0.77388132312E+03  0.00000000000E+00 0.  1.
         23    2    1    2    0    0  0.64835632515E+02  0.47875504466E+02 -0.24776137330E+02  0.12598318270E+03  0.93606528461E+02 0.  0.
         23    2    1    2    0    0 -0.23958865284E+03  0.17145985489E+03 -0.33204046383E+03  0.45273146812E+03  0.88959025347E+02 0.  0.
        -11    1    3    3    0    0  0.85183997698E+02  0.55265191700E+02 -0.23905966874E+02  0.10431706538E+03  0.00000000000E+00 0. -1.
         11    1    3    3    0    0 -0.20348365183E+02 -0.73896872346E+01 -0.87017045626E+00  0.21666117318E+02  0.00000000000E+00 0.  1.
        -13    1    4    4    0    0 -0.11529587579E+03  0.60340286647E+02 -0.20628074205E+03  0.24389717855E+03  0.00000000000E+00 0. -1.
         13    1    4    4    0    0 -0.12429277704E+03  0.11111956825E+03 -0.12575972179E+03  0.20883428956E+03  0.00000000000E+00 0.  1.
         21    1    1    2  503  501  0.11869129122E+02 -0.29340626943E+02 -0.51883088720E+02  0.60775023740E+02  0.00000000000E+00 0. -1.
          2    1    1    2  501    0  0.16288389120E+03 -0.18999473242E+03 -0.18710398488E+03  0.31246929692E+03  0.00000000000E+00 0. -1.
<scales pt_clust_5="13000.00000" pt_clust_6="13000.00000" pt_clust_7="13000.00000" pt_clust_8="13000.00000" pt_clust_9="21.18862" pt_clust_10="291.32715"></scales>
<clustering>
<clus scale="   21.189">  9 10 -1 -1</clus>
<clus scale="   88.959">  7  8 -1 -1</clus>
<clus scale="   93.607">  5  6 -1 -1</clus>
<clus scale="  123.523">  1  5  2 -1</clus>
<clus scale="  291.327">  2  9  1 -1</clus>
<clus scale="  291.327">  2  5  1 -1</clus>
</clustering>
</event>
<event>
10    2  0.1671105E-006  0.1757418E+03  0.7546771E-02  0.1185151E+00
          1   -1    0    0  503    0 -0.00000000000E+00  0.00000000000E+00  0.27976580001E+03  0.27976580001E+03  0.00000000000E+00 0. -1.
         21   -1    0    0  501  502  0.00000000000E+00 -0.00000000000E+00 -0.28512165631E+03  0.28512165631E+03  0.00000000000E+00 0.  1.
         23    2    1    2    0    0 -0.12948698060E+03 -0.43691184496E+02  0.65265236705E+02  0.18027734649E+03  0.97798633879E+02 0.  0.
         23    2    1    2    0    0  0.67306461281E+01 -0.94192416666E+02 -0.83566456518E+02  0.14809676957E+03  0.77664583613E+02 0.  0.
        -13    1    3    3    0    0 -0.10104734766E+03  0.14446741499E+02  0.50542738563E+02  0.11390277974E+03  0.00000000000E+00 0.  1.
         13    1    3    3    0    0 -0.28439632933E+02 -0.58137925995E+02  0.14722498142E+02  0.66374566755E+02  0.00000000000E+00 0. -1.
        -13    1    4    4    0    0  0.35903940014E+02 -0.17217296326E+02 -0.24066209820E+02  0.46526451148E+02  0.00000000000E+00 0. -1.
         13    1    4    4    0    0 -0.29173293886E+02 -0.76975120340E+02 -0.59500246698E+02  0.10157031842E+03  0.00000000000E+00 0.  1.
         21    1    1    2  503  502  0.98825229596E+02  0.16073813001E+03 -0.20090317197E+02  0.18975456065E+03  0.00000000000E+00 0. -1.
          1    1    1    2  501    0  0.23931104874E+02 -0.22854528849E+02  0.33035680714E+02  0.46758779600E+02  0.00000000000E+00 0. -1.
<scales pt_clust_5="13000.00000" pt_clust_6="13000.00000" pt_clust_7="13000.00000" pt_clust_8="13000.00000" pt_clust_9="146.01582" pt_clust_10="33.09121"></scales>
<clustering>
<clus scale="   33.091">  2 10  1 -1</clus>
<clus scale="   77.665">  7  8 -1 -1</clus>
<clus scale="   97.799">  5  6 -1 -1</clus>
<clus scale="  130.635">  2  7  1 -1</clus>
<clus scale="  146.016">  2  9  1 -1</clus>
<clus scale="   33.091">  2  5  1 -1</clus>
</clustering>
</event>
<event>
10    2  0.1671105E-006  0.1030685E+03  0.7546771E-02  0.1276759E+00
         21   -1    0    0  503  502  0.00000000000E+00  0.00000000000E+00  0.14498117450E+03  0.14498117450E+03  0.00000000000E+00 0.  1.
          2   -1    0    0  502    0 -0.00000000000E+00 -0.00000000000E+00 -0.27659487921E+03  0.27659487921E+03  0.00000000000E+00 0. -1.
         23    2    1    2    0    0 -0.14808140138E+02 -0.37004405802E+02 -0.97759734533E+02  0.13829080020E+03  0.89323975843E+02 0.  0.
         23    2    1    2    0    0  0.59760372242E+02 -0.76873868469E+01 -0.12320573619E+03  0.16692935956E+03  0.95159653456E+02 0.  0.
        -13    1    3    3    0    0 -0.50207179164E+02 -0.36638796643E+02 -0.57389280366E+02  0.84597232579E+02  0.00000000000E+00 0.  1.
         13    1    3    3    0    0  0.35399039026E+02 -0.36560915851E+00 -0.40370454167E+02  0.53693567619E+02  0.00000000000E+00 0. -1.
        -13    1    4    4    0    0  0.30048188502E+02 -0.30508925615E+02 -0.52205430367E+01  0.43138639803E+02  0.00000000000E+00 0.  1.
         13    1    4    4    0    0  0.29712183740E+02  0.22821538768E+02 -0.11798519316E+03  0.12379071976E+03  0.00000000000E+00 0. -1.
         21    1    1    2  503  501 -0.25173986449E+02  0.14548861694E+01  0.43632428802E+02  0.50394792694E+02  0.00000000000E+00 0. -1.
          2    1    1    2  501    0 -0.19778245656E+02  0.43236906479E+02  0.45719337212E+02  0.65961101251E+02  0.00000000000E+00 0. -1.
<scales pt_clust_5="13000.00000" pt_clust_6="13000.00000" pt_clust_7="13000.00000" pt_clust_8="13000.00000" pt_clust_9="25.21599" pt_clust_10="55.73586"></scales>
<clustering>
<clus scale="   25.216">  1  9  2 -1</clus>
<clus scale="   55.736">  1 10  2 -1</clus>
<clus scale="   89.324">  5  6 -1 -1</clus>
<clus scale="   95.160">  7  8 -1 -1</clus>
<clus scale="   97.706">  2  5  1 -1</clus>
<clus scale="   25.216">  1  5  2 -1</clus>
</clustering>
</event>
<event>
10    2  0.1671105E-006  0.9693485E+02  0.7546771E-02  0.1287614E+00
         21   -1    0    0  503  502  0.00000000000E+00  0.00000000000E+00  0.22703130035E+03  0.22703130035E+03  0.00000000000E+00 0.  1.
         -1   -1    0    0    0  501 -0.00000000000E+00 -0.00000000000E+00 -0.24444861943E+03  0.24444861943E+03  0.00000000000E+00 0.  1.
         23    2    1    2    0    0 -0.41094279339E+02  0.56503727218E+02 -0.12647698806E+03  0.17247327107E+03  0.94176375698E+02 0.  0.
         23    2    1    2    0    0 -0.26058416087E+02  0.40647804228E+01 -0.28079259357E+02  0.10047958666E+03  0.92801611191E+02 0.  0.
        -11    1    4    4    0    0 -0.45547768772E+02  0.86300671307E+01 -0.51751509857E+02  0.69478745464E+02  0.00000000000E+00 0.  1.
         11    1    4    4    0    0  0.19489352685E+02 -0.45652867079E+01  0.23672250500E+02  0.31000841191E+02  0.00000000000E+00 0. -1.
        -13    1    3    3    0    0 -0.35431733839E+02 -0.19663475713E+02 -0.37504788159E+02  0.55214755046E+02  0.00000000000E+00 0.  1.
         13    1    3    3    0    0 -0.56625455002E+01  0.76167202932E+02 -0.88972199906E+02  0.11725851602E+03  0.00000000000E+00 0. -1.
         21    1    1    2  503  501  0.27973433874E+02 -0.31383028932E+02 -0.10233209969E+02  0.43268072454E+02  0.00000000000E+00 0. -1.
         -1    1    1    2    0  502  0.39179261552E+02 -0.29185478710E+02  0.14737213831E+03  0.15525898961E+03  0.00000000000E+00 0.  1.
<scales pt_clust_5="13000.00000" pt_clust_6="13000.00000" pt_clust_7="13000.00000" pt_clust_8="13000.00000" pt_clust_9="42.04055" pt_clust_10="49.60116"></scales>
<clustering>
<clus scale="   42.041">  2  9  1 -1</clus>
<clus scale="   49.601">  1 10  2 -1</clus>
<clus scale="   92.802">  5  6 -1 -1</clus>
<clus scale="   94.176">  7  8 -1 -1</clus>
<clus scale="   95.600">  1  5  2 -1</clus>
<clus scale="   49.601">  1  5  2 -1</clus>
</clustering>
</event>
<event>
10    2  0.1671105E-006  0.1633189E+03  0.7546771E-02  0.1185525E+00
          1   -1    0    0  503    0 -0.00000000000E+00  0.00000000000E+00  0.77920533073E+03  0.77920533073E+03  0.00000000000E+00 0. -1.
         21   -1    0    0  501  502  0.00000000000E+00 -0.00000000000E+00 -0.75214154742E+02  0.75214154742E+02  0.00000000000E+00 0. -1.
         23    2    1    2    0    0  0.13159975883E+03  0.53997693790E+02  0.48186449946E+03  0.51030737759E+03  0.89364289980E+02 0.  0.
         23    2    1    2    0    0 -0.10739249610E+03 -0.56579209696E+02  0.21491321881E+03  0.26367586276E+03  0.92751893752E+02 0.  0.
        -11    1    4    4    0    0 -0.58692491617E+01 -0.30901265606E+02  0.11395009329E+03  0.11821150562E+03  0.00000000000E+00 0.  1.
         11    1    4    4    0    0 -0.10152324694E+03 -0.25677944089E+02  0.10096312552E+03  0.14546435713E+03  0.00000000000E+00 0. -1.
        -13    1    3    3    0    0 -0.95667063508E+01  0.19504507536E+02  0.46364026174E+02  0.51201275450E+02  0.00000000000E+00 0.  1.
         13    1    3    3    0    0  0.14116646518E+03  0.34493186254E+02  0.43550047329E+03  0.45910610214E+03  0.00000000000E+00 0. -1.
         21    1    1    2  503  502 -0.10870617113E+02  0.24862684033E+02  0.33751539726E+02  0.43306925631E+02  0.00000000000E+00 0. -1.
          1    1    1    2  501    0 -0.13336645618E+02 -0.22281168127E+02 -0.26538082006E+02  0.37129319493E+02  0.00000000000E+00 0. -1.
<scales pt_clust_5="13000.00000" pt_clust_6="13000.00000" pt_clust_7="13000.00000" pt_clust_8="13000.00000" pt_clust_9="25.58152" pt_clust_10="25.96761"></scales>
<clustering>
<clus scale="   25.968">  2 10  1 -1</clus>
<clus scale="   25.582">  2  9  1 -1</clus>
<clus scale="   89.364">  7  8 -1 -1</clus>
<clus scale="   92.752">  5  6 -1 -1</clus>
<clus scale="  161.419">  1  7  2 -1</clus>
<clus scale="   25.968">  2  5  1 -1</clus>
</clustering>
</event>
<event>
10    2  0.1671105E-006  0.1614740E+03  0.7546771E-02  0.1188401E+00
         21   -1    0    0  503  502  0.00000000000E+00  0.00000000000E+00  0.18094992790E+03  0.18094992790E+03  0.00000000000E+00 0. -1.
          2   -1    0    0  502    0 -0.00000000000E+00 -0.00000000000E+00 -0.55333414367E+03  0.55333414367E+03  0.00000000000E+00 0. -1.
         23    2    1    2    0    0 -0.82032238287E+02  0.76494317696E+02 -0.21728059603E+03  0.26368480831E+03  0.98682075187E+02 0.  0.
         23    2    1    2    0    0  0.15255561081E+03 -0.15931013333E+03  0.33501989054E+02  0.24080939844E+03  0.90630293682E+02 0.  0.
        -11    1    3    3    0    0  0.17439566174E+02  0.32015202990E+02 -0.83728443871E+02  0.91321213329E+02  0.00000000000E+00 0.  1.
         11    1    3    3    0    0 -0.99471804461E+02  0.44479114706E+02 -0.13355215216E+03  0.17236359498E+03  0.00000000000E+00 0. -1.
        -11    1    4    4    0    0  0.10815626311E+03 -0.75627293858E+02  0.56126182237E+02  0.14341343438E+03  0.00000000000E+00 0. -1.
         11    1    4    4    0    0  0.44399347698E+02 -0.83682839469E+02 -0.22624193184E+02  0.97395964059E+02  0.00000000000E+00 0.  1.
         21    1    1    2  503  501 -0.31300840329E+01  0.23221298005E+02 -0.31191445744E+01  0.23638002664E+02  0.00000000000E+00 0. -1.
          2    1    1    2  501    0 -0.67393288493E+02  0.59594517627E+02 -0.18548646422E+03  0.20615186217E+03  0.00000000000E+00 0. -1.
<scales pt_clust_5="13000.00000" pt_clust_6="13000.00000" pt_clust_7="13000.00000" pt_clust_8="13000.00000" pt_clust_9="23.43131" pt_clust_10="91.04100"></scales>
<clustering>
<clus scale="   23.431">  1  9  2 -1</clus>
<clus scale="   90.630">  7  8 -1 -1</clus>
<clus scale="   91.041">  1 10  2 -1</clus>
<clus scale="   98.682">  5  6 -1 -1</clus>
<clus scale="  156.683">  1  7  2 -1</clus>
<clus scale="   23.431">  1  5  2 -1</clus>
</clustering>
</event>
<event>
10    2  0.1671105E-006  0.1460270E+03  0.7546771E-02  0.1205819E+00
          1   -1    0    0  503    0 -0.00000000000E+00  0.00000000000E+00  0.10077173150E+04  0.10077173150E+04  0.00000000000E+00 0. -1.
         21   -1    0    0  501  502  0.00000000000E+00 -0.00000000000E+00 -0.67798543053E+02  0.67798543053E+02  0.00000000000E+00 0. -1.
         23    2    1    2    0    0  0.41809886234E+02  0.12037891918E+03  0.76274681115E+03  0.77893451781E+03  0.93365595093E+02 0.  0.
         23    2    1    2    0    0  0.30260166142E+02 -0.66559769327E+02  0.82340209829E+02  0.14317568527E+03  0.91506754672E+02 0.  0.
        -11    1    3    3    0    0  0.66792441463E+02  0.10786020187E+03  0.67588501973E+03  0.68768860197E+03  0.00000000000E+00 0. -1.
         11    1    3    3    0    0 -0.24982555229E+02  0.12518717310E+02  0.86861791419E+02  0.91245915839E+02  0.00000000000E+00 0.  1.
        -13    1    4    4    0    0  0.23197211202E+02 -0.89828987642E+02  0.63778460267E+02  0.11258352287E+03  0.00000000000E+00 0.  1.
         13    1    4    4    0    0  0.70629549392E+01  0.23269218315E+02  0.18561749562E+02  0.30592162399E+02  0.00000000000E+00 0. -1.
         21    1    1    2  503  502 -0.15305875047E+02 -0.54877382859E+02  0.72949906751E+02  0.92560714428E+02  0.00000000000E+00 0.  1.
          1    1    1    2  501    0 -0.56764177329E+02  0.10582330082E+01  0.21881844236E+02  0.60844940563E+02  0.00000000000E+00 0. -1.
<scales pt_clust_5="13000.00000" pt_clust_6="13000.00000" pt_clust_7="13000.00000" pt_clust_8="13000.00000" pt_clust_9="60.89017" pt_clust_10="56.77404"></scales>
<clustering>
<clus scale="   56.774">  2 10  1 -1</clus>
<clus scale="   60.890">  2  9  1 -1</clus>
<clus scale="   91.507">  7  8 -1 -1</clus>
<clus scale="   93.366">  5  6 -1 -1</clus>
<clus scale="  144.846">  2  7  1 -1</clus>
<clus scale="   56.774">  2  5  1 -1</clus>
</clustering>
</event>
<event>
10    2  0.1671105E-006  0.1255064E+03  0.7546771E-02  0.1234414E+00
         21   -1    0    0  501  502  0.00000000000E+00  0.00000000000E+00  0.34906870105E+03  0.34906870105E+03  0.00000000000E+00 0. -1.
          1   -1    0    0  503    0 -0.00000000000E+00 -0.00000000000E+00 -0.33945258574E+03  0.33945258574E+03  0.00000000000E+00 0. -1.
         23    2    1    2    0    0  0.22911736207E+02 -0.76399309289E+02 -0.23192721155E+03  0.26213320607E+03  0.92529909499E+02 0.  0.
         23    2    1    2    0    0 -0.23721725606E+02  0.10185844865E+03 -0.23445001324E+02  0.14128999338E+03  0.92061557198E+02 0.  0.
        -11    1    3    3    0    0 -0.20758106168E+02 -0.59517992458E+02 -0.72976617579E+02  0.96430685527E+02  0.00000000000E+00 0. -1.
         11    1    3    3    0    0  0.43669842375E+02 -0.16881316831E+02 -0.15895059397E+03  0.16570252054E+03  0.00000000000E+00 0.  1.
        -13    1    4    4    0    0  0.23350633714E+02  0.82651219114E+02 -0.27774698151E+02  0.90265774096E+02  0.00000000000E+00 0.  1.
         13    1    4    4    0    0 -0.47072359320E+02  0.19207229537E+02  0.43296968271E+01  0.51024219279E+02  0.00000000000E+00 0. -1.
         21    1    1    2  503  502  0.43592576731E+02  0.12958607662E+02  0.88862606463E+02  0.99823850286E+02  0.00000000000E+00 0. -1.
          1    1    1    2  501    0 -0.42782587331E+02 -0.38417747024E+02  0.17612572172E+03  0.18527423705E+03  0.00000000000E+00 0. -1.
<scales pt_clust_5="13000.00000" pt_clust_6="13000.00000" pt_clust_7="13000.00000" pt_clust_8="13000.00000" pt_clust_9="45.47789" pt_clust_10="31.53924"></scales>
<clustering>
<clus scale="   45.478">  1  9  2 -1</clus>
<clus scale="   31.539">  1 10  2 -1</clus>
<clus scale="   92.062">  7  8 -1 -1</clus>
<clus scale="   92.530">  5  6 -1 -1</clus>
<clus scale="  125.161">  1  7  2 -1</clus>
<clus scale="   45.478">  1  5  2 -1</clus>
</clustering>
</event>
<event>
10    2  0.1671105E-006  0.1518395E+03  0.7546771E-02  0.1209895E+00
         -1   -1    0    0    0  501 -0.00000000000E+00  0.00000000000E+00  0.25790402122E+03  0.25790402122E+03  0.00000000000E+00 0.  1.
         21   -1    0    0  503  502  0.00000000000E+00 -0.00000000000E+00 -0.42942420745E+03  0.42942420745E+03  0.00000000000E+00 0.  1.
         23    2    1    2    0    0 -0.35416223657E+01 -0.73261446379E+02  0.78021248538E+02  0.14024061184E+03  0.90555681049E+02 0.  0.
         23    2    1    2    0    0 -0.78070988693E+02 -0.74932217577E+02  0.18681752818E+01  0.14117502639E+03  0.90647567482E+02 0.  0.
        -11    1    3    3    0    0 -0.31789750108E+02 -0.76953427467E+02  0.74145528098E+02  0.11148980917E+03  0.00000000000E+00 0.  1.
         11    1    3    3    0    0  0.28248127742E+02  0.36919810872E+01  0.38757204396E+01  0.28750802671E+02  0.00000000000E+00 0. -1.
        -11    1    4    4    0    0 -0.69425385423E+02 -0.51129473609E+02  0.40280314629E+02  0.95166228040E+02  0.00000000000E+00 0.  1.
         11    1    4    4    0    0 -0.86456032707E+01 -0.23802743968E+02 -0.38412139347E+02  0.46008798349E+02  0.00000000000E+00 0. -1.
         21    1    1    2  503  501  0.80982560992E+02  0.18050526162E+02  0.35974492662E+02  0.90433184185E+02  0.00000000000E+00 0.  1.
         -1    1    1    2    0  502  0.63005006702E+00  0.13014313779E+03 -0.28738410272E+03  0.31547940626E+03  0.00000000000E+00 0.  1.
<scales pt_clust_5="13000.00000" pt_clust_6="13000.00000" pt_clust_7="13000.00000" pt_clust_8="13000.00000" pt_clust_9="82.96985" pt_clust_10="121.81234"></scales>
<clustering>
<clus scale="   82.970">  1  9  2 -1</clus>
<clus scale="   90.556">  5  6 -1 -1</clus>
<clus scale="   90.648">  7  8 -1 -1</clus>
<clus scale="  118.063">  1  5  2 -1</clus>
<clus scale="  121.812">  2 10  1 -1</clus>
<clus scale="  121.812">  2  5  1 -1</clus>
</clustering>
</event>
<event>
10    2  0.1671105E-006  0.1249285E+03  0.7546771E-02  0.1240652E+00
          2   -1    0    0  502    0 -0.00000000000E+00  0.00000000000E+00  0.64259588541E+03  0.64259588541E+03  0.00000000000E+00 0. -1.
         21   -1    0    0  503  502  0.00000000000E+00 -0.00000000000E+00 -0.63959817194E+02  0.63959817194E+02  0.00000000000E+00 0. -1.
         23    2    1    2    0    0 -0.82315663629E+01 -0.82527736778E+02  0.28264515294E+03  0.30814300066E+03  0.90472318169E+02 0.  0.
         23    2    1    2    0    0 -0.89155406654E+02  0.19824965933E+02  0.19956733084E+03  0.24387172135E+03  0.10632300373E+03 0.  0.
        -11    1    3    3    0    0 -0.48567614188E+02 -0.48220236616E+02  0.18150143615E+03  0.19397622455E+03  0.00000000000E+00 0. -1.
         11    1    3    3    0    0  0.40336047825E+02 -0.34307500162E+02  0.10114371679E+03  0.11416677611E+03  0.00000000000E+00 0.  1.
        -13    1    4    4    0    0 -0.71878534222E+02 -0.18536753167E+02  0.52538995596E+02  0.90942184700E+02  0.00000000000E+00 0. -1.
         13    1    4    4    0    0 -0.17276872432E+02  0.38361719100E+02  0.14702833525E+03  0.15292953665E+03  0.00000000000E+00 0.  1.
         21    1    1    2  503  501  0.18678085039E+02  0.29984893747E+02  0.24219515538E+02  0.42831643053E+02  0.00000000000E+00 0. -1.
          2    1    1    2  501    0  0.78708887977E+02  0.32717877098E+02  0.72204068894E+02  0.11170933754E+03  0.00000000000E+00 0. -1.
<scales pt_clust_5="13000.00000" pt_clust_6="13000.00000" pt_clust_7="13000.00000" pt_clust_8="13000.00000" pt_clust_9="22.01620" pt_clust_10="120.77006"></scales>
<clustering>
<clus scale="   22.016">  9 10 -1 -1</clus>
<clus scale="   90.472">  5  6 -1 -1</clus>
<clus scale="  106.323">  7  8 -1 -1</clus>
<clus scale="  120.770">  2  9  1 -1</clus>
<clus scale="  111.749">  1  5  2 -1</clus>
<clus scale="  120.770">  2  5  1 -1</clus>
</clustering>
</event>
<event>
10    2  0.1671105E-006  0.1011288E+03  0.7546771E-02  0.1279076E+00
         -1   -1    0    0    0  501 -0.00000000000E+00  0.00000000000E+00  0.21054404095E+03  0.21054404095E+03  0.00000000000E+00 0.  1.
         21   -1    0    0  503  502  0.00000000000E+00 -0.00000000000E+00 -0.12531830966E+03  0.12531830966E+03  0.00000000000E+00 0. -1.
         23    2    1    2    0    0 -0.19030553797E+02  0.32428535283E+02  0.66830147675E+02  0.11925711315E+03  0.91335746130E+02 0.  0.
         23    2    1    2    0    0 -0.13840599457E+02 -0.56179255483E+02  0.57935267035E+02  0.12088184053E+03  0.88928360286E+02 0.  0.
        -11    1    3    3    0    0 -0.31899133102E+02  0.60182530290E+02  0.44078463415E+02  0.81132007135E+02  0.00000000000E+00 0.  1.
         11    1    3    3    0    0  0.12868579306E+02 -0.27753995008E+02  0.22751684260E+02  0.38125106018E+02  0.00000000000E+00 0. -1.
        -11    1    4    4    0    0  0.22722805998E+02  0.82722317963E-01  0.47926453876E+02  0.53040340652E+02  0.00000000000E+00 0.  1.
         11    1    4    4    0    0 -0.36563405455E+02 -0.56261977801E+02  0.10008813159E+02  0.67841499876E+02  0.00000000000E+00 0. -1.
         21    1    1    2  503  501 -0.23268205300E+02 -0.47694782014E+01 -0.15284787206E+02  0.28245035318E+02  0.00000000000E+00 0. -1.
         -1    1    1    2    0  502  0.56139358554E+02  0.28520198402E+02 -0.24254896214E+02  0.67478361614E+02  0.00000000000E+00 0.  1.
<scales pt_clust_5="13000.00000" pt_clust_6="13000.00000" pt_clust_7="13000.00000" pt_clust_8="13000.00000" pt_clust_9="23.75200" pt_clust_10="52.89660"></scales>
<clustering>
<clus scale="   23.752">  2  9  1 -1</clus>
<clus scale="   52.897">  2 10  1 -1</clus>
<clus scale="   88.928">  7  8 -1 -1</clus>
<clus scale="   91.336">  5  6 -1 -1</clus>
<clus scale="   98.960">  2  7  1 -1</clus>
<clus scale="   23.752">  2  5  1 -1</clus>
</clustering>
</event>
<event>
10    2  0.1671105E-006  0.2651935E+03  0.7546771E-02  0.1104131E+00
          2   -1    0    0  502    0 -0.00000000000E+00  0.00000000000E+00  0.20304340229E+04  0.20304340229E+04  0.00000000000E+00 0. -1.
         21   -1    0    0  503  502  0.00000000000E+00 -0.00000000000E+00 -0.53314206663E+02  0.53314206663E+02  0.00000000000E+00 0.  1.
         23    2    1    2    0    0  0.26314914204E+03  0.12862448641E+03  0.12290732697E+04  0.12666903597E+04  0.89953520238E+02 0.  0.
         23    2    1    2    0    0 -0.16102583100E+03 -0.97372624472E+02  0.39037146926E+03  0.44287616200E+03  0.91316288888E+02 0.  0.
        -13    1    3    3    0    0  0.11374846583E+03  0.41697309770E+02  0.33921852161E+03  0.36020353208E+03  0.00000000000E+00 0. -1.
         13    1    3    3    0    0  0.14940067621E+03  0.86927176644E+02  0.88985474805E+03  0.90648682766E+03  0.00000000000E+00 0.  1.
        -13    1    4    4    0    0 -0.13724882716E+03 -0.33886346148E+02  0.26330814762E+03  0.29885900625E+03  0.00000000000E+00 0.  1.
         13    1    4    4    0    0 -0.23777003838E+02 -0.63486278323E+02  0.12706332163E+03  0.14401715575E+03  0.00000000000E+00 0. -1.
         21    1    1    2  503  501 -0.39656584330E+02 -0.12298845647E+02  0.18443830524E+03  0.18905394660E+03  0.00000000000E+00 0. -1.
          2    1    1    2  501    0 -0.62466726713E+02 -0.18953016295E+02  0.17323677204E+03  0.18512776118E+03  0.00000000000E+00 0. -1.
<scales pt_clust_5="13000.00000" pt_clust_6="13000.00000" pt_clust_7="13000.00000" pt_clust_8="13000.00000" pt_clust_9="20.71470" pt_clust_10="109.91134"></scales>
<clustering>
<clus scale="   20.715">  9 10 -1 -1</clus>
<clus scale="   89.954">  5  6 -1 -1</clus>
<clus scale="   91.316">  7  8 -1 -1</clus>
<clus scale="  109.911">  2  9  1 -1</clus>
<clus scale="  264.727">  1  5  2 -1</clus>
<clus scale="  109.911">  2  5  1 -1</clus>
</clustering>
</event>
<event>
10    2  0.1671105E-006  0.1690508E+03  0.7546771E-02  0.1209317E+00
          1   -1    0    0  502    0 -0.00000000000E+00  0.00000000000E+00  0.18918876879E+03  0.18918876879E+03  0.00000000000E+00 0. -1.
         21   -1    0    0  503  502  0.00000000000E+00 -0.00000000000E+00 -0.48146447851E+03  0.48146447851E+03  0.00000000000E+00 0.  1.
         23    2    1    2    0    0  0.31556994019E+01  0.69543026668E+00  0.61585771125E+02  0.10627550307E+03  0.86551910934E+02 0.  0.
         23    2    1    2    0    0  0.10660057425E+03  0.92373427157E+02 -0.37909632674E+03  0.41491634336E+03  0.92439247963E+02 0.  0.
        -11    1    3    3    0    0 -0.12786344883E+02  0.41157612574E+02  0.31922277595E+02  0.53632746481E+02  0.00000000000E+00 0.  1.
         11    1    3    3    0    0  0.15942044285E+02 -0.40462182308E+02  0.29663493530E+02  0.52642756591E+02  0.00000000000E+00 0. -1.
        -11    1    4    4    0    0  0.95587930021E+02  0.27200856317E+02 -0.26548596489E+03  0.28347792948E+03  0.00000000000E+00 0. -1.
         11    1    4    4    0    0  0.11012644231E+02  0.65172570840E+02 -0.11361036185E+03  0.13143841387E+03  0.00000000000E+00 0.  1.
         21    1    1    2  503  501 -0.37276356089E+02 -0.31954554861E+02  0.23992378554E+02  0.54646633275E+02  0.00000000000E+00 0. -1.
          1    1    1    2  501    0 -0.72479917565E+02 -0.61114302563E+02  0.12424673434E+01  0.94814767590E+02  0.00000000000E+00 0. -1.
<scales pt_clust_5="13000.00000" pt_clust_6="13000.00000" pt_clust_7="13000.00000" pt_clust_8="13000.00000" pt_clust_9="22.68465" pt_clust_10="145.00640"></scales>
<clustering>
<clus scale="   22.685">  9 10 -1 -1</clus>
<clus scale="   86.552">  5  6 -1 -1</clus>
<clus scale="   86.612">  1  5  2 -1</clus>
<clus scale="   92.439">  7  8 -1 -1</clus>
<clus scale="  145.006">  2  9  1 -1</clus>
<clus scale="  145.006">  2  5  1 -1</clus>
</clustering>
</event>
<event>
10    2  0.1671105E-006  0.2449520E+03  0.7546771E-02  0.1116797E+00
         21   -1    0    0  503  502  0.00000000000E+00  0.00000000000E+00  0.46485984103E+03  0.46485984103E+03  0.00000000000E+00 0. -1.
          2   -1    0    0  502    0 -0.00000000000E+00 -0.00000000000E+00 -0.73077162721E+03  0.73077162721E+03  0.00000000000E+00 0. -1.
         23    2    1    2    0    0 -0.24306176627E+03  0.17110871031E+02 -0.53045379143E+03  0.59098691130E+03  0.92263212331E+02 0.  0.
         23    2    1    2    0    0  0.15607929682E+03  0.17838795226E+03 -0.67539351140E+01  0.25290484460E+03  0.87933135819E+02 0.  0.
        -11    1    4    4    0    0  0.13667974280E+03  0.93843642978E+02 -0.10064733676E+02  0.16610021157E+03  0.00000000000E+00 0. -1.
         11    1    4    4    0    0  0.19399554020E+02  0.84544309286E+02  0.33107985623E+01  0.86804633033E+02  0.00000000000E+00 0.  1.
        -11    1    3    3    0    0 -0.97093657234E+02  0.13701992422E+02 -0.32116600228E+03  0.33580131610E+03  0.00000000000E+00 0.  1.
         11    1    3    3    0    0 -0.14596810904E+03  0.34088786089E+01 -0.20928778914E+03  0.25518559519E+03  0.00000000000E+00 0. -1.
         21    1    1    2  503  501  0.82653689913E+02 -0.17261059196E+03  0.26626748544E+03  0.32790916839E+03  0.00000000000E+00 0. -1.
          2    1    1    2  501    0  0.43287795380E+01 -0.22888231336E+02  0.50284549182E+01  0.23830543948E+02  0.00000000000E+00 0. -1.
<scales pt_clust_5="13000.00000" pt_clust_6="13000.00000" pt_clust_7="13000.00000" pt_clust_8="13000.00000" pt_clust_9="22.96670" pt_clust_10="223.87349"></scales>
<clustering>
<clus scale="   22.967">  9 10 -1 -1</clus>
<clus scale="   87.933">  5  6 -1 -1</clus>
<clus scale="   92.263">  7  8 -1 -1</clus>
<clus scale="  223.873">  1  9  2 -1</clus>
<clus scale="  243.354">  1  5  2 -1</clus>
<clus scale="  223.873">  1  5  2 -1</clus>
</clustering>
</event>
<event>
10    2  0.1671105E-006  0.1567314E+03  0.7546771E-02  0.1204712E+00
         21   -1    0    0  501  502  0.00000000000E+00  0.00000000000E+00  0.10642529701E+03  0.10642529701E+03  0.00000000000E+00 0. -1.
          1   -1    0    0  503    0 -0.00000000000E+00 -0.00000000000E+00 -0.54631710346E+03  0.54631710346E+03  0.00000000000E+00 0. -1.
         23    2    1    2    0    0  0.39644483346E+02 -0.62616536760E+02 -0.40152188812E+02  0.12280945923E+03  0.89316567747E+02 0.  0.
         23    2    1    2    0    0  0.11052591171E+03  0.80477544627E+02 -0.27304433703E+03  0.31963230335E+03  0.94440388659E+02 0.  0.
        -13    1    3    3    0    0 -0.60954236175E+01 -0.55300044641E+02 -0.50734857762E+02  0.75294587578E+02  0.00000000000E+00 0.  1.
         13    1    3    3    0    0  0.45739906963E+02 -0.73164921197E+01  0.10582668950E+02  0.47514871651E+02  0.00000000000E+00 0. -1.
        -13    1    4    4    0    0  0.84986217309E+02  0.78661078282E+02 -0.27007692457E+03  0.29385671263E+03  0.00000000000E+00 0. -1.
         13    1    4    4    0    0  0.25539694405E+02  0.18164663456E+01 -0.29674124549E+01  0.25775590720E+02  0.00000000000E+00 0.  1.
         21    1    1    2  503  502 -0.24492629485E+02 -0.27114945315E+02 -0.84728874404E+01  0.37508652070E+02  0.00000000000E+00 0. -1.
          1    1    1    2  501    0 -0.12567776557E+03  0.92539374482E+01 -0.11822239317E+03  0.17279198582E+03  0.00000000000E+00 0. -1.
<scales pt_clust_5="13000.00000" pt_clust_6="13000.00000" pt_clust_7="13000.00000" pt_clust_8="13000.00000" pt_clust_9="36.53915" pt_clust_10="125.08301"></scales>
<clustering>
<clus scale="   36.539">  1  9  2 -1</clus>
<clus scale="   89.317">  5  6 -1 -1</clus>
<clus scale="   94.440">  7  8 -1 -1</clus>
<clus scale="  119.974">  2  5  1 -1</clus>
<clus scale="  125.083">  1 10  2 -1</clus>
<clus scale="   36.539">  1  5  2 -1</clus>
</clustering>
</event>
<event>
10    2  0.1671105E-006  0.1574453E+03  0.7546771E-02  0.1191952E+00
         21   -1    0    0  503  502  0.00000000000E+00  0.00000000000E+00  0.64246447103E+02  0.64246447103E+02  0.00000000000E+00 0.  1.
          1   -1    0    0  502    0 -0.00000000000E+00 -0.00000000000E+00 -0.11194496436E+04  0.11194496436E+04  0.00000000000E+00 0. -1.
         23    2    1    2    0    0 -0.85019758358E+02  0.83032814198E+02 -0.53411229924E+03  0.55482503508E+03  0.91826269694E+02 0.  0.
         23    2    1    2    0    0  0.17559014728E+03 -0.50775371478E+02 -0.18963495208E+03  0.27827015244E+03  0.89793232035E+02 0.  0.
        -11    1    4    4    0    0  0.27128648367E+02 -0.37216469658E+02 -0.14514003989E+02  0.48287529320E+02  0.00000000000E+00 0.  1.
         11    1    4    4    0    0  0.14846149892E+03 -0.13558901820E+02 -0.17512094809E+03  0.22998262312E+03  0.00000000000E+00 0. -1.
        -13    1    3    3    0    0  0.10873785862E+01  0.29026945344E+02 -0.35071637882E+02  0.45538618029E+02  0.00000000000E+00 0.  1.
         13    1    3    3    0    0 -0.86107136945E+02  0.54005868854E+02 -0.49904066136E+03  0.50928641705E+03  0.00000000000E+00 0. -1.
         21    1    1    2  503  501 -0.34225156866E+01 -0.23288917757E+02 -0.41638951598E+02  0.47831888883E+02  0.00000000000E+00 0. -1.
          1    1    1    2  501    0 -0.87147873238E+02 -0.89685249642E+01 -0.28981699353E+03  0.30276901425E+03  0.00000000000E+00 0. -1.
<scales pt_clust_5="13000.00000" pt_clust_6="13000.00000" pt_clust_7="13000.00000" pt_clust_8="13000.00000" pt_clust_9="23.53906" pt_clust_10="88.25431"></scales>
<clustering>
<clus scale="   23.539">  1  9  2 -1</clus>
<clus scale="   88.254">  1 10  2 -1</clus>
<clus scale="   89.793">  5  6 -1 -1</clus>
<clus scale="   91.826">  7  8 -1 -1</clus>
<clus scale="  156.268">  1  5  2 -1</clus>
<clus scale="   23.539">  1  5  2 -1</clus>
</clustering>
</event>
<event>
10    2  0.1671105E-006  0.1698805E+03  0.7546771E-02  0.1198249E+00
         21   -1    0    0  503  502  0.00000000000E+00  0.00000000000E+00  0.66287591489E+03  0.66287591489E+03  0.00000000000E+00 0. -1.
         -1   -1    0    0    0  501 -0.00000000000E+00 -0.00000000000E+00 -0.84910916593E+02  0.84910916593E+02  0.00000000000E+00 0.  1.
         23    2    1    2    0    0  0.60847635889E+02  0.28231709185E+01  0.64291870094E+02  0.12668892303E+03  0.90588263987E+02 0.  0.
         23    2    1    2    0    0  0.10644566243E+03  0.42650198956E+02  0.13449489740E+03  0.19816437772E+03  0.89613194620E+02 0.  0.
        -11    1    4    4    0    0  0.54640890373E+02 -0.17173440414E+02  0.91913970144E+02  0.10829926991E+03  0.00000000000E+00 0. -1.
         11    1    4    4    0    0  0.51804772057E+02  0.59823639369E+02  0.42580927258E+02  0.89865107808E+02  0.00000000000E+00 0.  1.
        -13    1    3    3    0    0  0.62445160403E+02  0.27978469492E+02  0.13158193492E+02  0.69680204283E+02  0.00000000000E+00 0. -1.
         13    1    3    3    0    0 -0.15975245146E+01 -0.25155298574E+02  0.51133676602E+02  0.57008718752E+02  0.00000000000E+00 0.  1.
         21    1    1    2  503  501 -0.89279144388E+01 -0.23796407774E+02  0.33160364586E+02  0.41780216115E+02  0.00000000000E+00 0.  1.
         -1    1    1    2    0  502 -0.15836538388E+03 -0.21676962101E+02  0.34601786621E+03  0.38115331461E+03  0.00000000000E+00 0.  1.
<scales pt_clust_5="13000.00000" pt_clust_6="13000.00000" pt_clust_7="13000.00000" pt_clust_8="13000.00000" pt_clust_9="25.41607" pt_clust_10="144.32206"></scales>
<clustering>
<clus scale="   25.416">  1  9  2 -1</clus>
<clus scale="   89.613">  5  6 -1 -1</clus>
<clus scale="   90.588">  7  8 -1 -1</clus>
<clus scale="  108.376">  2  7  1 -1</clus>
<clus scale="  144.322">  1 10  2 -1</clus>
<clus scale="   25.416">  1  5  2 -1</clus>
</clustering>
</event>
<event>
10    2  0.1728495E-006  0.2074647E+03  0.7546771E-02  0.1167357E+00
         21   -1    0    0  501  502  0.00000000000E+00  0.00000000000E+00  0.22601648085E+03  0.22601648085E+03  0.00000000000E+00 0. -1.
          1   -1    0    0  503    0 -0.00000000000E+00 -0.00000000000E+00 -0.57090520827E+03  0.57090520827E+03  0.00000000000E+00 0. -1.
         23    2    1    2    0    0 -0.62602010086E+02 -0.40201375678E+02 -0.12166430617E+03  0.16907295916E+03  0.90820151121E+02 0.  0.
         23    2    1    2    0    0 -0.57416630613E+02 -0.11618095104E+03 -0.32767973731E+03  0.36394972366E+03  0.91053326402E+02 0.  0.
        -11    1    4    4    0    0 -0.80553487963E+02 -0.71941373888E+02 -0.21088980788E+03  0.23693656697E+03  0.00000000000E+00 0. -1.
         11    1    4    4    0    0  0.23136857350E+02 -0.44239577157E+02 -0.11678992943E+03  0.12701315668E+03  0.00000000000E+00 0.  1.
        -11    1    3    3    0    0  0.16791139884E+02 -0.23310151946E+02 -0.87886755850E+01  0.30042409705E+02  0.00000000000E+00 0.  1.
         11    1    3    3    0    0 -0.79393149970E+02 -0.16891223732E+02 -0.11287563059E+03  0.13903054945E+03  0.00000000000E+00 0. -1.
         21    1    1    2  503  502 -0.31095476698E+02  0.15439126125E+02  0.69384104855E+01  0.35403909765E+02  0.00000000000E+00 0.  1.
          1    1    1    2  501    0  0.15111411740E+03  0.14094320060E+03  0.97516905579E+02  0.22849509654E+03  0.00000000000E+00 0. -1.
<scales pt_clust_5="13000.00000" pt_clust_6="13000.00000" pt_clust_7="13000.00000" pt_clust_8="13000.00000" pt_clust_9="34.71736" pt_clust_10="186.41597"></scales>
<clustering>
<clus scale="   34.717">  1  9  2 -1</clus>
<clus scale="   90.820">  7  8 -1 -1</clus>
<clus scale="   91.053">  5  6 -1 -1</clus>
<clus scale="  118.771">  2  7  1 -1</clus>
<clus scale="  186.416">  1 10  2 -1</clus>
<clus scale="   34.717">  1  5  2 -1</clus>
</clustering>
</event>
<event>
10    2  0.1671105E-006  0.1300687E+03  0.7546771E-02  0.1229131E+00
          1   -1    0    0  503    0 -0.00000000000E+00  0.00000000000E+00  0.12294898721E+03  0.12294898721E+03  0.00000000000E+00 0. -1.
         21   -1    0    0  501  502  0.00000000000E+00 -0.00000000000E+00 -0.24128917940E+03  0.24128917940E+03  0.00000000000E+00 0.  1.
         23    2    1    2    0    0  0.21623198718E+02  0.89291513153E+02 -0.43726578453E+02  0.13381437352E+03  0.86912230742E+02 0.  0.
         23    2    1    2    0    0 -0.31379943963E+02 -0.82152258966E+02 -0.20825070923E+02  0.13008403803E+03  0.93565371987E+02 0.  0.
        -11    1    4    4    0    0 -0.50541076170E+02 -0.59099557186E+02 -0.46508212180E+02  0.90609998566E+02  0.00000000000E+00 0.  1.
         11    1    4    4    0    0  0.19161132206E+02 -0.23052701780E+02  0.25683141257E+02  0.39474039464E+02  0.00000000000E+00 0. -1.
        -13    1    3    3    0    0  0.17205161424E+02 -0.12609926182E+02 -0.19675609036E+02  0.29019948465E+02  0.00000000000E+00 0.  1.
         13    1    3    3    0    0  0.44180372936E+01  0.10190143934E+03 -0.24050969417E+02  0.10479442505E+03  0.00000000000E+00 0. -1.
         21    1    1    2  503  502 -0.23368393610E+02 -0.21934397320E+02  0.38020996268E+01  0.32274689267E+02  0.00000000000E+00 0.  1.
          1    1    1    2  501    0  0.33125138855E+02  0.14795143133E+02 -0.57590642445E+02  0.68065065796E+02  0.00000000000E+00 0. -1.
<scales pt_clust_5="13000.00000" pt_clust_6="13000.00000" pt_clust_7="13000.00000" pt_clust_8="13000.00000" pt_clust_9="32.04995" pt_clust_10="34.77132"></scales>
<clustering>
<clus scale="   32.050">  1  9  2 -1</clus>
<clus scale="   34.771">  2 10  1 -1</clus>
<clus scale="   86.912">  7  8 -1 -1</clus>
<clus scale="   93.565">  5  6 -1 -1</clus>
<clus scale="  125.368">  1  7  2 -1</clus>
<clus scale="   34.771">  2  5  1 -1</clus>
</clustering>
</event>
<event>
10    2  0.1671105E-006  0.1644414E+03  0.7546771E-02  0.1184627E+00
         21   -1    0    0  503  502  0.00000000000E+00  0.00000000000E+00  0.22700335640E+03  0.22700335640E+03  0.00000000000E+00 0. -1.
         -4   -1    0    0    0  501 -0.00000000000E+00 -0.00000000000E+00 -0.40551383751E+03  0.40551383751E+03  0.00000000000E+00 0.  1.
         23    2    1    2    0    0  0.12517127482E+03  0.54290758698E+02 -0.23651218569E+03  0.28628298435E+03  0.86049977503E+02 0.  0.
         23    2    1    2    0    0 -0.12977512516E+03 -0.43491246872E+02 -0.84103411346E+02  0.18499643509E+03  0.91745438740E+02 0.  0.
        -13    1    4    4    0    0 -0.40956726015E+02 -0.41193428941E+02 -0.76173162090E+02  0.95795107477E+02  0.00000000000E+00 0.  1.
         13    1    4    4    0    0 -0.88818399145E+02 -0.22978179307E+01 -0.79302492563E+01  0.89201327609E+02  0.00000000000E+00 0. -1.
        -13    1    3    3    0    0  0.97166484784E+02  0.78001833876E+02 -0.18131667964E+03  0.22000306854E+03  0.00000000000E+00 0.  1.
         13    1    3    3    0    0  0.28004790037E+02 -0.23711075178E+02 -0.55195506052E+02  0.66279915807E+02  0.00000000000E+00 0. -1.
         21    1    1    2  503  501  0.39070595891E+02 -0.13421490582E+02  0.70146392172E+02  0.81407396516E+02  0.00000000000E+00 0. -1.
         -4    1    1    2    0  502 -0.34466745552E+02  0.26219787565E+01  0.71958723748E+02  0.79830377958E+02  0.00000000000E+00 0.  1.
<scales pt_clust_5="13000.00000" pt_clust_6="13000.00000" pt_clust_7="13000.00000" pt_clust_8="13000.00000" pt_clust_9="24.92431" pt_clust_10="34.56633"></scales>
<clustering>
<clus scale="   34.566">  1 10  2 -1</clus>
<clus scale="   24.924">  1  9  2 -1</clus>
<clus scale="   86.050">  7  8 -1 -1</clus>
<clus scale="   91.745">  5  6 -1 -1</clus>
<clus scale="  161.333">  2  7  1 -1</clus>
<clus scale="   34.566">  1  5  2 -1</clus>
</clustering>
</event>
<event>
10    2  0.1671105E-006  0.1808813E+03  0.7546771E-02  0.1168472E+00
         21   -1    0    0  503  502  0.00000000000E+00  0.00000000000E+00  0.87049083730E+03  0.87049083730E+03  0.00000000000E+00 0.  1.
         -3   -1    0    0    0  501 -0.00000000000E+00 -0.00000000000E+00 -0.11132734445E+03  0.11132734445E+03  0.00000000000E+00 0.  1.
         23    2    1    2    0    0  0.13764907104E+03 -0.80236742062E+02  0.41653015358E+02  0.18503381561E+03  0.84364315292E+02 0.  0.
         23    2    1    2    0    0 -0.69984435609E+02  0.13929698478E+03  0.24252203179E+03  0.30404029179E+03  0.96550981005E+02 0.  0.
        -13    1    3    3    0    0  0.96182893443E+02 -0.81640723156E+02 -0.11658613075E+00  0.12616009774E+03  0.00000000000E+00 0.  1.
         13    1    3    3    0    0  0.41466177601E+02  0.14039810939E+01  0.41769601489E+02  0.58873717874E+02  0.00000000000E+00 0. -1.
        -13    1    4    4    0    0 -0.50096347739E+01  0.10374410763E+03  0.10412847468E+03  0.14707370788E+03  0.00000000000E+00 0. -1.
         13    1    4    4    0    0 -0.64974800835E+02  0.35552877149E+02  0.13839355711E+03  0.15696658391E+03  0.00000000000E+00 0.  1.
         21    1    1    2  503  501 -0.59198936215E+02  0.31334463127E+01  0.14176830426E+03  0.15366386897E+03  0.00000000000E+00 0. -1.
         -3    1    1    2    0  502 -0.84656992208E+01 -0.62193689035E+02  0.33322014145E+03  0.33908020539E+03  0.00000000000E+00 0.  1.
<scales pt_clust_5="13000.00000" pt_clust_6="13000.00000" pt_clust_7="13000.00000" pt_clust_8="13000.00000" pt_clust_9="59.28181" pt_clust_10="70.60291"></scales>
<clustering>
<clus scale="   59.282">  1  9  2 -1</clus>
<clus scale="   70.603">  1 10  2 -1</clus>
<clus scale="   84.364">  5  6 -1 -1</clus>
<clus scale="   96.551">  7  8 -1 -1</clus>
<clus scale="  174.681">  2  5  1 -1</clus>
<clus scale="   59.282">  1  5  2 -1</clus>
</clustering>
</event>
<event>
10    2  0.1671105E-006  0.9773430E+02  0.7546771E-02  0.1285808E+00
         21   -1    0    0  501  502  0.00000000000E+00  0.00000000000E+00  0.22371984975E+03  0.22371984975E+03  0.00000000000E+00 0. -1.
          3   -1    0    0  503    0 -0.00000000000E+00 -0.00000000000E+00 -0.11896178072E+03  0.11896178072E+03  0.00000000000E+00 0. -1.
         23    2    1    2    0    0 -0.33160986369E+02  0.25498093380E+02 -0.14236906435E+02  0.10203757491E+03  0.91973764765E+02 0.  0.
         23    2    1    2    0    0  0.32053420930E+02  0.53808107650E+02  0.29696140217E+02  0.11412253109E+03  0.90660670176E+02 0.  0.
        -11    1    3    3    0    0 -0.62163337753E+02  0.20315694181E+02 -0.25914323642E+02  0.70346003159E+02  0.00000000000E+00 0. -1.
         11    1    3    3    0    0  0.29002351384E+02  0.51823991994E+01  0.11677417207E+02  0.31691571748E+02  0.00000000000E+00 0.  1.
        -13    1    4    4    0    0  0.18885502225E+02  0.95633503190E+01 -0.31202109499E+02  0.37705324569E+02  0.00000000000E+00 0.  1.
         13    1    4    4    0    0  0.13167918705E+02  0.44244757331E+02  0.60898249716E+02  0.76417206523E+02  0.00000000000E+00 0. -1.
         21    1    1    2  503  502 -0.38664715730E+01 -0.34744958190E+02  0.11636937863E+02  0.36845353097E+02  0.00000000000E+00 0. -1.
          3    1    1    2  501    0  0.49740370125E+01 -0.44561242841E+02  0.77661897382E+02  0.89676171376E+02  0.00000000000E+00 0. -1.
<scales pt_clust_5="13000.00000" pt_clust_6="13000.00000" pt_clust_7="13000.00000" pt_clust_8="13000.00000" pt_clust_9="34.95943" pt_clust_10="59.22956"></scales>
<clustering>
<clus scale="   34.959">  1  9  2 -1</clus>
<clus scale="   59.230">  1 10  2 -1</clus>
<clus scale="   90.661">  7  8 -1 -1</clus>
<clus scale="   91.974">  5  6 -1 -1</clus>
<clus scale="   96.500">  1  7  2 -1</clus>
<clus scale="   34.959">  1  5  2 -1</clus>
</clustering>
</event>
<event>
10    2  0.2011530E-006  0.1129664E+03  0.7546771E-02  0.1255407E+00
         21   -1    0    0  503  502  0.00000000000E+00  0.00000000000E+00  0.33079282545E+03  0.33079282545E+03  0.00000000000E+00 0.  1.
         -3   -1    0    0    0  501 -0.00000000000E+00 -0.00000000000E+00 -0.32997806640E+03  0.32997806640E+03  0.00000000000E+00 0.  1.
         23    2    1    2    0    0  0.26962963760E+02 -0.41118327495E+02 -0.16055153639E+03  0.19078053049E+03  0.90568740223E+02 0.  0.
         23    2    1    2    0    0 -0.10845776943E+03  0.61665835756E+02 -0.92270616830E+02  0.18000049483E+03  0.91217039855E+02 0.  0.
        -11    1    4    4    0    0 -0.69477201377E+02  0.26399408068E+01 -0.83602600515E+02  0.10873566853E+03  0.00000000000E+00 0.  1.
         11    1    4    4    0    0 -0.38980568053E+02  0.59025894949E+02 -0.86680163148E+01  0.71264826297E+02  0.00000000000E+00 0. -1.
        -11    1    3    3    0    0  0.48391331885E+01 -0.57198666240E+02 -0.15143701094E+03  0.16195145233E+03  0.00000000000E+00 0.  1.
         11    1    3    3    0    0  0.22123830571E+02  0.16080338745E+02 -0.91145254521E+01  0.28829078159E+02  0.00000000000E+00 0. -1.
         21    1    1    2  503  501  0.19418577385E+02  0.31301570283E+02  0.18277997680E+02  0.41121218964E+02  0.00000000000E+00 0. -1.
         -3    1    1    2    0  502  0.62076228284E+02 -0.51849078544E+02  0.23535891459E+03  0.24886864756E+03  0.00000000000E+00 0.  1.
<scales pt_clust_5="13000.00000" pt_clust_6="13000.00000" pt_clust_7="13000.00000" pt_clust_8="13000.00000" pt_clust_9="36.83571" pt_clust_10="82.14415"></scales>
<clustering>
<clus scale="   36.836">  1  9  2 -1</clus>
<clus scale="   82.144">  1 10  2 -1</clus>
<clus scale="   90.569">  7  8 -1 -1</clus>
<clus scale="   91.217">  5  6 -1 -1</clus>
<clus scale="  112.444">  2  7  1 -1</clus>
<clus scale="   36.836">  1  5  2 -1</clus>
</clustering>
</event>
<event>
10    2  0.1671105E-006  0.1244194E+03  0.7546771E-02  0.1236893E+00
         21   -1    0    0  503  502  0.00000000000E+00  0.00000000000E+00  0.60359874077E+03  0.60359874077E+03  0.00000000000E+00 0.  1.
         -3   -1    0    0    0  501 -0.00000000000E+00 -0.00000000000E+00 -0.94560718212E+02  0.94560718212E+02  0.00000000000E+00 0.  1.
         23    2    1    2    0    0  0.28224240224E+02  0.74784218515E+02  0.51533223223E+01  0.12213804239E+03  0.92205518235E+02 0.  0.
         23    2    1    2    0    0 -0.89020213605E+02 -0.58319204650E+02  0.13226597560E+03  0.19171568239E+03  0.89077979963E+02 0.  0.
        -11    1    3    3    0    0  0.40976577541E+02  0.15445418490E+02  0.33515424990E+02  0.55144578805E+02  0.00000000000E+00 0. -1.
         11    1    3    3    0    0 -0.12752337317E+02  0.59338800026E+02 -0.28362102668E+02  0.66993463586E+02  0.00000000000E+00 0.  1.
        -11    1    4    4    0    0  0.14643251511E+02 -0.26268894248E+02  0.24537569902E+02  0.38814584327E+02  0.00000000000E+00 0. -1.
         11    1    4    4    0    0 -0.10366346512E+03 -0.32050310402E+02  0.10772840569E+03  0.15290109807E+03  0.00000000000E+00 0.  1.
         21    1    1    2  503  501  0.12119531998E+02  0.28928632037E+02  0.11677206565E+03  0.12091097602E+03  0.00000000000E+00 0.  1.
         -3    1    1    2    0  502  0.48676441383E+02 -0.45393645902E+02  0.25484665900E+03  0.26339475818E+03  0.00000000000E+00 0.  1.
<scales pt_clust_5="13000.00000" pt_clust_6="13000.00000" pt_clust_7="13000.00000" pt_clust_8="13000.00000" pt_clust_9="31.36477" pt_clust_10="62.75243"></scales>
<clustering>
<clus scale="   31.365">  1  9  2 -1</clus>
<clus scale="   62.752">  1 10  2 -1</clus>
<clus scale="   89.078">  7  8 -1 -1</clus>
<clus scale="   92.206">  5  6 -1 -1</clus>
<clus scale="  122.120">  1  7  2 -1</clus>
<clus scale="   31.365">  1  5  2 -1</clus>
</clustering>
</event>
<event>
10    2  0.1671105E-006  0.1464198E+03  0.7546771E-02  0.1205343E+00
         -3   -1    0    0    0  501 -0.00000000000E+00  0.00000000000E+00  0.25526716144E+03  0.25526716144E+03  0.00000000000E+00 0.  1.
         21   -1    0    0  501  502  0.00000000000E+00 -0.00000000000E+00 -0.27541782529E+03  0.27541782529E+03  0.00000000000E+00 0.  1.
         23    2    1    2    0    0  0.64769176270E+02 -0.11050410684E+03  0.12418379853E+03  0.20084205215E+03  0.92248090890E+02 0.  0.
         23    2    1    2    0    0 -0.10655351278E+03 -0.10260714192E+02 -0.13142471325E+03  0.19202752054E+03  0.90239570315E+02 0.  0.
        -11    1    3    3    0    0  0.79389902572E+02 -0.51097829223E+02  0.58439443570E+02  0.11103563998E+03  0.00000000000E+00 0.  1.
         11    1    3    3    0    0 -0.14620726301E+02 -0.59406277622E+02  0.65744354957E+02  0.89806412172E+02  0.00000000000E+00 0. -1.
        -13    1    4    4    0    0 -0.10961965250E+03 -0.34610653929E+02 -0.11425305871E+03  0.16207444895E+03  0.00000000000E+00 0.  1.
         13    1    4    4    0    0  0.30661397141E+01  0.24349939738E+02 -0.17171654546E+02  0.29953071592E+02  0.00000000000E+00 0. -1.
         21    1    1    2  503  502 -0.11253067598E+02  0.23901569241E+02 -0.64472461770E+01  0.27193446377E+02  0.00000000000E+00 0.  1.
         -3    1    1    2    0  503  0.53037404111E+02  0.96863251795E+02 -0.64625029541E+01  0.11062196765E+03  0.00000000000E+00 0.  1.
<scales pt_clust_5="13000.00000" pt_clust_6="13000.00000" pt_clust_7="13000.00000" pt_clust_8="13000.00000" pt_clust_9="24.43737" pt_clust_10="137.20943"></scales>
<clustering>
<clus scale="   24.437">  9 10 -1 -1</clus>
<clus scale="   90.240">  7  8 -1 -1</clus>
<clus scale="   92.248">  5  6 -1 -1</clus>
<clus scale="  137.209">  2  9  1 -1</clus>
<clus scale="  145.163">  2  7  1 -1</clus>
<clus scale="  137.209">  2  5  1 -1</clus>
</clustering>
</event>
<event>
10    2  0.1671105E-006  0.1137780E+03  0.7546771E-02  0.1256663E+00
         21   -1    0    0  503  502  0.00000000000E+00  0.00000000000E+00  0.14406370171E+03  0.14406370171E+03  0.00000000000E+00 0.  1.
         -3   -1    0    0    0  501 -0.00000000000E+00 -0.00000000000E+00 -0.79507155527E+03  0.79507155527E+03  0.00000000000E+00 0.  1.
         23    2    1    2    0    0 -0.83610770833E+02  0.21459400445E+02 -0.53094134416E+03  0.54469788735E+03  0.85707704902E+02 0.  0.
         23    2    1    2    0    0  0.30637390102E+02 -0.11634968144E+02 -0.23176600189E+03  0.25210226162E+03  0.93627178349E+02 0.  0.
        -13    1    3    3    0    0  0.76623607967E+01  0.19658851106E+02 -0.38845912106E+02  0.44206188335E+02  0.00000000000E+00 0.  1.
         13    1    3    3    0    0 -0.91273131630E+02  0.18005493395E+01 -0.49209543206E+03  0.50049169902E+03  0.00000000000E+00 0. -1.
        -13    1    4    4    0    0 -0.13287129501E+02  0.15436007050E+02 -0.70714523068E+01  0.21559767201E+02  0.00000000000E+00 0.  1.
         13    1    4    4    0    0  0.43924519603E+02 -0.27070975194E+02 -0.22469454958E+03  0.23054249441E+03  0.00000000000E+00 0. -1.
         21    1    1    2  503  501  0.29405905699E+02 -0.45059094977E+01  0.17915410793E+01  0.29803022159E+02  0.00000000000E+00 0. -1.
         -3    1    1    2    0  502  0.23567475032E+02 -0.53185228037E+01  0.10990795141E+03  0.11253208586E+03  0.00000000000E+00 0.  1.
<scales pt_clust_5="13000.00000" pt_clust_6="13000.00000" pt_clust_7="13000.00000" pt_clust_8="13000.00000" pt_clust_9="41.34935" pt_clust_10="24.16014"></scales>
<clustering>
<clus scale="   24.160">  1 10  2 -1</clus>
<clus scale="   41.349">  1  9  2 -1</clus>
<clus scale="   85.708">  5  6 -1 -1</clus>
<clus scale="   93.627">  7  8 -1 -1</clus>
<clus scale="  107.355">  2  5  1 -1</clus>
<clus scale="   24.160">  1  5  2 -1</clus>
</clustering>
</event>
<event>
10    2  0.1671105E-006  0.1015516E+03  0.7546771E-02  0.1279271E+00
          1   -1    0    0  503    0 -0.00000000000E+00  0.00000000000E+00  0.23906767222E+03  0.23906767222E+03  0.00000000000E+00 0. -1.
         21   -1    0    0  501  502  0.00000000000E+00 -0.00000000000E+00 -0.26704316156E+03  0.26704316156E+03  0.00000000000E+00 0. -1.
         23    2    1    2    0    0  0.29917014539E+02 -0.36524613966E+02  0.14594446684E+03  0.17713045334E+03  0.88579540046E+02 0.  0.
         23    2    1    2    0    0 -0.31108484397E+02  0.61643779481E+01  0.40714811758E+02  0.10649848558E+03  0.93158435887E+02 0.  0.
        -13    1    4    4    0    0 -0.50763751228E+02 -0.17977872623E+02 -0.17058188682E+01  0.53880164818E+02  0.00000000000E+00 0.  1.
         13    1    4    4    0    0  0.19655266831E+02  0.24142250571E+02  0.42420630627E+02  0.52618320760E+02  0.00000000000E+00 0. -1.
        -13    1    3    3    0    0 -0.21114106561E+02 -0.37527341762E+02  0.36804753183E+02  0.56645359320E+02  0.00000000000E+00 0.  1.
         13    1    3    3    0    0  0.51031121101E+02  0.10027277967E+01  0.10913971365E+03  0.12048509402E+03  0.00000000000E+00 0. -1.
         21    1    1    2  503  502 -0.19764721145E+02  0.20619807991E+02 -0.63994308390E+02  0.70079185140E+02  0.00000000000E+00 0. -1.
          1    1    1    2  501    0  0.20956191003E+02  0.97404280263E+01 -0.15064045955E+03  0.15240270973E+03  0.00000000000E+00 0. -1.
<scales pt_clust_5="13000.00000" pt_clust_6="13000.00000" pt_clust_7="13000.00000" pt_clust_8="13000.00000" pt_clust_9="27.35041" pt_clust_10="23.10926"></scales>
<clustering>
<clus scale="   23.109">  2 10  1 -1</clus>
<clus scale="   27.350">  2  9  1 -1</clus>
<clus scale="   88.580">  7  8 -1 -1</clus>
<clus scale="   93.158">  5  6 -1 -1</clus>
<clus scale="   97.368">  1  7  2 -1</clus>
<clus scale="   23.109">  2  5  1 -1</clus>
</clustering>
</event>
<event>
10    2  0.1671105E-006  0.1400158E+03  0.7546771E-02  0.1221829E+00
         21   -1    0    0  503  502  0.00000000000E+00  0.00000000000E+00  0.12486721449E+03  0.12486721449E+03  0.00000000000E+00 0. -1.
         -1   -1    0    0    0  501 -0.00000000000E+00 -0.00000000000E+00 -0.35786958295E+03  0.35786958295E+03  0.00000000000E+00 0.  1.
         23    2    1    2    0    0  0.28702284704E+02  0.75551268301E+02 -0.93815948100E+02  0.14969279537E+03  0.84111150145E+02 0.  0.
         23    2    1    2    0    0  0.74062083002E+02 -0.24820336006E+02 -0.13346783925E+03  0.17987742254E+03  0.91874815960E+02 0.  0.
        -11    1    4    4    0    0  0.74104778396E+02 -0.50434069458E+02 -0.12302229919E+03  0.15221563533E+03  0.00000000000E+00 0.  1.
         11    1    4    4    0    0 -0.42695393494E-01  0.25613733452E+02 -0.10445540063E+02  0.27661787206E+02  0.00000000000E+00 0. -1.
        -13    1    3    3    0    0  0.33660803771E+02  0.30848191838E+02 -0.94235226913E+02  0.10471360294E+03  0.00000000000E+00 0.  1.
         13    1    3    3    0    0 -0.49585190666E+01  0.44703076462E+02  0.41927881298E+00  0.44979192426E+02  0.00000000000E+00 0. -1.
         21    1    1    2  503  501  0.19466258144E+02 -0.60175329396E+01  0.88251119505E+01  0.22204245309E+02  0.00000000000E+00 0. -1.
         -1    1    1    2    0  502 -0.12223062585E+03 -0.44713399355E+02 -0.14543693063E+02  0.13096233423E+03  0.00000000000E+00 0.  1.
<scales pt_clust_5="13000.00000" pt_clust_6="13000.00000" pt_clust_7="13000.00000" pt_clust_8="13000.00000" pt_clust_9="20.37513" pt_clust_10="105.65717"></scales>
<clustering>
<clus scale="   20.375">  1  9  2 -1</clus>
<clus scale="   84.111">  7  8 -1 -1</clus>
<clus scale="   91.875">  5  6 -1 -1</clus>
<clus scale="  116.991">  2  7  1 -1</clus>
<clus scale="  105.657">  1 10  2 -1</clus>
<clus scale="   20.375">  1  5  2 -1</clus>
</clustering>
</event>
<event>
10    2  0.1671105E-006  0.1628235E+03  0.7546771E-02  0.1204685E+00
          2   -1    0    0  502    0 -0.00000000000E+00  0.00000000000E+00  0.11152708720E+04  0.11152708720E+04  0.00000000000E+00 0. -1.
         21   -1    0    0  503  502  0.00000000000E+00 -0.00000000000E+00 -0.47803290294E+02  0.47803290294E+02  0.00000000000E+00 0. -1.
         23    2    1    2    0    0 -0.59747035674E+02  0.46531312212E+01  0.38130853422E+03  0.39605486091E+03  0.88723698498E+02 0.  0.
         23    2    1    2    0    0  0.42613525083E+02 -0.14078239879E+03  0.52440186776E+03  0.55161609185E+03  0.87449399902E+02 0.  0.
        -11    1    4    4    0    0  0.50961159957E+02 -0.28646623557E+02  0.19272872630E+03  0.20140017579E+03  0.00000000000E+00 0.  1.
         11    1    4    4    0    0 -0.83476348738E+01 -0.11213577524E+03  0.33167314146E+03  0.35021591606E+03  0.00000000000E+00 0. -1.
        -11    1    3    3    0    0  0.13914855170E+02  0.20641786332E+02  0.45240054997E+02  0.51636896823E+02  0.00000000000E+00 0.  1.
         11    1    3    3    0    0 -0.73661890844E+02 -0.15988655111E+02  0.33606847923E+03  0.34441796409E+03  0.00000000000E+00 0. -1.
         21    1    1    2  503  501 -0.79260141401E+01  0.46367593863E+02  0.72068150133E+02  0.86061569381E+02  0.00000000000E+00 0. -1.
          2    1    1    2  501    0  0.25059524732E+02  0.89761673709E+02  0.89689029551E+02  0.12934164012E+03  0.00000000000E+00 0. -1.
<scales pt_clust_5="13000.00000" pt_clust_6="13000.00000" pt_clust_7="13000.00000" pt_clust_8="13000.00000" pt_clust_9="26.66286" pt_clust_10="142.38155"></scales>
<clustering>
<clus scale="   26.663">  9 10 -1 -1</clus>
<clus scale="   87.449">  5  6 -1 -1</clus>
<clus scale="   88.724">  7  8 -1 -1</clus>
<clus scale="  107.067">  1  7  2 -1</clus>
<clus scale="  142.382">  2  9  1 -1</clus>
<clus scale="  142.382">  2  5  1 -1</clus>
</clustering>
</event>
<event>
10    2  0.2159414E-006  0.1431448E+03  0.7546771E-02  0.1228896E+00
         21   -1    0    0  503  502  0.00000000000E+00  0.00000000000E+00  0.71111026875E+03  0.71111026875E+03  0.00000000000E+00 0.  1.
         -1   -1    0    0    0  501 -0.00000000000E+00 -0.00000000000E+00 -0.19224690099E+03  0.19224690099E+03  0.00000000000E+00 0.  1.
         23    2    1    2    0    0 -0.66653208758E+01 -0.26791108048E+02 -0.65044509256E+02  0.11457817363E+03  0.90195231107E+02 0.  0.
         23    2    1    2    0    0  0.10843007868E+03  0.75623676076E+02 -0.28290279125E+02  0.16242881999E+03  0.90037543980E+02 0.  0.
        -11    1    4    4    0    0  0.61512916409E+02  0.90070354475E+02 -0.30603981507E+02  0.11328332324E+03  0.00000000000E+00 0.  1.
         11    1    4    4    0    0  0.46917162271E+02 -0.14446678400E+02  0.23137023818E+01  0.49145496753E+02  0.00000000000E+00 0. -1.
        -13    1    3    3    0    0  0.34745958250E+02 -0.14141030167E+02 -0.60302982308E+02  0.71019011709E+02  0.00000000000E+00 0.  1.
         13    1    3    3    0    0 -0.41411279126E+02 -0.12650077882E+02 -0.47415269487E+01  0.43559161919E+02  0.00000000000E+00 0. -1.
         21    1    1    2  503  501 -0.19484110829E+02 -0.12681584015E+02  0.33870952245E+02  0.41081559779E+02  0.00000000000E+00 0. -1.
         -1    1    1    2    0  502 -0.82280646975E+02 -0.36150984013E+02  0.57832720389E+03  0.58526861634E+03  0.00000000000E+00 0.  1.
<scales pt_clust_5="13000.00000" pt_clust_6="13000.00000" pt_clust_7="13000.00000" pt_clust_8="13000.00000" pt_clust_9="23.24765" pt_clust_10="111.28201"></scales>
<clustering>
<clus scale="   23.248">  1  9  2 -1</clus>
<clus scale="   90.038">  5  6 -1 -1</clus>
<clus scale="   90.195">  7  8 -1 -1</clus>
<clus scale="   94.513">  2  7  1 -1</clus>
<clus scale="  111.282">  1 10  2 -1</clus>
<clus scale="   23.248">  1  5  2 -1</clus>
</clustering>
</event>
<event>
10    2  0.1671105E-006  0.1396981E+03  0.7546771E-02  0.1232684E+00
          3   -1    0    0  503    0 -0.00000000000E+00  0.00000000000E+00  0.11228235933E+03  0.11228235933E+03  0.00000000000E+00 0. -1.
         21   -1    0    0  501  502  0.00000000000E+00 -0.00000000000E+00 -0.45269117625E+03  0.45269117625E+03  0.00000000000E+00 0. -1.
         23    2    1    2    0    0  0.92371236782E+01  0.46505018866E+01  0.16662087479E+02  0.95062279004E+02  0.93017525814E+02 0.  0.
         23    2    1    2    0    0  0.58408854302E+02  0.10969701825E+03 -0.17921671160E+03  0.23659314397E+03  0.91720531961E+02 0.  0.
        -11    1    4    4    0    0 -0.17680805211E+02  0.23965048330E+02 -0.78661710432E+02  0.84110636084E+02  0.00000000000E+00 0.  1.
         11    1    4    4    0    0  0.76089659513E+02  0.85731969924E+02 -0.10055500116E+03  0.15248250788E+03  0.00000000000E+00 0. -1.
        -13    1    3    3    0    0  0.45391255388E+02 -0.20077929650E+02  0.11579205891E+02  0.50966335299E+02  0.00000000000E+00 0. -1.
         13    1    3    3    0    0 -0.36154131710E+02  0.24728431537E+02  0.50828815881E+01  0.44095943705E+02  0.00000000000E+00 0.  1.
         21    1    1    2  503  502 -0.35474735876E+02 -0.22936006234E+02 -0.17016325460E+02  0.45541987216E+02  0.00000000000E+00 0. -1.
          3    1    1    2  501    0 -0.32171242105E+02 -0.91411513906E+02 -0.16083786735E+03  0.18777612539E+03  0.00000000000E+00 0. -1.
<scales pt_clust_5="13000.00000" pt_clust_6="13000.00000" pt_clust_7="13000.00000" pt_clust_8="13000.00000" pt_clust_9="42.24355" pt_clust_10="105.37034"></scales>
<clustering>
<clus scale="   42.244">  1  9  2 -1</clus>
<clus scale="   91.721">  5  6 -1 -1</clus>
<clus scale="   93.018">  7  8 -1 -1</clus>
<clus scale="   94.041">  1  7  2 -1</clus>
<clus scale="  105.370">  2 10  1 -1</clus>
<clus scale="  105.370">  2  5  1 -1</clus>
</clustering>
</event>
<event>
10    2  0.1671105E-006  0.1951371E+03  0.7546771E-02  0.1154585E+00
         -1   -1    0    0    0  501 -0.00000000000E+00  0.00000000000E+00  0.50549796852E+03  0.50549796852E+03  0.00000000000E+00 0.  1.
         21   -1    0    0  503  502  0.00000000000E+00 -0.00000000000E+00 -0.11790637335E+03  0.11790637335E+03  0.00000000000E+00 0.  1.
         23    2    1    2    0    0 -0.39848005394E+02  0.15316993071E+03  0.15964218794E+03  0.24303471232E+03  0.92365318266E+02 0.  0.
         23    2    1    2    0    0  0.31411247556E+02 -0.17630311639E+03  0.19990922646E+03  0.28593454461E+03  0.98617491637E+02 0.  0.
        -11    1    3    3    0    0 -0.86031826789E-01  0.97414963409E+02  0.40261787172E+02  0.10540727681E+03  0.00000000000E+00 0.  1.
         11    1    3    3    0    0 -0.39761973568E+02  0.55754967297E+02  0.11938040076E+03  0.13762743552E+03  0.00000000000E+00 0. -1.
        -13    1    4    4    0    0  0.66297079427E+02 -0.13451811415E+03  0.14427281268E+03  0.20809870315E+03  0.00000000000E+00 0.  1.
         13    1    4    4    0    0 -0.34885831870E+02 -0.41785002241E+02  0.55636413783E+02  0.77835841463E+02  0.00000000000E+00 0. -1.
         21    1    1    2  503  501  0.36123935619E+02  0.37464788809E+02  0.34705362270E+02  0.62554066977E+02  0.00000000000E+00 0. -1.
         -1    1    1    2    0  502 -0.27687177781E+02 -0.14331603125E+02 -0.66651814932E+01  0.31881017956E+02  0.00000000000E+00 0.  1.
<scales pt_clust_5="13000.00000" pt_clust_6="13000.00000" pt_clust_7="13000.00000" pt_clust_8="13000.00000" pt_clust_9="47.89495" pt_clust_10="31.17651"></scales>
<clustering>
<clus scale="   31.177">  2 10  1 -1</clus>
<clus scale="   47.895">  2  9  1 -1</clus>
<clus scale="   92.365">  5  6 -1 -1</clus>
<clus scale="   98.617">  7  8 -1 -1</clus>
<clus scale="  192.053">  1  5  2 -1</clus>
<clus scale="   31.177">  2  5  1 -1</clus>
</clustering>
</event>
<event>
10    2  0.1671105E-006  0.1366684E+03  0.7546771E-02  0.1222581E+00
          2   -1    0    0  503    0 -0.00000000000E+00  0.00000000000E+00  0.61274171304E+03  0.61274171304E+03  0.00000000000E+00 0. -1.
         21   -1    0    0  501  502  0.00000000000E+00 -0.00000000000E+00 -0.96160528074E+02  0.96160528074E+02  0.00000000000E+00 0.  1.
         23    2    1    2    0    0 -0.11726425617E+03  0.77875852818E+02  0.32207594254E+03  0.36771753196E+03  0.10801720382E+03 0.  0.
         23    2    1    2    0    0  0.39540394799E+02 -0.17620118854E+02  0.17749363937E+03  0.20421354486E+03  0.91242909194E+02 0.  0.
        -13    1    4    4    0    0  0.34849508890E+02 -0.47642777599E+02  0.15654859494E+03  0.16730745682E+03  0.00000000000E+00 0. -1.
         13    1    4    4    0    0  0.46908859091E+01  0.30022658746E+02  0.20945044428E+02  0.36906088046E+02  0.00000000000E+00 0.  1.
        -13    1    3    3    0    0 -0.27321277104E+02  0.20595743859E+02  0.67827370629E+01  0.34880400940E+02  0.00000000000E+00 0.  1.
         13    1    3    3    0    0 -0.89942979068E+02  0.57280108959E+02  0.31529320548E+03  0.33283713102E+03  0.00000000000E+00 0. -1.
         21    1    1    2  503  502  0.30701654169E+02 -0.24213080967E+02  0.54340122779E+02  0.66945603308E+02  0.00000000000E+00 0. -1.
          2    1    1    2  501    0  0.47022207204E+02 -0.36042652997E+02 -0.37328519729E+02  0.70025560980E+02  0.00000000000E+00 0. -1.
<scales pt_clust_5="13000.00000" pt_clust_6="13000.00000" pt_clust_7="13000.00000" pt_clust_8="13000.00000" pt_clust_9="39.10070" pt_clust_10="60.40434"></scales>
<clustering>
<clus scale="   39.101">  1  9  2 -1</clus>
<clus scale="   60.404">  2 10  1 -1</clus>
<clus scale="   91.243">  5  6 -1 -1</clus>
<clus scale="  108.017">  7  8 -1 -1</clus>
<clus scale="  123.838">  2  5  1 -1</clus>
<clus scale="   60.404">  2  5  1 -1</clus>
</clustering>
</event>
<event>
10    2  0.1671105E-006  0.1432334E+03  0.7546771E-02  0.1209584E+00
          2   -1    0    0  503    0 -0.00000000000E+00  0.00000000000E+00  0.68109679220E+03  0.68109679220E+03  0.00000000000E+00 0. -1.
         21   -1    0    0  501  502  0.00000000000E+00 -0.00000000000E+00 -0.57520185238E+02  0.57520185238E+02  0.00000000000E+00 0.  1.
         23    2    1    2    0    0  0.16717885857E+02  0.11778472907E+03  0.46346226697E+03  0.48728675235E+03  0.92186636816E+02 0.  0.
         23    2    1    2    0    0 -0.42466063421E+02 -0.82102258065E+02  0.12740664405E+03  0.18112545945E+03  0.89609328716E+02 0.  0.
        -11    1    3    3    0    0 -0.12873532016E+02  0.90551667798E+02  0.41170517913E+03  0.42174220430E+03  0.00000000000E+00 0. -1.
         11    1    3    3    0    0  0.29591417874E+02  0.27233061268E+02  0.51757087841E+02  0.65544548054E+02  0.00000000000E+00 0.  1.
        -13    1    4    4    0    0 -0.49944814984E+02 -0.42762483318E+02  0.23591067617E+02  0.69854513059E+02  0.00000000000E+00 0.  1.
         13    1    4    4    0    0  0.74787515629E+01 -0.39339774746E+02  0.10381557643E+03  0.11127094639E+03  0.00000000000E+00 0. -1.
         21    1    1    2  503  502  0.36563095052E+02 -0.17130804380E+02  0.24417451374E+02  0.47186187705E+02  0.00000000000E+00 0.  1.
          2    1    1    2  501    0 -0.10814917489E+02 -0.18551666622E+02  0.82902445739E+01  0.23018577928E+02  0.00000000000E+00 0. -1.
<scales pt_clust_5="13000.00000" pt_clust_6="13000.00000" pt_clust_7="13000.00000" pt_clust_8="13000.00000" pt_clust_9="40.23486" pt_clust_10="21.47386"></scales>
<clustering>
<clus scale="   21.474">  2 10  1 -1</clus>
<clus scale="   40.235">  2  9  1 -1</clus>
<clus scale="   89.609">  7  8 -1 -1</clus>
<clus scale="   92.187">  5  6 -1 -1</clus>
<clus scale="  141.588">  2  7  1 -1</clus>
<clus scale="   21.474">  2  5  1 -1</clus>
</clustering>
</event>
<event>
10    2  0.1671105E-006  0.1955902E+03  0.7546771E-02  0.1154186E+00
         21   -1    0    0  501  502  0.00000000000E+00  0.00000000000E+00  0.61875388806E+02  0.61875388806E+02  0.00000000000E+00 0.  1.
          1   -1    0    0  503    0 -0.00000000000E+00 -0.00000000000E+00 -0.16099753936E+04  0.16099753936E+04  0.00000000000E+00 0. -1.
         23    2    1    2    0    0 -0.87059411264E+02 -0.55040370520E+02 -0.76990685081E+03  0.78289824528E+03  0.97797341804E+02 0.  0.
         23    2    1    2    0    0  0.16988032686E+03  0.14870415545E+03 -0.49947046601E+03  0.55571281593E+03  0.91508120220E+02 0.  0.
        -11    1    4    4    0    0  0.37699045181E+02 -0.34403034237E+01 -0.46735466509E+02  0.60143640770E+02  0.00000000000E+00 0. -1.
         11    1    4    4    0    0  0.13218128168E+03  0.15214445887E+03 -0.45273499950E+03  0.49556917516E+03  0.00000000000E+00 0.  1.
        -11    1    3    3    0    0 -0.94674961423E+02 -0.90800456879E+01 -0.54143249648E+03  0.54972260623E+03  0.00000000000E+00 0. -1.
         11    1    3    3    0    0  0.76155501586E+01 -0.45960324832E+02 -0.22847435433E+03  0.23317563905E+03  0.00000000000E+00 0.  1.
         21    1    1    2  503  502 -0.72469159831E+02 -0.54733986954E+02 -0.27852468504E+03  0.29295663268E+03  0.00000000000E+00 0. -1.
          1    1    1    2  501    0 -0.10351755763E+02 -0.38929797976E+02 -0.19800296245E+00  0.40283088548E+02  0.00000000000E+00 0. -1.
<scales pt_clust_5="13000.00000" pt_clust_6="13000.00000" pt_clust_7="13000.00000" pt_clust_8="13000.00000" pt_clust_9="96.38349" pt_clust_10="40.28260"></scales>
<clustering>
<clus scale="   40.283">  1 10  2 -1</clus>
<clus scale="   91.508">  5  6 -1 -1</clus>
<clus scale="   96.383">  2  9  1 -1</clus>
<clus scale="   97.797">  7  8 -1 -1</clus>
<clus scale="  192.523">  1  5  2 -1</clus>
<clus scale="   40.283">  1  5  2 -1</clus>
</clustering>
</event>
<event>
10    2  0.1671105E-006  0.1595678E+03  0.7546771E-02  0.1211467E+00
         -1   -1    0    0    0  501 -0.00000000000E+00  0.00000000000E+00  0.33766219143E+03  0.33766219143E+03  0.00000000000E+00 0.  1.
         21   -1    0    0  503  502  0.00000000000E+00 -0.00000000000E+00 -0.83561007619E+03  0.83561007619E+03  0.00000000000E+00 0. -1.
         23    2    1    2    0    0 -0.49490958376E+02 -0.86713979829E+01  0.28364961131E+03  0.30299516390E+03  0.93938380059E+02 0.  0.
         23    2    1    2    0    0  0.86279504362E+02 -0.12182775378E+03 -0.29136956638E+03  0.34010534176E+03  0.92137206458E+02 0.  0.
        -11    1    3    3    0    0  0.25830893347E+02  0.46130852454E+01  0.41928851618E+02  0.49462553559E+02  0.00000000000E+00 0. -1.
         11    1    3    3    0    0 -0.75321851723E+02 -0.13284483228E+02  0.24172075969E+03  0.25353261034E+03  0.00000000000E+00 0.  1.
        -13    1    4    4    0    0  0.21950127660E+02 -0.20238132152E+02 -0.60222668810E+01  0.30457475202E+02  0.00000000000E+00 0.  1.
         13    1    4    4    0    0  0.64329376701E+02 -0.10158962163E+03 -0.28534729950E+03  0.30964786655E+03  0.00000000000E+00 0. -1.
         21    1    1    2  503  501  0.25380663262E+02  0.22940381583E+02 -0.12291311605E+02  0.36352654866E+02  0.00000000000E+00 0.  1.
         -1    1    1    2    0  502 -0.62169209247E+02  0.10755877018E+03 -0.47793661809E+03  0.49381910709E+03  0.00000000000E+00 0.  1.
<scales pt_clust_5="13000.00000" pt_clust_6="13000.00000" pt_clust_7="13000.00000" pt_clust_8="13000.00000" pt_clust_9="34.21168" pt_clust_10="130.27896"></scales>
<clustering>
<clus scale="   34.212">  1  9  2 -1</clus>
<clus scale="   92.137">  7  8 -1 -1</clus>
<clus scale="   93.938">  5  6 -1 -1</clus>
<clus scale="   98.373">  1  5  2 -1</clus>
<clus scale="  130.279">  2 10  1 -1</clus>
<clus scale="  130.279">  2  5  1 -1</clus>
</clustering>
</event>
<event>
10    2  0.1671105E-006  0.1669291E+03  0.7546771E-02  0.1195864E+00
          4   -1    0    0  502    0 -0.00000000000E+00  0.00000000000E+00  0.15597100067E+03  0.15597100067E+03  0.00000000000E+00 0. -1.
         21   -1    0    0  503  502  0.00000000000E+00 -0.00000000000E+00 -0.36320925747E+03  0.36320925747E+03  0.00000000000E+00 0. -1.
         23    2    1    2    0    0 -0.69580042656E+02  0.39439237739E+02 -0.96098777594E+01  0.12071566912E+03  0.89905990957E+02 0.  0.
         23    2    1    2    0    0  0.17181946260E+03 -0.96263560279E+02 -0.92513905356E+02  0.23591817601E+03  0.91158994738E+02 0.  0.
        -13    1    4    4    0    0  0.13308007634E+03 -0.45696138231E+02 -0.98767273575E+02  0.17191107614E+03  0.00000000000E+00 0. -1.
         13    1    4    4    0    0  0.38739386258E+02 -0.50567422048E+02  0.62533682192E+01  0.64007099875E+02  0.00000000000E+00 0.  1.
        -13    1    3    3    0    0 -0.65829231135E+01  0.42326935850E+02 -0.32348702659E+02  0.53678142096E+02  0.00000000000E+00 0.  1.
         13    1    3    3    0    0 -0.62997119543E+02 -0.28876981116E+01  0.22738824899E+02  0.67037527019E+02  0.00000000000E+00 0. -1.
         21    1    1    2  503  501 -0.23362511656E+02 -0.11387506733E+01 -0.35180681867E+02  0.42246704967E+02  0.00000000000E+00 0.  1.
          4    1    1    2  501    0 -0.78876908290E+02  0.57963073214E+02 -0.69933791821E+02  0.12029970805E+03  0.00000000000E+00 0. -1.
<scales pt_clust_5="13000.00000" pt_clust_6="13000.00000" pt_clust_7="13000.00000" pt_clust_8="13000.00000" pt_clust_9="20.09804" pt_clust_10="145.75917"></scales>
<clustering>
<clus scale="   20.098">  9 10 -1 -1</clus>
<clus scale="   89.906">  7  8 -1 -1</clus>
<clus scale="   91.159">  5  6 -1 -1</clus>
<clus scale="  120.333">  1  7  2 -1</clus>
<clus scale="  145.759">  2  9  1 -1</clus>
<clus scale="  145.759">  2  5  1 -1</clus>
</clustering>
</event>
<event>
10    2  0.1671105E-006  0.2198870E+03  0.7546771E-02  0.1167399E+00
          1   -1    0    0  503    0 -0.00000000000E+00  0.00000000000E+00  0.11724852241E+04  0.11724852241E+04  0.00000000000E+00 0. -1.
         21   -1    0    0  501  502  0.00000000000E+00 -0.00000000000E+00 -0.14615325804E+03  0.14615325804E+03  0.00000000000E+00 0. -1.
         23    2    1    2    0    0  0.48536782118E+02  0.49574358294E+01  0.38959035737E+03  0.40261313270E+03  0.89085872499E+02 0.  0.
         23    2    1    2    0    0 -0.80700655548E+02 -0.17397918408E+03  0.39298323792E+03  0.44676922023E+03  0.91572695524E+02 0.  0.
        -11    1    4    4    0    0 -0.93911352776E+02 -0.10685224198E+03  0.23655387083E+03  0.27603347189E+03  0.00000000000E+00 0.  1.
         11    1    4    4    0    0  0.13210697228E+02 -0.67126942102E+02  0.15642936709E+03  0.17073574835E+03  0.00000000000E+00 0. -1.
        -11    1    3    3    0    0 -0.11369098768E+02 -0.29463874419E+02  0.98659945572E+02  0.10359131799E+03  0.00000000000E+00 0.  1.
         11    1    3    3    0    0  0.59905880886E+02  0.34421310249E+02  0.29093041180E+03  0.29902181471E+03  0.00000000000E+00 0. -1.
         21    1    1    2  503  502  0.72655197528E+02  0.20642812100E+03  0.31227133738E+03  0.38131972807E+03  0.00000000000E+00 0. -1.
          1    1    1    2  501    0 -0.40491324097E+02 -0.37406372746E+02 -0.68512966621E+02  0.87936401134E+02  0.00000000000E+00 0. -1.
<scales pt_clust_5="13000.00000" pt_clust_6="13000.00000" pt_clust_7="13000.00000" pt_clust_8="13000.00000" pt_clust_9="199.91179" pt_clust_10="55.12517"></scales>
<clustering>
<clus scale="   55.125">  2 10  1 -1</clus>
<clus scale="   89.086">  7  8 -1 -1</clus>
<clus scale="   91.573">  5  6 -1 -1</clus>
<clus scale="   99.661">  1  7  2 -1</clus>
<clus scale="  199.912">  2  9  1 -1</clus>
<clus scale="   55.125">  2  5  1 -1</clus>
</clustering>
</event>
<event>
10    2  0.1671105E-006  0.2663002E+03  0.7546771E-02  0.1118859E+00
         21   -1    0    0  503  502  0.00000000000E+00  0.00000000000E+00  0.82201991939E+02  0.82201991939E+02  0.00000000000E+00 0.  1.
          2   -1    0    0  502    0 -0.00000000000E+00 -0.00000000000E+00 -0.17386282217E+04  0.17386282217E+04  0.00000000000E+00 0.  1.
         23    2    1    2    0    0  0.12075648656E+03  0.96757347322E+02 -0.21745586123E+03  0.28218648390E+03  0.91640857751E+02 0.  0.
         23    2    1    2    0    0  0.18559152084E+03  0.19301565260E+02 -0.66707874734E+03  0.69899404588E+03  0.93711568065E+02 0.  0.
        -11    1    4    4    0    0  0.10863902577E+03 -0.23169959942E+02 -0.26354151843E+03  0.28599548405E+03  0.00000000000E+00 0. -1.
         11    1    4    4    0    0  0.76952495077E+02  0.42471525202E+02 -0.40353722891E+03  0.41299856182E+03  0.00000000000E+00 0.  1.
        -13    1    3    3    0    0  0.93572437353E+02  0.25414979970E+02 -0.83310452777E+02  0.12783721595E+03  0.00000000000E+00 0.  1.
         13    1    3    3    0    0  0.27184049203E+02  0.71342367353E+02 -0.13414540845E+03  0.15434926796E+03  0.00000000000E+00 0. -1.
         21    1    1    2  503  501 -0.13076234609E+03 -0.32596801908E+02 -0.28037978343E+03  0.31108546351E+03  0.00000000000E+00 0.  1.
          2    1    1    2  501    0 -0.17558566131E+03 -0.83462110674E+02 -0.49151183781E+03  0.52856422040E+03  0.00000000000E+00 0.  1.
<scales pt_clust_5="13000.00000" pt_clust_6="13000.00000" pt_clust_7="13000.00000" pt_clust_8="13000.00000" pt_clust_9="36.06267" pt_clust_10="253.00231"></scales>
<clustering>
<clus scale="   36.063">  9 10 -1 -1</clus>
<clus scale="   91.641">  7  8 -1 -1</clus>
<clus scale="   93.712">  5  6 -1 -1</clus>
<clus scale="  179.839">  2  7  1 -1</clus>
<clus scale="  253.002">  1  9  2 -1</clus>
<clus scale="  253.002">  1  5  2 -1</clus>
</clustering>
</event>
<event>
10    2  0.1671105E-006  0.3072560E+03  0.7546771E-02  0.1100165E+00
         21   -1    0    0  501  502  0.00000000000E+00  0.00000000000E+00  0.50110790660E+03  0.50110790660E+03  0.00000000000E+00 0.  1.
         -2   -1    0    0    0  501 -0.00000000000E+00 -0.00000000000E+00 -0.61548682415E+03  0.61548682415E+03  0.00000000000E+00 0.  1.
         23    2    1    2    0    0  0.92381243774E+01 -0.15782695531E+03 -0.38970714969E+03  0.43293747935E+03  0.10280324771E+03 0.  0.
         23    2    1    2    0    0 -0.24710305807E+03  0.24602393851E+03  0.20755408305E+03  0.41584058714E+03  0.90868019074E+02 0.  0.
        -11    1    3    3    0    0  0.40670242570E+02 -0.50807910710E+02 -0.76364933186E+02  0.10033501603E+03  0.00000000000E+00 0. -1.
         11    1    3    3    0    0 -0.31432118192E+02 -0.10701904460E+03 -0.31334221651E+03  0.33260246332E+03  0.00000000000E+00 0.  1.
        -13    1    4    4    0    0 -0.60452227313E+02  0.89335670595E+02  0.10784496981E+03  0.15253154212E+03  0.00000000000E+00 0.  1.
         13    1    4    4    0    0 -0.18665083076E+03  0.15668826792E+03  0.99709113243E+02  0.26330904502E+03  0.00000000000E+00 0. -1.
         21    1    1    2  503  502  0.88757638264E+02 -0.39258943350E+02  0.45305468257E+00  0.97053532865E+02  0.00000000000E+00 0.  1.
         -2    1    1    2    0  503  0.14910729543E+03 -0.48938039853E+02  0.67321094405E+02  0.17076313140E+03  0.00000000000E+00 0.  1.
<scales pt_clust_5="13000.00000" pt_clust_6="13000.00000" pt_clust_7="13000.00000" pt_clust_8="13000.00000" pt_clust_9="41.41897" pt_clust_10="298.19997"></scales>
<clustering>
<clus scale="   41.419">  9 10 -1 -1</clus>
<clus scale="   90.868">  7  8 -1 -1</clus>
<clus scale="  102.803">  5  6 -1 -1</clus>
<clus scale="  188.582">  2  5  1 -1</clus>
<clus scale="  298.200">  1  9  2 -1</clus>
<clus scale="  298.200">  1  5  2 -1</clus>
</clustering>
</event>
<event>
10    2  0.1671105E-006  0.1588812E+03  0.7546771E-02  0.1208457E+00
          1   -1    0    0  502    0 -0.00000000000E+00  0.00000000000E+00  0.46172935550E+03  0.46172935550E+03  0.00000000000E+00 0. -1.
         21   -1    0    0  503  502  0.00000000000E+00 -0.00000000000E+00 -0.19301730423E+03  0.19301730423E+03  0.00000000000E+00 0. -1.
         23    2    1    2    0    0 -0.58666706534E+02  0.17567534114E+02  0.25934861029E+03  0.28027670893E+03  0.86850050070E+02 0.  0.
         23    2    1    2    0    0  0.15771610746E+03 -0.71511744818E+02  0.10121936516E+03  0.22504298059E+03  0.10203275469E+03 0.  0.
        -11    1    4    4    0    0  0.13468392586E+02 -0.52636183665E+02  0.16918653705E+02  0.56905239415E+02  0.00000000000E+00 0.  1.
         11    1    4    4    0    0  0.14424771488E+03 -0.18875561153E+02  0.84300711451E+02  0.16813774118E+03  0.00000000000E+00 0. -1.
        -13    1    3    3    0    0 -0.18736853286E+02 -0.26343660173E+02  0.32684907849E+02  0.45971309568E+02  0.00000000000E+00 0.  1.
         13    1    3    3    0    0 -0.39929853249E+02  0.43911194287E+02  0.22666370244E+03  0.23430539936E+03  0.00000000000E+00 0. -1.
         21    1    1    2  503  501 -0.41548357863E+02  0.19727228962E+02 -0.17025366459E+02  0.49043783568E+02  0.00000000000E+00 0.  1.
          1    1    1    2  501    0 -0.57501043067E+02  0.34216981741E+02 -0.74830557710E+02  0.10038318664E+03  0.00000000000E+00 0. -1.
<scales pt_clust_5="13000.00000" pt_clust_6="13000.00000" pt_clust_7="13000.00000" pt_clust_8="13000.00000" pt_clust_9="28.36083" pt_clust_10="126.50183"></scales>
<clustering>
<clus scale="   28.361">  9 10 -1 -1</clus>
<clus scale="   86.850">  7  8 -1 -1</clus>
<clus scale="  102.033">  5  6 -1 -1</clus>
<clus scale="  106.270">  1  7  2 -1</clus>
<clus scale="  126.502">  2  9  1 -1</clus>
<clus scale="  126.502">  2  5  1 -1</clus>
</clustering>
</event>
<event>
10    2  0.1671105E-006  0.1448944E+03  0.7546771E-02  0.1225276E+00
         21   -1    0    0  503  502  0.00000000000E+00  0.00000000000E+00  0.36023396232E+03  0.36023396232E+03  0.00000000000E+00 0. -1.
          2   -1    0    0  502    0 -0.00000000000E+00 -0.00000000000E+00 -0.11911115570E+03  0.11911115570E+03  0.00000000000E+00 0. -1.
         23    2    1    2    0    0 -0.42346708168E+01 -0.36454381442E+02 -0.31763828662E+02  0.10324687424E+03  0.91126954656E+02 0.  0.
         23    2    1    2    0    0 -0.74124423334E+02 -0.41571554787E+02  0.11621619691E+03  0.17835292223E+03  0.10526602558E+03 0.  0.
        -11    1    3    3    0    0 -0.17554800641E+02  0.17834379130E+02  0.16015458996E+02  0.29710789813E+02  0.00000000000E+00 0. -1.
         11    1    3    3    0    0  0.13320129824E+02 -0.54288760572E+02 -0.47779287658E+02  0.73536084422E+02  0.00000000000E+00 0.  1.
        -13    1    4    4    0    0 -0.82930404921E+02 -0.64281253962E+02  0.11228632670E+03  0.15368067815E+03  0.00000000000E+00 0. -1.
         13    1    4    4    0    0  0.88059815867E+01  0.22709699175E+02  0.39298702100E+01  0.24672244085E+02  0.00000000000E+00 0.  1.
         21    1    1    2  503  501  0.30044404212E+01  0.29671814293E+02  0.52546534929E+02  0.60420042690E+02  0.00000000000E+00 0. -1.
          2    1    1    2  501    0  0.75354653729E+02  0.48354121937E+02  0.10412390344E+03  0.13732527886E+03  0.00000000000E+00 0. -1.
<scales pt_clust_5="13000.00000" pt_clust_6="13000.00000" pt_clust_7="13000.00000" pt_clust_8="13000.00000" pt_clust_9="27.85514" pt_clust_10="110.64736"></scales>
<clustering>
<clus scale="   27.855">  9 10 -1 -1</clus>
<clus scale="   91.127">  5  6 -1 -1</clus>
<clus scale="   98.239">  2  5  1 -1</clus>
<clus scale="  105.266">  7  8 -1 -1</clus>
<clus scale="  110.647">  1  9  2 -1</clus>
<clus scale="  110.647">  1  5  2 -1</clus>
</clustering>
</event>
<event>
10    2  0.1671105E-006  0.1361835E+03  0.7546771E-02  0.1239445E+00
         21   -1    0    0  501  502  0.00000000000E+00  0.00000000000E+00  0.39620140819E+03  0.39620140819E+03  0.00000000000E+00 0. -1.
         -1   -1    0    0    0  501 -0.00000000000E+00 -0.00000000000E+00 -0.79741284481E+02  0.79741284481E+02  0.00000000000E+00 0.  1.
         23    2    1    2    0    0 -0.13919415303E+02  0.14171744526E+02  0.14415154533E+03  0.16910303502E+03  0.86148592367E+02 0.  0.
         23    2    1    2    0    0 -0.33073214922E+02  0.79498000461E+02  0.40600750237E+02  0.13347349517E+03  0.93557380102E+02 0.  0.
        -11    1    3    3    0    0  0.16484961960E+02 -0.16519872423E+02  0.56390346550E+01  0.24009557837E+02  0.00000000000E+00 0.  1.
         11    1    3    3    0    0 -0.30404377263E+02  0.30691616949E+02  0.13851251067E+03  0.14509347718E+03  0.00000000000E+00 0. -1.
        -13    1    4    4    0    0 -0.64811084872E+02  0.38878686326E+02  0.25364698010E+02  0.79720743084E+02  0.00000000000E+00 0. -1.
         13    1    4    4    0    0  0.31737869950E+02  0.40619314135E+02  0.15236052226E+02  0.53752752090E+02  0.00000000000E+00 0.  1.
         21    1    1    2  503  502  0.31202899017E+02 -0.19933684940E+02  0.49428036563E+02  0.61758428581E+02  0.00000000000E+00 0.  1.
         -1    1    1    2    0  503  0.15789731209E+02 -0.73736060048E+02  0.82279791583E+02  0.11160773390E+03  0.00000000000E+00 0.  1.
<scales pt_clust_5="13000.00000" pt_clust_6="13000.00000" pt_clust_7="13000.00000" pt_clust_8="13000.00000" pt_clust_9="29.11645" pt_clust_10="107.32893"></scales>
<clustering>
<clus scale="   29.116">  9 10 -1 -1</clus>
<clus scale="   86.149">  5  6 -1 -1</clus>
<clus scale="   88.409">  2  5  1 -1</clus>
<clus scale="   93.557">  7  8 -1 -1</clus>
<clus scale="  107.329">  1  9  2 -1</clus>
<clus scale="  107.329">  1  5  2 -1</clus>
</clustering>
</event>
<event>
10    2  0.1671105E-006  0.1306786E+03  0.7546771E-02  0.1229089E+00
         21   -1    0    0  501  502  0.00000000000E+00  0.00000000000E+00  0.29834598431E+03  0.29834598431E+03  0.00000000000E+00 0. -1.
         -3   -1    0    0    0  501 -0.00000000000E+00 -0.00000000000E+00 -0.24132346185E+03  0.24132346185E+03  0.00000000000E+00 0.  1.
         23    2    1    2    0    0  0.82384573219E+02 -0.28416002339E+02 -0.15133409587E+03  0.20539663878E+03  0.10812531413E+03 0.  0.
         23    2    1    2    0    0 -0.17217346184E+02 -0.76267778851E+02  0.12153425190E+03  0.17551821759E+03  0.99613549379E+02 0.  0.
        -11    1    3    3    0    0  0.24045806309E+01 -0.47343554540E+02 -0.93714763115E+02  0.10502214524E+03  0.00000000000E+00 0.  1.
         11    1    3    3    0    0  0.79979992589E+02  0.18927552201E+02 -0.57619332752E+02  0.10037449354E+03  0.00000000000E+00 0. -1.
        -13    1    4    4    0    0 -0.58698195272E+02 -0.36416362919E+02  0.64270936131E+02  0.94352439542E+02  0.00000000000E+00 0.  1.
         13    1    4    4    0    0  0.41480849088E+02 -0.39851415932E+02  0.57263315767E+02  0.81165778044E+02  0.00000000000E+00 0. -1.
         21    1    1    2  503  502  0.62471979653E+01  0.19962158276E+02  0.65157257268E+01  0.21908215975E+02  0.00000000000E+00 0. -1.
         -3    1    1    2    0  503 -0.71414425001E+02  0.84721622913E+02  0.80306640707E+02  0.13684637382E+03  0.00000000000E+00 0.  1.
<scales pt_clust_5="13000.00000" pt_clust_6="13000.00000" pt_clust_7="13000.00000" pt_clust_8="13000.00000" pt_clust_9="20.91687" pt_clust_10="115.29629"></scales>
<clustering>
<clus scale="   20.917">  1  9  2 -1</clus>
<clus scale="   99.614">  7  8 -1 -1</clus>
<clus scale="  108.125">  5  6 -1 -1</clus>
<clus scale="  115.296">  1 10  2 -1</clus>
<clus scale="  123.728">  1  7  2 -1</clus>
<clus scale="   20.917">  1  5  2 -1</clus>
</clustering>
</event>
<event>
10    2  0.1671105E-006  0.9212069E+02  0.7546771E-02  0.1298562E+00
         21   -1    0    0  501  502  0.00000000000E+00  0.00000000000E+00  0.23348377571E+03  0.23348377571E+03  0.00000000000E+00 0. -1.
          1   -1    0    0  503    0 -0.00000000000E+00 -0.00000000000E+00 -0.26178131986E+03  0.26178131986E+03  0.00000000000E+00 0. -1.
         23    2    1    2    0    0 -0.21405459272E+02 -0.59355155853E+01 -0.10014782013E+03  0.13697118312E+03  0.90763952623E+02 0.  0.
         23    2    1    2    0    0 -0.61000881529E+02 -0.27597468023E+02 -0.98957756045E+02  0.14925317193E+03  0.89449114367E+02 0.  0.
        -13    1    3    3    0    0 -0.39966970176E+02 -0.38685525078E+02 -0.63803956386E+02  0.84645575231E+02  0.00000000000E+00 0. -1.
         13    1    3    3    0    0  0.18561510904E+02  0.32750009493E+02 -0.36343863744E+02  0.52325607886E+02  0.00000000000E+00 0.  1.
        -13    1    4    4    0    0  0.22051968694E+02  0.27356076500E+01 -0.28833150461E+02  0.36402244958E+02  0.00000000000E+00 0.  1.
         13    1    4    4    0    0 -0.83052850223E+02 -0.30333075673E+02 -0.70124605584E+02  0.11285092697E+03  0.00000000000E+00 0. -1.
         21    1    1    2  503  502  0.15638424044E+02  0.49448156363E+02  0.72230505983E+02  0.88920900068E+02  0.00000000000E+00 0. -1.
          1    1    1    2  501    0  0.66767916757E+02 -0.15915172755E+02  0.98577526035E+02  0.12011984046E+03  0.00000000000E+00 0. -1.
<scales pt_clust_5="13000.00000" pt_clust_6="13000.00000" pt_clust_7="13000.00000" pt_clust_8="13000.00000" pt_clust_9="51.86213" pt_clust_10="80.34043"></scales>
<clustering>
<clus scale="   51.862">  1  9  2 -1</clus>
<clus scale="   80.340">  1 10  2 -1</clus>
<clus scale="   89.449">  7  8 -1 -1</clus>
<clus scale="   90.764">  5  6 -1 -1</clus>
<clus scale="   90.825">  1  7  2 -1</clus>
<clus scale="   51.862">  1  5  2 -1</clus>
</clustering>
</event>
<event>
10    2  0.1671105E-006  0.1984817E+03  0.7546771E-02  0.1151050E+00
         21   -1    0    0  501  502  0.00000000000E+00  0.00000000000E+00  0.85326649989E+02  0.85326649989E+02  0.00000000000E+00 0.  1.
          1   -1    0    0  503    0 -0.00000000000E+00 -0.00000000000E+00 -0.11105344360E+04  0.11105344360E+04  0.00000000000E+00 0. -1.
         23    2    1    2    0    0 -0.13433523164E+03 -0.10252574055E+03 -0.80227284116E+03  0.82486651550E+03  0.90584627830E+02 0.  0.
         23    2    1    2    0    0  0.15548498284E+03  0.15086685216E+03 -0.17603393017E+03  0.29355539609E+03  0.90831927386E+02 0.  0.
        -11    1    3    3    0    0 -0.10170003927E+03 -0.11705015784E+03 -0.61737618921E+03  0.63655085927E+03  0.00000000000E+00 0. -1.
         11    1    3    3    0    0 -0.32635192378E+02  0.14524417291E+02 -0.18489665195E+03  0.18831565623E+03  0.00000000000E+00 0.  1.
        -13    1    4    4    0    0  0.11409010042E+03  0.15498788324E+03 -0.13466922570E+03  0.23489060287E+03  0.00000000000E+00 0.  1.
         13    1    4    4    0    0  0.41394882412E+02 -0.41210310832E+01 -0.41364704472E+02  0.58664793217E+02  0.00000000000E+00 0. -1.
         21    1    1    2  503  502 -0.86243565497E+01 -0.32006392657E+02 -0.90631155337E+01  0.34364644040E+02  0.00000000000E+00 0.  1.
          1    1    1    2  501    0 -0.12525394643E+02 -0.16334718952E+02 -0.37837899189E+02  0.43074530401E+02  0.00000000000E+00 0. -1.
<scales pt_clust_5="13000.00000" pt_clust_6="13000.00000" pt_clust_7="13000.00000" pt_clust_8="13000.00000" pt_clust_9="36.07885" pt_clust_10="20.58419"></scales>
<clustering>
<clus scale="   20.584">  1 10  2 -1</clus>
<clus scale="   36.079">  1  9  2 -1</clus>
<clus scale="   90.585">  5  6 -1 -1</clus>
<clus scale="   90.832">  7  8 -1 -1</clus>
<clus scale="  198.369">  2  5  1 -1</clus>
<clus scale="   20.584">  1  5  2 -1</clus>
</clustering>
</event>
<event>
10    2  0.1671105E-006  0.1142682E+03  0.7546771E-02  0.1253552E+00
         21   -1    0    0  503  502  0.00000000000E+00  0.00000000000E+00  0.37877011844E+03  0.37877011844E+03  0.00000000000E+00 0. -1.
          1   -1    0    0  502    0 -0.00000000000E+00 -0.00000000000E+00 -0.27241523013E+03  0.27241523013E+03  0.00000000000E+00 0. -1.
         23    2    1    2    0    0  0.40582719892E+02  0.48754691464E+02 -0.77518817526E+02  0.13337673479E+03  0.88069343236E+02 0.  0.
         23    2    1    2    0    0  0.58847524337E+02 -0.95719563999E+02 -0.12246033598E+03  0.18902490354E+03  0.90047844050E+02 0.  0.
        -13    1    3    3    0    0 -0.40318746994E+01 -0.20799062174E+02 -0.17393277346E+01  0.21257522477E+02  0.00000000000E+00 0.  1.
         13    1    3    3    0    0  0.44614594591E+02  0.69553753638E+02 -0.75779489791E+02  0.11211921231E+03  0.00000000000E+00 0. -1.
        -13    1    4    4    0    0  0.80284670537E+02 -0.90616693229E+02 -0.95462196309E+02  0.15417536878E+03  0.00000000000E+00 0. -1.
         13    1    4    4    0    0 -0.21437146199E+02 -0.51028707698E+01 -0.26998139674E+02  0.34849534762E+02  0.00000000000E+00 0.  1.
         21    1    1    2  503  501 -0.16332278667E+02  0.13524839660E+02  0.12210839275E+03  0.12393596812E+03  0.00000000000E+00 0. -1.
          1    1    1    2  501    0 -0.83097965563E+02  0.33440032876E+02  0.18422564907E+03  0.20484774213E+03  0.00000000000E+00 0. -1.
<scales pt_clust_5="13000.00000" pt_clust_6="13000.00000" pt_clust_7="13000.00000" pt_clust_8="13000.00000" pt_clust_9="21.20530" pt_clust_10="105.05441"></scales>
<clustering>
<clus scale="   21.205">  1  9  2 -1</clus>
<clus scale="   88.069">  5  6 -1 -1</clus>
<clus scale="   90.048">  7  8 -1 -1</clus>
<clus scale="  105.054">  1 10  2 -1</clus>
<clus scale="  112.716">  2  5  1 -1</clus>
<clus scale="   21.205">  1  5  2 -1</clus>
</clustering>
</event>
<event>
10    2  0.1671105E-006  0.1187526E+03  0.7546771E-02  0.1245342E+00
         21   -1    0    0  503  502  0.00000000000E+00  0.00000000000E+00  0.21980744589E+03  0.21980744589E+03  0.00000000000E+00 0.  1.
         -3   -1    0    0    0  501 -0.00000000000E+00 -0.00000000000E+00 -0.41644650150E+03  0.41644650150E+03  0.00000000000E+00 0.  1.
         23    2    1    2    0    0 -0.39449862309E+02 -0.38665946458E+02 -0.24107593292E+03  0.26385494871E+03  0.91926500385E+02 0.  0.
         23    2    1    2    0    0  0.12202205619E+03  0.10927644872E+03  0.12197510672E+03  0.22374423909E+03  0.91393836887E+02 0.  0.
        -11    1    3    3    0    0 -0.62423618083E+02 -0.18207878681E+00 -0.13934369397E+03  0.15268728270E+03  0.00000000000E+00 0. -1.
         11    1    3    3    0    0  0.22973755775E+02 -0.38483867672E+02 -0.10173223895E+03  0.11116766601E+03  0.00000000000E+00 0.  1.
        -13    1    4    4    0    0  0.97346732264E+02  0.85029748378E+02  0.13488775311E+03  0.18681849569E+03  0.00000000000E+00 0.  1.
         13    1    4    4    0    0  0.24675323928E+02  0.24246700347E+02 -0.12912646389E+02  0.36925743397E+02  0.00000000000E+00 0. -1.
         21    1    1    2  503  501 -0.27460245090E+02  0.75603537183E+01 -0.31625550493E+02  0.42560538680E+02  0.00000000000E+00 0.  1.
         -3    1    1    2    0  502 -0.55111948793E+02 -0.78170855985E+02 -0.45912678924E+02  0.10609422091E+03  0.00000000000E+00 0.  1.
<scales pt_clust_5="13000.00000" pt_clust_6="13000.00000" pt_clust_7="13000.00000" pt_clust_8="13000.00000" pt_clust_9="28.48199" pt_clust_10="97.72504"></scales>
<clustering>
<clus scale="   28.482">  2  9  1 -1</clus>
<clus scale="   91.394">  7  8 -1 -1</clus>
<clus scale="   91.927">  5  6 -1 -1</clus>
<clus scale="   97.725">  1 10  2 -1</clus>
<clus scale="  118.341">  1  7  2 -1</clus>
<clus scale="   97.725">  1  5  2 -1</clus>
</clustering>
</event>
<event>
10    2  0.1671105E-006  0.1428063E+03  0.7546771E-02  0.1209670E+00
         21   -1    0    0  503  502  0.00000000000E+00  0.00000000000E+00  0.38397790693E+03  0.38397790693E+03  0.00000000000E+00 0.  1.
         -1   -1    0    0    0  501 -0.00000000000E+00 -0.00000000000E+00 -0.12383244159E+03  0.12383244159E+03  0.00000000000E+00 0.  1.
         23    2    1    2    0    0  0.78933467933E+02 -0.44095265288E+02 -0.33891938041E+02  0.13248548640E+03  0.90713041301E+02 0.  0.
         23    2    1    2    0    0 -0.12443811687E+03  0.46170822358E+02  0.26403845077E+03  0.30903453974E+03  0.90385029176E+02 0.  0.
        -11    1    3    3    0    0  0.80494269663E+02 -0.19184834941E+02  0.86111222384E+01  0.83195773730E+02  0.00000000000E+00 0.  1.
         11    1    3    3    0    0 -0.15608017302E+01 -0.24910430347E+02 -0.42503060280E+02  0.49289712671E+02  0.00000000000E+00 0. -1.
        -11    1    4    4    0    0 -0.46853092379E+02  0.19305902993E+02  0.25434820306E+02  0.56699737564E+02  0.00000000000E+00 0.  1.
         11    1    4    4    0    0 -0.77585024494E+02  0.26864919365E+02  0.23860363047E+03  0.25233480218E+03  0.00000000000E+00 0. -1.
         21    1    1    2  503  501  0.20645469517E+02 -0.52703606952E+01 -0.62635438549E+01  0.22209099375E+02  0.00000000000E+00 0. -1.
         -1    1    1    2    0  502  0.24859179424E+02  0.31948036247E+01  0.36262496460E+02  0.44081223002E+02  0.00000000000E+00 0.  1.
<scales pt_clust_5="13000.00000" pt_clust_6="13000.00000" pt_clust_7="13000.00000" pt_clust_8="13000.00000" pt_clust_9="21.30756" pt_clust_10="25.77162"></scales>
<clustering>
<clus scale="   21.308">  2  9  1 -1</clus>
<clus scale="   25.772">  1 10  2 -1</clus>
<clus scale="   90.385">  7  8 -1 -1</clus>
<clus scale="   90.713">  5  6 -1 -1</clus>
<clus scale="  142.598">  1  7  2 -1</clus>
<clus scale="   25.772">  1  5  2 -1</clus>
</clustering>
</event>
<event>
10    2  0.1671105E-006  0.1028779E+03  0.7546771E-02  0.1275825E+00
          2   -1    0    0  502    0 -0.00000000000E+00  0.00000000000E+00  0.43594163285E+03  0.43594163285E+03  0.00000000000E+00 0. -1.
         21   -1    0    0  503  502  0.00000000000E+00 -0.00000000000E+00 -0.42535808901E+02  0.42535808901E+02  0.00000000000E+00 0.  1.
         23    2    1    2    0    0 -0.34080141554E+01  0.28030320036E+02  0.17157098633E+03  0.19774469279E+03  0.94175616661E+02 0.  0.
         23    2    1    2    0    0 -0.10450988636E+02 -0.59577633655E+02  0.14860546060E+03  0.18447768511E+03  0.91047876350E+02 0.  0.
        -11    1    4    4    0    0 -0.37223061356E+02 -0.19924354910E+02  0.12335167458E+03  0.13037703723E+03  0.00000000000E+00 0. -1.
         11    1    4    4    0    0  0.26772072720E+02 -0.39653278744E+02  0.25253786026E+02  0.54100647885E+02  0.00000000000E+00 0.  1.
        -13    1    3    3    0    0 -0.16301409797E+02 -0.32398808538E+02  0.56642106514E+02  0.67258806014E+02  0.00000000000E+00 0. -1.
         13    1    3    3    0    0  0.12893395641E+02  0.60429128574E+02  0.11492887982E+03  0.13048588677E+03  0.00000000000E+00 0.  1.
         21    1    1    2  503  501  0.23907206252E+02  0.52832861140E+01  0.89060212069E+01  0.26053499509E+02  0.00000000000E+00 0. -1.
          2    1    1    2  501    0 -0.10048203460E+02  0.26264027505E+02  0.64323355814E+02  0.70201564347E+02  0.00000000000E+00 0. -1.
<scales pt_clust_5="13000.00000" pt_clust_6="13000.00000" pt_clust_7="13000.00000" pt_clust_8="13000.00000" pt_clust_9="24.48403" pt_clust_10="27.88717"></scales>
<clustering>
<clus scale="   24.484">  2  9  1 -1</clus>
<clus scale="   27.887">  2 10  1 -1</clus>
<clus scale="   91.048">  5  6 -1 -1</clus>
<clus scale="   94.176">  7  8 -1 -1</clus>
<clus scale="  100.023">  2  5  1 -1</clus>
<clus scale="   24.484">  2  5  1 -1</clus>
</clustering>
</event>
<event>
10    2  0.1671105E-006  0.9215594E+02  0.7546771E-02  0.1298916E+00
         21   -1    0    0  501  502  0.00000000000E+00  0.00000000000E+00  0.63339892252E+02  0.63339892252E+02  0.00000000000E+00 0.  1.
          1   -1    0    0  503    0 -0.00000000000E+00 -0.00000000000E+00 -0.65861548349E+03  0.65861548349E+03  0.00000000000E+00 0. -1.
         23    2    1    2    0    0 -0.13946096948E+02 -0.49295266317E+00 -0.23697086926E+03  0.25448319299E+03  0.91715680296E+02 0.  0.
         23    2    1    2    0    0  0.13050476786E+02 -0.29811101307E+02 -0.19460074412E+02  0.97366184144E+02  0.89679778173E+02 0.  0.
        -11    1    3    3    0    0  0.21768097084E+02 -0.28475435077E+02 -0.16901120018E+03  0.17277003860E+03  0.00000000000E+00 0.  1.
         11    1    3    3    0    0 -0.35714194032E+02  0.27982482414E+02 -0.67959669080E+02  0.81713154380E+02  0.00000000000E+00 0. -1.
        -13    1    4    4    0    0  0.16594127965E+02  0.29016658248E+02  0.45379002502E+01  0.33733130265E+02  0.00000000000E+00 0.  1.
         13    1    4    4    0    0 -0.35436511787E+01 -0.58827759555E+02 -0.23997974663E+02  0.63633053878E+02  0.00000000000E+00 0. -1.
         21    1    1    2  503  502  0.53884761541E+02 -0.28932583308E+02 -0.20995180564E+03  0.21867881149E+03  0.00000000000E+00 0. -1.
          1    1    1    2  501    0 -0.52989141379E+02  0.59236637278E+02 -0.12889284193E+03  0.15142718713E+03  0.00000000000E+00 0. -1.
<scales pt_clust_5="13000.00000" pt_clust_6="13000.00000" pt_clust_7="13000.00000" pt_clust_8="13000.00000" pt_clust_9="61.16095" pt_clust_10="61.69508"></scales>
<clustering>
<clus scale="   61.161">  2  9  1 -1</clus>
<clus scale="   61.695">  1 10  2 -1</clus>
<clus scale="   89.680">  7  8 -1 -1</clus>
<clus scale="   90.130">  1  7  2 -1</clus>
<clus scale="   91.716">  5  6 -1 -1</clus>
<clus scale="   61.695">  1  5  2 -1</clus>
</clustering>
</event>
<event>
10    2  0.1671105E-006  0.2057956E+03  0.7546771E-02  0.1161250E+00
         21   -1    0    0  503  502  0.00000000000E+00  0.00000000000E+00  0.26141098905E+03  0.26141098905E+03  0.00000000000E+00 0.  1.
          2   -1    0    0  502    0 -0.00000000000E+00 -0.00000000000E+00 -0.31654778262E+03  0.31654778262E+03  0.00000000000E+00 0. -1.
         23    2    1    2    0    0  0.10079271040E+03 -0.33500947213E+02 -0.63963906956E+02  0.15402975192E+03  0.91390913934E+02 0.  0.
         23    2    1    2    0    0 -0.79375091987E+02 -0.16535935004E+03  0.57406697471E+02  0.21423456923E+03  0.94640381799E+02 0.  0.
        -11    1    4    4    0    0  0.11730906673E+02 -0.24339870444E+02  0.35962128396E+02  0.44981308822E+02  0.00000000000E+00 0. -1.
         11    1    4    4    0    0 -0.91105998660E+02 -0.14101947959E+03  0.21444569075E+02  0.16925326041E+03  0.00000000000E+00 0.  1.
        -13    1    3    3    0    0 -0.10652818033E+01 -0.36310228933E+02 -0.28382993341E+02  0.46099477887E+02  0.00000000000E+00 0.  1.
         13    1    3    3    0    0  0.10185799220E+03  0.28092817200E+01 -0.35580913616E+02  0.10793027403E+03  0.00000000000E+00 0. -1.
         21    1    1    2  503  501 -0.24816564449E+02  0.61300365996E+02 -0.20695018192E+02  0.69295602460E+02  0.00000000000E+00 0.  1.
          2    1    1    2  501    0  0.33989460392E+01  0.13755993126E+03 -0.27884565899E+02  0.14039884806E+03  0.00000000000E+00 0. -1.
<scales pt_clust_5="13000.00000" pt_clust_6="13000.00000" pt_clust_7="13000.00000" pt_clust_8="13000.00000" pt_clust_9="27.79674" pt_clust_10="187.09018"></scales>
<clustering>
<clus scale="   27.797">  9 10 -1 -1</clus>
<clus scale="   91.391">  7  8 -1 -1</clus>
<clus scale="   94.640">  5  6 -1 -1</clus>
<clus scale="  140.121">  2  7  1 -1</clus>
<clus scale="  187.090">  1  9  2 -1</clus>
<clus scale="  187.090">  1  5  2 -1</clus>
</clustering>
</event>
<event>
10    2  0.1671105E-006  0.1138582E+03  0.7546771E-02  0.1253851E+00
         21   -1    0    0  501  502  0.00000000000E+00  0.00000000000E+00  0.10429787642E+03  0.10429787642E+03  0.00000000000E+00 0. -1.
          1   -1    0    0  503    0 -0.00000000000E+00 -0.00000000000E+00 -0.29002573402E+03  0.29002573402E+03  0.00000000000E+00 0. -1.
         23    2    1    2    0    0  0.47379661094E+02  0.38692764317E+01 -0.15424860031E+03  0.18497900247E+03  0.90359266664E+02 0.  0.
         23    2    1    2    0    0 -0.56513948043E+02  0.59206419107E+02  0.11170792923E+02  0.12297938895E+03  0.91103880846E+02 0.  0.
        -11    1    3    3    0    0  0.62686201017E+02  0.31762030350E+02 -0.10493133203E+03  0.12628923474E+03  0.00000000000E+00 0.  1.
         11    1    3    3    0    0 -0.15306539923E+02 -0.27892753919E+02 -0.49317268281E+02  0.58689767731E+02  0.00000000000E+00 0. -1.
        -13    1    4    4    0    0 -0.32854722861E+02  0.49122491926E+02 -0.36038846294E+02  0.69218859204E+02  0.00000000000E+00 0.  1.
         13    1    4    4    0    0 -0.23659225183E+02  0.10083927181E+02  0.47209639217E+02  0.53760529747E+02  0.00000000000E+00 0. -1.
         21    1    1    2  503  502  0.23900966311E+02 -0.41340795516E+02 -0.34297011976E+02  0.58792878778E+02  0.00000000000E+00 0. -1.
          1    1    1    2  501    0 -0.14766679361E+02 -0.21734900022E+02 -0.83530382391E+01  0.27572340237E+02  0.00000000000E+00 0. -1.
<scales pt_clust_5="13000.00000" pt_clust_6="13000.00000" pt_clust_7="13000.00000" pt_clust_8="13000.00000" pt_clust_9="49.32562" pt_clust_10="26.27662"></scales>
<clustering>
<clus scale="   26.277">  1 10  2 -1</clus>
<clus scale="   49.326">  2  9  1 -1</clus>
<clus scale="   90.359">  5  6 -1 -1</clus>
<clus scale="   91.104">  7  8 -1 -1</clus>
<clus scale="  113.263">  2  5  1 -1</clus>
<clus scale="   26.277">  1  5  2 -1</clus>
</clustering>
</event>
<event>
10    2  0.1671105E-006  0.9534984E+02  0.7546771E-02  0.1290636E+00
         21   -1    0    0  501  502  0.00000000000E+00  0.00000000000E+00  0.21309280112E+03  0.21309280112E+03  0.00000000000E+00 0.  1.
          4   -1    0    0  503    0 -0.00000000000E+00 -0.00000000000E+00 -0.17006183512E+03  0.17006183512E+03  0.00000000000E+00 0. -1.
         23    2    1    2    0    0 -0.82216030498E+01  0.98937571227E+01 -0.67449324192E+02  0.11547062866E+03  0.92836272875E+02 0.  0.
         23    2    1    2    0    0 -0.73466901117E+02 -0.59989690487E+02  0.72377388147E+02  0.15144760000E+03  0.93283121225E+02 0.  0.
        -11    1    4    4    0    0 -0.67451455142E+02 -0.83035983216E+02  0.47641648226E+02  0.11710849651E+03  0.00000000000E+00 0.  1.
         11    1    4    4    0    0 -0.60154459755E+01  0.23046292729E+02  0.24735739921E+02  0.34339103487E+02  0.00000000000E+00 0. -1.
        -13    1    3    3    0    0 -0.49784907394E+02  0.30563039557E+01 -0.47445425121E+02  0.68840005542E+02  0.00000000000E+00 0.  1.
         13    1    3    3    0    0  0.41563304345E+02  0.68374531670E+01 -0.20003899071E+02  0.46630623113E+02  0.00000000000E+00 0. -1.
         21    1    1    2  503  502  0.22072208376E+02 -0.91320584937E+01  0.17780764508E+02  0.29778053352E+02  0.00000000000E+00 0. -1.
          4    1    1    2  501    0  0.59616295791E+02  0.59227991858E+02  0.20322137543E+02  0.86458354239E+02  0.00000000000E+00 0. -1.
<scales pt_clust_5="13000.00000" pt_clust_6="13000.00000" pt_clust_7="13000.00000" pt_clust_8="13000.00000" pt_clust_9="23.88675" pt_clust_10="86.85945"></scales>
<clustering>
<clus scale="   23.887">  1  9  2 -1</clus>
<clus scale="   86.859">  1 10  2 -1</clus>
<clus scale="   92.836">  7  8 -1 -1</clus>
<clus scale="   93.283">  5  6 -1 -1</clus>
<clus scale="   94.913">  2  7  1 -1</clus>
<clus scale="   23.887">  1  5  2 -1</clus>
</clustering>
</event>
<event>
10    2  0.1671105E-006  0.1015526E+03  0.7546771E-02  0.1279547E+00
         21   -1    0    0  503  502  0.00000000000E+00  0.00000000000E+00  0.13785513662E+03  0.13785513662E+03  0.00000000000E+00 0. -1.
          2   -1    0    0  502    0 -0.00000000000E+00 -0.00000000000E+00 -0.41103717673E+03  0.41103717673E+03  0.00000000000E+00 0. -1.
         23    2    1    2    0    0 -0.10110909512E+02 -0.26163989399E+02 -0.16447139427E+03  0.19120905612E+03  0.93398494506E+02 0.  0.
         23    2    1    2    0    0  0.13561104910E+03  0.17243759715E+02 -0.35081333919E+02  0.16646197866E+03  0.88267697740E+02 0.  0.
        -11    1    4    4    0    0  0.35966257686E+02 -0.36586855529E+01 -0.51918912464E+02  0.63265560484E+02  0.00000000000E+00 0.  1.
         11    1    4    4    0    0  0.99644791413E+02  0.20902445268E+02  0.16837578545E+02  0.10319641818E+03  0.00000000000E+00 0. -1.
        -11    1    3    3    0    0 -0.39547118737E+02  0.17908830622E+02 -0.59947076588E+02  0.74015895631E+02  0.00000000000E+00 0.  1.
         11    1    3    3    0    0  0.29436209224E+02 -0.44072820021E+02 -0.10452431768E+03  0.11719316048E+03  0.00000000000E+00 0. -1.
         21    1    1    2  503  501 -0.63781733650E+02 -0.57363874203E+02 -0.39420453852E+02  0.94407074909E+02  0.00000000000E+00 0. -1.
          2    1    1    2  501    0 -0.61718405937E+02  0.66284103888E+02 -0.34208858069E+02  0.96814203658E+02  0.00000000000E+00 0. -1.
<scales pt_clust_5="13000.00000" pt_clust_6="13000.00000" pt_clust_7="13000.00000" pt_clust_8="13000.00000" pt_clust_9="85.78300" pt_clust_10="94.18533"></scales>
<clustering>
<clus scale="   85.783">  1  9  2 -1</clus>
<clus scale="   88.268">  5  6 -1 -1</clus>
<clus scale="   93.398">  7  8 -1 -1</clus>
<clus scale="   94.185">  1 10  2 -1</clus>
<clus scale="   96.855">  1  5  2 -1</clus>
<clus scale="   85.783">  1  5  2 -1</clus>
</clustering>
</event>
<event>
10    2  0.1671105E-006  0.1067703E+03  0.7546771E-02  0.1266866E+00
         21   -1    0    0  503  502  0.00000000000E+00  0.00000000000E+00  0.17309939985E+03  0.17309939985E+03  0.00000000000E+00 0.  1.
         -3   -1    0    0    0  501 -0.00000000000E+00 -0.00000000000E+00 -0.21324667841E+03  0.21324667841E+03  0.00000000000E+00 0.  1.
         23    2    1    2    0    0 -0.39564317066E+02 -0.24556143833E+02 -0.61118752672E+02  0.12013224117E+03  0.92346705716E+02 0.  0.
         23    2    1    2    0    0  0.69222012295E+02 -0.36294317803E+02 -0.74959668786E+02  0.14201991465E+03  0.91878940576E+02 0.  0.
        -11    1    3    3    0    0 -0.35925642422E+02 -0.57925113417E+02 -0.30408902340E+02  0.74636933815E+02  0.00000000000E+00 0.  1.
         11    1    3    3    0    0 -0.36386746439E+01  0.33368969584E+02 -0.30709850332E+02  0.45495307359E+02  0.00000000000E+00 0. -1.
        -13    1    4    4    0    0 -0.18510702345E+02 -0.22608001444E+02 -0.32152950575E+02  0.43446289385E+02  0.00000000000E+00 0. -1.
         13    1    4    4    0    0  0.87732714640E+02 -0.13686316359E+02 -0.42806718211E+02  0.98573625264E+02  0.00000000000E+00 0.  1.
         21    1    1    2  503  501 -0.97263711669E+01  0.37600392049E+02  0.23105305279E+02  0.45191226033E+02  0.00000000000E+00 0.  1.
         -3    1    1    2    0  502 -0.19931324062E+02  0.23250069586E+02  0.72825837619E+02  0.79002696407E+02  0.00000000000E+00 0.  1.
<scales pt_clust_5="13000.00000" pt_clust_6="13000.00000" pt_clust_7="13000.00000" pt_clust_8="13000.00000" pt_clust_9="48.73153" pt_clust_10="30.62390"></scales>
<clustering>
<clus scale="   30.624">  1 10  2 -1</clus>
<clus scale="   48.732">  1  9  2 -1</clus>
<clus scale="   91.879">  7  8 -1 -1</clus>
<clus scale="   92.347">  5  6 -1 -1</clus>
<clus scale="  106.366">  1  7  2 -1</clus>
<clus scale="   30.624">  1  5  2 -1</clus>
</clustering>
</event>
<event>
10    2  0.1671105E-006  0.2468326E+03  0.7546771E-02  0.1137699E+00
         21   -1    0    0  503  502  0.00000000000E+00  0.00000000000E+00  0.15816139382E+03  0.15816139382E+03  0.00000000000E+00 0. -1.
          2   -1    0    0  502    0 -0.00000000000E+00 -0.00000000000E+00 -0.99214142433E+03  0.99214142433E+03  0.00000000000E+00 0. -1.
         23    2    1    2    0    0  0.79321021988E+02 -0.74619305308E+02 -0.24143941802E+02  0.14400966117E+03  0.91082310737E+02 0.  0.
         23    2    1    2    0    0 -0.18342509272E+03 -0.12266788356E+03 -0.68550961228E+03  0.72580126146E+03  0.90398386713E+02 0.  0.
        -11    1    4    4    0    0 -0.69321044534E+02 -0.53318453341E+01 -0.28011804317E+03  0.28861731393E+03  0.00000000000E+00 0.  1.
         11    1    4    4    0    0 -0.11410404819E+03 -0.11733603822E+03 -0.40539156911E+03  0.43718394753E+03  0.00000000000E+00 0. -1.
        -11    1    3    3    0    0  0.64386026333E+02 -0.69963675950E+01 -0.35462396224E+02  0.73838276608E+02  0.00000000000E+00 0. -1.
         11    1    3    3    0    0  0.14934995655E+02 -0.67622937713E+02  0.11318454422E+02  0.70171384557E+02  0.00000000000E+00 0.  1.
         21    1    1    2  503  501  0.92707109179E+02  0.53798206587E+02 -0.46242309292E+02  0.11673562564E+03  0.00000000000E+00 0.  1.
          2    1    1    2  501    0  0.11396961556E+02  0.14348898228E+03 -0.78084167143E+02  0.16375626988E+03  0.00000000000E+00 0. -1.
<scales pt_clust_5="13000.00000" pt_clust_6="13000.00000" pt_clust_7="13000.00000" pt_clust_8="13000.00000" pt_clust_9="100.11042" pt_clust_10="100.11042"></scales>
<clustering>
<clus scale="   90.398">  5  6 -1 -1</clus>
<clus scale="   91.082">  7  8 -1 -1</clus>
<clus scale="  100.110">  9 10 -1 -1</clus>
<clus scale="  141.971">  2  7  1 -1</clus>
<clus scale="  235.880">  2  5  1 -1</clus>
<clus scale="  246.833">  1  5  2 -1</clus>
</clustering>
</event>
<event>
10    2  0.1671105E-006  0.1594032E+03  0.7546771E-02  0.1207797E+00
         21   -1    0    0  501  502  0.00000000000E+00  0.00000000000E+00  0.54817808907E+02  0.54817808907E+02  0.00000000000E+00 0. -1.
          2   -1    0    0  503    0 -0.00000000000E+00 -0.00000000000E+00 -0.10032629918E+04  0.10032629918E+04  0.00000000000E+00 0. -1.
         23    2    1    2    0    0  0.58546001005E+02  0.17391100856E+02 -0.44662772706E+03  0.45998669746E+03  0.91549716777E+02 0.  0.
         23    2    1    2    0    0  0.42283715921E+02  0.98428304839E+02 -0.20567134944E+03  0.24995777312E+03  0.93285264316E+02 0.  0.
        -11    1    3    3    0    0 -0.21799596794E+02 -0.70467791116E+01 -0.57420012462E+02  0.61821819347E+02  0.00000000000E+00 0.  1.
         11    1    3    3    0    0  0.80345597799E+02  0.24437879968E+02 -0.38920771460E+03  0.39816487812E+03  0.00000000000E+00 0. -1.
        -13    1    4    4    0    0  0.35195170021E+01  0.46958245751E+02 -0.16980487075E+03  0.17621338762E+03  0.00000000000E+00 0. -1.
         13    1    4    4    0    0  0.38764198919E+02  0.51470059088E+02 -0.35866478689E+02  0.73744385508E+02  0.00000000000E+00 0.  1.
         21    1    1    2  503  502 -0.20303278600E+02  0.16194776690E+02 -0.65386024470E+02  0.70355000603E+02  0.00000000000E+00 0.  1.
          2    1    1    2  501    0 -0.80526438325E+02 -0.13201418239E+03 -0.23076008193E+03  0.27778132953E+03  0.00000000000E+00 0. -1.
<scales pt_clust_5="13000.00000" pt_clust_6="13000.00000" pt_clust_7="13000.00000" pt_clust_8="13000.00000" pt_clust_9="25.97102" pt_clust_10="129.25651"></scales>
<clustering>
<clus scale="   25.971">  2  9  1 -1</clus>
<clus scale="   91.550">  5  6 -1 -1</clus>
<clus scale="   93.285">  7  8 -1 -1</clus>
<clus scale="  106.727">  2  5  1 -1</clus>
<clus scale="  129.257">  1 10  2 -1</clus>
<clus scale="  129.257">  1  5  2 -1</clus>
</clustering>
</event>
<event>
10    2  0.1671105E-006  0.1306351E+03  0.7546771E-02  0.1227820E+00
          1   -1    0    0  503    0 -0.00000000000E+00  0.00000000000E+00  0.53179853971E+03  0.53179853971E+03  0.00000000000E+00 0. -1.
         21   -1    0    0  501  502  0.00000000000E+00 -0.00000000000E+00 -0.15543619778E+03  0.15543619778E+03  0.00000000000E+00 0. -1.
         23    2    1    2    0    0  0.10900087508E+03 -0.57781772901E+02  0.35778630536E+03  0.38880201501E+03  0.89084468472E+02 0.  0.
         23    2    1    2    0    0 -0.41376691155E+02  0.26387855066E+02  0.12179682658E+03  0.16148458228E+03  0.93991775609E+02 0.  0.
        -11    1    4    4    0    0 -0.36478020566E+02  0.57689152009E+02  0.55370479916E+02  0.87889557344E+02  0.00000000000E+00 0.  1.
         11    1    4    4    0    0 -0.48986705893E+01 -0.31301296942E+02  0.66426346664E+02  0.73595024933E+02  0.00000000000E+00 0. -1.
        -11    1    3    3    0    0  0.21222284090E+02 -0.56987297415E+02  0.18917548676E+03  0.19870908937E+03  0.00000000000E+00 0. -1.
         11    1    3    3    0    0  0.87778590986E+02 -0.79447548595E+00  0.16861081860E+03  0.19009292563E+03  0.00000000000E+00 0.  1.
         21    1    1    2  503  502 -0.24551032808E+02 -0.85413448026E+01 -0.12429655071E+02  0.28813262713E+02  0.00000000000E+00 0. -1.
          1    1    1    2  501    0 -0.43073151112E+02  0.39935262638E+02 -0.90791134937E+02  0.10813487750E+03  0.00000000000E+00 0. -1.
<scales pt_clust_5="13000.00000" pt_clust_6="13000.00000" pt_clust_7="13000.00000" pt_clust_8="13000.00000" pt_clust_9="25.99438" pt_clust_10="69.82111"></scales>
<clustering>
<clus scale="   25.994">  2  9  1 -1</clus>
<clus scale="   69.821">  2 10  1 -1</clus>
<clus scale="   89.084">  7  8 -1 -1</clus>
<clus scale="   93.992">  5  6 -1 -1</clus>
<clus scale="  127.150">  1  7  2 -1</clus>
<clus scale="   25.994">  2  5  1 -1</clus>
</clustering>
</event>
<event>
10    2  0.1671105E-006  0.1001046E+03  0.7546771E-02  0.1281422E+00
         -4   -1    0    0    0  501 -0.00000000000E+00  0.00000000000E+00  0.53160278263E+03  0.53160278263E+03  0.00000000000E+00 0.  1.
         21   -1    0    0  503  502  0.00000000000E+00 -0.00000000000E+00 -0.14447620787E+03  0.14447620787E+03  0.00000000000E+00 0.  1.
         23    2    1    2    0    0  0.11469863231E+02 -0.41909731223E+02  0.39650048104E+03  0.40900785296E+03  0.90480986876E+02 0.  0.
         23    2    1    2    0    0 -0.10997363016E+02  0.12396002066E+02  0.96024701043E+02  0.13484081950E+03  0.93202470637E+02 0.  0.
        -11    1    3    3    0    0 -0.35908934893E+02 -0.31921528195E+02  0.25404083246E+03  0.25854434846E+03  0.00000000000E+00 0. -1.
         11    1    3    3    0    0  0.47378798123E+02 -0.99882030279E+01  0.14245964858E+03  0.15046350450E+03  0.00000000000E+00 0.  1.
        -13    1    4    4    0    0 -0.47917366607E+02 -0.10781114321E+02  0.64370192076E+02  0.80968068252E+02  0.00000000000E+00 0.  1.
         13    1    4    4    0    0  0.36920003591E+02  0.23177116387E+02  0.31654508967E+02  0.53872751249E+02  0.00000000000E+00 0. -1.
         21    1    1    2  503  501 -0.49386651904E+01 -0.22737153810E+02 -0.14881356135E+02  0.27619256646E+02  0.00000000000E+00 0.  1.
         -4    1    1    2    0  502  0.44661649763E+01  0.52250882967E+02 -0.90517251195E+02  0.10461106139E+03  0.00000000000E+00 0.  1.
<scales pt_clust_5="13000.00000" pt_clust_6="13000.00000" pt_clust_7="13000.00000" pt_clust_8="13000.00000" pt_clust_9="23.26733" pt_clust_10="34.25324"></scales>
<clustering>
<clus scale="   23.267">  2  9  1 -1</clus>
<clus scale="   34.253">  2 10  1 -1</clus>
<clus scale="   90.481">  5  6 -1 -1</clus>
<clus scale="   93.202">  7  8 -1 -1</clus>
<clus scale="   97.576">  1  5  2 -1</clus>
<clus scale="   23.267">  2  5  1 -1</clus>
</clustering>
</event>
<event>
10    2  0.1671105E-006  0.1532990E+03  0.7546771E-02  0.1211230E+00
          1   -1    0    0  503    0 -0.00000000000E+00  0.00000000000E+00  0.12641985547E+03  0.12641985547E+03  0.00000000000E+00 0. -1.
         21   -1    0    0  501  502  0.00000000000E+00 -0.00000000000E+00 -0.50379107035E+03  0.50379107035E+03  0.00000000000E+00 0. -1.
         23    2    1    2    0    0 -0.81631039713E+02 -0.72708467901E+02 -0.66790235709E+02  0.15733743240E+03  0.91345410939E+02 0.  0.
         23    2    1    2    0    0 -0.34740846336E+02  0.64606163872E+02 -0.77205912693E+02  0.13943207449E+03  0.89998153466E+02 0.  0.
        -11    1    4    4    0    0 -0.12276001402E+02  0.46447738940E+02 -0.94324507334E+02  0.10585464254E+03  0.00000000000E+00 0.  1.
         11    1    4    4    0    0 -0.22464844934E+02  0.18158424932E+02  0.17118594642E+02  0.33577431951E+02  0.00000000000E+00 0. -1.
        -11    1    3    3    0    0 -0.57363785607E+02 -0.76053027012E-02 -0.55588325575E+02  0.79879070458E+02  0.00000000000E+00 0. -1.
         11    1    3    3    0    0 -0.24267254106E+02 -0.72700862598E+02 -0.11201910134E+02  0.77458361944E+02  0.00000000000E+00 0.  1.
         21    1    1    2  503  502  0.13286776422E+03  0.45545926132E+02 -0.55671204138E+02  0.15108791192E+03  0.00000000000E+00 0. -1.
          1    1    1    2  501    0 -0.16495878173E+02 -0.37443622104E+02 -0.17770386234E+03  0.18235350702E+03  0.00000000000E+00 0. -1.
<scales pt_clust_5="13000.00000" pt_clust_6="13000.00000" pt_clust_7="13000.00000" pt_clust_8="13000.00000" pt_clust_9="123.11210" pt_clust_10="40.91624"></scales>
<clustering>
<clus scale="   40.916">  2 10  1 -1</clus>
<clus scale="   89.998">  5  6 -1 -1</clus>
<clus scale="   91.345">  7  8 -1 -1</clus>
<clus scale="  111.502">  2  5  1 -1</clus>
<clus scale="  123.112">  2  9  1 -1</clus>
<clus scale="   40.916">  2  5  1 -1</clus>
</clustering>
</event>
<event>
10    2  0.1671105E-006  0.9709213E+02  0.7546771E-02  0.1287496E+00
         21   -1    0    0  501  502  0.00000000000E+00  0.00000000000E+00  0.67771095851E+02  0.67771095851E+02  0.00000000000E+00 0. -1.
          3   -1    0    0  503    0 -0.00000000000E+00 -0.00000000000E+00 -0.31807649147E+03  0.31807649147E+03  0.00000000000E+00 0. -1.
         23    2    1    2    0    0 -0.24326071674E+02  0.23920876987E+02 -0.20509292827E+03  0.22749987183E+03  0.92353215109E+02 0.  0.
         23    2    1    2    0    0  0.33840384178E+02  0.15970272069E+02 -0.47352581261E+02  0.10879296330E+03  0.90517516093E+02 0.  0.
        -11    1    4    4    0    0 -0.29000366622E+02  0.15934144690E+02 -0.27095781480E+02  0.42767974060E+02  0.00000000000E+00 0.  1.
         11    1    4    4    0    0  0.62840750801E+02  0.36127378997E-01 -0.20256799781E+02  0.66024989237E+02  0.00000000000E+00 0. -1.
        -13    1    3    3    0    0 -0.74614829706E+01 -0.24639982086E+02 -0.13379386862E+02  0.29013969706E+02  0.00000000000E+00 0.  1.
         13    1    3    3    0    0 -0.16864588703E+02  0.48560859072E+02 -0.19171354140E+03  0.19848590213E+03  0.00000000000E+00 0. -1.
         21    1    1    2  503  502  0.21557812228E+01 -0.22797999165E+02  0.12841814200E+02  0.26254682450E+02  0.00000000000E+00 0. -1.
          3    1    1    2  501    0 -0.11670093728E+02 -0.17093149890E+02 -0.10701700295E+02  0.23300069742E+02  0.00000000000E+00 0. -1.
<scales pt_clust_5="13000.00000" pt_clust_6="13000.00000" pt_clust_7="13000.00000" pt_clust_8="13000.00000" pt_clust_9="28.27648" pt_clust_10="20.69703"></scales>
<clustering>
<clus scale="   20.697">  1 10  2 -1</clus>
<clus scale="   28.276">  1  9  2 -1</clus>
<clus scale="   90.518">  5  6 -1 -1</clus>
<clus scale="   92.353">  7  8 -1 -1</clus>
<clus scale="   95.348">  1  5  2 -1</clus>
<clus scale="   20.697">  1  5  2 -1</clus>
</clustering>
</event>
<event>
10    2  0.1671105E-006  0.9444021E+02  0.7546771E-02  0.1294389E+00
         21   -1    0    0  503  502  0.00000000000E+00  0.00000000000E+00  0.36566020815E+03  0.36566020815E+03  0.00000000000E+00 0.  1.
         -3   -1    0    0    0  501 -0.00000000000E+00 -0.00000000000E+00 -0.12862635407E+03  0.12862635407E+03  0.00000000000E+00 0.  1.
         23    2    1    2    0    0 -0.34562637950E+01 -0.13083639533E+02 -0.85592303424E+02  0.12745980013E+03  0.93471016155E+02 0.  0.
         23    2    1    2    0    0 -0.32105573409E+02  0.16436348975E+02  0.14278204098E+03  0.17262795859E+03  0.90070968968E+02 0.  0.
        -11    1    3    3    0    0 -0.39718577425E+02 -0.33786506230E+02 -0.54269124360E+02  0.75261087254E+02  0.00000000000E+00 0.  1.
         11    1    3    3    0    0  0.36262313629E+02  0.20702866698E+02 -0.31323179064E+02  0.52198712877E+02  0.00000000000E+00 0. -1.
        -13    1    4    4    0    0 -0.20948610913E+02 -0.28369542012E+02  0.18035311680E+02  0.39609944213E+02  0.00000000000E+00 0.  1.
         13    1    4    4    0    0 -0.11156962496E+02  0.44805890987E+02  0.12474672930E+03  0.13301801438E+03  0.00000000000E+00 0. -1.
         21    1    1    2  503  501  0.47946161095E+01 -0.30490731411E+02  0.59085510633E+02  0.66661612735E+02  0.00000000000E+00 0. -1.
         -3    1    1    2    0  502  0.30767221095E+02  0.27138021969E+02  0.12075860589E+03  0.12753719076E+03  0.00000000000E+00 0.  1.
<scales pt_clust_5="13000.00000" pt_clust_6="13000.00000" pt_clust_7="13000.00000" pt_clust_8="13000.00000" pt_clust_9="30.86540" pt_clust_10="35.85633"></scales>
<clustering>
<clus scale="   30.865">  1  9  2 -1</clus>
<clus scale="   35.856">  1 10  2 -1</clus>
<clus scale="   90.071">  7  8 -1 -1</clus>
<clus scale="   91.076">  1  7  2 -1</clus>
<clus scale="   93.471">  5  6 -1 -1</clus>
<clus scale="   30.865">  1  5  2 -1</clus>
</clustering>
</event>
<event>
10    2  0.1671105E-006  0.1170959E+03  0.7546771E-02  0.1248156E+00
         21   -1    0    0  501  502  0.00000000000E+00  0.00000000000E+00  0.23015351613E+03  0.23015351613E+03  0.00000000000E+00 0. -1.
          1   -1    0    0  503    0 -0.00000000000E+00 -0.00000000000E+00 -0.20764405987E+03  0.20764405987E+03  0.00000000000E+00 0. -1.
         23    2    1    2    0    0 -0.18735679002E+02 -0.77143385771E+02 -0.10941390999E+03  0.16240299740E+03  0.90006678795E+02 0.  0.
         23    2    1    2    0    0 -0.32621019315E+02  0.56012316237E+02  0.54384672719E+01  0.11058105055E+03  0.89426401829E+02 0.  0.
        -11    1    4    4    0    0  0.30476414167E+02  0.14786148806E+02  0.92466264353E+01  0.35113275516E+02  0.00000000000E+00 0. -1.
         11    1    4    4    0    0 -0.63097433482E+02  0.41226167431E+02 -0.38081591634E+01  0.75467775039E+02  0.00000000000E+00 0.  1.
        -13    1    3    3    0    0 -0.49354925456E+02 -0.32158531024E+02 -0.29926565831E+02  0.66073286030E+02  0.00000000000E+00 0.  1.
         13    1    3    3    0    0  0.30619246454E+02 -0.44984854747E+02 -0.79487344164E+02  0.96329711368E+02  0.00000000000E+00 0. -1.
         21    1    1    2  503  502  0.22464580298E+02 -0.18343341339E+02 -0.20957759358E+00  0.29003094011E+02  0.00000000000E+00 0. -1.
          1    1    1    2  501    0  0.28892118019E+02  0.39474410873E+02  0.12669447657E+03  0.13581043403E+03  0.00000000000E+00 0. -1.
<scales pt_clust_5="13000.00000" pt_clust_6="13000.00000" pt_clust_7="13000.00000" pt_clust_8="13000.00000" pt_clust_9="29.00234" pt_clust_10="48.88669"></scales>
<clustering>
<clus scale="   29.002">  2  9  1 -1</clus>
<clus scale="   48.887">  1 10  2 -1</clus>
<clus scale="   89.426">  5  6 -1 -1</clus>
<clus scale="   90.007">  7  8 -1 -1</clus>
<clus scale="  116.651">  1  5  2 -1</clus>
<clus scale="   48.887">  1  5  2 -1</clus>
</clustering>
</event>
<event>
10    2  0.1671105E-006  0.1636403E+03  0.7546771E-02  0.1184928E+00
         21   -1    0    0  501  502  0.00000000000E+00  0.00000000000E+00  0.12464662330E+03  0.12464662330E+03  0.00000000000E+00 0. -1.
          1   -1    0    0  503    0 -0.00000000000E+00 -0.00000000000E+00 -0.63113705847E+03  0.63113705847E+03  0.00000000000E+00 0. -1.
         23    2    1    2    0    0 -0.72739773927E+02 -0.82161517693E+02 -0.26661714196E+03  0.30266216587E+03  0.92076579854E+02 0.  0.
         23    2    1    2    0    0  0.16984011915E+03  0.88724560927E+02 -0.26544930264E+03  0.34057626252E+03  0.93867696959E+02 0.  0.
        -13    1    3    3    0    0 -0.27102763063E+02 -0.70969415116E+02 -0.23249140143E+03  0.24458836723E+03  0.00000000000E+00 0.  1.
         13    1    3    3    0    0 -0.45637010864E+02 -0.11192102577E+02 -0.34125740536E+02  0.58073798634E+02  0.00000000000E+00 0. -1.
        -13    1    4    4    0    0  0.80730652176E+01  0.44681875656E+02 -0.49222892965E+02  0.66966690123E+02  0.00000000000E+00 0.  1.
         13    1    4    4    0    0  0.16176705393E+03  0.44042685271E+02 -0.21622640968E+03  0.27360957240E+03  0.00000000000E+00 0. -1.
         21    1    1    2  503  502 -0.26712213066E+02  0.13252827063E+01 -0.15255386261E+02  0.30790022915E+02  0.00000000000E+00 0. -1.
          1    1    1    2  501    0 -0.70388132159E+02 -0.78883259399E+01  0.40831395694E+02  0.81755230471E+02  0.00000000000E+00 0. -1.
<scales pt_clust_5="13000.00000" pt_clust_6="13000.00000" pt_clust_7="13000.00000" pt_clust_8="13000.00000" pt_clust_9="26.74507" pt_clust_10="84.70243"></scales>
<clustering>
<clus scale="   26.745">  1  9  2 -1</clus>
<clus scale="   84.702">  1 10  2 -1</clus>
<clus scale="   92.077">  5  6 -1 -1</clus>
<clus scale="   93.868">  7  8 -1 -1</clus>
<clus scale="  162.620">  2  5  1 -1</clus>
<clus scale="   26.745">  1  5  2 -1</clus>
</clustering>
</event>
<event>
10    2  0.1671105E-006  0.1555544E+03  0.7546771E-02  0.1211436E+00
          1   -1    0    0  503    0 -0.00000000000E+00  0.00000000000E+00  0.61507180685E+03  0.61507180685E+03  0.00000000000E+00 0. -1.
         21   -1    0    0  501  502  0.00000000000E+00 -0.00000000000E+00 -0.87866044612E+02  0.87866044612E+02  0.00000000000E+00 0.  1.
         23    2    1    2    0    0 -0.27235467817E+02 -0.49162339268E+02  0.48956488201E+02  0.11826028748E+03  0.91815312166E+02 0.  0.
         23    2    1    2    0    0 -0.79903058416E+02 -0.44286995575E+02  0.26874898540E+03  0.29847561795E+03  0.92281312485E+02 0.  0.
        -11    1    3    3    0    0 -0.47476327740E+02 -0.65312421640E+02  0.29873136520E+02  0.86093660636E+02  0.00000000000E+00 0.  1.
         11    1    3    3    0    0  0.20240859923E+02  0.16150082372E+02  0.19083351681E+02  0.32166626843E+02  0.00000000000E+00 0. -1.
        -13    1    4    4    0    0 -0.64320295121E+02 -0.64151409827E+02  0.13735600696E+03  0.16467901019E+03  0.00000000000E+00 0.  1.
         13    1    4    4    0    0 -0.15582763294E+02  0.19864414252E+02  0.13139297844E+03  0.13379660776E+03  0.00000000000E+00 0. -1.
         21    1    1    2  503  502 -0.26290673123E+02  0.37120689343E+02  0.79449217318E+02  0.91549566919E+02  0.00000000000E+00 0. -1.
          1    1    1    2  501    0  0.13342919936E+03  0.56328645500E+02  0.13005107132E+03  0.19465237911E+03  0.00000000000E+00 0. -1.
<scales pt_clust_5="13000.00000" pt_clust_6="13000.00000" pt_clust_7="13000.00000" pt_clust_8="13000.00000" pt_clust_9="45.48786" pt_clust_10="125.22510"></scales>
<clustering>
<clus scale="   45.488">  1  9  2 -1</clus>
<clus scale="   91.815">  5  6 -1 -1</clus>
<clus scale="   92.281">  7  8 -1 -1</clus>
<clus scale="  106.255">  1  5  2 -1</clus>
<clus scale="  125.225">  2 10  1 -1</clus>
<clus scale="  125.225">  2  5  1 -1</clus>
</clustering>
</event>
<event>
10    2  0.1671105E-006  0.4724846E+03  0.7546771E-02  0.1047832E+00
          1   -1    0    0  502    0 -0.00000000000E+00  0.00000000000E+00  0.46912528953E+03  0.46912528953E+03  0.00000000000E+00 0. -1.
         21   -1    0    0  503  502  0.00000000000E+00 -0.00000000000E+00 -0.84157320108E+03  0.84157320108E+03  0.00000000000E+00 0.  1.
         23    2    1    2    0    0 -0.91927302304E+02  0.16022418283E+03  0.92621100598E+02  0.23502027228E+03  0.11195285809E+03 0.  0.
         23    2    1    2    0    0  0.49648172411E+03  0.45511331855E+02 -0.18196731810E+03  0.53802842567E+03  0.88301179333E+02 0.  0.
        -11    1    3    3    0    0 -0.38621109533E+02 -0.30091358270E+01  0.39378376827E+02  0.55238587613E+02  0.00000000000E+00 0.  1.
         11    1    3    3    0    0 -0.53306192771E+02  0.16323331866E+03  0.53242723771E+02  0.17978168467E+03  0.00000000000E+00 0. -1.
        -13    1    4    4    0    0  0.11268970434E+03 -0.24742602798E+02 -0.54212210471E+02  0.12747599626E+03  0.00000000000E+00 0. -1.
         13    1    4    4    0    0  0.38379201977E+03  0.70253934653E+02 -0.12775510763E+03  0.41055242942E+03  0.00000000000E+00 0.  1.
         21    1    1    2  503  501 -0.12519264736E+03 -0.92323627653E+02 -0.93963676080E+02  0.18173063473E+03  0.00000000000E+00 0. -1.
          1    1    1    2  501    0 -0.27936177444E+03 -0.11341188703E+03 -0.18913801796E+03  0.35591915793E+03  0.00000000000E+00 0. -1.
<scales pt_clust_5="13000.00000" pt_clust_6="13000.00000" pt_clust_7="13000.00000" pt_clust_8="13000.00000" pt_clust_9="38.87568" pt_clust_10="467.30500"></scales>
<clustering>
<clus scale="   38.876">  9 10 -1 -1</clus>
<clus scale="   88.301">  7  8 -1 -1</clus>
<clus scale="  111.953">  5  6 -1 -1</clus>
<clus scale="  216.000">  1  5  2 -1</clus>
<clus scale="  467.305">  2  9  1 -1</clus>
<clus scale="  467.305">  2  5  1 -1</clus>
</clustering>
</event>
<event>
10    2  0.1671105E-006  0.1010955E+03  0.7546771E-02  0.1278343E+00
          1   -1    0    0  503    0 -0.00000000000E+00  0.00000000000E+00  0.25985451282E+03  0.25985451282E+03  0.00000000000E+00 0. -1.
         21   -1    0    0  501  502  0.00000000000E+00 -0.00000000000E+00 -0.13040036469E+03  0.13040036469E+03  0.00000000000E+00 0. -1.
         23    2    1    2    0    0 -0.19232451012E+02  0.25672383260E+02  0.11180283917E+03  0.14771433270E+03  0.91053230597E+02 0.  0.
         23    2    1    2    0    0  0.45913452354E+02 -0.37479941785E+02  0.79374898202E+02  0.13503078150E+03  0.91761355397E+02 0.  0.
        -11    1    3    3    0    0 -0.48651902260E+02  0.48017007248E+00  0.92325118799E+02  0.10436074798E+03  0.00000000000E+00 0.  1.
         11    1    3    3    0    0  0.29419451248E+02  0.25192213187E+02  0.19477720375E+02  0.43353584719E+02  0.00000000000E+00 0. -1.
        -11    1    4    4    0    0 -0.56540364622E+01 -0.43398151968E+02  0.46000384650E+01  0.44006000459E+02  0.00000000000E+00 0.  1.
         11    1    4    4    0    0  0.51567488816E+02  0.59182101830E+01  0.74774859737E+02  0.91024781039E+02  0.00000000000E+00 0. -1.
         21    1    1    2  503  502 -0.10733615804E+02  0.24213009868E+02  0.13424218700E+02  0.29693265277E+02  0.00000000000E+00 0. -1.
          1    1    1    2  501    0 -0.15947385538E+02 -0.12405451343E+02 -0.75147807944E+02  0.77816498040E+02  0.00000000000E+00 0. -1.
<scales pt_clust_5="13000.00000" pt_clust_6="13000.00000" pt_clust_7="13000.00000" pt_clust_8="13000.00000" pt_clust_9="25.91886" pt_clust_10="20.20431"></scales>
<clustering>
<clus scale="   20.204">  2 10  1 -1</clus>
<clus scale="   25.919">  2  9  1 -1</clus>
<clus scale="   91.053">  5  6 -1 -1</clus>
<clus scale="   91.761">  7  8 -1 -1</clus>
<clus scale="  100.453">  1  5  2 -1</clus>
<clus scale="   20.204">  2  5  1 -1</clus>
</clustering>
</event>
<event>
10    2  0.1671105E-006  0.1029147E+03  0.7546771E-02  0.1278803E+00
         21   -1    0    0  503  502  0.00000000000E+00  0.00000000000E+00  0.30425163995E+03  0.30425163995E+03  0.00000000000E+00 0.  1.
         -1   -1    0    0    0  501 -0.00000000000E+00 -0.00000000000E+00 -0.17867513343E+03  0.17867513343E+03  0.00000000000E+00 0.  1.
         23    2    1    2    0    0  0.15018594221E+02 -0.16419678463E+02 -0.10924979420E+03  0.14346449901E+03  0.90284998368E+02 0.  0.
         23    2    1    2    0    0 -0.32978103489E+02  0.33863484377E+02  0.16838172535E+02  0.11113754835E+03  0.99165214234E+02 0.  0.
        -11    1    4    4    0    0  0.34186975515E+02  0.87186299275E+01  0.17574748018E+02  0.39416184120E+02  0.00000000000E+00 0. -1.
         11    1    4    4    0    0 -0.67165079004E+02  0.25144854449E+02 -0.73657548289E+00  0.71721364225E+02  0.00000000000E+00 0.  1.
        -13    1    3    3    0    0 -0.31763532876E+02  0.43712520401E+00 -0.11482993922E+02  0.33778280723E+02  0.00000000000E+00 0. -1.
         13    1    3    3    0    0  0.46782127097E+02 -0.16856803667E+02 -0.97766800274E+02  0.10968621828E+03  0.00000000000E+00 0.  1.
         21    1    1    2  503  501 -0.14248228849E+02 -0.29815569135E+02  0.11863650968E+03  0.12315275725E+03  0.00000000000E+00 0.  1.
         -1    1    1    2    0  502  0.32207738117E+02  0.12371763220E+02  0.99351618496E+02  0.10517196878E+03  0.00000000000E+00 0.  1.
<scales pt_clust_5="13000.00000" pt_clust_6="13000.00000" pt_clust_7="13000.00000" pt_clust_8="13000.00000" pt_clust_9="33.04512" pt_clust_10="24.63186"></scales>
<clustering>
<clus scale="   33.045">  1  9  2 -1</clus>
<clus scale="   24.632">  1 10  2 -1</clus>
<clus scale="   90.285">  7  8 -1 -1</clus>
<clus scale="   94.388">  2  7  1 -1</clus>
<clus scale="   99.165">  5  6 -1 -1</clus>
<clus scale="   33.045">  1  5  2 -1</clus>
</clustering>
</event>
<event>
10    2  0.1671105E-006  0.9573943E+02  0.7546771E-02  0.1290135E+00
          1   -1    0    0  503    0 -0.00000000000E+00  0.00000000000E+00  0.42286802195E+03  0.42286802195E+03  0.00000000000E+00 0. -1.
         21   -1    0    0  501  502  0.00000000000E+00 -0.00000000000E+00 -0.67200864298E+02  0.67200864298E+02  0.00000000000E+00 0.  1.
         23    2    1    2    0    0  0.18323356557E+02  0.34483510623E+02  0.30232151285E+03  0.31774830355E+03  0.89670671775E+02 0.  0.
         23    2    1    2    0    0  0.86055002731E+01  0.42138160320E+01  0.29266715752E+02  0.95907154702E+02  0.90828579157E+02 0.  0.
        -11    1    4    4    0    0 -0.39426762898E+02 -0.10658736586E+02  0.99043790936E+01  0.42025885159E+02  0.00000000000E+00 0.  1.
         11    1    4    4    0    0  0.48032263171E+02  0.14872552618E+02  0.19362336658E+02  0.53881269543E+02  0.00000000000E+00 0. -1.
        -11    1    3    3    0    0 -0.11107852975E+02 -0.21797427277E+02  0.33236418987E+02  0.41269501823E+02  0.00000000000E+00 0.  1.
         11    1    3    3    0    0  0.29431209532E+02  0.56280937899E+02  0.26908509387E+03  0.27647880173E+03  0.00000000000E+00 0. -1.
         21    1    1    2  503  502 -0.37296443863E+02 -0.10892242150E+02  0.25878831975E+02  0.46683825981E+02  0.00000000000E+00 0.  1.
          1    1    1    2  501    0  0.10367587033E+02 -0.27805084505E+02 -0.17999029292E+01  0.29729602012E+02  0.00000000000E+00 0. -1.
<scales pt_clust_5="13000.00000" pt_clust_6="13000.00000" pt_clust_7="13000.00000" pt_clust_8="13000.00000" pt_clust_9="38.88165" pt_clust_10="29.67507"></scales>
<clustering>
<clus scale="   29.675">  2 10  1 -1</clus>
<clus scale="   38.882">  2  9  1 -1</clus>
<clus scale="   89.671">  7  8 -1 -1</clus>
<clus scale="   90.829">  5  6 -1 -1</clus>
<clus scale="   94.642">  1  7  2 -1</clus>
<clus scale="   29.675">  2  5  1 -1</clus>
</clustering>
</event>
<event>
10    2  0.1671105E-006  0.1041030E+03  0.7546771E-02  0.1272085E+00
         21   -1    0    0  503  502  0.00000000000E+00  0.00000000000E+00  0.82031649204E+02  0.82031649204E+02  0.00000000000E+00 0. -1.
         -2   -1    0    0    0  501 -0.00000000000E+00 -0.00000000000E+00 -0.24267171778E+03  0.24267171778E+03  0.00000000000E+00 0.  1.
         23    2    1    2    0    0 -0.49250090135E+02 -0.27798606311E+02 -0.12576260849E+03  0.16617189628E+03  0.92728267140E+02 0.  0.
         23    2    1    2    0    0  0.17890823186E+02  0.25883324787E+02 -0.19127912177E+02  0.99378196836E+02  0.92304501114E+02 0.  0.
        -11    1    3    3    0    0  0.70011415770E+01  0.22330063559E+02 -0.51543787982E+01  0.23962790796E+02  0.00000000000E+00 0. -1.
         11    1    3    3    0    0 -0.56251231712E+02 -0.50128669871E+02 -0.12060822969E+03  0.14220910548E+03  0.00000000000E+00 0.  1.
        -13    1    4    4    0    0 -0.18518852052E+02 -0.15726657109E+02  0.20143520222E+02  0.31560054374E+02  0.00000000000E+00 0.  1.
         13    1    4    4    0    0  0.36409675238E+02  0.41609981895E+02 -0.39271432400E+02  0.67818142462E+02  0.00000000000E+00 0. -1.
         21    1    1    2  503  501  0.20708666279E+02  0.24336919840E+02 -0.11546434250E+02  0.33977266962E+02  0.00000000000E+00 0. -1.
         -2    1    1    2    0  502  0.10650600670E+02 -0.22421638315E+02 -0.42031136571E+01  0.25176006907E+02  0.00000000000E+00 0.  1.
<scales pt_clust_5="13000.00000" pt_clust_6="13000.00000" pt_clust_7="13000.00000" pt_clust_8="13000.00000" pt_clust_9="30.56708" pt_clust_10="24.82267"></scales>
<clustering>
<clus scale="   24.823">  1 10  2 -1</clus>
<clus scale="   30.567">  1  9  2 -1</clus>
<clus scale="   92.305">  7  8 -1 -1</clus>
<clus scale="   92.728">  5  6 -1 -1</clus>
<clus scale="  103.726">  1  7  2 -1</clus>
<clus scale="   24.823">  1  5  2 -1</clus>
</clustering>
</event>
<event>
10    2  0.1671105E-006  0.1960676E+03  0.7546771E-02  0.1153148E+00
         -1   -1    0    0    0  501 -0.00000000000E+00  0.00000000000E+00  0.57727923954E+03  0.57727923954E+03  0.00000000000E+00 0.  1.
         21   -1    0    0  503  502  0.00000000000E+00 -0.00000000000E+00 -0.27236050331E+03  0.27236050331E+03  0.00000000000E+00 0.  1.
         23    2    1    2    0    0 -0.27804141603E+02  0.12651522418E+03  0.17131206842E+03  0.23357084992E+03  0.91806017811E+02 0.  0.
         23    2    1    2    0    0  0.12573319955E+03 -0.23473608230E+03  0.25077332114E+03  0.37724335256E+03  0.92279047718E+02 0.  0.
        -11    1    4    4    0    0  0.14065645299E+03 -0.21734837474E+03  0.23160412026E+03  0.34736871231E+03  0.00000000000E+00 0.  1.
         11    1    4    4    0    0 -0.14923253439E+02 -0.17387707557E+02  0.19169200888E+02  0.29874640249E+02  0.00000000000E+00 0. -1.
        -13    1    3    3    0    0 -0.40710702372E+02  0.12911571624E+02  0.32111024023E+02  0.53433957679E+02  0.00000000000E+00 0. -1.
         13    1    3    3    0    0  0.12906560769E+02  0.11360365255E+03  0.13920104440E+03  0.18013689224E+03  0.00000000000E+00 0.  1.
         21    1    1    2  503  501 -0.66523231553E+02  0.48927428445E+02  0.21018726811E+02  0.85211621668E+02  0.00000000000E+00 0.  1.
         -1    1    1    2    0  502 -0.31405826394E+02  0.59293429680E+02 -0.13818538015E+03  0.15361391871E+03  0.00000000000E+00 0.  1.
<scales pt_clust_5="13000.00000" pt_clust_6="13000.00000" pt_clust_7="13000.00000" pt_clust_8="13000.00000" pt_clust_9="98.19556" pt_clust_10="67.09722"></scales>
<clustering>
<clus scale="   67.097">  2 10  1 -1</clus>
<clus scale="   91.806">  7  8 -1 -1</clus>
<clus scale="   92.279">  5  6 -1 -1</clus>
<clus scale="   98.196">  2  9  1 -1</clus>
<clus scale="  195.845">  1  7  2 -1</clus>
<clus scale="   67.097">  2  5  1 -1</clus>
</clustering>
</event>
<event>
10    2  0.1671105E-006  0.2720648E+03  0.7546771E-02  0.1142334E+00
         -2   -1    0    0    0  501 -0.00000000000E+00  0.00000000000E+00  0.19636165040E+03  0.19636165040E+03  0.00000000000E+00 0.  1.
         21   -1    0    0  501  502  0.00000000000E+00 -0.00000000000E+00 -0.68579368146E+03  0.68579368146E+03  0.00000000000E+00 0.  1.
         23    2    1    2    0    0  0.96662595318E+01  0.13778312551E+02  0.60140612479E+02  0.11227310335E+03  0.93301007480E+02 0.  0.
         23    2    1    2    0    0 -0.13999673765E+03  0.21079871895E+03 -0.33016228248E+03  0.42616966907E+03  0.92618937593E+02 0.  0.
        -13    1    3    3    0    0 -0.39131682180E+02 -0.84188242295E+01  0.34519270175E+02  0.52855890543E+02  0.00000000000E+00 0.  1.
         13    1    3    3    0    0  0.48797941712E+02  0.22197136780E+02  0.25621342304E+02  0.59417212809E+02  0.00000000000E+00 0. -1.
        -13    1    4    4    0    0 -0.66598696974E+02  0.16221383824E+03 -0.17474251645E+03  0.24755537322E+03  0.00000000000E+00 0.  1.
         13    1    4    4    0    0 -0.73398040680E+02  0.48584880702E+02 -0.15541976603E+03  0.17861429585E+03  0.00000000000E+00 0. -1.
         21    1    1    2  503  502  0.42633242280E+02 -0.11656114736E+03 -0.86369653761E+02  0.15120784209E+03  0.00000000000E+00 0.  1.
         -2    1    1    2    0  503  0.87697235841E+02 -0.10801588414E+03 -0.13304070730E+03  0.19250471735E+03  0.00000000000E+00 0.  1.
<scales pt_clust_5="13000.00000" pt_clust_6="13000.00000" pt_clust_7="13000.00000" pt_clust_8="13000.00000" pt_clust_9="47.94144" pt_clust_10="260.80179"></scales>
<clustering>
<clus scale="   47.941">  9 10 -1 -1</clus>
<clus scale="   92.619">  7  8 -1 -1</clus>
<clus scale="   93.301">  5  6 -1 -1</clus>
<clus scale="   94.807">  1  5  2 -1</clus>
<clus scale="  260.802">  2  9  1 -1</clus>
<clus scale="  260.802">  2  5  1 -1</clus>
</clustering>
</event>
<event>
10    2  0.1671105E-006  0.1527582E+03  0.7546771E-02  0.1221601E+00
          2   -1    0    0  502    0 -0.00000000000E+00  0.00000000000E+00  0.81173342851E+03  0.81173342851E+03  0.00000000000E+00 0. -1.
         21   -1    0    0  503  502  0.00000000000E+00 -0.00000000000E+00 -0.16857240229E+03  0.16857240229E+03  0.00000000000E+00 0. -1.
         23    2    1    2    0    0  0.88957914013E+01  0.65631876923E+01  0.46119686486E+03  0.46999636698E+03  0.89843342977E+02 0.  0.
         23    2    1    2    0    0 -0.23405494952E+02  0.10983921881E+03  0.30200833847E+03  0.33688825915E+03  0.98347300218E+02 0.  0.
        -11    1    3    3    0    0 -0.25526568786E+02 -0.30431485025E+02  0.22109936161E+03  0.22463884059E+03  0.00000000000E+00 0. -1.
         11    1    3    3    0    0  0.34422360187E+02  0.36994672718E+02  0.24009750325E+03  0.24535752639E+03  0.00000000000E+00 0.  1.
        -13    1    4    4    0    0 -0.31686166840E+02 -0.61487038538E+01  0.80098474070E+02  0.86357311656E+02  0.00000000000E+00 0.  1.
         13    1    4    4    0    0  0.82806718878E+01  0.11598792266E+03  0.22190986440E+03  0.25053094749E+03  0.00000000000E+00 0. -1.
         21    1    1    2  503  501  0.13284430204E+02 -0.27858131388E+02 -0.56663084396E+02  0.64523303570E+02  0.00000000000E+00 0. -1.
          2    1    1    2  501    0  0.12252733468E+01 -0.88544275113E+02 -0.63381092720E+02  0.10889790110E+03  0.00000000000E+00 0. -1.
<scales pt_clust_5="13000.00000" pt_clust_6="13000.00000" pt_clust_7="13000.00000" pt_clust_8="13000.00000" pt_clust_9="25.76226" pt_clust_10="124.76831"></scales>
<clustering>
<clus scale="   25.762">  9 10 -1 -1</clus>
<clus scale="   89.843">  5  6 -1 -1</clus>
<clus scale="   90.521">  1  5  2 -1</clus>
<clus scale="   98.347">  7  8 -1 -1</clus>
<clus scale="  124.768">  2  9  1 -1</clus>
<clus scale="  124.768">  2  5  1 -1</clus>
</clustering>
</event>
<event>
10    2  0.1671105E-006  0.1294573E+03  0.7546771E-02  0.1229423E+00
          1   -1    0    0  503    0 -0.00000000000E+00  0.00000000000E+00  0.16335963680E+03  0.16335963680E+03  0.00000000000E+00 0. -1.
         21   -1    0    0  501  502  0.00000000000E+00 -0.00000000000E+00 -0.26476370974E+03  0.26476370974E+03  0.00000000000E+00 0. -1.
         23    2    1    2    0    0 -0.79329327716E+02 -0.34560888291E+01  0.14879370820E+02  0.11825167581E+03  0.86353786082E+02 0.  0.
         23    2    1    2    0    0  0.10261335919E+03 -0.90754673768E+02 -0.26156029846E+02  0.16640946398E+03  0.90785789152E+02 0.  0.
        -13    1    4    4    0    0  0.52154159392E+02 -0.52916982909E+02  0.31741168419E+02  0.80794586420E+02  0.00000000000E+00 0. -1.
         13    1    4    4    0    0  0.50459199794E+02 -0.37837690859E+02 -0.57897198265E+02  0.85614877565E+02  0.00000000000E+00 0.  1.
        -13    1    3    3    0    0 -0.82859989558E+02  0.18240927677E+02  0.31699443974E+02  0.90572424392E+02  0.00000000000E+00 0.  1.
         13    1    3    3    0    0  0.35306618414E+01 -0.21697016507E+02 -0.16820073153E+02  0.27679251421E+02  0.00000000000E+00 0. -1.
         21    1    1    2  503  502  0.18177875634E+02  0.33145239035E+02 -0.29980367211E+02  0.48247947639E+02  0.00000000000E+00 0. -1.
          1    1    1    2  501    0 -0.41461907105E+02  0.61065523562E+02 -0.60147046712E+02  0.95214259105E+02  0.00000000000E+00 0. -1.
<scales pt_clust_5="13000.00000" pt_clust_6="13000.00000" pt_clust_7="13000.00000" pt_clust_8="13000.00000" pt_clust_9="37.80267" pt_clust_10="80.57347"></scales>
<clustering>
<clus scale="   37.803">  2  9  1 -1</clus>
<clus scale="   80.573">  2 10  1 -1</clus>
<clus scale="   86.354">  7  8 -1 -1</clus>
<clus scale="   90.786">  5  6 -1 -1</clus>
<clus scale="  126.389">  1  7  2 -1</clus>
<clus scale="   37.803">  2  5  1 -1</clus>
</clustering>
</event>
<event>
10    2  0.1671105E-006  0.1953349E+03  0.7546771E-02  0.1178229E+00
          2   -1    0    0  502    0 -0.00000000000E+00  0.00000000000E+00  0.15701371928E+04  0.15701371928E+04  0.00000000000E+00 0. -1.
         21   -1    0    0  503  502  0.00000000000E+00 -0.00000000000E+00 -0.40190516916E+02  0.40190516916E+02  0.00000000000E+00 0. -1.
         23    2    1    2    0    0  0.80838413135E+02 -0.23640580062E+02  0.32441511895E+03  0.34291206898E+03  0.72455445514E+02 0.  0.
         23    2    1    2    0    0 -0.21618971373E+03 -0.36582498300E+02  0.57749776612E+03  0.62136829576E+03  0.67220663438E+02 0.  0.
        -11    1    3    3    0    0  0.51953840820E+02 -0.36190493724E+02  0.28749477670E+03  0.29438444259E+03  0.00000000000E+00 0.  1.
         11    1    3    3    0    0  0.28884572315E+02  0.12549913662E+02  0.36920342253E+02  0.48527626388E+02  0.00000000000E+00 0. -1.
        -11    1    4    4    0    0 -0.13952083358E+03 -0.22948611758E+02  0.27773457317E+03  0.31165557097E+03  0.00000000000E+00 0. -1.
         11    1    4    4    0    0 -0.76668880151E+02 -0.13633886542E+02  0.29976319295E+03  0.30971272478E+03  0.00000000000E+00 0.  1.
         21    1    1    2  503  501  0.64914047120E+02  0.16186021158E+02  0.32626911556E+03  0.33305758746E+03  0.00000000000E+00 0. -1.
          2    1    1    2  501    0  0.70437253472E+02  0.44037057204E+02  0.30176467524E+03  0.31298975751E+03  0.00000000000E+00 0. -1.
<scales pt_clust_5="13000.00000" pt_clust_6="13000.00000" pt_clust_7="13000.00000" pt_clust_8="13000.00000" pt_clust_9="28.43468" pt_clust_10="186.12114"></scales>
<clustering>
<clus scale="   28.435">  9 10 -1 -1</clus>
<clus scale="   67.221">  7  8 -1 -1</clus>
<clus scale="   72.455">  5  6 -1 -1</clus>
<clus scale="  111.101">  1  5  2 -1</clus>
<clus scale="  186.121">  2  9  1 -1</clus>
<clus scale="  186.121">  2  5  1 -1</clus>
</clustering>
</event>
<event>
10    2  0.1671105E-006  0.1853453E+03  0.7546771E-02  0.1186003E+00
         21   -1    0    0  501  502  0.00000000000E+00  0.00000000000E+00  0.53483890491E+02  0.53483890491E+02  0.00000000000E+00 0.  1.
         -1   -1    0    0    0  501 -0.00000000000E+00 -0.00000000000E+00 -0.99881766593E+03  0.99881766593E+03  0.00000000000E+00 0.  1.
         23    2    1    2    0    0 -0.22726478731E+02  0.55367112807E+02 -0.14519047018E+03  0.18171470515E+03  0.91421832287E+02 0.  0.
         23    2    1    2    0    0  0.10445329271E+03  0.80605448172E+02 -0.44444442809E+03  0.47800103417E+03  0.11638904749E+03 0.  0.
        -11    1    4    4    0    0  0.30962702885E+02 -0.29248560061E+02 -0.13357430446E+03  0.14020079189E+03  0.00000000000E+00 0. -1.
         11    1    4    4    0    0  0.73490589827E+02  0.10985400823E+03 -0.31087012363E+03  0.33780024228E+03  0.00000000000E+00 0.  1.
        -13    1    3    3    0    0 -0.12767790750E+02  0.73187828044E+02 -0.64194236699E+02  0.98185409710E+02  0.00000000000E+00 0.  1.
         13    1    3    3    0    0 -0.99586879809E+01 -0.17820715237E+02 -0.80996233482E+02  0.83529295436E+02  0.00000000000E+00 0. -1.
         21    1    1    2  503  502 -0.27130344887E+02 -0.32204701559E+02 -0.15017099002E+03  0.15596321573E+03  0.00000000000E+00 0.  1.
         -1    1    1    2    0  503 -0.54596469094E+02 -0.10376785942E+03 -0.20552788715E+03  0.23662260137E+03  0.00000000000E+00 0.  1.
<scales pt_clust_5="13000.00000" pt_clust_6="13000.00000" pt_clust_7="13000.00000" pt_clust_8="13000.00000" pt_clust_9="29.56626" pt_clust_10="152.44863"></scales>
<clustering>
<clus scale="   29.566">  9 10 -1 -1</clus>
<clus scale="   91.422">  7  8 -1 -1</clus>
<clus scale="  109.270">  2  7  1 -1</clus>
<clus scale="  116.389">  5  6 -1 -1</clus>
<clus scale="  152.449">  1  9  2 -1</clus>
<clus scale="  152.449">  1  5  2 -1</clus>
</clustering>
</event>
<event>
10    2  0.1671105E-006  0.1218147E+03  0.7546771E-02  0.1240186E+00
          2   -1    0    0  503    0 -0.00000000000E+00  0.00000000000E+00  0.18833208324E+03  0.18833208324E+03  0.00000000000E+00 0. -1.
         21   -1    0    0  501  502  0.00000000000E+00 -0.00000000000E+00 -0.22844472923E+03  0.22844472923E+03  0.00000000000E+00 0.  1.
         23    2    1    2    0    0  0.61232003507E+02  0.39058019019E+02  0.99291648635E+02  0.15352892275E+03  0.91855383780E+02 0.  0.
         23    2    1    2    0    0 -0.67125538764E+02 -0.87413589043E+02 -0.44108855844E+02  0.15020569397E+03  0.92028179567E+02 0.  0.
        -11    1    4    4    0    0 -0.67285804026E+02 -0.14902930731E+02 -0.85486405247E+01  0.69444625585E+02  0.00000000000E+00 0.  1.
         11    1    4    4    0    0  0.16026526139E+00 -0.72510658311E+02 -0.35560215319E+02  0.80761068388E+02  0.00000000000E+00 0. -1.
        -13    1    3    3    0    0  0.10497403945E+02  0.49148248268E+02  0.11382374524E+02  0.51529644353E+02  0.00000000000E+00 0.  1.
         13    1    3    3    0    0  0.50734599563E+02 -0.10090229249E+02  0.87909274111E+02  0.10199927840E+03  0.00000000000E+00 0. -1.
         21    1    1    2  503  502 -0.21349245329E+01  0.22264116884E+02 -0.11988658657E+02  0.25376696786E+02  0.00000000000E+00 0.  1.
          2    1    1    2  501    0  0.80284597898E+01  0.26091453140E+02 -0.83306780118E+02  0.87665498956E+02  0.00000000000E+00 0. -1.
<scales pt_clust_5="13000.00000" pt_clust_6="13000.00000" pt_clust_7="13000.00000" pt_clust_8="13000.00000" pt_clust_9="22.36624" pt_clust_10="35.88615"></scales>
<clustering>
<clus scale="   22.366">  2  9  1 -1</clus>
<clus scale="   35.886">  2 10  1 -1</clus>
<clus scale="   91.855">  7  8 -1 -1</clus>
<clus scale="   92.028">  5  6 -1 -1</clus>
<clus scale="  121.684">  1  7  2 -1</clus>
<clus scale="   22.366">  2  5  1 -1</clus>
</clustering>
</event>
<event>
10    2  0.1671105E-006  0.1315191E+03  0.7546771E-02  0.1239841E+00
         21   -1    0    0  501  502  0.00000000000E+00  0.00000000000E+00  0.52108550355E+02  0.52108550355E+02  0.00000000000E+00 0. -1.
         -1   -1    0    0    0  501 -0.00000000000E+00 -0.00000000000E+00 -0.69220566327E+03  0.69220566327E+03  0.00000000000E+00 0.  1.
         23    2    1    2    0    0  0.13957385669E+02 -0.19011497901E+02 -0.24353172114E+03  0.26227479368E+03  0.94467573943E+02 0.  0.
         23    2    1    2    0    0 -0.68962952466E+02  0.90738035582E+02 -0.33588199148E+03  0.36613346825E+03  0.90816983316E+02 0.  0.
        -11    1    4    4    0    0  0.40771969929E+01  0.63206188014E+02 -0.10739105553E+03  0.12467752222E+03  0.00000000000E+00 0.  1.
         11    1    4    4    0    0 -0.73040149459E+02  0.27531847568E+02 -0.22849093594E+03  0.24145594603E+03  0.00000000000E+00 0. -1.
        -13    1    3    3    0    0 -0.35490200769E+02 -0.18519747113E+02 -0.59485832535E+02  0.71701462022E+02  0.00000000000E+00 0. -1.
         13    1    3    3    0    0  0.49447586437E+02 -0.49175078748E+00 -0.18404588861E+03  0.19057333165E+03  0.00000000000E+00 0.  1.
         21    1    1    2  503  502  0.10592365365E+02 -0.43391915875E+02 -0.18212335020E+02  0.48236352621E+02  0.00000000000E+00 0. -1.
         -1    1    1    2    0  503  0.44413201432E+02 -0.28334621806E+02 -0.42471065279E+02  0.67669599085E+02  0.00000000000E+00 0.  1.
<scales pt_clust_5="13000.00000" pt_clust_6="13000.00000" pt_clust_7="13000.00000" pt_clust_8="13000.00000" pt_clust_9="36.61675" pt_clust_10="103.10647"></scales>
<clustering>
<clus scale="   36.617">  9 10 -1 -1</clus>
<clus scale="   90.817">  5  6 -1 -1</clus>
<clus scale="   94.468">  7  8 -1 -1</clus>
<clus scale="   97.367">  2  7  1 -1</clus>
<clus scale="  103.106">  1  9  2 -1</clus>
<clus scale="  103.106">  1  5  2 -1</clus>
</clustering>
</event>
<event>
10    2  0.1671105E-006  0.9668109E+02  0.7546771E-02  0.1288741E+00
         21   -1    0    0  501  502  0.00000000000E+00  0.00000000000E+00  0.15913945722E+03  0.15913945722E+03  0.00000000000E+00 0.  1.
          2   -1    0    0  503    0 -0.00000000000E+00 -0.00000000000E+00 -0.25489804180E+03  0.25489804180E+03  0.00000000000E+00 0. -1.
         23    2    1    2    0    0 -0.11361480744E+02 -0.76032632817E+01 -0.16291317797E+03  0.18596019167E+03  0.88620519473E+02 0.  0.
         23    2    1    2    0    0  0.54768150513E+02 -0.58031112813E+02  0.25219240080E+02  0.12371267053E+03  0.91113415119E+02 0.  0.
        -11    1    3    3    0    0  0.38000244602E+02 -0.94205632463E+01 -0.86840419355E+02  0.95257671793E+02  0.00000000000E+00 0.  1.
         11    1    3    3    0    0 -0.49361725346E+02  0.18172999646E+01 -0.76072758613E+02  0.90702519873E+02  0.00000000000E+00 0. -1.
        -13    1    4    4    0    0  0.51615086915E+02  0.86015669011E+01 -0.19767433776E+00  0.52327270381E+02  0.00000000000E+00 0. -1.
         13    1    4    4    0    0  0.31530635978E+01 -0.66632679715E+02  0.25416914418E+02  0.71385400150E+02  0.00000000000E+00 0.  1.
         21    1    1    2  503  502 -0.19885528451E+02  0.81317457588E+01 -0.97082948158E+01  0.23575634012E+02  0.00000000000E+00 0. -1.
          2    1    1    2  501    0 -0.23521141318E+02  0.57502630336E+02  0.51643648116E+02  0.80789002811E+02  0.00000000000E+00 0. -1.
<scales pt_clust_5="13000.00000" pt_clust_6="13000.00000" pt_clust_7="13000.00000" pt_clust_8="13000.00000" pt_clust_9="21.48394" pt_clust_10="63.05505"></scales>
<clustering>
<clus scale="   21.484">  2  9  1 -1</clus>
<clus scale="   63.055">  1 10  2 -1</clus>
<clus scale="   88.621">  5  6 -1 -1</clus>
<clus scale="   91.113">  7  8 -1 -1</clus>
<clus scale="   94.335">  2  5  1 -1</clus>
<clus scale="   63.055">  1  5  2 -1</clus>
</clustering>
</event>
<event>
10    2  0.1671105E-006  0.2036997E+03  0.7546771E-02  0.1147082E+00
         -4   -1    0    0    0  501 -0.00000000000E+00  0.00000000000E+00  0.34670305982E+03  0.34670305982E+03  0.00000000000E+00 0.  1.
         21   -1    0    0  503  502  0.00000000000E+00 -0.00000000000E+00 -0.26311790264E+03  0.26311790264E+03  0.00000000000E+00 0.  1.
         23    2    1    2    0    0 -0.32684957199E+02 -0.16839792924E+03  0.13508731805E+03  0.23480772052E+03  0.86370788571E+02 0.  0.
         23    2    1    2    0    0  0.10829637906E+03  0.19812845761E+03 -0.74303076974E+02  0.25455797957E+03  0.91081426662E+02 0.  0.
        -13    1    3    3    0    0 -0.46881553782E+02 -0.36564322184E+02  0.42766718130E+02  0.73238117954E+02  0.00000000000E+00 0. -1.
         13    1    3    3    0    0  0.14196596583E+02 -0.13183360705E+03  0.92320599917E+02  0.16156960256E+03  0.00000000000E+00 0.  1.
        -13    1    4    4    0    0  0.28511498066E+01  0.72001805322E+02  0.46017544865E+01  0.72205021773E+02  0.00000000000E+00 0. -1.
         13    1    4    4    0    0  0.10544522925E+03  0.12612665229E+03 -0.78904831460E+02  0.18235295780E+03  0.00000000000E+00 0.  1.
         21    1    1    2  503  501 -0.29059400225E+02  0.11338529848E+02  0.44803520303E+02  0.54592732411E+02  0.00000000000E+00 0.  1.
         -4    1    1    2    0  502 -0.46552021637E+02 -0.41069058219E+02 -0.22002604200E+02  0.65862529962E+02  0.00000000000E+00 0.  1.
<scales pt_clust_5="13000.00000" pt_clust_6="13000.00000" pt_clust_7="13000.00000" pt_clust_8="13000.00000" pt_clust_9="31.19312" pt_clust_10="63.16697"></scales>
<clustering>
<clus scale="   31.193">  1  9  2 -1</clus>
<clus scale="   63.167">  2 10  1 -1</clus>
<clus scale="   86.371">  5  6 -1 -1</clus>
<clus scale="   91.081">  7  8 -1 -1</clus>
<clus scale="  201.637">  1  5  2 -1</clus>
<clus scale="   63.167">  2  5  1 -1</clus>
</clustering>
</event>
<event>
10    2  0.1671105E-006  0.1479838E+03  0.7546771E-02  0.1228074E+00
         21   -1    0    0  501  502  0.00000000000E+00  0.00000000000E+00  0.30639112337E+03  0.30639112337E+03  0.00000000000E+00 0. -1.
          2   -1    0    0  503    0 -0.00000000000E+00 -0.00000000000E+00 -0.35031343312E+03  0.35031343312E+03  0.00000000000E+00 0. -1.
         23    2    1    2    0    0  0.16598603378E+02 -0.45998668887E+02 -0.16487868922E+03  0.19256179530E+03  0.86623736219E+02 0.  0.
         23    2    1    2    0    0  0.13704304111E+01 -0.13072321874E+03 -0.57784749629E+01  0.15949644950E+03  0.91188204463E+02 0.  0.
        -11    1    4    4    0    0  0.39576225990E+02 -0.84379261690E+02  0.17958760626E+02  0.94913932329E+02  0.00000000000E+00 0. -1.
         11    1    4    4    0    0 -0.38205795579E+02 -0.46343957054E+02 -0.23737235589E+02  0.64582517175E+02  0.00000000000E+00 0.  1.
        -13    1    3    3    0    0  0.15417302661E+02  0.23335560686E+02 -0.67045511702E+02  0.72645318178E+02  0.00000000000E+00 0.  1.
         13    1    3    3    0    0  0.11813007170E+01 -0.69334229573E+02 -0.97833177518E+02  0.11991647712E+03  0.00000000000E+00 0. -1.
         21    1    1    2  503  502 -0.16302960330E+02  0.62944723351E+02 -0.58360576329E+02  0.87371514710E+02  0.00000000000E+00 0.  1.
          2    1    1    2  501    0 -0.16660734595E+01  0.11377716428E+03  0.18509543076E+03  0.21727479698E+03  0.00000000000E+00 0. -1.
<scales pt_clust_5="13000.00000" pt_clust_6="13000.00000" pt_clust_7="13000.00000" pt_clust_8="13000.00000" pt_clust_9="65.02172" pt_clust_10="116.55011"></scales>
<clustering>
<clus scale="   65.022">  2  9  1 -1</clus>
<clus scale="   86.624">  7  8 -1 -1</clus>
<clus scale="   87.009">  2  7  1 -1</clus>
<clus scale="   91.188">  5  6 -1 -1</clus>
<clus scale="  116.550">  1 10  2 -1</clus>
<clus scale="  116.550">  1  5  2 -1</clus>
</clustering>
</event>
<event>
10    2  0.1671105E-006  0.1047004E+03  0.7546771E-02  0.1271106E+00
         21   -1    0    0  501  502  0.00000000000E+00  0.00000000000E+00  0.15482776536E+03  0.15482776536E+03  0.00000000000E+00 0.  1.
         -3   -1    0    0    0  501 -0.00000000000E+00 -0.00000000000E+00 -0.23330051351E+03  0.23330051351E+03  0.00000000000E+00 0.  1.
         23    2    1    2    0    0  0.56930189112E+02  0.65837192023E+00 -0.16372115806E+03  0.19584240678E+03  0.91149058203E+02 0.  0.
         23    2    1    2    0    0 -0.85931957616E+01 -0.41110782046E+02  0.57440197384E+02  0.11635108307E+03  0.92055737697E+02 0.  0.
        -11    1    3    3    0    0  0.81706781432E+02  0.66482348850E+01 -0.12540053320E+03  0.14981819277E+03  0.00000000000E+00 0.  1.
         11    1    3    3    0    0 -0.24776592320E+02 -0.59898629648E+01 -0.38320624863E+02  0.46024214010E+02  0.00000000000E+00 0. -1.
        -13    1    4    4    0    0 -0.37515441755E+02 -0.56273751044E+02  0.31312891888E+02  0.74529461457E+02  0.00000000000E+00 0.  1.
         13    1    4    4    0    0  0.28922245993E+02  0.15162968999E+02  0.26127305496E+02  0.41821621617E+02  0.00000000000E+00 0. -1.
         21    1    1    2  503  502 -0.21042516120E+02  0.56796420364E+01 -0.30727335635E+01  0.22011076981E+02  0.00000000000E+00 0.  1.
         -3    1    1    2    0  503 -0.27294477231E+02  0.34772768089E+02  0.30880946088E+02  0.53923712031E+02  0.00000000000E+00 0.  1.
<scales pt_clust_5="13000.00000" pt_clust_6="13000.00000" pt_clust_7="13000.00000" pt_clust_8="13000.00000" pt_clust_9="21.79555" pt_clust_10="49.44555"></scales>
<clustering>
<clus scale="   21.796">  1  9  2 -1</clus>
<clus scale="   49.446">  1 10  2 -1</clus>
<clus scale="   91.149">  5  6 -1 -1</clus>
<clus scale="   92.056">  7  8 -1 -1</clus>
<clus scale="  103.904">  2  5  1 -1</clus>
<clus scale="   21.796">  1  5  2 -1</clus>
</clustering>
</event>
<event>
10    2  0.1671105E-006  0.2250950E+03  0.7546771E-02  0.1130681E+00
          3   -1    0    0  503    0 -0.00000000000E+00  0.00000000000E+00  0.39610786306E+03  0.39610786306E+03  0.00000000000E+00 0. -1.
         21   -1    0    0  501  502  0.00000000000E+00 -0.00000000000E+00 -0.57642334516E+03  0.57642334516E+03  0.00000000000E+00 0. -1.
         23    2    1    2    0    0 -0.84402780115E+02  0.14055207940E+03  0.92571632595E+02  0.20895131369E+03  0.90622447639E+02 0.  0.
         23    2    1    2    0    0  0.15454739752E+03 -0.20807685290E+03  0.14599910855E+03  0.31310444852E+03  0.97661564539E+02 0.  0.
        -11    1    3    3    0    0 -0.56024082709E+02  0.12664351107E+03  0.10621854361E+03  0.17452694848E+03  0.00000000000E+00 0. -1.
         11    1    3    3    0    0 -0.28378697406E+02  0.13908568324E+02 -0.13646911016E+02  0.34424365202E+02  0.00000000000E+00 0.  1.
        -11    1    4    4    0    0 -0.99952515236E+01 -0.30563988974E+02  0.32677765165E+02  0.45846469997E+02  0.00000000000E+00 0.  1.
         11    1    4    4    0    0  0.16454264905E+03 -0.17751286393E+03  0.11332134339E+03  0.26725797852E+03  0.00000000000E+00 0. -1.
         21    1    1    2  503  502 -0.12181764851E+02 -0.33287850775E+02 -0.36843214514E+02  0.51126303014E+02  0.00000000000E+00 0. -1.
          3    1    1    2  501    0 -0.57962852558E+02  0.10081262428E+03 -0.38204300873E+03  0.39934914300E+03  0.00000000000E+00 0. -1.
<scales pt_clust_5="13000.00000" pt_clust_6="13000.00000" pt_clust_7="13000.00000" pt_clust_8="13000.00000" pt_clust_9="35.44681" pt_clust_10="101.54173"></scales>
<clustering>
<clus scale="   35.447">  2  9  1 -1</clus>
<clus scale="   90.622">  5  6 -1 -1</clus>
<clus scale="   97.662">  7  8 -1 -1</clus>
<clus scale="  101.542">  2 10  1 -1</clus>
<clus scale="  222.131">  1  5  2 -1</clus>
<clus scale="   35.447">  2  5  1 -1</clus>
</clustering>
</event>
<event>
10    2  0.1671105E-006  0.1382745E+03  0.7546771E-02  0.1215826E+00
          3   -1    0    0  502    0 -0.00000000000E+00  0.00000000000E+00  0.44944040386E+03  0.44944040386E+03  0.00000000000E+00 0. -1.
         21   -1    0    0  503  502  0.00000000000E+00 -0.00000000000E+00 -0.83077520755E+02  0.83077520755E+02  0.00000000000E+00 0.  1.
         23    2    1    2    0    0 -0.25618947915E+02  0.90190877561E+02  0.24568025631E+03  0.27844922003E+03  0.91566669205E+02 0.  0.
         23    2    1    2    0    0  0.55541982730E+02 -0.12652545552E+03  0.66170038492E+02  0.17813141491E+03  0.90877523313E+02 0.  0.
        -11    1    4    4    0    0 -0.19652095269E+01 -0.72743216852E+02 -0.36990051972E+01  0.72863710349E+02  0.00000000000E+00 0.  1.
         11    1    4    4    0    0  0.57507192257E+02 -0.53782238671E+02  0.69869043689E+02  0.10526770456E+03  0.00000000000E+00 0. -1.
        -11    1    3    3    0    0  0.32714632949E+02  0.43766974432E+02  0.12754377128E+03  0.13875593267E+03  0.00000000000E+00 0. -1.
         11    1    3    3    0    0 -0.58333580863E+02  0.46423903129E+02  0.11813648502E+03  0.13969328736E+03  0.00000000000E+00 0.  1.
         21    1    1    2  503  501 -0.20384001419E+02  0.12377011135E+02  0.39381146736E+02  0.46038816630E+02  0.00000000000E+00 0. -1.
          3    1    1    2  501    0 -0.95390333960E+01  0.23957566827E+02  0.15131441575E+02  0.29898473047E+02  0.00000000000E+00 0. -1.
<scales pt_clust_5="13000.00000" pt_clust_6="13000.00000" pt_clust_7="13000.00000" pt_clust_8="13000.00000" pt_clust_9="23.14508" pt_clust_10="52.86636"></scales>
<clustering>
<clus scale="   23.145">  9 10 -1 -1</clus>
<clus scale="   52.866">  2  9  1 -1</clus>
<clus scale="   90.878">  5  6 -1 -1</clus>
<clus scale="   91.567">  7  8 -1 -1</clus>
<clus scale="  137.819">  2  5  1 -1</clus>
<clus scale="   52.866">  2  5  1 -1</clus>
</clustering>
</event>
<event>
10    2  0.1671105E-006  0.1242322E+03  0.7546771E-02  0.1236381E+00
         21   -1    0    0  501  502  0.00000000000E+00  0.00000000000E+00  0.63060592247E+03  0.63060592247E+03  0.00000000000E+00 0. -1.
          2   -1    0    0  503    0 -0.00000000000E+00 -0.00000000000E+00 -0.16365495416E+03  0.16365495416E+03  0.00000000000E+00 0. -1.
         23    2    1    2    0    0 -0.65890632895E+02  0.50484538936E+02 -0.10902034284E+03  0.16398587885E+03  0.90087008684E+02 0.  0.
         23    2    1    2    0    0  0.42218629321E+02 -0.12827156773E+03  0.35057291657E+03  0.38641984512E+03  0.90459488822E+02 0.  0.
        -11    1    3    3    0    0  0.20905082184E+02  0.18382285844E+02 -0.13322169240E+02  0.30861158229E+02  0.00000000000E+00 0.  1.
         11    1    3    3    0    0 -0.86795715079E+02  0.32102253092E+02 -0.95698173595E+02  0.13312472062E+03  0.00000000000E+00 0. -1.
        -13    1    4    4    0    0  0.24592413371E+02 -0.23556403100E+02  0.19568983505E+03  0.19863081952E+03  0.00000000000E+00 0.  1.
         13    1    4    4    0    0  0.17626215951E+02 -0.10471516463E+03  0.15488308152E+03  0.18778902560E+03  0.00000000000E+00 0. -1.
         21    1    1    2  503  502  0.34664321910E+02  0.44003954795E+02  0.11570036565E+03  0.12854780380E+03  0.00000000000E+00 0. -1.
          2    1    1    2  501    0 -0.10992318337E+02  0.33783074004E+02  0.10969802893E+03  0.11530734886E+03  0.00000000000E+00 0. -1.
<scales pt_clust_5="13000.00000" pt_clust_6="13000.00000" pt_clust_7="13000.00000" pt_clust_8="13000.00000" pt_clust_9="61.06778" pt_clust_10="35.52643"></scales>
<clustering>
<clus scale="   35.526">  1 10  2 -1</clus>
<clus scale="   61.068">  1  9  2 -1</clus>
<clus scale="   90.087">  5  6 -1 -1</clus>
<clus scale="   90.459">  7  8 -1 -1</clus>
<clus scale="  123.961">  2  5  1 -1</clus>
<clus scale="   35.526">  1  5  2 -1</clus>
</clustering>
</event>
<event>
10    2  0.1671105E-006  0.1270725E+03  0.7546771E-02  0.1232538E+00
         -1   -1    0    0    0  501 -0.00000000000E+00  0.00000000000E+00  0.53732257358E+03  0.53732257358E+03  0.00000000000E+00 0.  1.
         21   -1    0    0  503  502  0.00000000000E+00 -0.00000000000E+00 -0.13412832652E+03  0.13412832652E+03  0.00000000000E+00 0.  1.
         23    2    1    2    0    0 -0.79646760609E+02  0.63353691506E+01  0.21149216568E+03  0.24431645455E+03  0.92616685543E+02 0.  0.
         23    2    1    2    0    0  0.89573240736E+02 -0.36593182759E+02  0.23158904190E+03  0.26670786807E+03  0.90206297346E+02 0.  0.
        -11    1    4    4    0    0  0.34711682873E+02 -0.44817365937E+02  0.18739527762E+03  0.19578173381E+03  0.00000000000E+00 0.  1.
         11    1    4    4    0    0  0.54861557864E+02  0.82241831779E+01  0.44193764276E+02  0.70926134260E+02  0.00000000000E+00 0. -1.
        -13    1    3    3    0    0 -0.68231185321E+02  0.24394145834E+02  0.21083788260E+03  0.22294210401E+03  0.00000000000E+00 0. -1.
         13    1    3    3    0    0 -0.11415575288E+02 -0.18058776683E+02  0.65428307800E+00  0.21374350535E+02  0.00000000000E+00 0.  1.
         21    1    1    2  503  501 -0.40224857981E+02 -0.52174025576E+02 -0.28821250118E+02  0.71908501603E+02  0.00000000000E+00 0.  1.
         -1    1    1    2    0  502  0.30298377854E+02  0.82431839184E+02 -0.11065710398E+02  0.88518075885E+02  0.00000000000E+00 0.  1.
<scales pt_clust_5="13000.00000" pt_clust_6="13000.00000" pt_clust_7="13000.00000" pt_clust_8="13000.00000" pt_clust_9="65.87995" pt_clust_10="51.81300"></scales>
<clustering>
<clus scale="   65.880">  2  9  1 -1</clus>
<clus scale="   51.813">  2 10  1 -1</clus>
<clus scale="   90.206">  5  6 -1 -1</clus>
<clus scale="   92.617">  7  8 -1 -1</clus>
<clus scale="  125.327">  2  5  1 -1</clus>
<clus scale="   65.880">  2  5  1 -1</clus>
</clustering>
</event>
<event>
10    2  0.1671105E-006  0.2750312E+03  0.7546771E-02  0.1133538E+00
          2   -1    0    0  502    0 -0.00000000000E+00  0.00000000000E+00  0.25723225457E+03  0.25723225457E+03  0.00000000000E+00 0. -1.
         21   -1    0    0  503  502  0.00000000000E+00 -0.00000000000E+00 -0.45634215943E+03  0.45634215943E+03  0.00000000000E+00 0. -1.
         23    2    1    2    0    0  0.57098384844E+02 -0.30605836134E+02 -0.82646279128E+02  0.14044504980E+03  0.93260183376E+02 0.  0.
         23    2    1    2    0    0 -0.24410418506E+03 -0.11832090464E+03 -0.14998910765E+03  0.32468096995E+03  0.96614233933E+02 0.  0.
        -11    1    4    4    0    0 -0.16756855918E+03 -0.90209444078E+02 -0.52154191542E+02  0.19732467033E+03  0.00000000000E+00 0. -1.
         11    1    4    4    0    0 -0.76535625875E+02 -0.28111460564E+02 -0.97834916104E+02  0.12735629962E+03  0.00000000000E+00 0.  1.
        -11    1    3    3    0    0  0.19851020359E+02  0.33403249151E+02 -0.35659564972E+02  0.52739403079E+02  0.00000000000E+00 0.  1.
         11    1    3    3    0    0  0.37247364485E+02 -0.64009085286E+02 -0.46986714156E+02  0.87705646725E+02  0.00000000000E+00 0. -1.
         21    1    1    2  503  501  0.15256312615E+02  0.35080045122E+02 -0.57479775066E+01  0.38683379968E+02  0.00000000000E+00 0.  1.
          2    1    1    2  501    0  0.17174948760E+03  0.11384669565E+03  0.39273459419E+02  0.20976501428E+03  0.00000000000E+00 0. -1.
<scales pt_clust_5="13000.00000" pt_clust_6="13000.00000" pt_clust_7="13000.00000" pt_clust_8="13000.00000" pt_clust_9="25.31630" pt_clust_10="264.12159"></scales>
<clustering>
<clus scale="   25.316">  9 10 -1 -1</clus>
<clus scale="   93.260">  7  8 -1 -1</clus>
<clus scale="   96.614">  5  6 -1 -1</clus>
<clus scale="  113.554">  1  7  2 -1</clus>
<clus scale="  264.122">  2  9  1 -1</clus>
<clus scale="  264.122">  2  5  1 -1</clus>
</clustering>
</event>
<event>
10    2  0.1671105E-006  0.1006805E+03  0.7546771E-02  0.1282162E+00
         21   -1    0    0  501  502  0.00000000000E+00  0.00000000000E+00  0.16230327793E+03  0.16230327793E+03  0.00000000000E+00 0.  1.
          2   -1    0    0  503    0 -0.00000000000E+00 -0.00000000000E+00 -0.15122872161E+03  0.15122872161E+03  0.00000000000E+00 0. -1.
         23    2    1    2    0    0  0.39072125076E+02  0.70343639623E+01  0.10626973954E+02  0.99777893215E+02  0.90920746613E+02 0.  0.
         23    2    1    2    0    0 -0.26139531022E+01 -0.20421815217E+02  0.54353269831E+02  0.11329997432E+03  0.97255966153E+02 0.  0.
        -11    1    3    3    0    0  0.52955082647E+02  0.30897653390E+02 -0.13880611349E+02  0.62861571207E+02  0.00000000000E+00 0. -1.
         11    1    3    3    0    0 -0.13882957571E+02 -0.23863289428E+02  0.24507585303E+02  0.36916322008E+02  0.00000000000E+00 0.  1.
        -13    1    4    4    0    0 -0.14387836365E+02  0.19712356776E+02  0.65596858279E+02  0.69989532511E+02  0.00000000000E+00 0.  1.
         13    1    4    4    0    0  0.11773883263E+02 -0.40134171993E+02 -0.11243588449E+02  0.43310441811E+02  0.00000000000E+00 0. -1.
         21    1    1    2  503  502 -0.33797945278E+01 -0.25485179799E+02  0.68649997026E+00  0.25717478155E+02  0.00000000000E+00 0. -1.
          2    1    1    2  501    0 -0.33078377446E+02  0.38872631054E+02 -0.54592187432E+02  0.74736653847E+02  0.00000000000E+00 0. -1.
<scales pt_clust_5="13000.00000" pt_clust_6="13000.00000" pt_clust_7="13000.00000" pt_clust_8="13000.00000" pt_clust_9="25.70831" pt_clust_10="43.92576"></scales>
<clustering>
<clus scale="   25.708">  2  9  1 -1</clus>
<clus scale="   43.926">  1 10  2 -1</clus>
<clus scale="   90.921">  5  6 -1 -1</clus>
<clus scale="   94.575">  2  5  1 -1</clus>
<clus scale="   97.256">  7  8 -1 -1</clus>
<clus scale="   43.926">  1  5  2 -1</clus>
</clustering>
</event>
<event>
10    2  0.2637477E-006  0.1640599E+03  0.7546771E-02  0.1198334E+00
          2   -1    0    0  503    0 -0.00000000000E+00  0.00000000000E+00  0.13539929025E+04  0.13539929025E+04  0.00000000000E+00 0. -1.
         21   -1    0    0  501  502  0.00000000000E+00 -0.00000000000E+00 -0.96693463930E+02  0.96693463930E+02  0.00000000000E+00 0. -1.
         23    2    1    2    0    0  0.23997206123E+02  0.64498041445E+02  0.44868426832E+03  0.46472412461E+03  0.99574475142E+02 0.  0.
         23    2    1    2    0    0  0.57115422016E+02 -0.16836565765E+03  0.78403612819E+03  0.80898807482E+03  0.90221332213E+02 0.  0.
        -13    1    3    3    0    0  0.49778012125E+02 -0.17745257017E+01  0.17467946544E+03  0.18164227228E+03  0.00000000000E+00 0. -1.
         13    1    3    3    0    0 -0.25780806002E+02  0.66272567146E+02  0.27400480289E+03  0.28308185233E+03  0.00000000000E+00 0.  1.
        -13    1    4    4    0    0 -0.66226350080E+01 -0.11595719315E+03  0.42434238923E+03  0.43995044406E+03  0.00000000000E+00 0.  1.
         13    1    4    4    0    0  0.63738057024E+02 -0.52408464500E+02  0.35969373897E+03  0.36903763076E+03  0.00000000000E+00 0. -1.
         21    1    1    2  503  502 -0.11170173501E+02 -0.16597093000E+02  0.31711282357E+02  0.37494555616E+02  0.00000000000E+00 0.  1.
          2    1    1    2  501    0 -0.69942454638E+02  0.12046470921E+03 -0.71322403495E+01  0.13947961134E+03  0.00000000000E+00 0. -1.
<scales pt_clust_5="13000.00000" pt_clust_6="13000.00000" pt_clust_7="13000.00000" pt_clust_8="13000.00000" pt_clust_9="20.00591" pt_clust_10="137.02472"></scales>
<clustering>
<clus scale="   20.006">  2  9  1 -1</clus>
<clus scale="   90.221">  7  8 -1 -1</clus>
<clus scale="   99.574">  5  6 -1 -1</clus>
<clus scale="  120.104">  1  5  2 -1</clus>
<clus scale="  137.025">  2 10  1 -1</clus>
<clus scale="   20.006">  2  5  1 -1</clus>
</clustering>
</event>
<event>
10    2  0.1671105E-006  0.2014925E+03  0.7546771E-02  0.1148659E+00
          1   -1    0    0  503    0 -0.00000000000E+00  0.00000000000E+00  0.25395126888E+03  0.25395126888E+03  0.00000000000E+00 0. -1.
         21   -1    0    0  501  502  0.00000000000E+00 -0.00000000000E+00 -0.30306475792E+03  0.30306475792E+03  0.00000000000E+00 0. -1.
         23    2    1    2    0    0  0.89761824759E+02  0.18653046225E+03  0.10765785681E+03  0.25030894059E+03  0.90628654828E+02 0.  0.
         23    2    1    2    0    0 -0.39637242349E+02 -0.10841845360E+03 -0.12985629241E+03  0.19680829156E+03  0.92440115131E+02 0.  0.
        -11    1    4    4    0    0  0.12438702939E+02 -0.86935642701E+02 -0.99872325184E+02  0.13299251347E+03  0.00000000000E+00 0. -1.
         11    1    4    4    0    0 -0.52075945288E+02 -0.21482810895E+02 -0.29983967229E+02  0.63815778083E+02  0.00000000000E+00 0.  1.
        -11    1    3    3    0    0  0.31726177672E+02  0.15026833045E+02  0.48421649995E+02  0.59808128622E+02  0.00000000000E+00 0.  1.
         11    1    3    3    0    0  0.58035647087E+02  0.17150362920E+03  0.59236206814E+02  0.19050081197E+03  0.00000000000E+00 0. -1.
         21    1    1    2  503  502 -0.17278374938E+02 -0.47351948181E+02 -0.38504411585E+02  0.63429795432E+02  0.00000000000E+00 0.  1.
          1    1    1    2  501    0 -0.32846207472E+02 -0.30760060472E+02  0.11589358148E+02  0.46468999213E+02  0.00000000000E+00 0. -1.
<scales pt_clust_5="13000.00000" pt_clust_6="13000.00000" pt_clust_7="13000.00000" pt_clust_8="13000.00000" pt_clust_9="57.68522" pt_clust_10="45.00063"></scales>
<clustering>
<clus scale="   45.001">  2 10  1 -1</clus>
<clus scale="   57.685">  2  9  1 -1</clus>
<clus scale="   90.629">  7  8 -1 -1</clus>
<clus scale="   92.440">  5  6 -1 -1</clus>
<clus scale="  200.668">  1  7  2 -1</clus>
<clus scale="   45.001">  2  5  1 -1</clus>
</clustering>
</event>
<event>
10    2  0.1671105E-006  0.1865687E+03  0.7546771E-02  0.1191814E+00
         21   -1    0    0  501  502  0.00000000000E+00  0.00000000000E+00  0.19924001195E+03  0.19924001195E+03  0.00000000000E+00 0. -1.
          2   -1    0    0  503    0 -0.00000000000E+00 -0.00000000000E+00 -0.73235396437E+03  0.73235396437E+03  0.00000000000E+00 0. -1.
         23    2    1    2    0    0 -0.10153719074E+02  0.17621331542E+02 -0.38329895569E+03  0.39470554145E+03  0.91982420498E+02 0.  0.
         23    2    1    2    0    0 -0.12681960801E+03  0.11895787644E+02 -0.12104621961E+03  0.19836237980E+03  0.92036534583E+02 0.  0.
        -11    1    4    4    0    0 -0.10675470125E+03  0.46035721647E+02 -0.10087714161E+03  0.15392222583E+03  0.00000000000E+00 0.  1.
         11    1    4    4    0    0 -0.20064906758E+02 -0.34139934003E+02 -0.20169078005E+02  0.44440153966E+02  0.00000000000E+00 0. -1.
        -13    1    3    3    0    0  0.35639223198E+02 -0.10414236085E+02 -0.21074139588E+03  0.21398725775E+03  0.00000000000E+00 0.  1.
         13    1    3    3    0    0 -0.45792942272E+02  0.28035567627E+02 -0.17255755981E+03  0.18071828369E+03  0.00000000000E+00 0. -1.
         21    1    1    2  503  502  0.22943522110E+03 -0.64590025079E+02 -0.17484756525E+02  0.23899395124E+03  0.00000000000E+00 0. -1.
          2    1    1    2  501    0 -0.92461894015E+02  0.35072905893E+02 -0.11284020596E+02  0.99532103833E+02  0.00000000000E+00 0. -1.
<scales pt_clust_5="13000.00000" pt_clust_6="13000.00000" pt_clust_7="13000.00000" pt_clust_8="13000.00000" pt_clust_9="162.28731" pt_clust_10="101.45224"></scales>
<clustering>
<clus scale="   91.982">  7  8 -1 -1</clus>
<clus scale="   92.037">  5  6 -1 -1</clus>
<clus scale="   94.204">  2  7  1 -1</clus>
<clus scale="  101.452">  1 10  2 -1</clus>
<clus scale="  162.287">  1  9  2 -1</clus>
<clus scale="  101.452">  1  5  2 -1</clus>
</clustering>
</event>
<event>
10    2  0.1671105E-006  0.1594683E+03  0.7546771E-02  0.1189643E+00
         -1   -1    0    0    0  501 -0.00000000000E+00  0.00000000000E+00  0.41531230938E+03  0.41531230938E+03  0.00000000000E+00 0.  1.
         21   -1    0    0  503  502  0.00000000000E+00 -0.00000000000E+00 -0.13800763745E+03  0.13800763745E+03  0.00000000000E+00 0.  1.
         23    2    1    2    0    0 -0.34737865000E+01 -0.14215760026E+03  0.27662728387E+03  0.32383035400E+03  0.90125431947E+02 0.  0.
         23    2    1    2    0    0 -0.10511895028E+02  0.10638107093E+03  0.61292131276E+02  0.15392138012E+03  0.92236834896E+02 0.  0.
        -13    1    4    4    0    0  0.13924696090E+02  0.11315596609E+03  0.59235858380E+02  0.12847979117E+03  0.00000000000E+00 0. -1.
         13    1    4    4    0    0 -0.24436591117E+02 -0.67748951547E+01  0.20562728958E+01  0.25441588945E+02  0.00000000000E+00 0.  1.
        -13    1    3    3    0    0  0.38007847461E+02 -0.10320930540E+03  0.16129039538E+03  0.19522128171E+03  0.00000000000E+00 0.  1.
         13    1    3    3    0    0 -0.41481633961E+02 -0.38948294866E+02  0.11533688849E+03  0.12860907229E+03  0.00000000000E+00 0. -1.
         21    1    1    2  503  501  0.17356062034E+02  0.15981636517E+02 -0.23107703297E+02  0.33024408348E+02  0.00000000000E+00 0. -1.
         -1    1    1    2    0  502 -0.33703805060E+01  0.19794892814E+02 -0.37507039923E+02  0.42543804368E+02  0.00000000000E+00 0.  1.
<scales pt_clust_5="13000.00000" pt_clust_6="13000.00000" pt_clust_7="13000.00000" pt_clust_8="13000.00000" pt_clust_9="27.15601" pt_clust_10="20.07977"></scales>
<clustering>
<clus scale="   20.080">  2 10  1 -1</clus>
<clus scale="   27.156">  2  9  1 -1</clus>
<clus scale="   90.125">  7  8 -1 -1</clus>
<clus scale="   92.237">  5  6 -1 -1</clus>
<clus scale="  158.256">  1  7  2 -1</clus>
<clus scale="   20.080">  2  5  1 -1</clus>
</clustering>
</event>
<event>
10    2  0.1671105E-006  0.1844559E+03  0.7546771E-02  0.1163770E+00
          4   -1    0    0  502    0 -0.00000000000E+00  0.00000000000E+00  0.47205048252E+03  0.47205048252E+03  0.00000000000E+00 0. -1.
         21   -1    0    0  503  502  0.00000000000E+00 -0.00000000000E+00 -0.12796112711E+03  0.12796112711E+03  0.00000000000E+00 0. -1.
         23    2    1    2    0    0 -0.40528441483E+00 -0.14764542080E+03  0.23604752266E+03  0.29278005148E+03  0.90567052787E+02 0.  0.
         23    2    1    2    0    0  0.28126955475E+02  0.19528991791E+03  0.52682232368E+02  0.22413852660E+03  0.92376316415E+02 0.  0.
        -11    1    3    3    0    0  0.38051278728E+02 -0.10913537746E+03  0.18515928902E+03  0.21827137406E+03  0.00000000000E+00 0. -1.
         11    1    3    3    0    0 -0.38456563142E+02 -0.38510043344E+02  0.50888233647E+02  0.74508677420E+02  0.00000000000E+00 0.  1.
        -13    1    4    4    0    0  0.60376492495E+02  0.12430642539E+03  0.46994555864E+02  0.14596539494E+03  0.00000000000E+00 0. -1.
         13    1    4    4    0    0 -0.32249537020E+02  0.70983492522E+02  0.56876765041E+01  0.78173131654E+02  0.00000000000E+00 0.  1.
         21    1    1    2  503  501 -0.23129146177E+02 -0.16319091525E+02  0.36682074244E+02  0.46334055747E+02  0.00000000000E+00 0. -1.
          4    1    1    2  501    0 -0.45925248831E+01 -0.31325405589E+02  0.18677526132E+02  0.36758975809E+02  0.00000000000E+00 0. -1.
<scales pt_clust_5="13000.00000" pt_clust_6="13000.00000" pt_clust_7="13000.00000" pt_clust_8="13000.00000" pt_clust_9="26.76572" pt_clust_10="61.96588"></scales>
<clustering>
<clus scale="   26.766">  9 10 -1 -1</clus>
<clus scale="   61.966">  2  9  1 -1</clus>
<clus scale="   90.567">  5  6 -1 -1</clus>
<clus scale="   92.376">  7  8 -1 -1</clus>
<clus scale="  183.556">  1  5  2 -1</clus>
<clus scale="   61.966">  2  5  1 -1</clus>
</clustering>
</event>
<event>
10    2  0.1671105E-006  0.1204827E+03  0.7546771E-02  0.1242474E+00
         21   -1    0    0  501  502  0.00000000000E+00  0.00000000000E+00  0.35696008508E+03  0.35696008508E+03  0.00000000000E+00 0. -1.
          2   -1    0    0  503    0 -0.00000000000E+00 -0.00000000000E+00 -0.32868051178E+03  0.32868051178E+03  0.00000000000E+00 0. -1.
         23    2    1    2    0    0 -0.80811287280E+02 -0.30187875378E+02 -0.20667625544E+03  0.24169619213E+03  0.90885657574E+02 0.  0.
         23    2    1    2    0    0  0.87037936887E+02  0.10297558360E+03  0.26311828717E+03  0.30914506479E+03  0.90331969791E+02 0.  0.
        -11    1    3    3    0    0 -0.66038658205E+02  0.62300614824E+01 -0.18560887212E+03  0.19710548306E+03  0.00000000000E+00 0. -1.
         11    1    3    3    0    0 -0.14772629076E+02 -0.36417936860E+02 -0.21067383328E+02  0.44590709069E+02  0.00000000000E+00 0.  1.
        -13    1    4    4    0    0  0.45946106655E+02  0.97610347044E+02  0.12587128882E+03  0.16577818287E+03  0.00000000000E+00 0. -1.
         13    1    4    4    0    0  0.41091830232E+02  0.53652365537E+01  0.13724699835E+03  0.14336688192E+03  0.00000000000E+00 0.  1.
         21    1    1    2  503  502  0.61698834294E+01  0.28811892525E+02 -0.57398715342E+01  0.30018972961E+02  0.00000000000E+00 0. -1.
          2    1    1    2  501    0 -0.12396533036E+02 -0.10159960075E+03 -0.22422586894E+02  0.10478036699E+03  0.00000000000E+00 0. -1.
<scales pt_clust_5="13000.00000" pt_clust_6="13000.00000" pt_clust_7="13000.00000" pt_clust_8="13000.00000" pt_clust_9="29.46511" pt_clust_10="96.34914"></scales>
<clustering>
<clus scale="   29.465">  2  9  1 -1</clus>
<clus scale="   90.332">  7  8 -1 -1</clus>
<clus scale="   90.886">  5  6 -1 -1</clus>
<clus scale="   96.349">  1 10  2 -1</clus>
<clus scale="  120.066">  1  7  2 -1</clus>
<clus scale="   96.349">  1  5  2 -1</clus>
</clustering>
</event>
<event>
10    2  0.1671105E-006  0.2127593E+03  0.7546771E-02  0.1139449E+00
         -1   -1    0    0    0  501 -0.00000000000E+00  0.00000000000E+00  0.86081183382E+02  0.86081183382E+02  0.00000000000E+00 0.  1.
         21   -1    0    0  503  502  0.00000000000E+00 -0.00000000000E+00 -0.76628482277E+03  0.76628482277E+03  0.00000000000E+00 0. -1.
         23    2    1    2    0    0 -0.13425461914E+03 -0.12230692612E+03 -0.21502333461E+03  0.29620220997E+03  0.92289911828E+02 0.  0.
         23    2    1    2    0    0  0.16126693792E+03  0.12421793104E+03 -0.24895807108E+03  0.33440362626E+03  0.91698115810E+02 0.  0.
        -13    1    3    3    0    0 -0.12973559565E+03 -0.71224509157E+02 -0.18449226452E+03  0.23651987475E+03  0.00000000000E+00 0. -1.
         13    1    3    3    0    0 -0.45190234832E+01 -0.51082416963E+02 -0.30531070095E+02  0.59682335219E+02  0.00000000000E+00 0.  1.
        -13    1    4    4    0    0 -0.95358111871E+00  0.33667037568E+02 -0.18635277535E+02  0.38492236937E+02  0.00000000000E+00 0.  1.
         13    1    4    4    0    0  0.16222051904E+03  0.90550893469E+02 -0.23032279354E+03  0.29591138932E+03  0.00000000000E+00 0. -1.
         21    1    1    2  503  501 -0.10985216678E+02  0.18361666820E+02 -0.12997485835E+03  0.13172429388E+03  0.00000000000E+00 0. -1.
         -1    1    1    2    0  502 -0.16027102108E+02 -0.20272671738E+02 -0.86247375349E+02  0.90035876049E+02  0.00000000000E+00 0.  1.
<scales pt_clust_5="13000.00000" pt_clust_6="13000.00000" pt_clust_7="13000.00000" pt_clust_8="13000.00000" pt_clust_9="21.39686" pt_clust_10="24.94462"></scales>
<clustering>
<clus scale="   21.397">  2  9  1 -1</clus>
<clus scale="   24.945">  2 10  1 -1</clus>
<clus scale="   91.698">  7  8 -1 -1</clus>
<clus scale="   92.290">  5  6 -1 -1</clus>
<clus scale="  212.503">  2  7  1 -1</clus>
<clus scale="   21.397">  2  5  1 -1</clus>
</clustering>
</event>
<event>
10    2  0.1671105E-006  0.1011747E+03  0.7546771E-02  0.1278150E+00
         -1   -1    0    0    0  501 -0.00000000000E+00  0.00000000000E+00  0.29537929135E+02  0.29537929135E+02  0.00000000000E+00 0.  1.
         21   -1    0    0  503  502  0.00000000000E+00 -0.00000000000E+00 -0.11184624919E+04  0.11184624919E+04  0.00000000000E+00 0.  1.
         23    2    1    2    0    0 -0.37625743919E+02  0.49180945274E+02 -0.22137159107E+03  0.24746177356E+03  0.91637798184E+02 0.  0.
         23    2    1    2    0    0  0.60068312694E+02  0.48146805329E+02 -0.53291188082E+03  0.54629408308E+03  0.92281284340E+02 0.  0.
        -11    1    4    4    0    0 -0.19666521329E+02  0.32998815423E+02 -0.14667823827E+03  0.15162519402E+03  0.00000000000E+00 0. -1.
         11    1    4    4    0    0  0.79734834022E+02  0.15147989906E+02 -0.38623364254E+03  0.39466888905E+03  0.00000000000E+00 0.  1.
        -13    1    3    3    0    0  0.13615940118E+01  0.53366178364E+02 -0.55453875820E+02  0.76973601156E+02  0.00000000000E+00 0.  1.
         13    1    3    3    0    0 -0.38987337930E+02 -0.41852330899E+01 -0.16591771526E+03  0.17048817241E+03  0.00000000000E+00 0. -1.
         21    1    1    2  503  501  0.16445406218E+02 -0.60294055145E+02 -0.17747194668E+03  0.18815450122E+03  0.00000000000E+00 0.  1.
         -1    1    1    2    0  502 -0.38887974993E+02 -0.37033695458E+02 -0.15716914423E+03  0.16609006321E+03  0.00000000000E+00 0.  1.
<scales pt_clust_5="13000.00000" pt_clust_6="13000.00000" pt_clust_7="13000.00000" pt_clust_8="13000.00000" pt_clust_9="67.97029" pt_clust_10="53.70076"></scales>
<clustering>
<clus scale="   53.701">  2 10  1 -1</clus>
<clus scale="   67.970">  1  9  2 -1</clus>
<clus scale="   91.638">  7  8 -1 -1</clus>
<clus scale="   92.281">  5  6 -1 -1</clus>
<clus scale="  100.588">  1  7  2 -1</clus>
<clus scale="   53.701">  2  5  1 -1</clus>
</clustering>
</event>
<event>
10    2  0.1671105E-006  0.1352336E+03  0.7546771E-02  0.1220854E+00
          1   -1    0    0  503    0 -0.00000000000E+00  0.00000000000E+00  0.51150700421E+03  0.51150700421E+03  0.00000000000E+00 0. -1.
         21   -1    0    0  501  502  0.00000000000E+00 -0.00000000000E+00 -0.18709613974E+03  0.18709613974E+03  0.00000000000E+00 0. -1.
         23    2    1    2    0    0  0.11555750346E+03  0.75309361259E+02  0.20238702395E+03  0.26121255874E+03  0.90810004303E+02 0.  0.
         23    2    1    2    0    0 -0.50107500054E+02 -0.33386131544E+02  0.78572587071E+02  0.13700368614E+03  0.94715168983E+02 0.  0.
        -11    1    4    4    0    0 -0.43879426103E+02  0.68901643625E+01 -0.43274084369E+01  0.44627400371E+02  0.00000000000E+00 0. -1.
         11    1    4    4    0    0 -0.62280739515E+01 -0.40276295907E+02  0.82899995508E+02  0.92376285768E+02  0.00000000000E+00 0.  1.
        -13    1    3    3    0    0  0.52078192919E+02  0.79661098230E+02  0.84603119210E+02  0.12734094600E+03  0.00000000000E+00 0. -1.
         13    1    3    3    0    0  0.63479310536E+02 -0.43517369709E+01  0.11778390474E+03  0.13387161273E+03  0.00000000000E+00 0.  1.
         21    1    1    2  503  502 -0.51343855857E+02  0.19467330233E+02  0.15931226583E+03  0.16850984103E+03  0.00000000000E+00 0. -1.
          1    1    1    2  501    0 -0.14106147543E+02 -0.61390559947E+02 -0.11586101238E+03  0.13187705804E+03  0.00000000000E+00 0. -1.
<scales pt_clust_5="13000.00000" pt_clust_6="13000.00000" pt_clust_7="13000.00000" pt_clust_8="13000.00000" pt_clust_9="54.91055" pt_clust_10="62.83064"></scales>
<clustering>
<clus scale="   54.911">  1  9  2 -1</clus>
<clus scale="   62.831">  2 10  1 -1</clus>
<clus scale="   90.810">  7  8 -1 -1</clus>
<clus scale="   94.715">  5  6 -1 -1</clus>
<clus scale="  132.528">  1  7  2 -1</clus>
<clus scale="   62.831">  2  5  1 -1</clus>
</clustering>
</event>
<event>
10    2  0.1671105E-006  0.9886379E+02  0.7546771E-02  0.1283438E+00
          1   -1    0    0  502    0 -0.00000000000E+00  0.00000000000E+00  0.65131531578E+03  0.65131531578E+03  0.00000000000E+00 0. -1.
         21   -1    0    0  503  502  0.00000000000E+00 -0.00000000000E+00 -0.63250692217E+02  0.63250692217E+02  0.00000000000E+00 0. -1.
         23    2    1    2    0    0  0.95404691731E+01  0.15738489219E+02  0.37534054667E+03  0.38734608188E+03  0.93902825170E+02 0.  0.
         23    2    1    2    0    0 -0.77372902728E+02 -0.34251909151E+02  0.15294230822E+03  0.19773868154E+03  0.92463382898E+02 0.  0.
        -11    1    3    3    0    0 -0.37501684360E+02  0.22586068676E+02  0.12279495460E+03  0.13036528566E+03  0.00000000000E+00 0. -1.
         11    1    3    3    0    0  0.47042153533E+02 -0.68475794563E+01  0.25254559207E+03  0.25698079622E+03  0.00000000000E+00 0.  1.
        -11    1    4    4    0    0 -0.52344532104E+02 -0.82536090956E+01  0.14884213527E+02  0.55041910547E+02  0.00000000000E+00 0.  1.
         11    1    4    4    0    0 -0.25028370624E+02 -0.25998300056E+02  0.13805809470E+03  0.14269677100E+03  0.00000000000E+00 0. -1.
         21    1    1    2  503  501 -0.19980798305E+02  0.17996842948E+02  0.16848537288E+02  0.31733135139E+02  0.00000000000E+00 0. -1.
          1    1    1    2  501    0  0.87813231860E+02  0.51657698405E+00  0.42933231375E+02  0.97748109434E+02  0.00000000000E+00 0. -1.
<scales pt_clust_5="13000.00000" pt_clust_6="13000.00000" pt_clust_7="13000.00000" pt_clust_8="13000.00000" pt_clust_9="26.89087" pt_clust_10="78.55965"></scales>
<clustering>
<clus scale="   26.891">  2  9  1 -1</clus>
<clus scale="   78.560">  2 10  1 -1</clus>
<clus scale="   92.463">  7  8 -1 -1</clus>
<clus scale="   93.903">  5  6 -1 -1</clus>
<clus scale="   97.498">  2  7  1 -1</clus>
<clus scale="   26.891">  2  5  1 -1</clus>
</clustering>
</event>
<event>
10    2  0.1671105E-006  0.1570563E+03  0.7546771E-02  0.1192995E+00
         -4   -1    0    0    0  501 -0.00000000000E+00  0.00000000000E+00  0.80616053062E+03  0.80616053062E+03  0.00000000000E+00 0.  1.
         21   -1    0    0  501  502  0.00000000000E+00 -0.00000000000E+00 -0.68370643798E+02  0.68370643798E+02  0.00000000000E+00 0. -1.
         23    2    1    2    0    0  0.17295085746E+02 -0.11893396090E+03  0.48437624677E+03  0.50772251720E+03  0.93367012306E+02 0.  0.
         23    2    1    2    0    0 -0.76285081427E+02  0.12677017910E+03  0.24808731223E+03  0.30193008733E+03  0.87888401917E+02 0.  0.
        -11    1    4    4    0    0  0.17101637820E+02  0.17287004667E+02  0.16890110159E+02  0.29607133729E+02  0.00000000000E+00 0.  1.
         11    1    4    4    0    0 -0.93386719246E+02  0.10948317444E+03  0.23119720207E+03  0.27232295361E+03  0.00000000000E+00 0. -1.
        -13    1    3    3    0    0  0.10846436895E+02 -0.24900004333E+02  0.19620787458E+02  0.33505681751E+02  0.00000000000E+00 0. -1.
         13    1    3    3    0    0  0.64486488509E+01 -0.94033956567E+02  0.46475545931E+03  0.47421683545E+03  0.00000000000E+00 0.  1.
         21    1    1    2  503  502  0.36134791017E+02  0.60279948991E+01  0.94436766864E+01  0.37831770692E+02  0.00000000000E+00 0.  1.
         -4    1    1    2    0  503  0.22855204664E+02 -0.13864213103E+02 -0.41173488602E+01  0.27046799197E+02  0.00000000000E+00 0.  1.
<scales pt_clust_5="13000.00000" pt_clust_6="13000.00000" pt_clust_7="13000.00000" pt_clust_8="13000.00000" pt_clust_9="21.60403" pt_clust_10="64.65956"></scales>
<clustering>
<clus scale="   21.604">  9 10 -1 -1</clus>
<clus scale="   64.660">  2  9  1 -1</clus>
<clus scale="   87.888">  5  6 -1 -1</clus>
<clus scale="   93.367">  7  8 -1 -1</clus>
<clus scale="  153.862">  2  5  1 -1</clus>
<clus scale="   64.660">  2  5  1 -1</clus>
</clustering>
</event>
<event>
10    2  0.1671105E-006  0.1285501E+03  0.7546771E-02  0.1232229E+00
         21   -1    0    0  503  502  0.00000000000E+00  0.00000000000E+00  0.15574356236E+03  0.15574356236E+03  0.00000000000E+00 0.  1.
          1   -1    0    0  502    0 -0.00000000000E+00 -0.00000000000E+00 -0.15919767977E+03  0.15919767977E+03  0.00000000000E+00 0. -1.
         23    2    1    2    0    0  0.71608857460E+02 -0.30677173052E+02 -0.33163607636E+02  0.11730131038E+03  0.81184081760E+02 0.  0.
         23    2    1    2    0    0 -0.10184585657E+03  0.58293376034E+02  0.19866998785E+02  0.14980002592E+03  0.90965124820E+02 0.  0.
        -11    1    3    3    0    0  0.82140681204E+01 -0.29503269012E+02  0.18267037356E+02  0.35659479122E+02  0.00000000000E+00 0.  1.
         11    1    3    3    0    0  0.63394789340E+02 -0.11739040402E+01 -0.51430644992E+02  0.81641831254E+02  0.00000000000E+00 0. -1.
        -13    1    4    4    0    0 -0.10660051946E+03  0.26469019702E+02 -0.37246072392E+01  0.10990064810E+03  0.00000000000E+00 0.  1.
         13    1    4    4    0    0  0.47546628930E+01  0.31824356333E+02  0.23591606024E+02  0.39899377815E+02  0.00000000000E+00 0. -1.
         21    1    1    2  503  501  0.24703974763E+02 -0.79738090146E+01  0.22115604571E+01  0.26053003645E+02  0.00000000000E+00 0.  1.
          1    1    1    2  501    0  0.55330243482E+01 -0.19642393968E+02  0.76309309838E+01  0.21786902187E+02  0.00000000000E+00 0. -1.
<scales pt_clust_5="13000.00000" pt_clust_6="13000.00000" pt_clust_7="13000.00000" pt_clust_8="13000.00000" pt_clust_9="20.11800" pt_clust_10="46.81647"></scales>
<clustering>
<clus scale="   20.118">  9 10 -1 -1</clus>
<clus scale="   46.816">  1  9  2 -1</clus>
<clus scale="   81.184">  5  6 -1 -1</clus>
<clus scale="   90.965">  7  8 -1 -1</clus>
<clus scale="  121.825">  2  5  1 -1</clus>
<clus scale="   46.816">  1  5  2 -1</clus>
</clustering>
</event>
<event>
10    2  0.1671105E-006  0.9559732E+02  0.7546771E-02  0.1290850E+00
         21   -1    0    0  503  502  0.00000000000E+00  0.00000000000E+00  0.24909704341E+03  0.24909704341E+03  0.00000000000E+00 0.  1.
         -2   -1    0    0    0  501 -0.00000000000E+00 -0.00000000000E+00 -0.23656525777E+03  0.23656525777E+03  0.00000000000E+00 0.  1.
         23    2    1    2    0    0 -0.24530249791E+02 -0.38370834300E+01 -0.18613749540E+03  0.20803130926E+03  0.89517607638E+02 0.  0.
         23    2    1    2    0    0  0.51758503211E+02  0.15952788451E+02  0.56060496641E+02  0.12012420908E+03  0.91398097409E+02 0.  0.
        -11    1    3    3    0    0 -0.35246073677E+02  0.33391136778E+02 -0.13769216602E+03  0.14600132297E+03  0.00000000000E+00 0.  1.
         11    1    3    3    0    0  0.10715823886E+02 -0.37228220208E+02 -0.48445329376E+02  0.62029986295E+02  0.00000000000E+00 0. -1.
        -13    1    4    4    0    0  0.48334571761E+02  0.47093355253E+02  0.16154404467E+02  0.69390054907E+02  0.00000000000E+00 0.  1.
         13    1    4    4    0    0  0.34239314508E+01 -0.31140566802E+02  0.39906092174E+02  0.50734154176E+02  0.00000000000E+00 0. -1.
         21    1    1    2  503  501 -0.49156145787E+01 -0.23767497468E+02  0.17578133718E+02  0.29967448800E+02  0.00000000000E+00 0. -1.
         -2    1    1    2    0  502 -0.22312638842E+02  0.11651792447E+02  0.12503065067E+03  0.12753933404E+03  0.00000000000E+00 0.  1.
<scales pt_clust_5="13000.00000" pt_clust_6="13000.00000" pt_clust_7="13000.00000" pt_clust_8="13000.00000" pt_clust_9="24.27050" pt_clust_10="25.12313"></scales>
<clustering>
<clus scale="   24.271">  1  9  2 -1</clus>
<clus scale="   25.123">  1 10  2 -1</clus>
<clus scale="   89.518">  5  6 -1 -1</clus>
<clus scale="   91.398">  7  8 -1 -1</clus>
<clus scale="   93.801">  2  5  1 -1</clus>
<clus scale="   24.271">  1  5  2 -1</clus>
</clustering>
</event>
<event>
10    2  0.1671105E-006  0.1045250E+03  0.7546771E-02  0.1275902E+00
         21   -1    0    0  501  502  0.00000000000E+00  0.00000000000E+00  0.11084142669E+03  0.11084142669E+03  0.00000000000E+00 0.  1.
          1   -1    0    0  503    0 -0.00000000000E+00 -0.00000000000E+00 -0.26574460094E+03  0.26574460094E+03  0.00000000000E+00 0. -1.
         23    2    1    2    0    0  0.55686966334E+01  0.36733601559E+02 -0.12512027386E+03  0.15855897407E+03  0.90030536280E+02 0.  0.
         23    2    1    2    0    0  0.27584865260E+02 -0.15751971777E+02 -0.22300474125E+02  0.10709212999E+03  0.99811641371E+02 0.  0.
        -11    1    3    3    0    0 -0.31256605316E+02  0.45028576125E+02 -0.97261841307E+02  0.11164413920E+03  0.00000000000E+00 0.  1.
         11    1    3    3    0    0  0.36825301950E+02 -0.82949745658E+01 -0.27858432553E+02  0.46914834872E+02  0.00000000000E+00 0. -1.
        -13    1    4    4    0    0  0.63393960973E+02 -0.19063706749E+02 -0.29718679437E+01  0.66265007372E+02  0.00000000000E+00 0. -1.
         13    1    4    4    0    0 -0.35809095713E+02  0.33117349720E+01 -0.19328606182E+02  0.40827122618E+02  0.00000000000E+00 0.  1.
         21    1    1    2  503  502 -0.63527765479E+02  0.67164337602E+01 -0.21656650967E+02  0.67452931740E+02  0.00000000000E+00 0.  1.
          1    1    1    2  501    0  0.30374203585E+02 -0.27698063543E+02  0.14174224706E+02  0.43481991830E+02  0.00000000000E+00 0. -1.
<scales pt_clust_5="13000.00000" pt_clust_6="13000.00000" pt_clust_7="13000.00000" pt_clust_8="13000.00000" pt_clust_9="55.05667" pt_clust_10="41.10687"></scales>
<clustering>
<clus scale="   41.107">  1 10  2 -1</clus>
<clus scale="   55.057">  1  9  2 -1</clus>
<clus scale="   90.031">  5  6 -1 -1</clus>
<clus scale="   95.229">  2  5  1 -1</clus>
<clus scale="   99.812">  7  8 -1 -1</clus>
<clus scale="   41.107">  1  5  2 -1</clus>
</clustering>
</event>
<event>
10    2  0.1671105E-006  0.9488600E+02  0.7546771E-02  0.1293515E+00
          1   -1    0    0  503    0 -0.00000000000E+00  0.00000000000E+00  0.50558665699E+03  0.50558665699E+03  0.00000000000E+00 0. -1.
         21   -1    0    0  501  502  0.00000000000E+00 -0.00000000000E+00 -0.65992477625E+02  0.65992477625E+02  0.00000000000E+00 0.  1.
         23    2    1    2    0    0 -0.15859325867E+02  0.11045646474E+02  0.28946832118E+03  0.30381839721E+03  0.90222973741E+02 0.  0.
         23    2    1    2    0    0 -0.50669953747E+02 -0.18467644667E+02  0.15476618818E+03  0.18887635799E+03  0.93878684978E+02 0.  0.
        -11    1    3    3    0    0  0.32806781647E+02 -0.13329213141E+02  0.14957446328E+03  0.15370905279E+03  0.00000000000E+00 0.  1.
         11    1    3    3    0    0 -0.48666107514E+02  0.24374859614E+02  0.13989385790E+03  0.15010934441E+03  0.00000000000E+00 0. -1.
        -11    1    4    4    0    0 -0.26914773497E+02 -0.41604971272E+02  0.26099270580E+02  0.56004915782E+02  0.00000000000E+00 0.  1.
         11    1    4    4    0    0 -0.23755180250E+02  0.23137326605E+02  0.12866691760E+03  0.13287144221E+03  0.00000000000E+00 0. -1.
         21    1    1    2  503  502  0.30256764004E+02 -0.13695651710E+02  0.95844654728E+01  0.34567392470E+02  0.00000000000E+00 0.  1.
          1    1    1    2  501    0  0.36272515611E+02  0.21117649904E+02 -0.14224795463E+02  0.44316986948E+02  0.00000000000E+00 0. -1.
<scales pt_clust_5="13000.00000" pt_clust_6="13000.00000" pt_clust_7="13000.00000" pt_clust_8="13000.00000" pt_clust_9="33.21209" pt_clust_10="54.55497"></scales>
<clustering>
<clus scale="   33.212">  2  9  1 -1</clus>
<clus scale="   54.555">  2 10  1 -1</clus>
<clus scale="   90.223">  5  6 -1 -1</clus>
<clus scale="   91.271">  1  5  2 -1</clus>
<clus scale="   93.879">  7  8 -1 -1</clus>
<clus scale="   33.212">  2  5  1 -1</clus>
</clustering>
</event>
<event>
10    2  0.1671105E-006  0.1179679E+03  0.7546771E-02  0.1248718E+00
          4   -1    0    0  503    0 -0.00000000000E+00  0.00000000000E+00  0.52695872429E+03  0.52695872429E+03  0.00000000000E+00 0. -1.
         21   -1    0    0  501  502  0.00000000000E+00 -0.00000000000E+00 -0.51801555738E+02  0.51801555738E+02  0.00000000000E+00 0.  1.
         23    2    1    2    0    0 -0.51155865643E+02  0.52926877695E+02  0.29465159743E+03  0.31716199798E+03  0.91400175724E+02 0.  0.
         23    2    1    2    0    0  0.82180551513E+02 -0.20231420098E+02  0.14727492512E+03  0.18977867673E+03  0.84635035094E+02 0.  0.
        -13    1    3    3    0    0 -0.21127282447E+02  0.50124379127E+02  0.27684563448E+03  0.28213883245E+03  0.00000000000E+00 0. -1.
         13    1    3    3    0    0 -0.30028583196E+02  0.28024985677E+01  0.17805962948E+02  0.35023165526E+02  0.00000000000E+00 0.  1.
        -13    1    4    4    0    0  0.41451686590E+02  0.27950937713E+01  0.13522672088E+03  0.14146491053E+03  0.00000000000E+00 0. -1.
         13    1    4    4    0    0  0.40728864924E+02 -0.23026513870E+02  0.12048204237E+02  0.48313766199E+02  0.00000000000E+00 0.  1.
         21    1    1    2  503  502  0.32256782362E+01 -0.19789753510E+02  0.28597398707E+02  0.34926359055E+02  0.00000000000E+00 0.  1.
          4    1    1    2  501    0 -0.34250364107E+02 -0.12905704087E+02  0.46332472940E+01  0.36893246264E+02  0.00000000000E+00 0. -1.
<scales pt_clust_5="13000.00000" pt_clust_6="13000.00000" pt_clust_7="13000.00000" pt_clust_8="13000.00000" pt_clust_9="20.05092" pt_clust_10="38.47058"></scales>
<clustering>
<clus scale="   20.051">  2  9  1 -1</clus>
<clus scale="   38.471">  2 10  1 -1</clus>
<clus scale="   84.635">  7  8 -1 -1</clus>
<clus scale="   91.400">  5  6 -1 -1</clus>
<clus scale="  112.807">  2  7  1 -1</clus>
<clus scale="   20.051">  2  5  1 -1</clus>
</clustering>
</event>
<event>
10    2  0.1671105E-006  0.1345235E+03  0.7546771E-02  0.1221047E+00
          1   -1    0    0  502    0 -0.00000000000E+00  0.00000000000E+00  0.12261551671E+03  0.12261551671E+03  0.00000000000E+00 0. -1.
         21   -1    0    0  503  502  0.00000000000E+00 -0.00000000000E+00 -0.22285624881E+03  0.22285624881E+03  0.00000000000E+00 0. -1.
         23    2    1    2    0    0 -0.10597867405E+03  0.26981147349E+02 -0.20355992623E+02  0.14398216116E+03  0.91416818102E+02 0.  0.
         23    2    1    2    0    0  0.68688253415E+02 -0.58794574289E+02 -0.53572130043E+02  0.13970632408E+03  0.92048931275E+02 0.  0.
        -11    1    4    4    0    0  0.10544772451E+02 -0.69151412548E+02 -0.27909733960E+02  0.75313102002E+02  0.00000000000E+00 0.  1.
         11    1    4    4    0    0  0.58143480965E+02  0.10356838260E+02 -0.25662396083E+02  0.64393222082E+02  0.00000000000E+00 0. -1.
        -13    1    3    3    0    0 -0.58730983601E+02 -0.31613112578E+02 -0.15970825261E+02  0.68584142345E+02  0.00000000000E+00 0. -1.
         13    1    3    3    0    0 -0.47247690451E+02  0.58594259926E+02 -0.43851673622E+01  0.75398018820E+02  0.00000000000E+00 0.  1.
         21    1    1    2  503  501  0.75515678600E+01  0.23791162888E+02 -0.13937144208E+02  0.28588277272E+02  0.00000000000E+00 0. -1.
          1    1    1    2  501    0  0.29738852777E+02  0.80222640521E+01 -0.12375465224E+02  0.33195003005E+02  0.00000000000E+00 0. -1.
<scales pt_clust_5="13000.00000" pt_clust_6="13000.00000" pt_clust_7="13000.00000" pt_clust_8="13000.00000" pt_clust_9="24.19108" pt_clust_10="55.90009"></scales>
<clustering>
<clus scale="   24.191">  9 10 -1 -1</clus>
<clus scale="   55.900">  2  9  1 -1</clus>
<clus scale="   91.417">  7  8 -1 -1</clus>
<clus scale="   92.049">  5  6 -1 -1</clus>
<clus scale="  134.092">  1  7  2 -1</clus>
<clus scale="   55.900">  2  5  1 -1</clus>
</clustering>
</event>
<event>
10    2  0.1671105E-006  0.5417618E+03  0.7546771E-02  0.1003430E+00
          4   -1    0    0  503    0 -0.00000000000E+00  0.00000000000E+00  0.33620272145E+03  0.33620272145E+03  0.00000000000E+00 0. -1.
         21   -1    0    0  501  502  0.00000000000E+00 -0.00000000000E+00 -0.14894908574E+04  0.14894908574E+04  0.00000000000E+00 0. -1.
         23    2    1    2    0    0 -0.74220969060E+02  0.52227709225E+03 -0.30588881958E+03  0.61652604516E+03  0.90853074097E+02 0.  0.
         23    2    1    2    0    0 -0.14813519210E+03 -0.57095123370E+03 -0.61418052394E+03  0.85651012548E+03  0.91992024993E+02 0.  0.
        -11    1    3    3    0    0 -0.27861523873E+02  0.43745912539E+03 -0.25825892920E+03  0.50876755538E+03  0.00000000000E+00 0. -1.
         11    1    3    3    0    0 -0.46359445187E+02  0.84817966868E+02 -0.47629890383E+02  0.10775848978E+03  0.00000000000E+00 0.  1.
        -13    1    4    4    0    0 -0.96021007040E+00 -0.10044684403E+03 -0.14149884161E+03  0.17352928472E+03  0.00000000000E+00 0.  1.
         13    1    4    4    0    0 -0.14717498203E+03 -0.47050438967E+03 -0.47268168233E+03  0.68298084076E+03  0.00000000000E+00 0. -1.
         21    1    1    2  503  502  0.76229495896E+02 -0.40853933029E+02 -0.42864108235E+02  0.96526222672E+02  0.00000000000E+00 0.  1.
          4    1    1    2  501    0  0.14612666527E+03  0.89528074473E+02 -0.19035468424E+03  0.25613118559E+03  0.00000000000E+00 0. -1.
<scales pt_clust_5="13000.00000" pt_clust_6="13000.00000" pt_clust_7="13000.00000" pt_clust_8="13000.00000" pt_clust_9="86.48688" pt_clust_10="176.19164"></scales>
<clustering>
<clus scale="   86.487">  1  9  2 -1</clus>
<clus scale="   90.853">  5  6 -1 -1</clus>
<clus scale="   91.992">  7  8 -1 -1</clus>
<clus scale="  176.192">  2 10  1 -1</clus>
<clus scale="  541.570">  1  5  2 -1</clus>
<clus scale="  176.192">  2  5  1 -1</clus>
</clustering>
</event>
<event>
10    2  0.1671105E-006  0.3452643E+03  0.7546771E-02  0.1112122E+00
         21   -1    0    0  501  502  0.00000000000E+00  0.00000000000E+00  0.29457731987E+03  0.29457731987E+03  0.00000000000E+00 0. -1.
          1   -1    0    0  503    0 -0.00000000000E+00 -0.00000000000E+00 -0.77081897602E+03  0.77081897602E+03  0.00000000000E+00 0. -1.
         23    2    1    2    0    0  0.24213225362E+02 -0.35218866684E+02 -0.16187775422E+03  0.18929561436E+03  0.88327648282E+02 0.  0.
         23    2    1    2    0    0 -0.34018294533E+03  0.13515587986E+03 -0.21122195434E+03  0.43572391256E+03  0.10606161336E+03 0.  0.
        -11    1    4    4    0    0 -0.22619512175E+03  0.13955829552E+03 -0.13135179570E+03  0.29646929889E+03  0.00000000000E+00 0.  1.
         11    1    4    4    0    0 -0.11398782358E+03 -0.44024156539E+01 -0.79870158633E+02  0.13925461367E+03  0.00000000000E+00 0. -1.
        -13    1    3    3    0    0  0.48172755079E+02 -0.21692800873E+02 -0.15053254280E+03  0.15953444263E+03  0.00000000000E+00 0.  1.
         13    1    3    3    0    0 -0.23959529718E+02 -0.13526065811E+02 -0.11345211414E+02  0.29761171728E+02  0.00000000000E+00 0. -1.
         21    1    1    2  503  502  0.39275271311E+02  0.43582670630E+02 -0.11429807775E+03  0.12847586036E+03  0.00000000000E+00 0.  1.
          1    1    1    2  501    0  0.27669444865E+03 -0.14351968381E+03  0.11156130153E+02  0.31190090862E+03  0.00000000000E+00 0. -1.
<scales pt_clust_5="13000.00000" pt_clust_6="13000.00000" pt_clust_7="13000.00000" pt_clust_8="13000.00000" pt_clust_9="58.66853" pt_clust_10="328.57019"></scales>
<clustering>
<clus scale="   58.669">  2  9  1 -1</clus>
<clus scale="   88.328">  7  8 -1 -1</clus>
<clus scale="   97.797">  2  7  1 -1</clus>
<clus scale="  106.062">  5  6 -1 -1</clus>
<clus scale="  328.570">  1 10  2 -1</clus>
<clus scale="  328.570">  1  5  2 -1</clus>
</clustering>
</event>
<event>
10    2  0.1671105E-006  0.1261583E+03  0.7546771E-02  0.1243040E+00
         21   -1    0    0  501  502  0.00000000000E+00  0.00000000000E+00  0.68125492873E+03  0.68125492873E+03  0.00000000000E+00 0. -1.
          1   -1    0    0  503    0 -0.00000000000E+00 -0.00000000000E+00 -0.54792973083E+02  0.54792973083E+02  0.00000000000E+00 0. -1.
         23    2    1    2    0    0 -0.21368016832E+02 -0.37432461101E+02  0.75813549640E+02  0.12599411297E+03  0.90934266954E+02 0.  0.
         23    2    1    2    0    0  0.64122603187E+02  0.23276187199E+02  0.14499276150E+03  0.19791875600E+03  0.11616989265E+03 0.  0.
        -11    1    4    4    0    0 -0.12470331805E+02  0.40310717326E+02  0.12627073924E+02  0.44044365162E+02  0.00000000000E+00 0.  1.
         11    1    4    4    0    0  0.76592934992E+02 -0.17034530127E+02  0.13236568758E+03  0.15387439084E+03  0.00000000000E+00 0. -1.
        -13    1    3    3    0    0  0.27884317128E+02 -0.32910630640E+02  0.11093125839E+02  0.44538771780E+02  0.00000000000E+00 0.  1.
         13    1    3    3    0    0 -0.49252333960E+02 -0.45218304614E+01  0.64720423800E+02  0.81455341189E+02  0.00000000000E+00 0. -1.
         21    1    1    2  503  502 -0.31864135901E+01  0.28306948913E+02  0.11596529074E+03  0.11941266786E+03  0.00000000000E+00 0. -1.
          1    1    1    2  501    0 -0.39568172765E+02 -0.14150675011E+02  0.28969035376E+03  0.29272236499E+03  0.00000000000E+00 0. -1.
<scales pt_clust_5="13000.00000" pt_clust_6="13000.00000" pt_clust_7="13000.00000" pt_clust_8="13000.00000" pt_clust_9="28.48573" pt_clust_10="41.21741"></scales>
<clustering>
<clus scale="   28.486">  1  9  2 -1</clus>
<clus scale="   41.217">  1 10  2 -1</clus>
<clus scale="   90.934">  7  8 -1 -1</clus>
<clus scale="  103.390">  2  7  1 -1</clus>
<clus scale="  116.170">  5  6 -1 -1</clus>
<clus scale="   28.486">  1  5  2 -1</clus>
</clustering>
</event>
<event>
10    2  0.1671105E-006  0.9798506E+02  0.7546771E-02  0.1284762E+00
          1   -1    0    0  503    0 -0.00000000000E+00  0.00000000000E+00  0.29033411588E+03  0.29033411588E+03  0.00000000000E+00 0. -1.
         21   -1    0    0  501  502  0.00000000000E+00 -0.00000000000E+00 -0.92755164094E+02  0.92755164094E+02  0.00000000000E+00 0. -1.
         23    2    1    2    0    0 -0.10603237529E+02 -0.20271248435E+02  0.13152666448E+03  0.16191968922E+03  0.91626252401E+02 0.  0.
         23    2    1    2    0    0  0.31522212164E+02  0.37248035179E+02  0.11423905787E+03  0.15455994128E+03  0.91962748544E+02 0.  0.
        -13    1    3    3    0    0 -0.15927983127E+02  0.31103603790E+02  0.86892443551E+02  0.93655921124E+02  0.00000000000E+00 0. -1.
         13    1    3    3    0    0  0.53247455976E+01 -0.51374852225E+02  0.44634220926E+02  0.68263768095E+02  0.00000000000E+00 0.  1.
        -13    1    4    4    0    0  0.33702677917E+02  0.91569800046E+01  0.12070164754E+03  0.12565272977E+03  0.00000000000E+00 0. -1.
         13    1    4    4    0    0 -0.21804657532E+01  0.28091055175E+02 -0.64625896646E+01  0.28907211504E+02  0.00000000000E+00 0.  1.
         21    1    1    2  503  502 -0.18238988254E+02  0.82999578771E+01 -0.26317870996E+02  0.33078396682E+02  0.00000000000E+00 0.  1.
          1    1    1    2  501    0 -0.26799863805E+01 -0.25276744621E+02 -0.21868899569E+02  0.33531252795E+02  0.00000000000E+00 0. -1.
<scales pt_clust_5="13000.00000" pt_clust_6="13000.00000" pt_clust_7="13000.00000" pt_clust_8="13000.00000" pt_clust_9="20.03871" pt_clust_10="24.12899"></scales>
<clustering>
<clus scale="   20.039">  2  9  1 -1</clus>
<clus scale="   24.129">  2 10  1 -1</clus>
<clus scale="   91.626">  5  6 -1 -1</clus>
<clus scale="   91.963">  7  8 -1 -1</clus>
<clus scale="   97.669">  1  5  2 -1</clus>
<clus scale="   20.039">  2  5  1 -1</clus>
</clustering>
</event>
<event>
10    2  0.1671105E-006  0.1556660E+03  0.7546771E-02  0.1213209E+00
         -2   -1    0    0    0  501 -0.00000000000E+00  0.00000000000E+00  0.23928757744E+03  0.23928757744E+03  0.00000000000E+00 0.  1.
         21   -1    0    0  503  502  0.00000000000E+00 -0.00000000000E+00 -0.53164147052E+03  0.53164147052E+03  0.00000000000E+00 0.  1.
         23    2    1    2    0    0 -0.28541650502E+02  0.45297220201E+02  0.78459165146E+02  0.12931017837E+03  0.87742906629E+02 0.  0.
         23    2    1    2    0    0  0.64414686233E+02 -0.15559593771E+03  0.22838996004E+02  0.19137099190E+03  0.87988005817E+02 0.  0.
        -11    1    4    4    0    0 -0.21808569659E+02 -0.30380967961E+02 -0.13803304810E+01  0.37423551903E+02  0.00000000000E+00 0. -1.
         11    1    4    4    0    0  0.86223255892E+02 -0.12521496975E+03  0.24219326485E+02  0.15394743999E+03  0.00000000000E+00 0.  1.
        -13    1    3    3    0    0  0.28785176055E+02  0.86360093243E+01  0.74544705384E+01  0.30963464738E+02  0.00000000000E+00 0. -1.
         13    1    3    3    0    0 -0.57326826558E+02  0.36661210876E+02  0.71004694607E+02  0.98346713633E+02  0.00000000000E+00 0.  1.
         21    1    1    2  503  501  0.73518244540E+02  0.18952842503E+02 -0.14357134015E+03  0.16240958171E+03  0.00000000000E+00 0.  1.
         -2    1    1    2    0  502 -0.10939128027E+03  0.91345875002E+02 -0.25008071409E+03  0.28783829599E+03  0.00000000000E+00 0.  1.
<scales pt_clust_5="13000.00000" pt_clust_6="13000.00000" pt_clust_7="13000.00000" pt_clust_8="13000.00000" pt_clust_9="75.92195" pt_clust_10="128.41343"></scales>
<clustering>
<clus scale="   75.922">  2  9  1 -1</clus>
<clus scale="   87.743">  7  8 -1 -1</clus>
<clus scale="   87.988">  5  6 -1 -1</clus>
<clus scale="  102.102">  1  7  2 -1</clus>
<clus scale="  128.413">  2 10  1 -1</clus>
<clus scale="   75.922">  2  5  1 -1</clus>
</clustering>
</event>
<event>
10    2  0.1671105E-006  0.1520935E+03  0.7546771E-02  0.1216760E+00
         21   -1    0    0  503  502  0.00000000000E+00  0.00000000000E+00  0.29151592837E+03  0.29151592837E+03  0.00000000000E+00 0. -1.
          2   -1    0    0  502    0 -0.00000000000E+00 -0.00000000000E+00 -0.32919362390E+03  0.32919362390E+03  0.00000000000E+00 0. -1.
         23    2    1    2    0    0  0.36327161416E+02  0.27503987815E+02 -0.96711410114E+02  0.14022623560E+03  0.90742318144E+02 0.  0.
         23    2    1    2    0    0  0.59072514529E+02  0.54900281313E+02 -0.17508661495E+03  0.21283482814E+03  0.90220499185E+02 0.  0.
        -11    1    3    3    0    0 -0.19049865557E+02  0.76689359543E+01  0.64057539532E+01  0.21511476940E+02  0.00000000000E+00 0.  1.
         11    1    3    3    0    0  0.55377026973E+02  0.19835051861E+02 -0.10311716407E+03  0.11871475866E+03  0.00000000000E+00 0. -1.
        -13    1    4    4    0    0  0.32789120508E+02  0.26713056906E+02 -0.16851158582E+03  0.17373793019E+03  0.00000000000E+00 0. -1.
         13    1    4    4    0    0  0.26283394021E+02  0.28187224407E+02 -0.65750291347E+01  0.39096897948E+02  0.00000000000E+00 0.  1.
         21    1    1    2  503  501 -0.36216669910E+02 -0.24446569748E+02  0.11065313202E+03  0.11896805276E+03  0.00000000000E+00 0. -1.
          2    1    1    2  501    0 -0.59183006034E+02 -0.57957699380E+02  0.12346719751E+03  0.14868043578E+03  0.00000000000E+00 0. -1.
<scales pt_clust_5="13000.00000" pt_clust_6="13000.00000" pt_clust_7="13000.00000" pt_clust_8="13000.00000" pt_clust_9="22.17052" pt_clust_10="126.19234"></scales>
<clustering>
<clus scale="   22.171">  9 10 -1 -1</clus>
<clus scale="   90.220">  7  8 -1 -1</clus>
<clus scale="   90.742">  5  6 -1 -1</clus>
<clus scale="  101.540">  2  5  1 -1</clus>
<clus scale="  126.192">  1  9  2 -1</clus>
<clus scale="  126.192">  1  5  2 -1</clus>
</clustering>
</event>
<event>
10    2  0.1671105E-006  0.1774376E+03  0.7546771E-02  0.1170783E+00
         21   -1    0    0  503  502  0.00000000000E+00  0.00000000000E+00  0.16148592026E+03  0.16148592026E+03  0.00000000000E+00 0.  1.
         -3   -1    0    0    0  501 -0.00000000000E+00 -0.00000000000E+00 -0.86399776112E+03  0.86399776112E+03  0.00000000000E+00 0.  1.
         23    2    1    2    0    0  0.98886768877E+02 -0.95959168932E+02 -0.50036710847E+03  0.52672233958E+03  0.89902305942E+02 0.  0.
         23    2    1    2    0    0 -0.24831588854E+03  0.89940515290E+02 -0.10698593751E+03  0.29992917080E+03  0.93602563419E+02 0.  0.
        -11    1    3    3    0    0  0.54495662911E+01 -0.65737301418E+02 -0.18416412571E+03  0.19562084697E+03  0.00000000000E+00 0.  1.
         11    1    3    3    0    0  0.93437202586E+02 -0.30221867514E+02 -0.31620298276E+03  0.33110149261E+03  0.00000000000E+00 0. -1.
        -11    1    4    4    0    0 -0.22048631562E+03  0.85154003464E+02 -0.12405147540E+03  0.26693480146E+03  0.00000000000E+00 0.  1.
         11    1    4    4    0    0 -0.27829572926E+02  0.47865118265E+01  0.17065537893E+02  0.32994369342E+02  0.00000000000E+00 0. -1.
         21    1    1    2  503  501  0.90088547863E+02  0.39917621352E+02 -0.84215232672E+02  0.12962086392E+03  0.00000000000E+00 0. -1.
         -3    1    1    2    0  502  0.59340571802E+02 -0.33898967710E+02 -0.10943562223E+02  0.69211307080E+02  0.00000000000E+00 0.  1.
<scales pt_clust_5="13000.00000" pt_clust_6="13000.00000" pt_clust_7="13000.00000" pt_clust_8="13000.00000" pt_clust_9="105.90827" pt_clust_10="68.34064"></scales>
<clustering>
<clus scale="   68.341">  1 10  2 -1</clus>
<clus scale="   89.902">  5  6 -1 -1</clus>
<clus scale="   93.603">  7  8 -1 -1</clus>
<clus scale="  105.908">  1  9  2 -1</clus>
<clus scale="  175.514">  2  5  1 -1</clus>
<clus scale="   68.341">  1  5  2 -1</clus>
</clustering>
</event>
<event>
10    2  0.1671105E-006  0.1497168E+03  0.7546771E-02  0.1223212E+00
          1   -1    0    0  502    0 -0.00000000000E+00  0.00000000000E+00  0.33040606292E+03  0.33040606292E+03  0.00000000000E+00 0. -1.
         21   -1    0    0  503  502  0.00000000000E+00 -0.00000000000E+00 -0.12981438177E+03  0.12981438177E+03  0.00000000000E+00 0.  1.
         23    2    1    2    0    0 -0.99689364773E+01 -0.12125670915E+02  0.10323288821E+03  0.13892227509E+03  0.91629458798E+02 0.  0.
         23    2    1    2    0    0  0.10978117154E+03  0.71345277151E+02  0.11852459369E+03  0.19820969173E+03  0.89983045020E+02 0.  0.
        -11    1    4    4    0    0 -0.91143891956E+01  0.31821116374E+02  0.18742706778E+02  0.38038724940E+02  0.00000000000E+00 0. -1.
         11    1    4    4    0    0  0.11889556073E+03  0.39524160776E+02  0.99781886915E+02  0.16017096679E+03  0.00000000000E+00 0.  1.
        -13    1    3    3    0    0  0.24145985968E+02 -0.25949794744E+01 -0.52129829496E+01  0.24838231581E+02  0.00000000000E+00 0. -1.
         13    1    3    3    0    0 -0.34114922445E+02 -0.95306914402E+01  0.10844587116E+03  0.11408404351E+03  0.00000000000E+00 0.  1.
         21    1    1    2  503  501 -0.29179756308E+02 -0.22174548878E+02  0.91322624473E+01  0.37769922075E+02  0.00000000000E+00 0.  1.
          1    1    1    2  501    0 -0.70632478750E+02 -0.37045057359E+02 -0.30298063196E+02  0.85318555793E+02  0.00000000000E+00 0. -1.
<scales pt_clust_5="13000.00000" pt_clust_6="13000.00000" pt_clust_7="13000.00000" pt_clust_8="13000.00000" pt_clust_9="23.80606" pt_clust_10="124.70565"></scales>
<clustering>
<clus scale="   23.806">  9 10 -1 -1</clus>
<clus scale="   89.983">  5  6 -1 -1</clus>
<clus scale="   91.629">  7  8 -1 -1</clus>
<clus scale="   92.964">  1  7  2 -1</clus>
<clus scale="  124.706">  2  9  1 -1</clus>
<clus scale="  124.706">  2  5  1 -1</clus>
</clustering>
</event>
<event>
10    2  0.1671105E-006  0.1103810E+03  0.7546771E-02  0.1262970E+00
         21   -1    0    0  501  502  0.00000000000E+00  0.00000000000E+00  0.48028351405E+02  0.48028351405E+02  0.00000000000E+00 0. -1.
          1   -1    0    0  503    0 -0.00000000000E+00 -0.00000000000E+00 -0.59715579285E+03  0.59715579285E+03  0.00000000000E+00 0. -1.
         23    2    1    2    0    0  0.32243938439E+02  0.67540755545E+02 -0.37812896903E+03  0.39757853948E+03  0.97394828424E+02 0.  0.
         23    2    1    2    0    0 -0.67235343087E+00 -0.90843044345E+01 -0.92352530808E+02  0.12923326433E+03  0.89940369226E+02 0.  0.
        -13    1    3    3    0    0  0.26503841866E+02 -0.21068746443E+02 -0.95085031698E+02  0.10093319059E+03  0.00000000000E+00 0.  1.
         13    1    3    3    0    0  0.57400965734E+01  0.88609501988E+02 -0.28304393734E+03  0.29664534888E+03  0.00000000000E+00 0. -1.
        -13    1    4    4    0    0 -0.33837832720E+01 -0.47046897781E+02 -0.29128332353E+02  0.55437535350E+02  0.00000000000E+00 0.  1.
         13    1    4    4    0    0  0.27114298412E+01  0.37962593346E+02 -0.63224198455E+02  0.73795728980E+02  0.00000000000E+00 0. -1.
         21    1    1    2  503  502  0.12468638897E+02 -0.37806665366E+02 -0.36605567982E+02  0.54081221411E+02  0.00000000000E+00 0.  1.
          1    1    1    2  501    0 -0.44040223905E+02 -0.20649785745E+02 -0.42040373621E+02  0.64291119038E+02  0.00000000000E+00 0. -1.
<scales pt_clust_5="13000.00000" pt_clust_6="13000.00000" pt_clust_7="13000.00000" pt_clust_8="13000.00000" pt_clust_9="39.80968" pt_clust_10="51.22662"></scales>
<clustering>
<clus scale="   39.810">  1  9  2 -1</clus>
<clus scale="   51.227">  1 10  2 -1</clus>
<clus scale="   89.940">  7  8 -1 -1</clus>
<clus scale="   97.395">  5  6 -1 -1</clus>
<clus scale="  103.863">  1  7  2 -1</clus>
<clus scale="   39.810">  1  5  2 -1</clus>
</clustering>
</event>
<event>
10    2  0.1671105E-006  0.1710213E+03  0.7546771E-02  0.1207083E+00
         21   -1    0    0  501  502  0.00000000000E+00  0.00000000000E+00  0.46841859858E+02  0.46841859858E+02  0.00000000000E+00 0.  1.
          1   -1    0    0  503    0 -0.00000000000E+00 -0.00000000000E+00 -0.13958502081E+04  0.13958502081E+04  0.00000000000E+00 0. -1.
         23    2    1    2    0    0 -0.53472291343E+02 -0.10451021453E+02 -0.45877408150E+03  0.46707497931E+03  0.68679463137E+02 0.  0.
         23    2    1    2    0    0 -0.57022603684E+02 -0.14540705382E+03 -0.34801542712E+03  0.39031174311E+03  0.82666381670E+02 0.  0.
        -11    1    4    4    0    0 -0.50233796655E+02 -0.10030701566E+03 -0.31393516876E+03  0.33337699666E+03  0.00000000000E+00 0.  1.
         11    1    4    4    0    0 -0.67888070292E+01 -0.45100038160E+02 -0.34080258366E+02  0.56934746448E+02  0.00000000000E+00 0. -1.
        -13    1    3    3    0    0 -0.26593351594E+02 -0.39406862003E+02 -0.27780384413E+03  0.28184230154E+03  0.00000000000E+00 0.  1.
         13    1    3    3    0    0 -0.26878939749E+02  0.28955840550E+02 -0.18097023737E+03  0.18523267778E+03  0.00000000000E+00 0. -1.
         21    1    1    2  503  502  0.11797407628E+03  0.11582124131E+03 -0.50008250139E+03  0.52670195633E+03  0.00000000000E+00 0. -1.
          1    1    1    2  501    0 -0.74791812489E+01  0.40036833967E+02 -0.42136338226E+02  0.58603389196E+02  0.00000000000E+00 0. -1.
<scales pt_clust_5="13000.00000" pt_clust_6="13000.00000" pt_clust_7="13000.00000" pt_clust_8="13000.00000" pt_clust_9="149.71490" pt_clust_10="40.72943"></scales>
<clustering>
<clus scale="   40.729">  1 10  2 -1</clus>
<clus scale="   68.679">  7  8 -1 -1</clus>
<clus scale="   82.666">  5  6 -1 -1</clus>
<clus scale="   87.753">  2  7  1 -1</clus>
<clus scale="  149.715">  2  9  1 -1</clus>
<clus scale="   40.729">  1  5  2 -1</clus>
</clustering>
</event>
<event>
10    2  0.1671105E-006  0.1260806E+03  0.7546771E-02  0.1236214E+00
         21   -1    0    0  503  502  0.00000000000E+00  0.00000000000E+00  0.51098336895E+03  0.51098336895E+03  0.00000000000E+00 0.  1.
          3   -1    0    0  502    0 -0.00000000000E+00 -0.00000000000E+00 -0.85135732367E+02  0.85135732367E+02  0.00000000000E+00 0. -1.
         23    2    1    2    0    0  0.38357616454E+02  0.64595270298E+02  0.20704915784E+02  0.12751051829E+03  0.10092761294E+03 0.  0.
         23    2    1    2    0    0  0.90547851232E+01 -0.86939549854E+02  0.11339053012E+03  0.17013888503E+03  0.91920364539E+02 0.  0.
        -11    1    3    3    0    0 -0.16643330893E+02  0.29171134412E+02 -0.29770583076E+02  0.44880320440E+02  0.00000000000E+00 0. -1.
         11    1    3    3    0    0  0.55000947347E+02  0.35424135886E+02  0.50475498861E+02  0.82630197855E+02  0.00000000000E+00 0.  1.
        -13    1    4    4    0    0 -0.33987967885E+02 -0.35852709924E+02  0.83354687864E+02  0.96894802538E+02  0.00000000000E+00 0. -1.
         13    1    4    4    0    0  0.43042753008E+02 -0.51086839930E+02  0.30035842253E+02  0.73244082494E+02  0.00000000000E+00 0.  1.
         21    1    1    2  503  501 -0.12584299480E+02  0.19817215505E+02  0.17618544059E+03  0.17774249941E+03  0.00000000000E+00 0.  1.
          3    1    1    2  501    0 -0.34828102097E+02  0.25270640515E+01  0.11556675009E+03  0.12072719857E+03  0.00000000000E+00 0. -1.
<scales pt_clust_5="13000.00000" pt_clust_6="13000.00000" pt_clust_7="13000.00000" pt_clust_8="13000.00000" pt_clust_9="23.47523" pt_clust_10="40.42046"></scales>
<clustering>
<clus scale="   23.475">  1  9  2 -1</clus>
<clus scale="   40.420">  1 10  2 -1</clus>
<clus scale="   91.920">  7  8 -1 -1</clus>
<clus scale="  100.928">  5  6 -1 -1</clus>
<clus scale="  118.993">  1  7  2 -1</clus>
<clus scale="   23.475">  1  5  2 -1</clus>
</clustering>
</event>
<event>
10    2  0.1671105E-006  0.9351814E+02  0.7546771E-02  0.1294940E+00
          3   -1    0    0  503    0 -0.00000000000E+00  0.00000000000E+00  0.28070718225E+03  0.28070718225E+03  0.00000000000E+00 0. -1.
         21   -1    0    0  501  502  0.00000000000E+00 -0.00000000000E+00 -0.75129071995E+02  0.75129071995E+02  0.00000000000E+00 0.  1.
         23    2    1    2    0    0 -0.15226855303E+02 -0.17153467736E+02  0.11994012316E+03  0.15258996553E+03  0.91498447295E+02 0.  0.
         23    2    1    2    0    0  0.29181706757E+02 -0.17574363501E+02  0.88812695759E+02  0.13150582533E+03  0.90805599528E+02 0.  0.
        -11    1    3    3    0    0 -0.42000480952E+02 -0.19156442774E+02  0.22188998123E+02  0.51218759626E+02  0.00000000000E+00 0.  1.
         11    1    3    3    0    0  0.26773625649E+02  0.20029750379E+01  0.97751125037E+02  0.10137120590E+03  0.00000000000E+00 0. -1.
        -13    1    4    4    0    0 -0.31169233823E+02  0.26392192550E+01  0.42603372729E+02  0.52853892792E+02  0.00000000000E+00 0.  1.
         13    1    4    4    0    0  0.60350940581E+02 -0.20213582756E+02  0.46209323030E+02  0.78651932536E+02  0.00000000000E+00 0. -1.
         21    1    1    2  503  502  0.17479753113E+02  0.12896774877E+02  0.17812566885E+02  0.28091922507E+02  0.00000000000E+00 0.  1.
          3    1    1    2  501    0 -0.31434604568E+02  0.21831056359E+02 -0.20987275552E+02  0.43648540883E+02  0.00000000000E+00 0. -1.
<scales pt_clust_5="13000.00000" pt_clust_6="13000.00000" pt_clust_7="13000.00000" pt_clust_8="13000.00000" pt_clust_9="21.72254" pt_clust_10="37.97481"></scales>
<clustering>
<clus scale="   21.723">  1  9  2 -1</clus>
<clus scale="   37.975">  2 10  1 -1</clus>
<clus scale="   90.806">  7  8 -1 -1</clus>
<clus scale="   91.498">  5  6 -1 -1</clus>
<clus scale="   92.840">  2  7  1 -1</clus>
<clus scale="   37.975">  2  5  1 -1</clus>
</clustering>
</event>
<event>
10    2  0.1671105E-006  0.3055380E+03  0.7546771E-02  0.1100237E+00
         21   -1    0    0  503  502  0.00000000000E+00  0.00000000000E+00  0.13512578281E+03  0.13512578281E+03  0.00000000000E+00 0. -1.
          2   -1    0    0  502    0 -0.00000000000E+00 -0.00000000000E+00 -0.19227735898E+04  0.19227735898E+04  0.00000000000E+00 0. -1.
         23    2    1    2    0    0 -0.15446494893E+03  0.60746887551E+02 -0.87347893330E+03  0.89420749910E+03  0.95351978157E+02 0.  0.
         23    2    1    2    0    0  0.10698454029E+03 -0.33817890223E+03 -0.75646482924E+03  0.84041487404E+03  0.90815531970E+02 0.  0.
        -11    1    3    3    0    0 -0.11108593050E+03  0.85938740356E+02 -0.60565434670E+03  0.62172561370E+03  0.00000000000E+00 0.  1.
         11    1    3    3    0    0 -0.43379018435E+02 -0.25191852805E+02 -0.26782458660E+03  0.27248188540E+03  0.00000000000E+00 0. -1.
        -11    1    4    4    0    0  0.69469651695E+01 -0.77263784861E+02 -0.25269891883E+03  0.26433822340E+03  0.00000000000E+00 0.  1.
         11    1    4    4    0    0  0.10003757512E+03 -0.26091511737E+03 -0.50376591041E+03  0.57607665063E+03  0.00000000000E+00 0. -1.
         21    1    1    2  503  501  0.14128156280E+02  0.14242769252E+03 -0.81434205720E+02  0.16467174092E+03  0.00000000000E+00 0. -1.
          2    1    1    2  501    0  0.33352252363E+02  0.13500432216E+03 -0.76269838714E+02  0.15860525854E+03  0.00000000000E+00 0. -1.
<scales pt_clust_5="13000.00000" pt_clust_6="13000.00000" pt_clust_7="13000.00000" pt_clust_8="13000.00000" pt_clust_9="20.06916" pt_clust_10="292.43898"></scales>
<clustering>
<clus scale="   20.069">  9 10 -1 -1</clus>
<clus scale="   90.816">  7  8 -1 -1</clus>
<clus scale="   95.352">  5  6 -1 -1</clus>
<clus scale="  191.420">  2  5  1 -1</clus>
<clus scale="  292.439">  1  9  2 -1</clus>
<clus scale="  292.439">  1  5  2 -1</clus>
</clustering>
</event>
<event>
10    2  0.1671105E-006  0.1928685E+03  0.7546771E-02  0.1176388E+00
         21   -1    0    0  501  502  0.00000000000E+00  0.00000000000E+00  0.22869825517E+03  0.22869825517E+03  0.00000000000E+00 0. -1.
         -1   -1    0    0    0  501 -0.00000000000E+00 -0.00000000000E+00 -0.36126343312E+03  0.36126343312E+03  0.00000000000E+00 0.  1.
         23    2    1    2    0    0 -0.73469649469E+02  0.26498474693E+02 -0.10645048047E+03  0.16064909100E+03  0.91523041317E+02 0.  0.
         23    2    1    2    0    0  0.22506923118E+03 -0.66334539503E+01 -0.87388515670E+02  0.25823783006E+03  0.91377582960E+02 0.  0.
        -11    1    4    4    0    0  0.20575515639E+03 -0.29653636594E+02 -0.57118567810E+02  0.21558537365E+03  0.00000000000E+00 0. -1.
         11    1    4    4    0    0  0.19314074786E+02  0.23020182643E+02 -0.30269947860E+02  0.42652456403E+02  0.00000000000E+00 0.  1.
        -11    1    3    3    0    0 -0.23544463149E+02 -0.30613905200E+02 -0.61059709051E+02  0.72248467153E+02  0.00000000000E+00 0.  1.
         11    1    3    3    0    0 -0.49925186320E+02  0.57112379893E+02 -0.45390771421E+02  0.88400623846E+02  0.00000000000E+00 0. -1.
         21    1    1    2  503  502 -0.25244386794E+02 -0.13078669128E+02  0.28729870968E+02  0.40419501934E+02  0.00000000000E+00 0.  1.
         -1    1    1    2    0  503 -0.12635519491E+03 -0.67863516148E+01  0.32543947232E+02  0.13065526530E+03  0.00000000000E+00 0.  1.
<scales pt_clust_5="13000.00000" pt_clust_6="13000.00000" pt_clust_7="13000.00000" pt_clust_8="13000.00000" pt_clust_9="21.90238" pt_clust_10="176.02115"></scales>
<clustering>
<clus scale="   21.902">  9 10 -1 -1</clus>
<clus scale="   91.378">  5  6 -1 -1</clus>
<clus scale="   91.523">  7  8 -1 -1</clus>
<clus scale="  120.318">  2  7  1 -1</clus>
<clus scale="  176.021">  1  9  2 -1</clus>
<clus scale="  176.021">  1  5  2 -1</clus>
</clustering>
</event>
<event>
10    2  0.1671105E-006  0.1447252E+03  0.7546771E-02  0.1219432E+00
         -1   -1    0    0    0  501 -0.00000000000E+00  0.00000000000E+00  0.35002845518E+03  0.35002845518E+03  0.00000000000E+00 0.  1.
         21   -1    0    0  503  502  0.00000000000E+00 -0.00000000000E+00 -0.12489414515E+03  0.12489414515E+03  0.00000000000E+00 0. -1.
         23    2    1    2    0    0  0.14158932190E+02  0.59974097054E+02  0.58169331603E+02  0.12493275481E+03  0.91799533803E+02 0.  0.
         23    2    1    2    0    0  0.27938173501E+02  0.60819357546E+02  0.14597190968E+03  0.18505246419E+03  0.91962385226E+02 0.  0.
        -11    1    3    3    0    0  0.43486446642E+02  0.34501053954E+02  0.65014717501E+02  0.85488638177E+02  0.00000000000E+00 0.  1.
         11    1    3    3    0    0 -0.29327514452E+02  0.25473043100E+02 -0.68453858986E+01  0.39444116631E+02  0.00000000000E+00 0. -1.
        -13    1    4    4    0    0  0.31515794960E+02 -0.41032903435E+01  0.83758405222E+01  0.32866959520E+02  0.00000000000E+00 0.  1.
         13    1    4    4    0    0 -0.35776214589E+01  0.64922647889E+02  0.13759606916E+03  0.15218550467E+03  0.00000000000E+00 0. -1.
         21    1    1    2  503  501  0.26836175078E+02 -0.28732328797E+01  0.43172485535E+01  0.27332661690E+02  0.00000000000E+00 0. -1.
         -1    1    1    2    0  502 -0.68933280769E+02 -0.11792022172E+03  0.16675820191E+02  0.13760471964E+03  0.00000000000E+00 0.  1.
<scales pt_clust_5="13000.00000" pt_clust_6="13000.00000" pt_clust_7="13000.00000" pt_clust_8="13000.00000" pt_clust_9="26.98955" pt_clust_10="111.75111"></scales>
<clustering>
<clus scale="   26.990">  2  9  1 -1</clus>
<clus scale="   91.800">  5  6 -1 -1</clus>
<clus scale="   91.962">  7  8 -1 -1</clus>
<clus scale="  111.400">  1  5  2 -1</clus>
<clus scale="  111.751">  2 10  1 -1</clus>
<clus scale="   26.990">  2  5  1 -1</clus>
</clustering>
</event>
<event>
10    2  0.1671105E-006  0.1423409E+03  0.7546771E-02  0.1232774E+00
         21   -1    0    0  503  502  0.00000000000E+00  0.00000000000E+00  0.14024755027E+03  0.14024755027E+03  0.00000000000E+00 0. -1.
          2   -1    0    0  502    0 -0.00000000000E+00 -0.00000000000E+00 -0.41792806712E+03  0.41792806712E+03  0.00000000000E+00 0. -1.
         23    2    1    2    0    0  0.44439144771E+02  0.61427419841E+01 -0.72316966969E+02  0.11447157859E+03  0.76559961646E+02 0.  0.
         23    2    1    2    0    0 -0.57439210995E+01 -0.10879383108E+03 -0.27671843143E+03  0.31121670886E+03  0.91726001049E+02 0.  0.
        -11    1    3    3    0    0 -0.67882288945E+01 -0.19764067457E+02  0.15107367086E+01  0.20951867205E+02  0.00000000000E+00 0.  1.
         11    1    3    3    0    0  0.51227373666E+02  0.25906809441E+02 -0.73827703677E+02  0.93519711389E+02  0.00000000000E+00 0. -1.
        -13    1    4    4    0    0 -0.25370444814E+02 -0.18448261027E+02 -0.17314852081E+02  0.35830181517E+02  0.00000000000E+00 0.  1.
         13    1    4    4    0    0  0.19626523714E+02 -0.90345570053E+02 -0.25940357935E+03  0.27538652734E+03  0.00000000000E+00 0. -1.
         21    1    1    2  503  501 -0.27246408784E+02  0.50254315422E+02  0.28727782655E+02  0.63977718828E+02  0.00000000000E+00 0. -1.
          2    1    1    2  501    0 -0.11448814887E+02  0.52396773675E+02  0.42627098900E+02  0.68509611110E+02  0.00000000000E+00 0. -1.
<scales pt_clust_5="13000.00000" pt_clust_6="13000.00000" pt_clust_7="13000.00000" pt_clust_8="13000.00000" pt_clust_9="20.01086" pt_clust_10="110.78848"></scales>
<clustering>
<clus scale="   20.011">  9 10 -1 -1</clus>
<clus scale="   76.560">  5  6 -1 -1</clus>
<clus scale="   88.736">  2  5  1 -1</clus>
<clus scale="   91.726">  7  8 -1 -1</clus>
<clus scale="  110.788">  1  9  2 -1</clus>
<clus scale="  110.788">  1  5  2 -1</clus>
</clustering>
</event>
<event>
10    2  0.1671105E-006  0.2194325E+03  0.7546771E-02  0.1134328E+00
          1   -1    0    0  502    0 -0.00000000000E+00  0.00000000000E+00  0.10193842126E+04  0.10193842126E+04  0.00000000000E+00 0. -1.
         21   -1    0    0  503  502  0.00000000000E+00 -0.00000000000E+00 -0.12380963189E+03  0.12380963189E+03  0.00000000000E+00 0.  1.
         23    2    1    2    0    0  0.20277844463E+03 -0.37073958285E+02  0.65865884120E+03  0.69609007006E+03  0.90644032093E+02 0.  0.
         23    2    1    2    0    0 -0.17596047487E+03  0.75557561203E+02  0.29281263344E+03  0.36135295184E+03  0.90364172803E+02 0.  0.
        -11    1    3    3    0    0  0.18111496762E+03 -0.61374346930E+02  0.58746155160E+03  0.61780297552E+03  0.00000000000E+00 0.  1.
         11    1    3    3    0    0  0.21663477014E+02  0.24300388645E+02  0.71197289604E+02  0.78287094541E+02  0.00000000000E+00 0. -1.
        -13    1    4    4    0    0 -0.66798846760E+02  0.37796154313E+02  0.47642213372E+02  0.90335019258E+02  0.00000000000E+00 0.  1.
         13    1    4    4    0    0 -0.10916162811E+03  0.37761406890E+02  0.24517042007E+03  0.27101793258E+03  0.00000000000E+00 0. -1.
         21    1    1    2  503  501  0.26672882095E+01 -0.27042241112E+02 -0.79505206786E+01  0.28312682844E+02  0.00000000000E+00 0. -1.
          1    1    1    2  501    0 -0.29485257978E+02 -0.11441361806E+02 -0.47946373220E+02  0.57438139793E+02  0.00000000000E+00 0. -1.
<scales pt_clust_5="13000.00000" pt_clust_6="13000.00000" pt_clust_7="13000.00000" pt_clust_8="13000.00000" pt_clust_9="27.17347" pt_clust_10="37.60285"></scales>
<clustering>
<clus scale="   27.173">  2  9  1 -1</clus>
<clus scale="   37.603">  2 10  1 -1</clus>
<clus scale="   90.364">  7  8 -1 -1</clus>
<clus scale="   90.644">  5  6 -1 -1</clus>
<clus scale="  219.317">  2  7  1 -1</clus>
<clus scale="   27.173">  2  5  1 -1</clus>
</clustering>
</event>
<event>
10    2  0.1671105E-006  0.9341726E+02  0.7546771E-02  0.1298516E+00
         -1   -1    0    0    0  501 -0.00000000000E+00  0.00000000000E+00  0.11566602024E+03  0.11566602024E+03  0.00000000000E+00 0.  1.
         21   -1    0    0  503  502  0.00000000000E+00 -0.00000000000E+00 -0.38693934404E+03  0.38693934404E+03  0.00000000000E+00 0. -1.
         23    2    1    2    0    0  0.16046938632E+01  0.69691368660E+01  0.67493434193E+02  0.11466129107E+03  0.92415929906E+02 0.  0.
         23    2    1    2    0    0 -0.54411045876E+02 -0.41869765368E+02 -0.15707424203E+03  0.19182890283E+03  0.86095129280E+02 0.  0.
        -11    1    3    3    0    0  0.41730767129E+02  0.19301948898E+02  0.53201338962E+02  0.70316460546E+02  0.00000000000E+00 0.  1.
         11    1    3    3    0    0 -0.40126073266E+02 -0.12332812032E+02  0.14292095232E+02  0.44344830527E+02  0.00000000000E+00 0. -1.
        -13    1    4    4    0    0  0.12848314971E+02 -0.34129230329E+02 -0.27645327266E+02  0.45761858354E+02  0.00000000000E+00 0.  1.
         13    1    4    4    0    0 -0.67259360847E+02 -0.77405350397E+01 -0.12942891477E+03  0.14606704448E+03  0.00000000000E+00 0. -1.
         21    1    1    2  503  501  0.28600269028E+02  0.18994868108E+02 -0.46195370177E+02  0.57556864306E+02  0.00000000000E+00 0. -1.
         -1    1    1    2    0  502  0.24206082985E+02  0.15905760395E+02 -0.13549714579E+03  0.13855830608E+03  0.00000000000E+00 0.  1.
<scales pt_clust_5="13000.00000" pt_clust_6="13000.00000" pt_clust_7="13000.00000" pt_clust_8="13000.00000" pt_clust_9="40.34565" pt_clust_10="28.96425"></scales>
<clustering>
<clus scale="   28.964">  2 10  1 -1</clus>
<clus scale="   40.346">  2  9  1 -1</clus>
<clus scale="   86.095">  7  8 -1 -1</clus>
<clus scale="   87.169">  2  7  1 -1</clus>
<clus scale="   92.416">  5  6 -1 -1</clus>
<clus scale="   28.964">  2  5  1 -1</clus>
</clustering>
</event>
<event>
10    2  0.1671105E-006  0.1234272E+03  0.7546771E-02  0.1237611E+00
         21   -1    0    0  501  502  0.00000000000E+00  0.00000000000E+00  0.53661034428E+03  0.53661034428E+03  0.00000000000E+00 0.  1.
         -3   -1    0    0    0  501 -0.00000000000E+00 -0.00000000000E+00 -0.10308083485E+03  0.10308083485E+03  0.00000000000E+00 0.  1.
         23    2    1    2    0    0 -0.55173030999E+02 -0.68319782082E+01  0.40424819972E+02  0.11437958873E+03  0.91420921962E+02 0.  0.
         23    2    1    2    0    0  0.10138600738E+03  0.58258005749E+02  0.26220957614E+02  0.15085682526E+03  0.91635830239E+02 0.  0.
        -11    1    4    4    0    0  0.77476384872E+02  0.80347162471E+02  0.35295310386E+02  0.11706415192E+03  0.00000000000E+00 0. -1.
         11    1    4    4    0    0  0.23909622512E+02 -0.22089156722E+02 -0.90743527727E+01  0.33792673342E+02  0.00000000000E+00 0.  1.
        -13    1    3    3    0    0 -0.32060466158E+02 -0.48848484450E+02  0.16091387098E+02  0.60605120758E+02  0.00000000000E+00 0.  1.
         13    1    3    3    0    0 -0.23112564841E+02  0.42016506242E+02  0.24333432874E+02  0.53774467972E+02  0.00000000000E+00 0. -1.
         21    1    1    2  503  502 -0.29332969125E+02 -0.12395797225E+02  0.13508452631E+03  0.13878727648E+03  0.00000000000E+00 0.  1.
         -3    1    1    2    0  503 -0.16880007259E+02 -0.39030230315E+02  0.23179920553E+03  0.23566748866E+03  0.00000000000E+00 0.  1.
<scales pt_clust_5="13000.00000" pt_clust_6="13000.00000" pt_clust_7="13000.00000" pt_clust_8="13000.00000" pt_clust_9="24.96737" pt_clust_10="74.91794"></scales>
<clustering>
<clus scale="   24.967">  9 10 -1 -1</clus>
<clus scale="   74.918">  1  9  2 -1</clus>
<clus scale="   91.421">  7  8 -1 -1</clus>
<clus scale="   91.636">  5  6 -1 -1</clus>
<clus scale="  123.268">  2  7  1 -1</clus>
<clus scale="   74.918">  1  5  2 -1</clus>
</clustering>
</event>
<event>
10    2  0.1671105E-006  0.1915787E+03  0.7546771E-02  0.1175922E+00
         21   -1    0    0  501  502  0.00000000000E+00  0.00000000000E+00  0.35121201274E+03  0.35121201274E+03  0.00000000000E+00 0. -1.
          4   -1    0    0  503    0 -0.00000000000E+00 -0.00000000000E+00 -0.26726914820E+03  0.26726914820E+03  0.00000000000E+00 0. -1.
         23    2    1    2    0    0  0.14379694345E+03 -0.29009061862E+02 -0.56973139127E+02  0.18197828696E+03  0.91384198465E+02 0.  0.
         23    2    1    2    0    0  0.29580654620E+02 -0.94315338544E+02  0.62644926774E+02  0.14763312751E+03  0.90004195881E+02 0.  0.
        -11    1    3    3    0    0  0.81843912677E+02 -0.50093187126E+02 -0.65212648391E+02  0.11601914906E+03  0.00000000000E+00 0. -1.
         11    1    3    3    0    0  0.61953030770E+02  0.21084125264E+02  0.82395092640E+01  0.65959137901E+02  0.00000000000E+00 0.  1.
        -13    1    4    4    0    0 -0.17643328301E+02 -0.73506935499E+02  0.14330546957E+02  0.76941024013E+02  0.00000000000E+00 0.  1.
         13    1    4    4    0    0  0.47223982920E+02 -0.20808403045E+02  0.48314379817E+02  0.70692103500E+02  0.00000000000E+00 0. -1.
         21    1    1    2  503  502 -0.19863112301E+03  0.73289123279E+02  0.27969173430E+02  0.21356004608E+03  0.00000000000E+00 0. -1.
          4    1    1    2  501    0  0.25253524947E+02  0.50035277126E+02  0.50301903461E+02  0.75309700379E+02  0.00000000000E+00 0. -1.
<scales pt_clust_5="13000.00000" pt_clust_6="13000.00000" pt_clust_7="13000.00000" pt_clust_8="13000.00000" pt_clust_9="168.37851" pt_clust_10="56.04703"></scales>
<clustering>
<clus scale="   56.047">  1 10  2 -1</clus>
<clus scale="   90.004">  7  8 -1 -1</clus>
<clus scale="   91.384">  5  6 -1 -1</clus>
<clus scale="  124.067">  1  7  2 -1</clus>
<clus scale="  168.379">  1  9  2 -1</clus>
<clus scale="   56.047">  1  5  2 -1</clus>
</clustering>
</event>
<event>
10    2  0.1671105E-006  0.1300176E+03  0.7546771E-02  0.1240923E+00
         21   -1    0    0  503  502  0.00000000000E+00  0.00000000000E+00  0.12772173166E+03  0.12772173166E+03  0.00000000000E+00 0. -1.
          3   -1    0    0  502    0 -0.00000000000E+00 -0.00000000000E+00 -0.22079440721E+03  0.22079440721E+03  0.00000000000E+00 0. -1.
         23    2    1    2    0    0 -0.28317107469E+02  0.27490743980E+02 -0.57519314187E+02  0.11414223989E+03  0.90345890016E+02 0.  0.
         23    2    1    2    0    0 -0.58876555458E+02  0.33310926435E+02 -0.42364028268E+02  0.12234058604E+03  0.92716996824E+02 0.  0.
        -11    1    3    3    0    0  0.18940314132E+02 -0.16530474363E+02  0.33897861572E+01  0.25366961432E+02  0.00000000000E+00 0.  1.
         11    1    3    3    0    0 -0.47257421601E+02  0.44021218343E+02 -0.60909100345E+02  0.88775278460E+02  0.00000000000E+00 0. -1.
        -13    1    4    4    0    0 -0.65862150009E+02 -0.11572272202E+02 -0.37471975928E+02  0.76654349307E+02  0.00000000000E+00 0.  1.
         13    1    4    4    0    0  0.69855945508E+01  0.44883198637E+02 -0.48920523404E+01  0.45686236737E+02  0.00000000000E+00 0. -1.
         21    1    1    2  503  501  0.56464326797E+02 -0.30556473844E+02 -0.11439060271E+02  0.65213268545E+02  0.00000000000E+00 0. -1.
          3    1    1    2  501    0  0.30729336130E+02 -0.30245196570E+02  0.18249727172E+02  0.46820044387E+02  0.00000000000E+00 0. -1.
<scales pt_clust_5="13000.00000" pt_clust_6="13000.00000" pt_clust_7="13000.00000" pt_clust_8="13000.00000" pt_clust_9="28.45328" pt_clust_10="97.53788"></scales>
<clustering>
<clus scale="   28.453">  9 10 -1 -1</clus>
<clus scale="   90.346">  5  6 -1 -1</clus>
<clus scale="   92.717">  7  8 -1 -1</clus>
<clus scale="   98.590">  2  5  1 -1</clus>
<clus scale="   97.538">  1  9  2 -1</clus>
<clus scale="   97.538">  1  5  2 -1</clus>
</clustering>
</event>
<event>
10    2  0.1671105E-006  0.1726220E+03  0.7546771E-02  0.1201975E+00
          3   -1    0    0  502    0 -0.00000000000E+00  0.00000000000E+00  0.12558906621E+03  0.12558906621E+03  0.00000000000E+00 0. -1.
         21   -1    0    0  503  502  0.00000000000E+00 -0.00000000000E+00 -0.48231239329E+03  0.48231239329E+03  0.00000000000E+00 0.  1.
         23    2    1    2    0    0 -0.24163299488E+02  0.32917505615E+01  0.31325853275E+02  0.10028340213E+03  0.92090993021E+02 0.  0.
         23    2    1    2    0    0  0.59435150977E+02  0.13577580642E+03 -0.19994699862E+03  0.26587059184E+03  0.93492045474E+02 0.  0.
        -11    1    4    4    0    0  0.15126226637E+02  0.11315672184E+03 -0.17807219111E+03  0.21152529796E+03  0.00000000000E+00 0.  1.
         11    1    4    4    0    0  0.44308924339E+02  0.22619084574E+02 -0.21874807513E+02  0.54345293879E+02  0.00000000000E+00 0. -1.
        -13    1    3    3    0    0 -0.27819189898E+02  0.39841610352E+02 -0.47171381647E+01  0.48821231390E+02  0.00000000000E+00 0.  1.
         13    1    3    3    0    0  0.36558904098E+01 -0.36549859790E+02  0.36042991440E+02  0.51462170740E+02  0.00000000000E+00 0. -1.
         21    1    1    2  503  501 -0.32398024468E+02 -0.43159344457E+02 -0.49890713254E+02  0.73494518656E+02  0.00000000000E+00 0. -1.
          3    1    1    2  501    0 -0.28738270205E+01 -0.95908212520E+02 -0.13821146849E+03  0.16825294687E+03  0.00000000000E+00 0. -1.
<scales pt_clust_5="13000.00000" pt_clust_6="13000.00000" pt_clust_7="13000.00000" pt_clust_8="13000.00000" pt_clust_9="37.31375" pt_clust_10="153.40506"></scales>
<clustering>
<clus scale="   37.314">  9 10 -1 -1</clus>
<clus scale="   92.091">  7  8 -1 -1</clus>
<clus scale="   93.492">  5  6 -1 -1</clus>
<clus scale="   95.265">  1  7  2 -1</clus>
<clus scale="  153.405">  2  9  1 -1</clus>
<clus scale="  153.405">  2  5  1 -1</clus>
</clustering>
</event>
<event>
10    2  0.1671105E-006  0.1031445E+03  0.7546771E-02  0.1278992E+00
         21   -1    0    0  503  502  0.00000000000E+00  0.00000000000E+00  0.32031523376E+03  0.32031523376E+03  0.00000000000E+00 0.  1.
         -3   -1    0    0    0  501 -0.00000000000E+00 -0.00000000000E+00 -0.27991991932E+03  0.27991991932E+03  0.00000000000E+00 0.  1.
         23    2    1    2    0    0 -0.43585254837E+02  0.40394896242E+02 -0.18075283195E+03  0.21165313491E+03  0.92704051573E+02 0.  0.
         23    2    1    2    0    0  0.42113892108E+02  0.62071779641E+02 -0.28219544648E+02  0.11447893887E+03  0.81747165142E+02 0.  0.
        -11    1    4    4    0    0  0.17923416541E+02  0.46088954950E+02 -0.55732712273E+02  0.74508897765E+02  0.00000000000E+00 0.  1.
         11    1    4    4    0    0  0.24190475567E+02  0.15982824691E+02  0.27513167625E+02  0.39970041106E+02  0.00000000000E+00 0. -1.
        -13    1    3    3    0    0  0.22081181735E+00  0.61432517504E+02 -0.10508015778E+03  0.12172034556E+03  0.00000000000E+00 0.  1.
         13    1    3    3    0    0 -0.43806066654E+02 -0.21037621261E+02 -0.75672674170E+02  0.89932789349E+02  0.00000000000E+00 0. -1.
         21    1    1    2  503  501  0.46577237573E+01 -0.24878485924E+02  0.20981601370E+02  0.32876451276E+02  0.00000000000E+00 0. -1.
         -3    1    1    2    0  502 -0.31863610284E+01 -0.77588189960E+02  0.22838608967E+03  0.24122662803E+03  0.00000000000E+00 0.  1.
<scales pt_clust_5="13000.00000" pt_clust_6="13000.00000" pt_clust_7="13000.00000" pt_clust_8="13000.00000" pt_clust_9="25.31074" pt_clust_10="97.50074"></scales>
<clustering>
<clus scale="   25.311">  1  9  2 -1</clus>
<clus scale="   81.747">  5  6 -1 -1</clus>
<clus scale="   92.704">  7  8 -1 -1</clus>
<clus scale="   97.501">  1 10  2 -1</clus>
<clus scale="   93.420">  1  5  2 -1</clus>
<clus scale="   25.311">  1  5  2 -1</clus>
</clustering>
</event>
<event>
10    2  0.1671105E-006  0.2134833E+03  0.7546771E-02  0.1168800E+00
         21   -1    0    0  503  502  0.00000000000E+00  0.00000000000E+00  0.30839556054E+02  0.30839556054E+02  0.00000000000E+00 0.  1.
          1   -1    0    0  502    0 -0.00000000000E+00 -0.00000000000E+00 -0.23655422550E+04  0.23655422550E+04  0.00000000000E+00 0. -1.
         23    2    1    2    0    0 -0.49601961898E+02 -0.20108466127E+02 -0.50027398953E+03  0.51126767245E+03  0.90861781084E+02 0.  0.
         23    2    1    2    0    0  0.91406387316E+02 -0.16945749576E+03 -0.12325718075E+04  0.12510137567E+04  0.93440828324E+02 0.  0.
        -11    1    3    3    0    0 -0.73980186300E+02 -0.73490902513E+01 -0.41671928169E+03  0.42329899223E+03  0.00000000000E+00 0. -1.
         11    1    3    3    0    0  0.24378224402E+02 -0.12759375876E+02 -0.83554707846E+02  0.87968680228E+02  0.00000000000E+00 0.  1.
        -13    1    4    4    0    0 -0.17416371694E+02 -0.43099146263E+02 -0.22734821318E+03  0.23205188310E+03  0.00000000000E+00 0. -1.
         13    1    4    4    0    0  0.10882275901E+03 -0.12635834950E+03 -0.10052235943E+04  0.10189618736E+04  0.00000000000E+00 0.  1.
         21    1    1    2  503  501 -0.28081868640E+02  0.43759090068E+02 -0.12902568661E+03  0.13910814899E+03  0.00000000000E+00 0.  1.
          1    1    1    2  501    0 -0.13722556778E+02  0.14580687182E+03 -0.47283121531E+03  0.49499223288E+03  0.00000000000E+00 0. -1.
<scales pt_clust_5="13000.00000" pt_clust_6="13000.00000" pt_clust_7="13000.00000" pt_clust_8="13000.00000" pt_clust_9="27.74807" pt_clust_10="197.51618"></scales>
<clustering>
<clus scale="   27.748">  9 10 -1 -1</clus>
<clus scale="   90.862">  5  6 -1 -1</clus>
<clus scale="   93.441">  7  8 -1 -1</clus>
<clus scale="  105.454">  2  5  1 -1</clus>
<clus scale="  197.516">  1  9  2 -1</clus>
<clus scale="  197.516">  1  5  2 -1</clus>
</clustering>
</event>
<event>
10    2  0.1671105E-006  0.9207905E+02  0.7546771E-02  0.1298091E+00
         -1   -1    0    0    0  501 -0.00000000000E+00  0.00000000000E+00  0.26865858765E+03  0.26865858765E+03  0.00000000000E+00 0.  1.
         21   -1    0    0  503  502  0.00000000000E+00 -0.00000000000E+00 -0.25414731608E+03  0.25414731608E+03  0.00000000000E+00 0.  1.
         23    2    1    2    0    0  0.19749607417E+02 -0.56753142405E+00  0.21324597462E+03  0.23266825940E+03  0.90941212628E+02 0.  0.
         23    2    1    2    0    0  0.53411901809E+02 -0.29965518589E+02 -0.96782038679E+02  0.14603457344E+03  0.90601159316E+02 0.  0.
        -11    1    4    4    0    0  0.60639670297E+02 -0.53283217397E+02 -0.89572887391E+02  0.12058015187E+03  0.00000000000E+00 0.  1.
         11    1    4    4    0    0 -0.72277684880E+01  0.23317698808E+02 -0.72091512878E+01  0.25454421567E+02  0.00000000000E+00 0. -1.
        -13    1    3    3    0    0 -0.17906572403E+02  0.31082392998E+02  0.45969850149E+02  0.58309412726E+02  0.00000000000E+00 0.  1.
         13    1    3    3    0    0  0.37656179819E+02 -0.31649924422E+02  0.16727612447E+03  0.17435884667E+03  0.00000000000E+00 0. -1.
         21    1    1    2  503  501 -0.70586476918E+02  0.49671955375E+01 -0.93071506874E+02  0.11691633396E+03  0.00000000000E+00 0.  1.
         -1    1    1    2    0  502 -0.25750323076E+01  0.25565854476E+02 -0.88811574946E+01  0.27186736930E+02  0.00000000000E+00 0.  1.
<scales pt_clust_5="13000.00000" pt_clust_6="13000.00000" pt_clust_7="13000.00000" pt_clust_8="13000.00000" pt_clust_9="73.56812" pt_clust_10="25.69521"></scales>
<clustering>
<clus scale="   25.695">  2 10  1 -1</clus>
<clus scale="   73.568">  2  9  1 -1</clus>
<clus scale="   90.601">  5  6 -1 -1</clus>
<clus scale="   90.941">  7  8 -1 -1</clus>
<clus scale="   91.743">  2  5  1 -1</clus>
<clus scale="   25.695">  2  5  1 -1</clus>
</clustering>
</event>
<event>
10    2  0.1671105E-006  0.1082549E+03  0.7546771E-02  0.1264725E+00
         -2   -1    0    0    0  501 -0.00000000000E+00  0.00000000000E+00  0.48512230855E+03  0.48512230855E+03  0.00000000000E+00 0.  1.
         21   -1    0    0  501  502  0.00000000000E+00 -0.00000000000E+00 -0.56774505964E+02  0.56774505964E+02  0.00000000000E+00 0.  1.
         23    2    1    2    0    0  0.43306546184E+02 -0.17449885879E+02  0.28160588534E+03  0.30011764861E+03  0.92675632670E+02 0.  0.
         23    2    1    2    0    0 -0.62905784728E+02  0.70037613674E+02  0.10106988706E+03  0.16512544970E+03  0.90492469230E+02 0.  0.
        -11    1    3    3    0    0 -0.15729030151E+01 -0.48924913966E+02  0.13443458567E+03  0.14306914082E+03  0.00000000000E+00 0. -1.
         11    1    3    3    0    0  0.44879449199E+02  0.31475028087E+02  0.14717129967E+03  0.15704850779E+03  0.00000000000E+00 0.  1.
        -13    1    4    4    0    0  0.21529663007E+02  0.19904162025E+02  0.39607212641E+02  0.49279137049E+02  0.00000000000E+00 0. -1.
         13    1    4    4    0    0 -0.84435447735E+02  0.50133451649E+02  0.61462674418E+02  0.11584631265E+03  0.00000000000E+00 0.  1.
         21    1    1    2  503  502  0.83204603092E+00 -0.30269135498E+02  0.33209086758E+02  0.44941698985E+02  0.00000000000E+00 0.  1.
         -2    1    1    2    0  503  0.18767192514E+02 -0.22318592298E+02  0.12462943431E+02  0.31712017217E+02  0.00000000000E+00 0.  1.
<scales pt_clust_5="13000.00000" pt_clust_6="13000.00000" pt_clust_7="13000.00000" pt_clust_8="13000.00000" pt_clust_9="24.83088" pt_clust_10="61.56182"></scales>
<clustering>
<clus scale="   24.831">  9 10 -1 -1</clus>
<clus scale="   61.562">  2  9  1 -1</clus>
<clus scale="   90.492">  7  8 -1 -1</clus>
<clus scale="   92.676">  5  6 -1 -1</clus>
<clus scale="  106.392">  2  7  1 -1</clus>
<clus scale="   61.562">  2  5  1 -1</clus>
</clustering>
</event>
<event>
10    2  0.1671105E-006  0.9380953E+02  0.7546771E-02  0.1294892E+00
         21   -1    0    0  501  502  0.00000000000E+00  0.00000000000E+00  0.18860429801E+03  0.18860429801E+03  0.00000000000E+00 0. -1.
          1   -1    0    0  503    0 -0.00000000000E+00 -0.00000000000E+00 -0.44393206081E+03  0.44393206081E+03  0.00000000000E+00 0. -1.
         23    2    1    2    0    0 -0.48927546441E+01  0.26197014176E+01 -0.24661622295E+03  0.26350214753E+03  0.92644581310E+02 0.  0.
         23    2    1    2    0    0  0.35788995781E+02 -0.34412774232E+01 -0.10792054791E+03  0.14559379678E+03  0.90873617674E+02 0.  0.
        -13    1    3    3    0    0  0.15597059385E+02 -0.35484023142E+02 -0.56446411325E+02  0.68473217474E+02  0.00000000000E+00 0.  1.
         13    1    3    3    0    0 -0.20489814029E+02  0.38103724560E+02 -0.19016981163E+03  0.19502893006E+03  0.00000000000E+00 0. -1.
        -13    1    4    4    0    0 -0.13922695287E+02  0.15313056401E+02  0.45629296766E+01  0.21193193899E+02  0.00000000000E+00 0.  1.
         13    1    4    4    0    0  0.49711691068E+02 -0.18754333824E+02 -0.11248347759E+03  0.12440060288E+03  0.00000000000E+00 0. -1.
         21    1    1    2  503  502  0.78336916827E+02 -0.26213299972E+02  0.17670113957E+02  0.84475100240E+02  0.00000000000E+00 0. -1.
          1    1    1    2  501    0 -0.10923315796E+03  0.27034875978E+02  0.81538894111E+02  0.13896531427E+03  0.00000000000E+00 0. -1.
<scales pt_clust_5="13000.00000" pt_clust_6="13000.00000" pt_clust_7="13000.00000" pt_clust_8="13000.00000" pt_clust_9="82.60635" pt_clust_10="46.82321"></scales>
<clustering>
<clus scale="   82.606">  1  9  2 -1</clus>
<clus scale="   46.823">  1 10  2 -1</clus>
<clus scale="   90.874">  7  8 -1 -1</clus>
<clus scale="   92.061">  1  7  2 -1</clus>
<clus scale="   92.645">  5  6 -1 -1</clus>
<clus scale="   82.606">  1  5  2 -1</clus>
</clustering>
</event>
<event>
10    2  0.1671105E-006  0.3284311E+03  0.7546771E-02  0.1071837E+00
         21   -1    0    0  503  502  0.00000000000E+00  0.00000000000E+00  0.13678983999E+03  0.13678983999E+03  0.00000000000E+00 0. -1.
          2   -1    0    0  502    0 -0.00000000000E+00 -0.00000000000E+00 -0.18787028299E+04  0.18787028299E+04  0.00000000000E+00 0. -1.
         23    2    1    2    0    0  0.17155299768E+03  0.32370705396E+03 -0.11647850541E+04  0.12243702803E+04  0.90231220623E+02 0.  0.
         23    2    1    2    0    0 -0.83724671464E+02 -0.25001989835E+03 -0.57632036291E+03  0.64017681819E+03  0.90340620215E+02 0.  0.
        -11    1    4    4    0    0 -0.26134226021E+02 -0.17317238771E+03 -0.29678229955E+03  0.34460326023E+03  0.00000000000E+00 0. -1.
         11    1    4    4    0    0 -0.57590445444E+02 -0.76847510640E+02 -0.27953806337E+03  0.29557355797E+03  0.00000000000E+00 0.  1.
        -13    1    3    3    0    0  0.63305036646E+02  0.17560514559E+03 -0.46831416226E+03  0.50414566287E+03  0.00000000000E+00 0.  1.
         13    1    3    3    0    0  0.10824796103E+03  0.14810190837E+03 -0.69647089189E+03  0.72022461745E+03  0.00000000000E+00 0. -1.
         21    1    1    2  503  501  0.15133407629E+02 -0.37367223358E+02  0.90593137215E+01  0.41320703927E+02  0.00000000000E+00 0.  1.
          2    1    1    2  501    0 -0.10296173384E+03 -0.36319932252E+02 -0.98668865927E+01  0.10962486746E+03  0.00000000000E+00 0. -1.
<scales pt_clust_5="13000.00000" pt_clust_6="13000.00000" pt_clust_7="13000.00000" pt_clust_8="13000.00000" pt_clust_9="40.31537" pt_clust_10="109.84203"></scales>
<clustering>
<clus scale="   40.315">  1  9  2 -1</clus>
<clus scale="   90.231">  7  8 -1 -1</clus>
<clus scale="   90.341">  5  6 -1 -1</clus>
<clus scale="  109.842">  1 10  2 -1</clus>
<clus scale="  328.401">  2  7  1 -1</clus>
<clus scale="   40.315">  1  5  2 -1</clus>
</clustering>
</event>
<event>
10    2  0.1671105E-006  0.1251129E+03  0.7546771E-02  0.1236068E+00
          1   -1    0    0  503    0 -0.00000000000E+00  0.00000000000E+00  0.49407625741E+03  0.49407625741E+03  0.00000000000E+00 0. -1.
         21   -1    0    0  501  502  0.00000000000E+00 -0.00000000000E+00 -0.25054186639E+03  0.25054186639E+03  0.00000000000E+00 0.  1.
         23    2    1    2    0    0  0.78435324435E+02 -0.73023428228E+01  0.36060379447E+03  0.38135542999E+03  0.95872014000E+02 0.  0.
         23    2    1    2    0    0 -0.81164433116E+02  0.44593524528E+02  0.64549255380E+02  0.14559925287E+03  0.91958079763E+02 0.  0.
        -11    1    4    4    0    0 -0.99974251887E+02  0.36918896249E+02  0.40235902353E+02  0.11391568715E+03  0.00000000000E+00 0.  1.
         11    1    4    4    0    0  0.18809818771E+02  0.76746282786E+01  0.24313353027E+02  0.31683565722E+02  0.00000000000E+00 0. -1.
        -13    1    3    3    0    0  0.63719844201E+02 -0.46467493028E+02  0.19043355045E+03  0.20611740244E+03  0.00000000000E+00 0.  1.
         13    1    3    3    0    0  0.14715480234E+02  0.39165150205E+02  0.17017024402E+03  0.17523802755E+03  0.00000000000E+00 0. -1.
         21    1    1    2  503  502  0.59345404420E+01 -0.78444722614E+02 -0.12098369972E+03  0.14431163804E+03  0.00000000000E+00 0.  1.
          1    1    1    2  501    0 -0.32054317607E+01  0.41153540908E+02 -0.60634959118E+02  0.73351802905E+02  0.00000000000E+00 0. -1.
<scales pt_clust_5="13000.00000" pt_clust_6="13000.00000" pt_clust_7="13000.00000" pt_clust_8="13000.00000" pt_clust_9="48.83789" pt_clust_10="41.27819"></scales>
<clustering>
<clus scale="   41.278">  2 10  1 -1</clus>
<clus scale="   48.838">  2  9  1 -1</clus>
<clus scale="   91.958">  5  6 -1 -1</clus>
<clus scale="   95.872">  7  8 -1 -1</clus>
<clus scale="  122.140">  2  5  1 -1</clus>
<clus scale="   41.278">  2  5  1 -1</clus>
</clustering>
</event>
<event>
10    2  0.1671105E-006  0.3072473E+03  0.7546771E-02  0.1129163E+00
          2   -1    0    0  502    0 -0.00000000000E+00  0.00000000000E+00  0.11634170615E+04  0.11634170615E+04  0.00000000000E+00 0. -1.
         21   -1    0    0  503  502  0.00000000000E+00 -0.00000000000E+00 -0.22142382380E+03  0.22142382380E+03  0.00000000000E+00 0. -1.
         23    2    1    2    0    0 -0.25040136213E+01 -0.37752980877E+02  0.95104779332E+01  0.91160959464E+02  0.82391223383E+02 0.  0.
         23    2    1    2    0    0  0.42834387954E+02  0.30663325011E+03  0.93658340393E+03  0.99095641113E+03  0.94590704501E+02 0.  0.
        -11    1    3    3    0    0 -0.25622892805E+02 -0.23622073239E+02  0.38193413507E+02  0.51703692471E+02  0.00000000000E+00 0. -1.
         11    1    3    3    0    0  0.23118879184E+02 -0.14130907638E+02 -0.28682935574E+02  0.39457266993E+02  0.00000000000E+00 0.  1.
        -13    1    4    4    0    0  0.20987187597E+02  0.67807735923E+02  0.11551643722E+03  0.13558170365E+03  0.00000000000E+00 0.  1.
         13    1    4    4    0    0  0.21847200357E+02  0.23882551419E+03  0.82106696670E+03  0.85537470748E+03  0.00000000000E+00 0. -1.
         21    1    1    2  503  501 -0.41088054553E+01 -0.98538178198E+02 -0.65130248713E+02  0.11818884948E+03  0.00000000000E+00 0. -1.
          2    1    1    2  501    0 -0.36221568877E+02 -0.17034209104E+03  0.61029604528E+02  0.18453466520E+03  0.00000000000E+00 0. -1.
<scales pt_clust_5="13000.00000" pt_clust_6="13000.00000" pt_clust_7="13000.00000" pt_clust_8="13000.00000" pt_clust_9="99.40734" pt_clust_10="99.40734"></scales>
<clustering>
<clus scale="   82.391">  5  6 -1 -1</clus>
<clus scale="   90.664">  1  5  2 -1</clus>
<clus scale="   94.591">  7  8 -1 -1</clus>
<clus scale="   99.407">  9 10 -1 -1</clus>
<clus scale="  292.655">  1  7  2 -1</clus>
<clus scale="  307.247">  2  5  1 -1</clus>
</clustering>
</event>
<event>
10    2  0.1671105E-006  0.1778207E+03  0.7546771E-02  0.1195460E+00
          2   -1    0    0  503    0 -0.00000000000E+00  0.00000000000E+00  0.11209624547E+04  0.11209624547E+04  0.00000000000E+00 0. -1.
         21   -1    0    0  501  502  0.00000000000E+00 -0.00000000000E+00 -0.11696710279E+03  0.11696710279E+03  0.00000000000E+00 0. -1.
         23    2    1    2    0    0  0.25701073226E+02 -0.31938161429E+02  0.13991058742E+03  0.17248094939E+03  0.92163518314E+02 0.  0.
         23    2    1    2    0    0 -0.35195458988E+02 -0.13453587765E+03  0.85875971983E+03  0.87482310055E+03  0.92241954389E+02 0.  0.
        -13    1    3    3    0    0  0.21451820574E+02 -0.62718915762E+02  0.72390215028E+02  0.98153890560E+02  0.00000000000E+00 0. -1.
         13    1    3    3    0    0  0.42492526511E+01  0.30780754333E+02  0.67520372396E+02  0.74327058827E+02  0.00000000000E+00 0.  1.
        -13    1    4    4    0    0 -0.35929760945E+02 -0.65473345522E+01  0.13601026910E+03  0.14082829478E+03  0.00000000000E+00 0.  1.
         13    1    4    4    0    0  0.73430195728E+00 -0.12798854310E+03  0.72274945073E+03  0.73399480577E+03  0.00000000000E+00 0. -1.
         21    1    1    2  503  502  0.36105569236E+02  0.46343631963E+02  0.28697704310E+02  0.65382739206E+02  0.00000000000E+00 0.  1.
          2    1    1    2  501    0 -0.26611183474E+02  0.12013040712E+03 -0.23372659664E+02  0.12524276833E+03  0.00000000000E+00 0. -1.
<scales pt_clust_5="13000.00000" pt_clust_6="13000.00000" pt_clust_7="13000.00000" pt_clust_8="13000.00000" pt_clust_9="58.74814" pt_clust_10="152.02503"></scales>
<clustering>
<clus scale="   58.748">  2  9  1 -1</clus>
<clus scale="   92.164">  5  6 -1 -1</clus>
<clus scale="   92.242">  7  8 -1 -1</clus>
<clus scale="  100.431">  1  5  2 -1</clus>
<clus scale="  152.025">  2 10  1 -1</clus>
<clus scale="   58.748">  2  5  1 -1</clus>
</clustering>
</event>
<event>
10    2  0.1671105E-006  0.1742238E+03  0.7546771E-02  0.1175206E+00
          1   -1    0    0  502    0 -0.00000000000E+00  0.00000000000E+00  0.30797534594E+03  0.30797534594E+03  0.00000000000E+00 0. -1.
         21   -1    0    0  503  502  0.00000000000E+00 -0.00000000000E+00 -0.21832200680E+03  0.21832200680E+03  0.00000000000E+00 0. -1.
         23    2    1    2    0    0  0.68152023126E+02 -0.13308456601E+03  0.62958273079E+02  0.18590677035E+03  0.90782064014E+02 0.  0.
         23    2    1    2    0    0 -0.12469932404E+02  0.12767698388E+03 -0.88811986831E+02  0.18662961333E+03  0.10240181707E+03 0.  0.
        -11    1    3    3    0    0  0.22903155015E+02  0.12462865749E+01 -0.11647373412E+02  0.25724872153E+02  0.00000000000E+00 0.  1.
         11    1    3    3    0    0  0.45248868110E+02 -0.13433085259E+03  0.74605646491E+02  0.16018189820E+03  0.00000000000E+00 0. -1.
        -11    1    4    4    0    0  0.10909767405E+02  0.45616150832E+02  0.17720674215E+02  0.50138593281E+02  0.00000000000E+00 0.  1.
         11    1    4    4    0    0 -0.23379699809E+02  0.82060833044E+02 -0.10653266105E+03  0.13649102004E+03  0.00000000000E+00 0. -1.
         21    1    1    2  503  501 -0.26390400236E+02  0.18906953799E+00 -0.73153708087E+01  0.27386194004E+02  0.00000000000E+00 0. -1.
          1    1    1    2  501    0 -0.29291690485E+02  0.52185126000E+01  0.12282242370E+03  0.12637477505E+03  0.00000000000E+00 0. -1.
<scales pt_clust_5="13000.00000" pt_clust_6="13000.00000" pt_clust_7="13000.00000" pt_clust_8="13000.00000" pt_clust_9="26.39108" pt_clust_10="29.98287"></scales>
<clustering>
<clus scale="   26.391">  2  9  1 -1</clus>
<clus scale="   29.983">  2 10  1 -1</clus>
<clus scale="   90.782">  5  6 -1 -1</clus>
<clus scale="  102.402">  7  8 -1 -1</clus>
<clus scale="  167.658">  1  5  2 -1</clus>
<clus scale="   26.391">  2  5  1 -1</clus>
</clustering>
</event>
<event>
10    2  0.1671105E-006  0.1609583E+03  0.7546771E-02  0.1188176E+00
          1   -1    0    0  502    0 -0.00000000000E+00  0.00000000000E+00  0.87396648200E+03  0.87396648200E+03  0.00000000000E+00 0. -1.
         21   -1    0    0  503  502  0.00000000000E+00 -0.00000000000E+00 -0.71561798358E+02  0.71561798358E+02  0.00000000000E+00 0. -1.
         23    2    1    2    0    0 -0.12289640120E+03 -0.69605575915E+02  0.57238003073E+03  0.59651677672E+03  0.90911515815E+02 0.  0.
         23    2    1    2    0    0  0.53635559526E+02  0.10914645725E+03  0.19021680412E+03  0.24468103377E+03  0.94322072402E+02 0.  0.
        -11    1    4    4    0    0  0.67735814416E+02  0.51386374328E+02  0.15151055286E+03  0.17373585597E+03  0.00000000000E+00 0.  1.
         11    1    4    4    0    0 -0.14100254890E+02  0.57760082919E+02  0.38706251261E+02  0.70945177802E+02  0.00000000000E+00 0. -1.
        -13    1    3    3    0    0 -0.16106796595E+02  0.17475203489E+02  0.39400756755E+02  0.46013381384E+02  0.00000000000E+00 0.  1.
         13    1    3    3    0    0 -0.10678960460E+03 -0.87080779404E+02  0.53297927397E+03  0.55050339533E+03  0.00000000000E+00 0. -1.
         21    1    1    2  503  501  0.50315866423E+01 -0.29269572738E+02  0.36818066928E+01  0.29926250231E+02  0.00000000000E+00 0. -1.
          1    1    1    2  501    0  0.64229255030E+02 -0.10271308593E+02  0.36126042103E+02  0.74404219638E+02  0.00000000000E+00 0. -1.
<scales pt_clust_5="13000.00000" pt_clust_6="13000.00000" pt_clust_7="13000.00000" pt_clust_8="13000.00000" pt_clust_9="29.69890" pt_clust_10="68.80480"></scales>
<clustering>
<clus scale="   29.699">  2  9  1 -1</clus>
<clus scale="   68.805">  2 10  1 -1</clus>
<clus scale="   90.912">  7  8 -1 -1</clus>
<clus scale="   94.322">  5  6 -1 -1</clus>
<clus scale="  158.984">  1  7  2 -1</clus>
<clus scale="   29.699">  2  5  1 -1</clus>
</clustering>
</event>
<event>
10    2  0.1671105E-006  0.3477386E+03  0.7546771E-02  0.1063653E+00
          2   -1    0    0  503    0 -0.00000000000E+00  0.00000000000E+00  0.57671357723E+03  0.57671357723E+03  0.00000000000E+00 0. -1.
         21   -1    0    0  501  502  0.00000000000E+00 -0.00000000000E+00 -0.49225193187E+03  0.49225193187E+03  0.00000000000E+00 0. -1.
         23    2    1    2    0    0 -0.25221724410E+03  0.16169857319E+03  0.61766195579E+02  0.31885598655E+03  0.89967274347E+02 0.  0.
         23    2    1    2    0    0  0.36836937833E+03 -0.16136982112E+03 -0.53854001916E+02  0.41646481928E+03  0.93842815997E+02 0.  0.
        -11    1    4    4    0    0  0.34345131488E+03 -0.12296811227E+03 -0.61810806009E+02  0.37000072712E+03  0.00000000000E+00 0. -1.
         11    1    4    4    0    0  0.24918063448E+02 -0.38401708853E+02  0.79568040930E+01  0.46464092160E+02  0.00000000000E+00 0.  1.
        -13    1    3    3    0    0  0.19728364717E+01  0.23251180768E+02  0.58383096374E+01  0.24054009027E+02  0.00000000000E+00 0.  1.
         13    1    3    3    0    0 -0.25419008057E+03  0.13844739242E+03  0.55927885942E+02  0.29480197753E+03  0.00000000000E+00 0. -1.
         21    1    1    2  503  502 -0.12682961715E+03 -0.13021659821E+03 -0.14115092286E+01  0.18178038012E+03  0.00000000000E+00 0.  1.
          2    1    1    2  501    0  0.10677482920E+02  0.12988784615E+03  0.77960960922E+02  0.15186432315E+03  0.00000000000E+00 0. -1.
<scales pt_clust_5="13000.00000" pt_clust_6="13000.00000" pt_clust_7="13000.00000" pt_clust_8="13000.00000" pt_clust_9="162.41741" pt_clust_10="130.32605"></scales>
<clustering>
<clus scale="   89.967">  7  8 -1 -1</clus>
<clus scale="   93.843">  5  6 -1 -1</clus>
<clus scale="  130.326">  2 10  1 -1</clus>
<clus scale="  162.417">  2  9  1 -1</clus>
<clus scale="  346.713">  1  7  2 -1</clus>
<clus scale="  130.326">  2  5  1 -1</clus>
</clustering>
</event>
<event>
10    2  0.1671105E-006  0.1571841E+03  0.7546771E-02  0.1207134E+00
         21   -1    0    0  503  502  0.00000000000E+00  0.00000000000E+00  0.90746467491E+03  0.90746467491E+03  0.00000000000E+00 0. -1.
          1   -1    0    0  502    0 -0.00000000000E+00 -0.00000000000E+00 -0.77742697670E+02  0.77742697670E+02  0.00000000000E+00 0. -1.
         23    2    1    2    0    0 -0.68092631257E+02  0.22925716437E+01  0.40571615203E+03  0.42113335331E+03  0.90032454913E+02 0.  0.
         23    2    1    2    0    0  0.65882619928E+02  0.12575866867E+03  0.65866914010E+02  0.18113749029E+03  0.91195272210E+02 0.  0.
        -11    1    3    3    0    0  0.47298239512E+01  0.20952622287E+02  0.24530725560E+02  0.32605829415E+02  0.00000000000E+00 0.  1.
         11    1    3    3    0    0 -0.72822455208E+02 -0.18660050644E+02  0.38118542647E+03  0.38852752390E+03  0.00000000000E+00 0. -1.
        -13    1    4    4    0    0  0.76179521128E+02  0.66069496562E+02  0.66088786970E+02  0.12056627048E+03  0.00000000000E+00 0.  1.
         13    1    4    4    0    0 -0.10296901200E+02  0.59689172107E+02 -0.22187296035E+00  0.60571219806E+02  0.00000000000E+00 0. -1.
         21    1    1    2  503  501 -0.38684431340E+01 -0.35250973175E+02  0.16241686390E+03  0.16624329653E+03  0.00000000000E+00 0. -1.
          1    1    1    2  501    0  0.60784544628E+01 -0.92800267138E+02  0.19572204730E+03  0.21669323245E+03  0.00000000000E+00 0. -1.
<scales pt_clust_5="13000.00000" pt_clust_6="13000.00000" pt_clust_7="13000.00000" pt_clust_8="13000.00000" pt_clust_9="27.44218" pt_clust_10="135.51814"></scales>
<clustering>
<clus scale="   27.442">  9 10 -1 -1</clus>
<clus scale="   90.032">  5  6 -1 -1</clus>
<clus scale="   91.195">  7  8 -1 -1</clus>
<clus scale="  112.906">  2  5  1 -1</clus>
<clus scale="  135.518">  1  9  2 -1</clus>
<clus scale="  135.518">  1  5  2 -1</clus>
</clustering>
</event>
<event>
10    2  0.1671105E-006  0.1122353E+03  0.7546771E-02  0.1257552E+00
         21   -1    0    0  501  502  0.00000000000E+00  0.00000000000E+00  0.20640793050E+03  0.20640793050E+03  0.00000000000E+00 0. -1.
          4   -1    0    0  503    0 -0.00000000000E+00 -0.00000000000E+00 -0.31763757095E+03  0.31763757095E+03  0.00000000000E+00 0. -1.
         23    2    1    2    0    0 -0.64061562548E+02  0.38263462917E+01 -0.23770438446E+03  0.26218063427E+03  0.90093206586E+02 0.  0.
         23    2    1    2    0    0  0.56780862978E+02 -0.10785690794E+02 -0.48398899422E+00  0.10943852768E+03  0.92930939779E+02 0.  0.
        -13    1    4    4    0    0  0.55591163727E+02  0.33175774711E+02  0.58731286010E+01  0.65003870282E+02  0.00000000000E+00 0. -1.
         13    1    4    4    0    0  0.11896992516E+01 -0.43961465504E+02 -0.63571175952E+01  0.44434657394E+02  0.00000000000E+00 0.  1.
        -13    1    3    3    0    0 -0.79800916473E+02 -0.90649789185E+01 -0.22315773564E+03  0.23717026603E+03  0.00000000000E+00 0. -1.
         13    1    3    3    0    0  0.15739353924E+02  0.12891325210E+02 -0.14546648819E+02  0.25010368240E+02  0.00000000000E+00 0.  1.
         21    1    1    2  503  502  0.43487249959E+02  0.11895163801E+02  0.88820219993E+02  0.99607566532E+02  0.00000000000E+00 0. -1.
          4    1    1    2  501    0 -0.36206550389E+02 -0.49358192986E+01  0.38138513015E+02  0.52818772971E+02  0.00000000000E+00 0. -1.
<scales pt_clust_5="13000.00000" pt_clust_6="13000.00000" pt_clust_7="13000.00000" pt_clust_8="13000.00000" pt_clust_9="24.04103" pt_clust_10="36.54144"></scales>
<clustering>
<clus scale="   36.541">  1 10  2 -1</clus>
<clus scale="   24.041">  1  9  2 -1</clus>
<clus scale="   90.093">  7  8 -1 -1</clus>
<clus scale="   92.931">  5  6 -1 -1</clus>
<clus scale="  109.897">  2  7  1 -1</clus>
<clus scale="   36.541">  1  5  2 -1</clus>
</clustering>
</event>
<event>
10    2  0.1671105E-006  0.1433613E+03  0.7546771E-02  0.1209760E+00
         21   -1    0    0  501  502  0.00000000000E+00  0.00000000000E+00  0.10634151620E+04  0.10634151620E+04  0.00000000000E+00 0. -1.
         -3   -1    0    0    0  501 -0.00000000000E+00 -0.00000000000E+00 -0.41903482155E+02  0.41903482155E+02  0.00000000000E+00 0.  1.
         23    2    1    2    0    0 -0.14157411773E+02 -0.73005304497E+02  0.35413715888E+03  0.37329782071E+03  0.91694759132E+02 0.  0.
         23    2    1    2    0    0 -0.47892748476E+02  0.15337961612E+03  0.50328164683E+03  0.53691814967E+03  0.95758349031E+02 0.  0.
        -11    1    3    3    0    0 -0.35543884387E+02 -0.85635598955E+02  0.26435955764E+03  0.28014781677E+03  0.00000000000E+00 0. -1.
         11    1    3    3    0    0  0.21386472615E+02  0.12630294458E+02  0.89777601237E+02  0.93150003933E+02  0.00000000000E+00 0.  1.
        -11    1    4    4    0    0 -0.17803343228E+02  0.12333299114E+03  0.45863416911E+03  0.47526128267E+03  0.00000000000E+00 0. -1.
         11    1    4    4    0    0 -0.30089405247E+02  0.30046624981E+02  0.44647477724E+02  0.61656866998E+02  0.00000000000E+00 0.  1.
         21    1    1    2  503  502  0.48537639256E+02 -0.40781677195E+02  0.10605567820E+03  0.12355911337E+03  0.00000000000E+00 0.  1.
         -3    1    1    2    0  503  0.13512520992E+02 -0.39592634426E+02  0.58037195960E+02  0.71543560432E+02  0.00000000000E+00 0.  1.
<scales pt_clust_5="13000.00000" pt_clust_6="13000.00000" pt_clust_7="13000.00000" pt_clust_8="13000.00000" pt_clust_9="23.37979" pt_clust_10="105.53953"></scales>
<clustering>
<clus scale="   23.380">  9 10 -1 -1</clus>
<clus scale="   91.695">  5  6 -1 -1</clus>
<clus scale="   95.758">  7  8 -1 -1</clus>
<clus scale="  105.540">  1  9  2 -1</clus>
<clus scale="  140.680">  2  5  1 -1</clus>
<clus scale="  105.540">  1  5  2 -1</clus>
</clustering>
</event>
<event>
10    2  0.1671105E-006  0.9671231E+02  0.7546771E-02  0.1288445E+00
         21   -1    0    0  503  502  0.00000000000E+00  0.00000000000E+00  0.19456167842E+03  0.19456167842E+03  0.00000000000E+00 0. -1.
          1   -1    0    0  502    0 -0.00000000000E+00 -0.00000000000E+00 -0.13167249180E+03  0.13167249180E+03  0.00000000000E+00 0. -1.
         23    2    1    2    0    0  0.16014085800E+02 -0.70542584019E+02 -0.95214374902E+01  0.11739972294E+03  0.91974616452E+02 0.  0.
         23    2    1    2    0    0 -0.41156184509E+01 -0.13499148066E+02  0.13994873673E+02  0.92100162170E+02  0.89930073217E+02 0.  0.
        -11    1    4    4    0    0 -0.14099646090E+02  0.33453593897E+02 -0.11061973317E+02  0.37951419185E+02  0.00000000000E+00 0.  1.
         11    1    4    4    0    0  0.99840276388E+01 -0.46952741963E+02  0.25056846990E+02  0.54148742985E+02  0.00000000000E+00 0. -1.
        -11    1    3    3    0    0 -0.29882064782E+02 -0.20379978660E+01 -0.17277803111E+02  0.34577647567E+02  0.00000000000E+00 0.  1.
         11    1    3    3    0    0  0.45896150582E+02 -0.68504586153E+02  0.77563656208E+01  0.82822075377E+02  0.00000000000E+00 0. -1.
         21    1    1    2  503  501 -0.27081566879E+02  0.18261267034E+02  0.26495872455E+02  0.42058487793E+02  0.00000000000E+00 0. -1.
          1    1    1    2  501    0  0.15183099530E+02  0.65780465051E+02  0.31919877979E+02  0.74675797309E+02  0.00000000000E+00 0. -1.
<scales pt_clust_5="13000.00000" pt_clust_6="13000.00000" pt_clust_7="13000.00000" pt_clust_8="13000.00000" pt_clust_9="32.66321" pt_clust_10="72.11781"></scales>
<clustering>
<clus scale="   32.663">  1  9  2 -1</clus>
<clus scale="   72.118">  1 10  2 -1</clus>
<clus scale="   89.930">  5  6 -1 -1</clus>
<clus scale="   91.975">  7  8 -1 -1</clus>
<clus scale="   94.770">  1  5  2 -1</clus>
<clus scale="   32.663">  1  5  2 -1</clus>
</clustering>
</event>
<event>
10    2  0.1671105E-006  0.1432309E+03  0.7546771E-02  0.1213003E+00
         21   -1    0    0  503  502  0.00000000000E+00  0.00000000000E+00  0.44449618561E+02  0.44449618561E+02  0.00000000000E+00 0.  1.
          2   -1    0    0  502    0 -0.00000000000E+00 -0.00000000000E+00 -0.12329202223E+04  0.12329202223E+04  0.00000000000E+00 0. -1.
         23    2    1    2    0    0 -0.93437273357E+02 -0.25413922007E+02 -0.15453061149E+03  0.20300355541E+03  0.89187118669E+02 0.  0.
         23    2    1    2    0    0  0.52508304500E+02 -0.96130792731E+02 -0.58152231777E+03  0.59875088545E+03  0.91302603509E+02 0.  0.
        -11    1    4    4    0    0  0.61744220288E+02 -0.19445252265E+02 -0.29326986045E+03  0.30032928199E+03  0.00000000000E+00 0. -1.
         11    1    4    4    0    0 -0.92359157885E+01 -0.76685540466E+02 -0.28825245732E+03  0.29842160346E+03  0.00000000000E+00 0.  1.
        -13    1    3    3    0    0 -0.30629031341E+02 -0.24043553776E+01  0.39583501685E+01  0.30977201645E+02  0.00000000000E+00 0.  1.
         13    1    3    3    0    0 -0.62808242016E+02 -0.23009566629E+02 -0.15848896166E+03  0.17202635376E+03  0.00000000000E+00 0. -1.
         21    1    1    2  503  501  0.52931564876E+02  0.56854352144E+02 -0.19450953071E+03  0.20944719014E+03  0.00000000000E+00 0.  1.
          2    1    1    2  501    0 -0.12002596018E+02  0.64690362594E+02 -0.25790814375E+03  0.26616820985E+03  0.00000000000E+00 0. -1.
<scales pt_clust_5="13000.00000" pt_clust_6="13000.00000" pt_clust_7="13000.00000" pt_clust_8="13000.00000" pt_clust_9="65.59493" pt_clust_10="131.37311"></scales>
<clustering>
<clus scale="   65.595">  9 10 -1 -1</clus>
<clus scale="   89.187">  7  8 -1 -1</clus>
<clus scale="   91.303">  5  6 -1 -1</clus>
<clus scale="  131.646">  2  7  1 -1</clus>
<clus scale="  131.373">  1  9  2 -1</clus>
<clus scale="  131.373">  1  5  2 -1</clus>
</clustering>
</event>
<event>
10    2  0.1671105E-006  0.2862374E+03  0.7546771E-02  0.1092360E+00
         21   -1    0    0  501  502  0.00000000000E+00  0.00000000000E+00  0.16924734135E+03  0.16924734135E+03  0.00000000000E+00 0. -1.
          1   -1    0    0  503    0 -0.00000000000E+00 -0.00000000000E+00 -0.15127948335E+04  0.15127948335E+04  0.00000000000E+00 0. -1.
         23    2    1    2    0    0 -0.16716601259E+03 -0.21690445301E+03 -0.10054318708E+04  0.10458887849E+04  0.89432019568E+02 0.  0.
         23    2    1    2    0    0  0.73851694731E+02  0.27137418035E+03 -0.33720030585E+03  0.44825269090E+03  0.90157695472E+02 0.  0.
        -11    1    4    4    0    0  0.55955533419E+02  0.21107595486E+03 -0.31125104323E+03  0.38021216755E+03  0.00000000000E+00 0. -1.
         11    1    4    4    0    0  0.17896161312E+02  0.60298225489E+02 -0.25949262626E+02  0.68040523350E+02  0.00000000000E+00 0.  1.
        -13    1    3    3    0    0 -0.83591091230E+02 -0.61027848516E+02 -0.26186838525E+03  0.28157933167E+03  0.00000000000E+00 0.  1.
         13    1    3    3    0    0 -0.83574921364E+02 -0.15587660449E+03 -0.74356348557E+03  0.76430945328E+03  0.00000000000E+00 0. -1.
         21    1    1    2  503  502  0.16761242069E+02 -0.97599983388E+02  0.91916617967E+01  0.99454424937E+02  0.00000000000E+00 0.  1.
          1    1    1    2  501    0  0.76553075794E+02  0.43130256044E+02 -0.10106977237E+02  0.88446274024E+02  0.00000000000E+00 0. -1.
<scales pt_clust_5="13000.00000" pt_clust_6="13000.00000" pt_clust_7="13000.00000" pt_clust_8="13000.00000" pt_clust_9="93.32192" pt_clust_10="87.86690"></scales>
<clustering>
<clus scale="   87.867">  1 10  2 -1</clus>
<clus scale="   89.432">  7  8 -1 -1</clus>
<clus scale="   90.158">  5  6 -1 -1</clus>
<clus scale="   93.322">  1  9  2 -1</clus>
<clus scale="  286.010">  2  7  1 -1</clus>
<clus scale="   87.867">  1  5  2 -1</clus>
</clustering>
</event>
<event>
10    2  0.1671105E-006  0.2493274E+03  0.7546771E-02  0.1151513E+00
          4   -1    0    0  502    0 -0.00000000000E+00  0.00000000000E+00  0.18585878426E+03  0.18585878426E+03  0.00000000000E+00 0. -1.
         21   -1    0    0  503  502  0.00000000000E+00 -0.00000000000E+00 -0.70414822110E+03  0.70414822110E+03  0.00000000000E+00 0. -1.
         23    2    1    2    0    0  0.29495546003E+02 -0.18039730597E+02  0.68318671601E+02  0.12027354375E+03  0.92751632449E+02 0.  0.
         23    2    1    2    0    0  0.14593756199E+03 -0.15591255170E+03 -0.20931837415E+03  0.31239054338E+03  0.90372418683E+02 0.  0.
        -11    1    4    4    0    0  0.10505367463E+03 -0.13497368523E+03 -0.11107920330E+03  0.20394303044E+03  0.00000000000E+00 0. -1.
         11    1    4    4    0    0  0.40883887362E+02 -0.20938866475E+02 -0.98239170845E+02  0.10844751294E+03  0.00000000000E+00 0.  1.
        -13    1    3    3    0    0 -0.18405693250E+02 -0.41675743496E+02  0.30520448278E+02  0.54837349526E+02  0.00000000000E+00 0. -1.
         13    1    3    3    0    0  0.47901239252E+02  0.23636012899E+02  0.37798223324E+02  0.65436194221E+02  0.00000000000E+00 0.  1.
         21    1    1    2  503  501 -0.35109452564E+02  0.11906603573E+02 -0.10140368062E+03  0.10796826993E+03  0.00000000000E+00 0. -1.
          4    1    1    2  501    0 -0.14032365543E+03  0.16204567873E+03 -0.27588605368E+03  0.34937464831E+03  0.00000000000E+00 0. -1.
<scales pt_clust_5="13000.00000" pt_clust_6="13000.00000" pt_clust_7="13000.00000" pt_clust_8="13000.00000" pt_clust_9="31.61413" pt_clust_10="244.49088"></scales>
<clustering>
<clus scale="   31.614">  9 10 -1 -1</clus>
<clus scale="   90.372">  5  6 -1 -1</clus>
<clus scale="   92.752">  7  8 -1 -1</clus>
<clus scale="   98.986">  1  7  2 -1</clus>
<clus scale="  244.491">  2  9  1 -1</clus>
<clus scale="  244.491">  2  5  1 -1</clus>
</clustering>
</event>
<event>
10    2  0.1671105E-006  0.1729598E+03  0.7546771E-02  0.1174811E+00
          1   -1    0    0  502    0 -0.00000000000E+00  0.00000000000E+00  0.25840225974E+03  0.25840225974E+03  0.00000000000E+00 0. -1.
         21   -1    0    0  503  502  0.00000000000E+00 -0.00000000000E+00 -0.49669461813E+03  0.49669461813E+03  0.00000000000E+00 0.  1.
         23    2    1    2    0    0 -0.11368925153E+03  0.88468572480E+02  0.83022340929E+02  0.18927672247E+03  0.90449070447E+02 0.  0.
         23    2    1    2    0    0  0.51326799114E+02 -0.20272261237E+03 -0.35889928992E+03  0.42513650394E+03  0.90561850752E+02 0.  0.
        -13    1    3    3    0    0 -0.95230643623E+02  0.74085896247E+02  0.10289871499E+03  0.15857408696E+03  0.00000000000E+00 0.  1.
         13    1    3    3    0    0 -0.18458607902E+02  0.14382676233E+02 -0.19876374061E+02  0.30702635508E+02  0.00000000000E+00 0. -1.
        -13    1    4    4    0    0 -0.63286893667E+01 -0.10770488323E+03 -0.11831802600E+03  0.16012354435E+03  0.00000000000E+00 0. -1.
         13    1    4    4    0    0  0.57655488480E+02 -0.95017729139E+02 -0.24058126392E+03  0.26501295959E+03  0.00000000000E+00 0.  1.
         21    1    1    2  503  501  0.20513367260E+02  0.59423625602E+02  0.15997601136E+01  0.62885012113E+02  0.00000000000E+00 0. -1.
          1    1    1    2  501    0  0.41849085152E+02  0.54830414285E+02  0.35984830486E+02  0.77798639344E+02  0.00000000000E+00 0. -1.
<scales pt_clust_5="13000.00000" pt_clust_6="13000.00000" pt_clust_7="13000.00000" pt_clust_8="13000.00000" pt_clust_9="36.17971" pt_clust_10="135.57030"></scales>
<clustering>
<clus scale="   36.180">  9 10 -1 -1</clus>
<clus scale="   90.449">  5  6 -1 -1</clus>
<clus scale="   90.562">  7  8 -1 -1</clus>
<clus scale="  135.570">  2  9  1 -1</clus>
<clus scale="  172.901">  1  5  2 -1</clus>
<clus scale="  135.570">  2  5  1 -1</clus>
</clustering>
</event>
<event>
10    2  0.1671105E-006  0.1060992E+03  0.7546771E-02  0.1270920E+00
         21   -1    0    0  501  502  0.00000000000E+00  0.00000000000E+00  0.44050911240E+03  0.44050911240E+03  0.00000000000E+00 0.  1.
          2   -1    0    0  503    0 -0.00000000000E+00 -0.00000000000E+00 -0.59767755476E+02  0.59767755476E+02  0.00000000000E+00 0. -1.
         23    2    1    2    0    0 -0.15390553675E+01  0.53645661006E+02  0.81935678083E+02  0.13501052322E+03  0.92920182959E+02 0.  0.
         23    2    1    2    0    0  0.35946517539E+02 -0.73507572140E+01  0.12516049742E+03  0.16389246341E+03  0.99244162003E+02 0.  0.
        -11    1    3    3    0    0 -0.22229504661E+02 -0.12038813880E+02 -0.32298324547E+01  0.25485598576E+02  0.00000000000E+00 0. -1.
         11    1    3    3    0    0  0.20690449294E+02  0.65684474886E+02  0.85165510538E+02  0.10952492464E+03  0.00000000000E+00 0.  1.
        -13    1    4    4    0    0 -0.34146851929E+02  0.53826043228E+01  0.41024428005E+02  0.53646841651E+02  0.00000000000E+00 0.  1.
         13    1    4    4    0    0  0.70093369468E+02 -0.12733361537E+02  0.84136069415E+02  0.11024562175E+03  0.00000000000E+00 0. -1.
         21    1    1    2  503  502 -0.52323969669E+02 -0.34103300270E+02  0.63316996143E+02  0.88937477431E+02  0.00000000000E+00 0. -1.
          2    1    1    2  501    0  0.17916507497E+02 -0.12191603522E+02  0.11032818528E+03  0.11243640382E+03  0.00000000000E+00 0. -1.
<scales pt_clust_5="13000.00000" pt_clust_6="13000.00000" pt_clust_7="13000.00000" pt_clust_8="13000.00000" pt_clust_9="60.70111" pt_clust_10="21.67110"></scales>
<clustering>
<clus scale="   21.671">  1 10  2 -1</clus>
<clus scale="   60.701">  1  9  2 -1</clus>
<clus scale="   92.920">  5  6 -1 -1</clus>
<clus scale="   99.244">  7  8 -1 -1</clus>
<clus scale="  100.209">  2  5  1 -1</clus>
<clus scale="   21.671">  1  5  2 -1</clus>
</clustering>
</event>
<event>
10    2  0.1671105E-006  0.1413509E+03  0.7546771E-02  0.1214837E+00
         21   -1    0    0  503  502  0.00000000000E+00  0.00000000000E+00  0.45128411255E+03  0.45128411255E+03  0.00000000000E+00 0.  1.
         -1   -1    0    0    0  501 -0.00000000000E+00 -0.00000000000E+00 -0.25675015241E+03  0.25675015241E+03  0.00000000000E+00 0.  1.
         23    2    1    2    0    0  0.85169622292E+02  0.53451224978E+02 -0.12635452015E+03  0.18607746131E+03  0.92457875994E+02 0.  0.
         23    2    1    2    0    0 -0.86997452924E+01 -0.10992350557E+03 -0.23847797815E+02  0.15459519185E+03  0.10569812314E+03 0.  0.
        -11    1    3    3    0    0  0.31748422514E+02  0.45338632533E+02 -0.79381376137E+01  0.55915721947E+02  0.00000000000E+00 0. -1.
         11    1    3    3    0    0  0.53421199778E+02  0.81125924454E+01 -0.11841638254E+03  0.13016173937E+03  0.00000000000E+00 0.  1.
        -13    1    4    4    0    0  0.10096024701E+02 -0.12209893750E+03 -0.37794536993E+02  0.12821274227E+03  0.00000000000E+00 0.  1.
         13    1    4    4    0    0 -0.18795769994E+02  0.12175431922E+02  0.13946739178E+02  0.26382449580E+02  0.00000000000E+00 0. -1.
         21    1    1    2  503  501 -0.22224451546E+02  0.31619019717E+02  0.35685798972E+02  0.52603848744E+02  0.00000000000E+00 0.  1.
         -1    1    1    2    0  502 -0.54245425454E+02  0.24853260879E+02  0.30905047913E+03  0.31475776306E+03  0.00000000000E+00 0.  1.
<scales pt_clust_5="13000.00000" pt_clust_6="13000.00000" pt_clust_7="13000.00000" pt_clust_8="13000.00000" pt_clust_9="38.64827" pt_clust_10="86.53362"></scales>
<clustering>
<clus scale="   38.648">  1  9  2 -1</clus>
<clus scale="   86.534">  1 10  2 -1</clus>
<clus scale="   92.458">  5  6 -1 -1</clus>
<clus scale="  105.698">  7  8 -1 -1</clus>
<clus scale="  131.744">  2  5  1 -1</clus>
<clus scale="   38.648">  1  5  2 -1</clus>
</clustering>
</event>
<event>
10    2  0.1671105E-006  0.2017422E+03  0.7546771E-02  0.1164675E+00
         21   -1    0    0  503  502  0.00000000000E+00  0.00000000000E+00  0.32927414523E+02  0.32927414523E+02  0.00000000000E+00 0. -1.
          1   -1    0    0  502    0 -0.00000000000E+00 -0.00000000000E+00 -0.21786625654E+04  0.21786625654E+04  0.00000000000E+00 0. -1.
         23    2    1    2    0    0  0.63599125487E+02  0.79835708087E+02 -0.60490357699E+03  0.62031123512E+03  0.91973376132E+02 0.  0.
         23    2    1    2    0    0 -0.21357361484E+03 -0.37143991606E+02 -0.79689011252E+03  0.83073426674E+03  0.89956686472E+02 0.  0.
        -11    1    3    3    0    0  0.85572468588E+02  0.47360926516E+02 -0.45196898438E+03  0.46243017590E+03  0.00000000000E+00 0.  1.
         11    1    3    3    0    0 -0.21973343101E+02  0.32474781570E+02 -0.15293459261E+03  0.15788105923E+03  0.00000000000E+00 0. -1.
        -11    1    4    4    0    0 -0.19853602390E+03 -0.52438921216E+02 -0.76655330215E+03  0.79358071945E+03  0.00000000000E+00 0. -1.
         11    1    4    4    0    0 -0.15037590944E+02  0.15294929609E+02 -0.30336810368E+02  0.37153547293E+02  0.00000000000E+00 0.  1.
         21    1    1    2  503  501  0.87497162467E+02 -0.37022080057E+02 -0.47093810754E+03  0.48042594537E+03  0.00000000000E+00 0. -1.
          1    1    1    2  501    0  0.62477326889E+02 -0.56696364229E+01 -0.27300335381E+03  0.28011853266E+03  0.00000000000E+00 0. -1.
<scales pt_clust_5="13000.00000" pt_clust_6="13000.00000" pt_clust_7="13000.00000" pt_clust_8="13000.00000" pt_clust_9="20.94024" pt_clust_10="182.40569"></scales>
<clustering>
<clus scale="   20.940">  9 10 -1 -1</clus>
<clus scale="   89.957">  7  8 -1 -1</clus>
<clus scale="   91.973">  5  6 -1 -1</clus>
<clus scale="  137.396">  2  5  1 -1</clus>
<clus scale="  182.406">  1  9  2 -1</clus>
<clus scale="  182.406">  1  5  2 -1</clus>
</clustering>
</event>
<event>
10    2  0.1671105E-006  0.1513585E+03  0.7546771E-02  0.1199156E+00
          2   -1    0    0  503    0 -0.00000000000E+00  0.00000000000E+00  0.10211985680E+03  0.10211985680E+03  0.00000000000E+00 0. -1.
         21   -1    0    0  501  502  0.00000000000E+00 -0.00000000000E+00 -0.36705278262E+03  0.36705278262E+03  0.00000000000E+00 0.  1.
         23    2    1    2    0    0  0.45948842207E+02 -0.11452385520E+03 -0.61352485686E+02  0.16505031993E+03  0.90832103901E+02 0.  0.
         23    2    1    2    0    0 -0.45404348613E+02  0.11362103332E+03 -0.16811030519E+03  0.22615043164E+03  0.88947450420E+02 0.  0.
        -13    1    3    3    0    0 -0.27231799979E+02 -0.24414206824E+02 -0.87508617641E+01  0.37605877287E+02  0.00000000000E+00 0.  1.
         13    1    3    3    0    0  0.73180642186E+02 -0.90109648376E+02 -0.52601623922E+02  0.12744444264E+03  0.00000000000E+00 0. -1.
        -13    1    4    4    0    0 -0.44421216519E+02  0.74158494085E+01 -0.51963398967E+02  0.68763610520E+02  0.00000000000E+00 0.  1.
         13    1    4    4    0    0 -0.98313209403E+00  0.10620518391E+03 -0.11614690622E+03  0.15738682112E+03  0.00000000000E+00 0. -1.
         21    1    1    2  503  502 -0.33287244514E+02 -0.38177184037E+01 -0.67841209261E+01  0.34185375790E+02  0.00000000000E+00 0.  1.
          2    1    1    2  501    0  0.32742750920E+02  0.47205402803E+01 -0.28686014021E+02  0.43786512065E+02  0.00000000000E+00 0. -1.
<scales pt_clust_5="13000.00000" pt_clust_6="13000.00000" pt_clust_7="13000.00000" pt_clust_8="13000.00000" pt_clust_9="31.45792" pt_clust_10="33.08128"></scales>
<clustering>
<clus scale="   33.081">  2 10  1 -1</clus>
<clus scale="   31.458">  1  9  2 -1</clus>
<clus scale="   88.947">  7  8 -1 -1</clus>
<clus scale="   90.832">  5  6 -1 -1</clus>
<clus scale="  150.235">  2  7  1 -1</clus>
<clus scale="   33.081">  2  5  1 -1</clus>
</clustering>
</event>
<event>
10    2  0.1671105E-006  0.1244146E+03  0.7546771E-02  0.1240270E+00
          2   -1    0    0  502    0 -0.00000000000E+00  0.00000000000E+00  0.67295740434E+03  0.67295740434E+03  0.00000000000E+00 0. -1.
         21   -1    0    0  503  502  0.00000000000E+00 -0.00000000000E+00 -0.11032622217E+03  0.11032622217E+03  0.00000000000E+00 0. -1.
         23    2    1    2    0    0  0.32663714164E+02 -0.70929069033E+02  0.35140035648E+03  0.37450187127E+03  0.10330338813E+03 0.  0.
         23    2    1    2    0    0  0.69265895055E+02  0.65286891599E+02  0.25806627316E+03  0.28957064643E+03  0.90514172921E+02 0.  0.
        -11    1    4    4    0    0  0.46576705809E+01  0.66425545140E+02  0.13773464853E+03  0.15298653649E+03  0.00000000000E+00 0.  1.
         11    1    4    4    0    0  0.64608224474E+02 -0.11386535415E+01  0.12033162463E+03  0.13658410994E+03  0.00000000000E+00 0. -1.
        -11    1    3    3    0    0 -0.60005667931E+01 -0.19120652626E+02  0.31305499375E+01  0.20283158077E+02  0.00000000000E+00 0.  1.
         11    1    3    3    0    0  0.38664280957E+02 -0.51808416407E+02  0.34826980654E+03  0.35421871320E+03  0.00000000000E+00 0. -1.
         21    1    1    2  503  501 -0.44744971332E+02  0.10032826167E+02 -0.41087740029E+02  0.61570873318E+02  0.00000000000E+00 0. -1.
          2    1    1    2  501    0 -0.57184637886E+02 -0.43906487325E+01 -0.57477074363E+01  0.57640235489E+02  0.00000000000E+00 0. -1.
<scales pt_clust_5="13000.00000" pt_clust_6="13000.00000" pt_clust_7="13000.00000" pt_clust_8="13000.00000" pt_clust_9="35.72486" pt_clust_10="109.62540"></scales>
<clustering>
<clus scale="   35.725">  9 10 -1 -1</clus>
<clus scale="   90.514">  5  6 -1 -1</clus>
<clus scale="  103.303">  7  8 -1 -1</clus>
<clus scale="  109.625">  2  9  1 -1</clus>
<clus scale="  114.018">  2  5  1 -1</clus>
<clus scale="  109.625">  2  5  1 -1</clus>
</clustering>
</event>
<event>
10    2  0.1671105E-006  0.1314423E+03  0.7546771E-02  0.1238472E+00
         21   -1    0    0  503  502  0.00000000000E+00  0.00000000000E+00  0.14653546668E+03  0.14653546668E+03  0.00000000000E+00 0. -1.
          2   -1    0    0  502    0 -0.00000000000E+00 -0.00000000000E+00 -0.24731486106E+03  0.24731486106E+03  0.00000000000E+00 0. -1.
         23    2    1    2    0    0  0.13392559511E+02 -0.38139617232E+02 -0.89607086457E+02  0.13449061164E+03  0.91784005261E+02 0.  0.
         23    2    1    2    0    0  0.62326188107E+02 -0.52901029010E+02  0.23062362496E+02  0.12428123142E+03  0.90724193709E+02 0.  0.
        -13    1    4    4    0    0  0.51971942745E+01  0.23404599176E+02  0.15737083105E+02  0.28678247429E+02  0.00000000000E+00 0.  1.
         13    1    4    4    0    0  0.57128993832E+02 -0.76305628186E+02  0.73252793909E+01  0.95602983987E+02  0.00000000000E+00 0. -1.
        -13    1    3    3    0    0  0.40022067170E+02  0.11384450066E+01 -0.74694200530E+02  0.84748365827E+02  0.00000000000E+00 0.  1.
         13    1    3    3    0    0 -0.26629507659E+02 -0.39278062239E+02 -0.14912885928E+02  0.49742245809E+02  0.00000000000E+00 0. -1.
         21    1    1    2  503  501 -0.12306923300E+02  0.41854630825E+02 -0.33196038414E+02  0.54820137258E+02  0.00000000000E+00 0. -1.
          2    1    1    2  501    0 -0.63411824318E+02  0.49186015417E+02 -0.10386320142E+01  0.80258347431E+02  0.00000000000E+00 0. -1.
<scales pt_clust_5="13000.00000" pt_clust_6="13000.00000" pt_clust_7="13000.00000" pt_clust_8="13000.00000" pt_clust_9="40.73549" pt_clust_10="109.99392"></scales>
<clustering>
<clus scale="   40.735">  9 10 -1 -1</clus>
<clus scale="   90.724">  5  6 -1 -1</clus>
<clus scale="   91.784">  7  8 -1 -1</clus>
<clus scale="  100.291">  2  7  1 -1</clus>
<clus scale="  109.994">  1  9  2 -1</clus>
<clus scale="  109.994">  1  5  2 -1</clus>
</clustering>
</event>
<event>
10    2  0.1671105E-006  0.2580509E+03  0.7546771E-02  0.1110078E+00
         -4   -1    0    0    0  501 -0.00000000000E+00  0.00000000000E+00  0.14967251592E+03  0.14967251592E+03  0.00000000000E+00 0.  1.
         21   -1    0    0  501  502  0.00000000000E+00 -0.00000000000E+00 -0.12970627268E+04  0.12970627268E+04  0.00000000000E+00 0.  1.
         23    2    1    2    0    0 -0.64577193541E+02 -0.22071911295E+03 -0.25910958898E+03  0.35779109819E+03  0.89384283276E+02 0.  0.
         23    2    1    2    0    0  0.27762484715E+03  0.92054928786E+02 -0.23911003833E+03  0.38909071996E+03  0.93103771479E+02 0.  0.
        -11    1    4    4    0    0  0.22059905451E+03  0.10222174142E+03 -0.16005503815E+03  0.29108562745E+03  0.00000000000E+00 0.  1.
         11    1    4    4    0    0  0.57025792636E+02 -0.10166812639E+02 -0.79055000177E+02  0.98005092510E+02  0.00000000000E+00 0. -1.
        -13    1    3    3    0    0  0.20002197789E+00 -0.12435547830E+03 -0.17380639453E+03  0.21371239499E+03  0.00000000000E+00 0.  1.
         13    1    3    3    0    0 -0.64777215519E+02 -0.96363634647E+02 -0.85303194448E+02  0.14407870320E+03  0.00000000000E+00 0. -1.
         21    1    1    2  503  502 -0.32601764585E+02 -0.89553807532E+01 -0.10321219926E+03  0.10860861832E+03  0.00000000000E+00 0.  1.
         -4    1    1    2    0  503 -0.18044588902E+03  0.13761956491E+03 -0.54595838427E+03  0.59124480621E+03  0.00000000000E+00 0.  1.
<scales pt_clust_5="13000.00000" pt_clust_6="13000.00000" pt_clust_7="13000.00000" pt_clust_8="13000.00000" pt_clust_9="30.94746" pt_clust_10="253.67409"></scales>
<clustering>
<clus scale="   30.947">  9 10 -1 -1</clus>
<clus scale="   89.384">  7  8 -1 -1</clus>
<clus scale="   93.104">  5  6 -1 -1</clus>
<clus scale="  246.732">  1  7  2 -1</clus>
<clus scale="  253.674">  2  9  1 -1</clus>
<clus scale="  253.674">  2  5  1 -1</clus>
</clustering>
</event>
<event>
10    2  0.1671105E-006  0.2813578E+03  0.7546771E-02  0.1107352E+00
          1   -1    0    0  502    0 -0.00000000000E+00  0.00000000000E+00  0.32829948238E+03  0.32829948238E+03  0.00000000000E+00 0. -1.
         21   -1    0    0  503  502  0.00000000000E+00 -0.00000000000E+00 -0.84714094213E+03  0.84714094213E+03  0.00000000000E+00 0. -1.
         23    2    1    2    0    0 -0.20511270578E+02 -0.18185546125E+03  0.84887747451E+02  0.22102651858E+03  0.90303218340E+02 0.  0.
         23    2    1    2    0    0 -0.16083646280E+03  0.34293906728E+03 -0.12440433125E+03  0.40852141047E+03  0.89093959079E+02 0.  0.
        -13    1    4    4    0    0 -0.15277812537E+03  0.27188198285E+03 -0.12754434704E+03  0.33693994814E+03  0.00000000000E+00 0. -1.
         13    1    4    4    0    0 -0.80583374241E+01  0.71057084435E+02  0.31400157870E+01  0.71581462332E+02  0.00000000000E+00 0.  1.
        -13    1    3    3    0    0  0.35256030052E+02 -0.77426506392E+02  0.27090426329E+02  0.89284616513E+02  0.00000000000E+00 0.  1.
         13    1    3    3    0    0 -0.55767300630E+02 -0.10442895486E+03  0.57797321122E+02  0.13174190207E+03  0.00000000000E+00 0. -1.
         21    1    1    2  503  501  0.57274123536E+02 -0.68864143931E+00 -0.12829094505E+03  0.14049685419E+03  0.00000000000E+00 0. -1.
          1    1    1    2  501    0  0.12407360984E+03 -0.16039496459E+03 -0.35103393089E+03  0.40539564127E+03  0.00000000000E+00 0. -1.
<scales pt_clust_5="13000.00000" pt_clust_6="13000.00000" pt_clust_7="13000.00000" pt_clust_8="13000.00000" pt_clust_9="51.55912" pt_clust_10="51.55912"></scales>
<clustering>
<clus scale="   51.559">  9 10 -1 -1</clus>
<clus scale="   89.094">  5  6 -1 -1</clus>
<clus scale="   90.303">  7  8 -1 -1</clus>
<clus scale="  204.075">  1  7  2 -1</clus>
<clus scale="  278.727">  1  5  2 -1</clus>
<clus scale="  281.358">  2  5  1 -1</clus>
</clustering>
</event>
<event>
10    2  0.1671105E-006  0.1197889E+03  0.7546771E-02  0.1243707E+00
         21   -1    0    0  501  502  0.00000000000E+00  0.00000000000E+00  0.58494653230E+02  0.58494653230E+02  0.00000000000E+00 0. -1.
          1   -1    0    0  503    0 -0.00000000000E+00 -0.00000000000E+00 -0.47975614912E+03  0.47975614912E+03  0.00000000000E+00 0. -1.
         23    2    1    2    0    0 -0.15521085194E+02 -0.68667327152E+02 -0.18442458511E+03  0.21745032401E+03  0.91192707586E+02 0.  0.
         23    2    1    2    0    0 -0.31323922145E+02  0.92352905606E+02 -0.13620000946E+03  0.19033239806E+03  0.90364439362E+02 0.  0.
        -13    1    3    3    0    0 -0.35447172188E+02 -0.52154712169E+02 -0.49778920517E+02  0.80340257315E+02  0.00000000000E+00 0. -1.
         13    1    3    3    0    0  0.19926086993E+02 -0.16512614982E+02 -0.13464566459E+03  0.13711006670E+03  0.00000000000E+00 0.  1.
        -13    1    4    4    0    0 -0.21504945918E+02 -0.14290916437E+02 -0.24734591827E+02  0.35756020813E+02  0.00000000000E+00 0.  1.
         13    1    4    4    0    0 -0.98189762267E+01  0.10664382204E+03 -0.11146541763E+03  0.15457637724E+03  0.00000000000E+00 0. -1.
         21    1    1    2  503  502  0.25503397911E+02 -0.24894101554E+02 -0.95356736747E+01  0.36892664171E+02  0.00000000000E+00 0. -1.
          1    1    1    2  501    0  0.21341609428E+02  0.12085231000E+01 -0.91101227648E+02  0.93575416109E+02  0.00000000000E+00 0. -1.
<scales pt_clust_5="13000.00000" pt_clust_6="13000.00000" pt_clust_7="13000.00000" pt_clust_8="13000.00000" pt_clust_9="39.26696" pt_clust_10="21.37581"></scales>
<clustering>
<clus scale="   21.376">  1 10  2 -1</clus>
<clus scale="   39.267">  1  9  2 -1</clus>
<clus scale="   90.364">  7  8 -1 -1</clus>
<clus scale="   91.193">  5  6 -1 -1</clus>
<clus scale="  119.160">  1  7  2 -1</clus>
<clus scale="   21.376">  1  5  2 -1</clus>
</clustering>
</event>
<event>
10    2  0.1671105E-006  0.1055596E+03  0.7546771E-02  0.1269072E+00
         21   -1    0    0  503  502  0.00000000000E+00  0.00000000000E+00  0.10858905787E+03  0.10858905787E+03  0.00000000000E+00 0. -1.
         -2   -1    0    0    0  501 -0.00000000000E+00 -0.00000000000E+00 -0.20860225684E+03  0.20860225684E+03  0.00000000000E+00 0.  1.
         23    2    1    2    0    0 -0.53574974140E+02  0.60903562861E+02 -0.87179347252E+02  0.15059810205E+03  0.92195596051E+02 0.  0.
         23    2    1    2    0    0  0.29203460404E+02 -0.18941180994E+02  0.31685570408E+01  0.98486976670E+02  0.92076242229E+02 0.  0.
        -13    1    3    3    0    0 -0.57118586941E+02  0.25977360517E+02 -0.70837170184E+01  0.63146934053E+02  0.00000000000E+00 0. -1.
         13    1    3    3    0    0  0.35436128008E+01  0.34926202345E+02 -0.80095630233E+02  0.87451167999E+02  0.00000000000E+00 0.  1.
        -13    1    4    4    0    0  0.21648628934E+02  0.36005974166E+02 -0.54224161267E+01  0.42361490850E+02  0.00000000000E+00 0.  1.
         13    1    4    4    0    0  0.75548314691E+01 -0.54947155159E+02  0.85909731676E+01  0.56125485821E+02  0.00000000000E+00 0. -1.
         21    1    1    2  503  501  0.32256155593E+02 -0.21262998473E+02 -0.22895112666E+02  0.44908360710E+02  0.00000000000E+00 0. -1.
         -2    1    1    2    0  502 -0.78846418567E+01 -0.20699383395E+02  0.68927039162E+01  0.23197875278E+02  0.00000000000E+00 0.  1.
<scales pt_clust_5="13000.00000" pt_clust_6="13000.00000" pt_clust_7="13000.00000" pt_clust_8="13000.00000" pt_clust_9="39.28220" pt_clust_10="22.15022"></scales>
<clustering>
<clus scale="   22.150">  1 10  2 -1</clus>
<clus scale="   39.282">  2  9  1 -1</clus>
<clus scale="   92.076">  7  8 -1 -1</clus>
<clus scale="   92.196">  5  6 -1 -1</clus>
<clus scale="  105.455">  1  7  2 -1</clus>
<clus scale="   22.150">  1  5  2 -1</clus>
</clustering>
</event>
<event>
10    2  0.1671105E-006  0.1984886E+03  0.7546771E-02  0.1174046E+00
         21   -1    0    0  503  502  0.00000000000E+00  0.00000000000E+00  0.14274167609E+04  0.14274167609E+04  0.00000000000E+00 0. -1.
         -1   -1    0    0    0  501 -0.00000000000E+00 -0.00000000000E+00 -0.11366389270E+03  0.11366389270E+03  0.00000000000E+00 0.  1.
         23    2    1    2    0    0  0.51770993836E+02 -0.12619181083E+02 -0.21961872706E+02  0.10813262776E+03  0.91492413896E+02 0.  0.
         23    2    1    2    0    0 -0.20989954266E+03 -0.11762777787E+03  0.49298683187E+03  0.55707663832E+03  0.96975524857E+02 0.  0.
        -11    1    4    4    0    0 -0.92214289626E+02  0.11037077863E+01  0.17158971092E+03  0.19480175122E+03  0.00000000000E+00 0.  1.
         11    1    4    4    0    0 -0.11768525304E+03 -0.11873148566E+03  0.32139712095E+03  0.36227488710E+03  0.00000000000E+00 0. -1.
        -13    1    3    3    0    0  0.46390957336E+02  0.21538469457E+02 -0.43712805461E+02  0.67281765364E+02  0.00000000000E+00 0.  1.
         13    1    3    3    0    0  0.53800364996E+01 -0.34157650540E+02  0.21750932755E+02  0.40850862401E+02  0.00000000000E+00 0. -1.
         21    1    1    2  503  501  0.31269405026E+02  0.37603179340E+02  0.59373644061E+02  0.76922067031E+02  0.00000000000E+00 0.  1.
         -1    1    1    2    0  502  0.12685914380E+03  0.92643779617E+02  0.78335426496E+03  0.79894932048E+03  0.00000000000E+00 0.  1.
<scales pt_clust_5="13000.00000" pt_clust_6="13000.00000" pt_clust_7="13000.00000" pt_clust_8="13000.00000" pt_clust_9="48.90577" pt_clust_10="173.18629"></scales>
<clustering>
<clus scale="   48.906">  2  9  1 -1</clus>
<clus scale="   91.492">  7  8 -1 -1</clus>
<clus scale="   96.976">  5  6 -1 -1</clus>
<clus scale="  116.402">  2  7  1 -1</clus>
<clus scale="  173.186">  1 10  2 -1</clus>
<clus scale="  173.186">  1  5  2 -1</clus>
</clustering>
</event>
<event>
10    2  0.1671105E-006  0.1245260E+03  0.7546771E-02  0.1236819E+00
         21   -1    0    0  503  502  0.00000000000E+00  0.00000000000E+00  0.46871149765E+02  0.46871149765E+02  0.00000000000E+00 0. -1.
          2   -1    0    0  502    0 -0.00000000000E+00 -0.00000000000E+00 -0.70425286262E+03  0.70425286262E+03  0.00000000000E+00 0. -1.
         23    2    1    2    0    0  0.24947170012E+02 -0.70088385587E+02 -0.33129926666E+03  0.35109117013E+03  0.89280807410E+02 0.  0.
         23    2    1    2    0    0 -0.97621158750E+02  0.62919458156E+02 -0.23956428300E+03  0.28191489866E+03  0.92715778285E+02 0.  0.
        -11    1    3    3    0    0 -0.30756290679E+02 -0.93070549459E+01 -0.68491544838E+02  0.75654890142E+02  0.00000000000E+00 0.  1.
         11    1    3    3    0    0  0.55703460690E+02 -0.60781330641E+02 -0.26280772182E+03  0.27543627999E+03  0.00000000000E+00 0. -1.
        -13    1    4    4    0    0 -0.28088532081E+02  0.45593391563E+02 -0.18284406360E+03  0.19052473483E+03  0.00000000000E+00 0.  1.
         13    1    4    4    0    0 -0.69532626669E+02  0.17326066594E+02 -0.56720219409E+02  0.91390163830E+02  0.00000000000E+00 0. -1.
         21    1    1    2  503  501  0.52756220247E+02 -0.90354805620E+01 -0.67600937749E+02  0.86224970097E+02  0.00000000000E+00 0. -1.
          2    1    1    2  501    0  0.19917768492E+02  0.16204407993E+02 -0.18917225445E+02  0.31892973499E+02  0.00000000000E+00 0. -1.
<scales pt_clust_5="13000.00000" pt_clust_6="13000.00000" pt_clust_7="13000.00000" pt_clust_8="13000.00000" pt_clust_9="23.31933" pt_clust_10="80.41428"></scales>
<clustering>
<clus scale="   23.319">  9 10 -1 -1</clus>
<clus scale="   80.414">  1  9  2 -1</clus>
<clus scale="   89.281">  5  6 -1 -1</clus>
<clus scale="   92.716">  7  8 -1 -1</clus>
<clus scale="  121.990">  2  5  1 -1</clus>
<clus scale="   80.414">  1  5  2 -1</clus>
</clustering>
</event>
<event>
10    2  0.1671105E-006  0.1863514E+03  0.7546771E-02  0.1161911E+00
         21   -1    0    0  501  502  0.00000000000E+00  0.00000000000E+00  0.29439152679E+03  0.29439152679E+03  0.00000000000E+00 0.  1.
          2   -1    0    0  503    0 -0.00000000000E+00 -0.00000000000E+00 -0.52728799497E+03  0.52728799497E+03  0.00000000000E+00 0.  1.
         23    2    1    2    0    0  0.10059485637E+03  0.11448507316E+03 -0.32853415804E+03  0.37338101065E+03  0.90843431314E+02 0.  0.
         23    2    1    2    0    0 -0.15327467686E+03 -0.12394618618E+03 -0.95977665236E+02  0.23692164004E+03  0.89801824376E+02 0.  0.
        -11    1    3    3    0    0  0.29224272999E+02  0.87907524919E+01 -0.13232497576E+02  0.33263109503E+02  0.00000000000E+00 0. -1.
         11    1    3    3    0    0  0.71370583371E+02  0.10569432067E+03 -0.31530166046E+03  0.34011790115E+03  0.00000000000E+00 0.  1.
        -13    1    4    4    0    0 -0.11640554091E+03 -0.93870775608E+02 -0.11187448972E+03  0.18675618843E+03  0.00000000000E+00 0.  1.
         13    1    4    4    0    0 -0.36869135955E+02 -0.30075410571E+02  0.15896824481E+02  0.50165451614E+02  0.00000000000E+00 0. -1.
         21    1    1    2  503  502  0.51387703021E+02 -0.16860420936E+02  0.79134421526E+02  0.95850020794E+02  0.00000000000E+00 0.  1.
          2    1    1    2  501    0  0.12921174714E+01  0.26321533957E+02  0.11248093357E+03  0.11552685027E+03  0.00000000000E+00 0.  1.
<scales pt_clust_5="13000.00000" pt_clust_6="13000.00000" pt_clust_7="13000.00000" pt_clust_8="13000.00000" pt_clust_9="52.17527" pt_clust_10="26.35323"></scales>
<clustering>
<clus scale="   26.353">  1 10  2 -1</clus>
<clus scale="   52.175">  1  9  2 -1</clus>
<clus scale="   89.802">  7  8 -1 -1</clus>
<clus scale="   90.843">  5  6 -1 -1</clus>
<clus scale="  185.846">  1  7  2 -1</clus>
<clus scale="   26.353">  1  5  2 -1</clus>
</clustering>
</event>
<event>
10    2  0.1671105E-006  0.1707007E+03  0.7546771E-02  0.1198223E+00
         -1   -1    0    0    0  501 -0.00000000000E+00  0.00000000000E+00  0.65910278829E+03  0.65910278829E+03  0.00000000000E+00 0.  1.
         21   -1    0    0  501  502  0.00000000000E+00 -0.00000000000E+00 -0.10423136074E+03  0.10423136074E+03  0.00000000000E+00 0.  1.
         23    2    1    2    0    0 -0.58706456425E+02  0.54289093102E+01  0.15722306275E+03  0.19267687204E+03  0.94495314578E+02 0.  0.
         23    2    1    2    0    0 -0.88820239309E+02  0.85909830361E+02  0.15844364181E+03  0.22166972604E+03  0.93613812809E+02 0.  0.
        -11    1    4    4    0    0 -0.64610168908E+02  0.71883340213E+02  0.16652905694E+03  0.19254509948E+03  0.00000000000E+00 0.  1.
         11    1    4    4    0    0 -0.24210070400E+02  0.14026490148E+02 -0.80854151294E+01  0.29124626564E+02  0.00000000000E+00 0. -1.
        -13    1    3    3    0    0 -0.72257375251E+02 -0.18146911480E+02  0.73526596773E+02  0.10467377469E+03  0.00000000000E+00 0. -1.
         13    1    3    3    0    0  0.13550918826E+02  0.23575820790E+02  0.83696465975E+02  0.88003097352E+02  0.00000000000E+00 0.  1.
         21    1    1    2  503  502  0.48502178403E+02  0.43367297840E+02  0.10832537687E+02  0.65958530188E+02  0.00000000000E+00 0.  1.
         -1    1    1    2    0  503  0.99024517331E+02 -0.13470603751E+03  0.22837218529E+03  0.28302902076E+03  0.00000000000E+00 0.  1.
<scales pt_clust_5="13000.00000" pt_clust_6="13000.00000" pt_clust_7="13000.00000" pt_clust_8="13000.00000" pt_clust_9="65.06292" pt_clust_10="142.74176"></scales>
<clustering>
<clus scale="   65.063">  2  9  1 -1</clus>
<clus scale="   93.614">  5  6 -1 -1</clus>
<clus scale="   94.495">  7  8 -1 -1</clus>
<clus scale="  106.882">  1  7  2 -1</clus>
<clus scale="  142.742">  2 10  1 -1</clus>
<clus scale="   65.063">  2  5  1 -1</clus>
</clustering>
</event>
<event>
10    2  0.1671105E-006  0.2055560E+03  0.7546771E-02  0.1170092E+00
          1   -1    0    0  503    0 -0.00000000000E+00  0.00000000000E+00  0.10891707904E+04  0.10891707904E+04  0.00000000000E+00 0. -1.
         21   -1    0    0  501  502  0.00000000000E+00 -0.00000000000E+00 -0.23200534523E+03  0.23200534523E+03  0.00000000000E+00 0. -1.
         23    2    1    2    0    0 -0.51818870912E+02 -0.38548550615E+02  0.74843683586E+02  0.13743390164E+03  0.95474154671E+02 0.  0.
         23    2    1    2    0    0 -0.75227830976E+01  0.27645374495E+03  0.69880040856E+03  0.75871295689E+03  0.10411567885E+03 0.  0.
        -11    1    4    4    0    0 -0.14373689821E+02  0.13519908525E+03  0.21255386309E+03  0.25231833133E+03  0.00000000000E+00 0.  1.
         11    1    4    4    0    0  0.68509067231E+01  0.14125465970E+03  0.48624654547E+03  0.50639462556E+03  0.00000000000E+00 0. -1.
        -13    1    3    3    0    0 -0.36132169761E+02  0.17339424343E+02 -0.31599549823E+01  0.40201674638E+02  0.00000000000E+00 0.  1.
         13    1    3    3    0    0 -0.15686701151E+02 -0.55887974958E+02  0.78003638568E+02  0.97232227002E+02  0.00000000000E+00 0. -1.
         21    1    1    2  503  502  0.72049765268E+02 -0.67325102013E+02  0.19662377513E+03  0.21996533132E+03  0.00000000000E+00 0.  1.
          1    1    1    2  501    0 -0.12708111259E+02 -0.17058009232E+03 -0.11310242209E+03  0.20506394581E+03  0.00000000000E+00 0. -1.
<scales pt_clust_5="13000.00000" pt_clust_6="13000.00000" pt_clust_7="13000.00000" pt_clust_8="13000.00000" pt_clust_9="98.60952" pt_clust_10="177.23767"></scales>
<clustering>
<clus scale="   95.474">  7  8 -1 -1</clus>
<clus scale="   98.610">  1  9  2 -1</clus>
<clus scale="  104.116">  5  6 -1 -1</clus>
<clus scale="  114.688">  1  7  2 -1</clus>
<clus scale="  177.238">  2 10  1 -1</clus>
<clus scale="  177.238">  2  5  1 -1</clus>
</clustering>
</event>
<event>
10    2  0.1671105E-006  0.1923868E+03  0.7546771E-02  0.1156412E+00
         21   -1    0    0  503  502  0.00000000000E+00  0.00000000000E+00  0.54976713712E+02  0.54976713712E+02  0.00000000000E+00 0.  1.
          1   -1    0    0  502    0 -0.00000000000E+00 -0.00000000000E+00 -0.13975563916E+04  0.13975563916E+04  0.00000000000E+00 0. -1.
         23    2    1    2    0    0  0.82268349307E+02 -0.15812239095E+03 -0.83539596847E+03  0.85909159607E+03  0.91548754737E+02 0.  0.
         23    2    1    2    0    0 -0.14146626403E+03  0.90756003981E+02 -0.41833127814E+03  0.45987221320E+03  0.90730579651E+02 0.  0.
        -11    1    3    3    0    0  0.11347709214E+02 -0.11074056130E+03 -0.38874136160E+03  0.40436628029E+03  0.00000000000E+00 0. -1.
         11    1    3    3    0    0  0.70920640093E+02 -0.47381829646E+02 -0.44665460687E+03  0.45472531578E+03  0.00000000000E+00 0.  1.
        -13    1    4    4    0    0 -0.53541697979E+02  0.46222658508E+02 -0.76826933483E+02  0.10443000187E+03  0.00000000000E+00 0.  1.
         13    1    4    4    0    0 -0.87924566051E+02  0.44533345472E+02 -0.34150434466E+03  0.35544221133E+03  0.00000000000E+00 0. -1.
         21    1    1    2  503  501  0.27681709170E+02  0.50429148897E+01 -0.14850481295E+02  0.31815794942E+02  0.00000000000E+00 0. -1.
          1    1    1    2  501    0  0.31516205553E+02  0.62323472078E+02 -0.74001949987E+02  0.10175350110E+03  0.00000000000E+00 0. -1.
<scales pt_clust_5="13000.00000" pt_clust_6="13000.00000" pt_clust_7="13000.00000" pt_clust_8="13000.00000" pt_clust_9="27.69204" pt_clust_10="99.72965"></scales>
<clustering>
<clus scale="   27.692">  9 10 -1 -1</clus>
<clus scale="   90.731">  7  8 -1 -1</clus>
<clus scale="   91.549">  5  6 -1 -1</clus>
<clus scale="   99.730">  1  9  2 -1</clus>
<clus scale="  191.999">  1  7  2 -1</clus>
<clus scale="   99.730">  1  5  2 -1</clus>
</clustering>
</event>
<event>
10    2  0.1671105E-006  0.1809898E+03  0.7546771E-02  0.1187369E+00
          1   -1    0    0  502    0 -0.00000000000E+00  0.00000000000E+00  0.11416679773E+04  0.11416679773E+04  0.00000000000E+00 0. -1.
         21   -1    0    0  503  502  0.00000000000E+00 -0.00000000000E+00 -0.57175592572E+02  0.57175592572E+02  0.00000000000E+00 0. -1.
         23    2    1    2    0    0 -0.77589020948E+01 -0.65767222432E+02  0.10843725153E+03  0.15722133105E+03  0.92597955213E+02 0.  0.
         23    2    1    2    0    0 -0.13789523451E+03  0.10035404499E+03  0.43580221321E+03  0.47621866846E+03  0.88173811918E+02 0.  0.
        -11    1    3    3    0    0  0.29367366965E+02 -0.19837402402E+00  0.58662072127E+01  0.29948188289E+02  0.00000000000E+00 0. -1.
         11    1    3    3    0    0 -0.37126269060E+02 -0.65568848408E+02  0.10257104432E+03  0.12727314276E+03  0.00000000000E+00 0.  1.
        -11    1    4    4    0    0 -0.43670893509E+02  0.88207627742E+01  0.42555879416E+02  0.61611327438E+02  0.00000000000E+00 0.  1.
         11    1    4    4    0    0 -0.94224341004E+02  0.91533282212E+02  0.39324633380E+03  0.41460734103E+03  0.00000000000E+00 0. -1.
         21    1    1    2  503  501  0.59493244560E+02  0.12617908426E+02  0.12956953724E+03  0.14313253558E+03  0.00000000000E+00 0. -1.
          1    1    1    2  501    0  0.86160892048E+02 -0.47204730981E+02  0.41068338270E+03  0.42227103473E+03  0.00000000000E+00 0. -1.
<scales pt_clust_5="13000.00000" pt_clust_6="13000.00000" pt_clust_7="13000.00000" pt_clust_8="13000.00000" pt_clust_9="57.79858" pt_clust_10="174.29669"></scales>
<clustering>
<clus scale="   57.799">  9 10 -1 -1</clus>
<clus scale="   88.174">  7  8 -1 -1</clus>
<clus scale="   92.598">  5  6 -1 -1</clus>
<clus scale="  113.842">  1  5  2 -1</clus>
<clus scale="  174.297">  2  9  1 -1</clus>
<clus scale="  174.297">  2  5  1 -1</clus>
</clustering>
</event>
<event>
10    2  0.1671105E-006  0.1108396E+03  0.7546771E-02  0.1271930E+00
         21   -1    0    0  501  502  0.00000000000E+00  0.00000000000E+00  0.71545073585E+02  0.71545073585E+02  0.00000000000E+00 0. -1.
          2   -1    0    0  503    0 -0.00000000000E+00 -0.00000000000E+00 -0.50914356736E+03  0.50914356736E+03  0.00000000000E+00 0. -1.
         23    2    1    2    0    0 -0.32923895939E+02  0.12242227177E+02 -0.22591603261E+03  0.24236721205E+03  0.80436040639E+02 0.  0.
         23    2    1    2    0    0 -0.91268788421E+01  0.27454210788E+02 -0.13847553506E+00  0.11028329392E+03  0.10642063773E+03 0.  0.
        -11    1    4    4    0    0  0.41044047145E+02  0.38182318367E+02 -0.12665413827E+02  0.57471000942E+02  0.00000000000E+00 0.  1.
         11    1    4    4    0    0 -0.50170925987E+02 -0.10728107578E+02  0.12526938292E+02  0.52812292978E+02  0.00000000000E+00 0. -1.
        -13    1    3    3    0    0  0.26900641550E+02  0.60770180921E+01 -0.67222344623E+02  0.72659605568E+02  0.00000000000E+00 0.  1.
         13    1    3    3    0    0 -0.59824537489E+02  0.61652090845E+01 -0.15869368799E+03  0.16970760648E+03  0.00000000000E+00 0. -1.
         21    1    1    2  503  502 -0.69050271987E+01 -0.35154722749E+02 -0.96080704483E+02  0.10254284815E+03  0.00000000000E+00 0. -1.
          2    1    1    2  501    0  0.48955801980E+02 -0.45417152161E+01 -0.11546328115E+03  0.12549528684E+03  0.00000000000E+00 0. -1.
<scales pt_clust_5="13000.00000" pt_clust_6="13000.00000" pt_clust_7="13000.00000" pt_clust_8="13000.00000" pt_clust_9="35.82644" pt_clust_10="49.22749"></scales>
<clustering>
<clus scale="   35.826">  2  9  1 -1</clus>
<clus scale="   49.227">  1 10  2 -1</clus>
<clus scale="   80.436">  7  8 -1 -1</clus>
<clus scale="   86.198">  2  7  1 -1</clus>
<clus scale="  106.421">  5  6 -1 -1</clus>
<clus scale="   49.227">  1  5  2 -1</clus>
</clustering>
</event>
<event>
10    2  0.1671105E-006  0.1526162E+03  0.7546771E-02  0.1219890E+00
         21   -1    0    0  501  502  0.00000000000E+00  0.00000000000E+00  0.17475806792E+03  0.17475806792E+03  0.00000000000E+00 0.  1.
         -1   -1    0    0    0  501 -0.00000000000E+00 -0.00000000000E+00 -0.31694341013E+03  0.31694341013E+03  0.00000000000E+00 0.  1.
         23    2    1    2    0    0  0.39326131723E+00 -0.23513956334E+02 -0.18067642116E+03  0.20370708736E+03  0.91101852234E+02 0.  0.
         23    2    1    2    0    0  0.11770171629E+03 -0.19412730490E+02  0.28151812185E+02  0.15310758921E+03  0.91754352593E+02 0.  0.
        -11    1    4    4    0    0  0.95486683675E+02 -0.44820154034E+02 -0.52640572828E+01  0.10561374563E+03  0.00000000000E+00 0.  1.
         11    1    4    4    0    0  0.22215032618E+02  0.25407423544E+02  0.33415869467E+02  0.47493843576E+02  0.00000000000E+00 0. -1.
        -13    1    3    3    0    0 -0.37713015885E+02 -0.32196884572E+02 -0.13369411341E+03  0.14259392309E+03  0.00000000000E+00 0.  1.
         13    1    3    3    0    0  0.38106277202E+02  0.86829282373E+01 -0.46982307754E+02  0.61113164268E+02  0.00000000000E+00 0. -1.
         21    1    1    2  503  502 -0.18641605538E+02  0.12917946018E+02 -0.15953437429E+02  0.27728955123E+02  0.00000000000E+00 0. -1.
         -1    1    1    2    0  503 -0.99453372072E+02  0.30008740806E+02  0.26292704194E+02  0.10715784635E+03  0.00000000000E+00 0.  1.
<scales pt_clust_5="13000.00000" pt_clust_6="13000.00000" pt_clust_7="13000.00000" pt_clust_8="13000.00000" pt_clust_9="22.40094" pt_clust_10="131.03926"></scales>
<clustering>
<clus scale="   22.401">  9 10 -1 -1</clus>
<clus scale="   91.102">  7  8 -1 -1</clus>
<clus scale="   91.754">  5  6 -1 -1</clus>
<clus scale="   94.088">  2  7  1 -1</clus>
<clus scale="  131.039">  1  9  2 -1</clus>
<clus scale="  131.039">  1  5  2 -1</clus>
</clustering>
</event>
<event>
10    2  0.1671105E-006  0.1453826E+03  0.7546771E-02  0.1218106E+00
         21   -1    0    0  501  502  0.00000000000E+00  0.00000000000E+00  0.73613358382E+03  0.73613358382E+03  0.00000000000E+00 0. -1.
         -3   -1    0    0    0  501 -0.00000000000E+00 -0.00000000000E+00 -0.24807266628E+03  0.24807266628E+03  0.00000000000E+00 0.  1.
         23    2    1    2    0    0 -0.32399879225E+02  0.56193185738E+02  0.32862966189E+03  0.34751605505E+03  0.92533926463E+02 0.  0.
         23    2    1    2    0    0  0.99835440757E+02 -0.14515827945E+03 -0.18593032505E+03  0.27143247272E+03  0.89819041120E+02 0.  0.
        -11    1    4    4    0    0  0.18125521331E+02 -0.91428006273E+02 -0.12603183802E+03  0.15675343393E+03  0.00000000000E+00 0.  1.
         11    1    4    4    0    0  0.81709919426E+02 -0.53730273180E+02 -0.59898487029E+02  0.11467903879E+03  0.00000000000E+00 0. -1.
        -13    1    3    3    0    0  0.30997605863E+02  0.20273983814E+02  0.75318255522E+02  0.83932863670E+02  0.00000000000E+00 0. -1.
         13    1    3    3    0    0 -0.63397485088E+02  0.35919201924E+02  0.25331140637E+03  0.26358319138E+03  0.00000000000E+00 0.  1.
         21    1    1    2  503  502 -0.28334321616E+02  0.18404601206E+02  0.61664252840E+02  0.70313890557E+02  0.00000000000E+00 0. -1.
         -3    1    1    2    0  503 -0.39101239916E+02  0.70560492509E+02  0.28369732786E+03  0.29494383178E+03  0.00000000000E+00 0.  1.
<scales pt_clust_5="13000.00000" pt_clust_6="13000.00000" pt_clust_7="13000.00000" pt_clust_8="13000.00000" pt_clust_9="26.49636" pt_clust_10="121.42851"></scales>
<clustering>
<clus scale="   26.496">  9 10 -1 -1</clus>
<clus scale="   89.819">  5  6 -1 -1</clus>
<clus scale="   92.534">  7  8 -1 -1</clus>
<clus scale="  113.004">  2  7  1 -1</clus>
<clus scale="  121.429">  1  9  2 -1</clus>
<clus scale="  121.429">  1  5  2 -1</clus>
</clustering>
</event>
<event>
10    2  0.1671105E-006  0.1265547E+03  0.7546771E-02  0.1233415E+00
          1   -1    0    0  502    0 -0.00000000000E+00  0.00000000000E+00  0.11718271680E+03  0.11718271680E+03  0.00000000000E+00 0. -1.
         21   -1    0    0  503  502  0.00000000000E+00 -0.00000000000E+00 -0.24141194872E+03  0.24141194872E+03  0.00000000000E+00 0.  1.
         23    2    1    2    0    0  0.17140939105E+02  0.71074516935E+02 -0.33757752312E+02  0.12279188746E+03  0.92697697027E+02 0.  0.
         23    2    1    2    0    0  0.38789395311E+02 -0.10599432709E+03 -0.56904014192E+02  0.15517997483E+03  0.90018571384E+02 0.  0.
        -13    1    4    4    0    0 -0.23310528102E+02 -0.28471521476E+02 -0.40127150720E+02  0.54444434797E+02  0.00000000000E+00 0. -1.
         13    1    4    4    0    0  0.62099923413E+02 -0.77522805617E+02 -0.16776863472E+02  0.10073554004E+03  0.00000000000E+00 0.  1.
        -13    1    3    3    0    0 -0.19140736947E+02  0.16910042890E+02  0.24477637463E+02  0.35376151532E+02  0.00000000000E+00 0. -1.
         13    1    3    3    0    0  0.36281676052E+02  0.54164474045E+02 -0.58235389775E+02  0.87415735929E+02  0.00000000000E+00 0.  1.
         21    1    1    2  503  501 -0.13377090375E+02  0.26231501609E+02 -0.93408279656E+01  0.30891573133E+02  0.00000000000E+00 0. -1.
          1    1    1    2  501    0 -0.42553244041E+02  0.86883085488E+01 -0.24226637456E+02  0.49731230090E+02  0.00000000000E+00 0. -1.
<scales pt_clust_5="13000.00000" pt_clust_6="13000.00000" pt_clust_7="13000.00000" pt_clust_8="13000.00000" pt_clust_9="26.37011" pt_clust_10="73.30254"></scales>
<clustering>
<clus scale="   26.370">  9 10 -1 -1</clus>
<clus scale="   73.303">  2  9  1 -1</clus>
<clus scale="   90.019">  5  6 -1 -1</clus>
<clus scale="   92.698">  7  8 -1 -1</clus>
<clus scale="  124.606">  2  5  1 -1</clus>
<clus scale="   73.303">  2  5  1 -1</clus>
</clustering>
</event>
<event>
10    2  0.1671105E-006  0.1134525E+03  0.7546771E-02  0.1254680E+00
          1   -1    0    0  502    0 -0.00000000000E+00  0.00000000000E+00  0.18408307712E+03  0.18408307712E+03  0.00000000000E+00 0. -1.
         21   -1    0    0  503  502  0.00000000000E+00 -0.00000000000E+00 -0.13903016179E+03  0.13903016179E+03  0.00000000000E+00 0.  1.
         23    2    1    2    0    0 -0.45730542311E+02  0.61506029627E+02  0.70367660553E+02  0.13838148143E+03  0.91233505741E+02 0.  0.
         23    2    1    2    0    0  0.63465739087E+02 -0.13545512781E+02  0.16767571164E+02  0.11236892567E+03  0.90190038580E+02 0.  0.
        -11    1    4    4    0    0  0.11630246595E+02 -0.36703020634E+02  0.35716451120E+02  0.52517037618E+02  0.00000000000E+00 0. -1.
         11    1    4    4    0    0  0.51835492491E+02  0.23157507853E+02 -0.18948879955E+02  0.59851888052E+02  0.00000000000E+00 0.  1.
        -13    1    3    3    0    0 -0.51059664816E+02 -0.59468040772E+01  0.27770659141E+02  0.58426563813E+02  0.00000000000E+00 0.  1.
         13    1    3    3    0    0  0.53291225050E+01  0.67452833704E+02  0.42597001412E+02  0.79954917614E+02  0.00000000000E+00 0. -1.
         21    1    1    2  503  501 -0.20889350499E+02 -0.17038489247E+02 -0.25622213315E+02  0.37191032458E+02  0.00000000000E+00 0.  1.
          1    1    1    2  501    0  0.31541537232E+01 -0.30922027599E+02 -0.16460103071E+02  0.35171799352E+02  0.00000000000E+00 0. -1.
<scales pt_clust_5="13000.00000" pt_clust_6="13000.00000" pt_clust_7="13000.00000" pt_clust_8="13000.00000" pt_clust_9="26.95691" pt_clust_10="35.05829"></scales>
<clustering>
<clus scale="   26.957">  2  9  1 -1</clus>
<clus scale="   35.058">  2 10  1 -1</clus>
<clus scale="   90.190">  5  6 -1 -1</clus>
<clus scale="   91.234">  7  8 -1 -1</clus>
<clus scale="  112.615">  2  5  1 -1</clus>
<clus scale="   26.957">  2  5  1 -1</clus>
</clustering>
</event>
<event>
10    2  0.1671105E-006  0.1454918E+03  0.7546771E-02  0.1206209E+00
         21   -1    0    0  503  502  0.00000000000E+00  0.00000000000E+00  0.15125137620E+03  0.15125137620E+03  0.00000000000E+00 0.  1.
          2   -1    0    0  502    0 -0.00000000000E+00 -0.00000000000E+00 -0.37161758346E+03  0.37161758346E+03  0.00000000000E+00 0. -1.
         23    2    1    2    0    0  0.12800467258E+03 -0.31402938081E+02 -0.27025196606E+03  0.31436155759E+03  0.91737249851E+02 0.  0.
         23    2    1    2    0    0 -0.43610413417E+02  0.48573575527E+02  0.20332029096E+02  0.11407688304E+03  0.91317487035E+02 0.  0.
        -11    1    4    4    0    0 -0.64665572188E+02  0.23923865587E+02 -0.10013089799E+02  0.69672444613E+02  0.00000000000E+00 0.  1.
         11    1    4    4    0    0  0.21055158771E+02  0.24649709940E+02  0.30345118896E+02  0.44404438424E+02  0.00000000000E+00 0. -1.
        -13    1    3    3    0    0  0.13211188139E+03 -0.35083916562E+01 -0.21607671822E+03  0.25328838539E+03  0.00000000000E+00 0. -1.
         13    1    3    3    0    0 -0.41072088104E+01 -0.27894546424E+02 -0.54175247838E+02  0.61073172201E+02  0.00000000000E+00 0.  1.
         21    1    1    2  503  501 -0.35294427725E+02  0.23020914639E+01  0.35232511535E+01  0.35544472878E+02  0.00000000000E+00 0.  1.
          2    1    1    2  501    0 -0.49099831436E+02 -0.19472728910E+02  0.26030478554E+02  0.58886046157E+02  0.00000000000E+00 0. -1.
<scales pt_clust_5="13000.00000" pt_clust_6="13000.00000" pt_clust_7="13000.00000" pt_clust_8="13000.00000" pt_clust_9="20.48173" pt_clust_10="89.68668"></scales>
<clustering>
<clus scale="   20.482">  9 10 -1 -1</clus>
<clus scale="   89.687">  1  9  2 -1</clus>
<clus scale="   91.317">  5  6 -1 -1</clus>
<clus scale="   91.737">  7  8 -1 -1</clus>
<clus scale="  145.228">  1  5  2 -1</clus>
<clus scale="   89.687">  1  5  2 -1</clus>
</clustering>
</event>
<event>
10    2  0.1671105E-006  0.2038925E+03  0.7546771E-02  0.1161779E+00
         21   -1    0    0  501  502  0.00000000000E+00  0.00000000000E+00  0.59632916507E+03  0.59632916507E+03  0.00000000000E+00 0. -1.
          1   -1    0    0  503    0 -0.00000000000E+00 -0.00000000000E+00 -0.17112459860E+03  0.17112459860E+03  0.00000000000E+00 0. -1.
         23    2    1    2    0    0 -0.11179477774E+02 -0.10463869407E+03  0.18044515937E+03  0.22955049941E+03  0.95177409184E+02 0.  0.
         23    2    1    2    0    0 -0.96732813675E+02 -0.76664291279E+02 -0.53022063698E+02  0.16265908775E+03  0.91716894785E+02 0.  0.
        -11    1    4    4    0    0 -0.69988892468E+02 -0.90555561108E+02 -0.17019771987E+02  0.11570837202E+03  0.00000000000E+00 0. -1.
         11    1    4    4    0    0 -0.26743921207E+02  0.13891269830E+02 -0.36002291711E+02  0.46950715729E+02  0.00000000000E+00 0.  1.
        -13    1    3    3    0    0  0.40721916049E+02 -0.63516002308E+02  0.10251070780E+03  0.12728315760E+03  0.00000000000E+00 0.  1.
         13    1    3    3    0    0 -0.51901393822E+02 -0.41122691762E+02  0.77934451570E+02  0.10226734181E+03  0.00000000000E+00 0. -1.
         21    1    1    2  503  502  0.26357030687E+02 -0.31895069641E+01  0.31812776462E+02  0.41435718499E+02  0.00000000000E+00 0.  1.
          1    1    1    2  501    0  0.81555260762E+02  0.18449249231E+03  0.26596869433E+03  0.33380845801E+03  0.00000000000E+00 0. -1.
<scales pt_clust_5="13000.00000" pt_clust_6="13000.00000" pt_clust_7="13000.00000" pt_clust_8="13000.00000" pt_clust_9="26.54931" pt_clust_10="182.09929"></scales>
<clustering>
<clus scale="   26.549">  1  9  2 -1</clus>
<clus scale="   91.717">  5  6 -1 -1</clus>
<clus scale="   95.177">  7  8 -1 -1</clus>
<clus scale="  142.324">  2  7  1 -1</clus>
<clus scale="  182.099">  1 10  2 -1</clus>
<clus scale="   26.549">  1  5  2 -1</clus>
</clustering>
</event>
<event>
10    2  0.1671105E-006  0.9967007E+02  0.7546771E-02  0.1281036E+00
         21   -1    0    0  503  502  0.00000000000E+00  0.00000000000E+00  0.48753719940E+03  0.48753719940E+03  0.00000000000E+00 0.  1.
         -3   -1    0    0    0  501 -0.00000000000E+00 -0.00000000000E+00 -0.97536471320E+02  0.97536471320E+02  0.00000000000E+00 0.  1.
         23    2    1    2    0    0 -0.39434532144E+02  0.27246415037E+02  0.78457478544E+01  0.10391278025E+03  0.91863271672E+02 0.  0.
         23    2    1    2    0    0 -0.15394917786E+00 -0.40851054358E+02  0.17760276235E+02  0.10217636617E+03  0.91955152385E+02 0.  0.
        -11    1    4    4    0    0 -0.44957230242E+02 -0.14151357054E+02  0.16319439514E+00  0.47132155584E+02  0.00000000000E+00 0.  1.
         11    1    4    4    0    0  0.44803281065E+02 -0.26699697303E+02  0.17597081840E+02  0.55044210590E+02  0.00000000000E+00 0. -1.
        -13    1    3    3    0    0 -0.68628924724E+02  0.18200992427E+02  0.14894566713E+02  0.72546905872E+02  0.00000000000E+00 0.  1.
         13    1    3    3    0    0  0.29194392579E+02  0.90454226105E+01 -0.70488188582E+01  0.31365874379E+02  0.00000000000E+00 0. -1.
         21    1    1    2  503  501 -0.81530774481E+00 -0.21572530791E+02  0.16985082633E+02  0.27468743028E+02  0.00000000000E+00 0.  1.
         -3    1    1    2    0  502  0.40403789067E+02  0.35177170111E+02  0.34740962136E+03  0.35151578127E+03  0.00000000000E+00 0.  1.
<scales pt_clust_5="13000.00000" pt_clust_6="13000.00000" pt_clust_7="13000.00000" pt_clust_8="13000.00000" pt_clust_9="21.58793" pt_clust_10="53.24381"></scales>
<clustering>
<clus scale="   21.588">  2  9  1 -1</clus>
<clus scale="   53.244">  1 10  2 -1</clus>
<clus scale="   91.863">  7  8 -1 -1</clus>
<clus scale="   91.955">  5  6 -1 -1</clus>
<clus scale="   99.585">  2  7  1 -1</clus>
<clus scale="   53.244">  1  5  2 -1</clus>
</clustering>
</event>
<event>
10    2  0.1671105E-006  0.1538950E+03  0.7546771E-02  0.1212563E+00
         21   -1    0    0  503  502  0.00000000000E+00  0.00000000000E+00  0.62732716618E+03  0.62732716618E+03  0.00000000000E+00 0.  1.
         -1   -1    0    0    0  501 -0.00000000000E+00 -0.00000000000E+00 -0.13765867815E+03  0.13765867815E+03  0.00000000000E+00 0.  1.
         23    2    1    2    0    0  0.31692050097E+02 -0.42328135852E+02  0.38986560726E+02  0.11235144072E+03  0.91141852027E+02 0.  0.
         23    2    1    2    0    0  0.29207952250E+02 -0.44505521375E+02 -0.45837613151E+02  0.13162821568E+03  0.11131511342E+03 0.  0.
        -11    1    4    4    0    0  0.60738700660E+02  0.78813444843E+01 -0.14586490762E+02  0.62960869288E+02  0.00000000000E+00 0. -1.
         11    1    4    4    0    0 -0.31530748410E+02 -0.52386865859E+02 -0.31251122389E+02  0.68667346391E+02  0.00000000000E+00 0.  1.
        -13    1    3    3    0    0  0.62154880228E+01  0.27539500321E+02  0.22687898029E+02  0.36218739435E+02  0.00000000000E+00 0. -1.
         13    1    3    3    0    0  0.25476562074E+02 -0.69867636173E+02  0.16298662697E+02  0.76132701287E+02  0.00000000000E+00 0.  1.
         21    1    1    2  503  501 -0.79216137342E+02  0.10481775162E+03  0.43306326324E+03  0.45255469000E+03  0.00000000000E+00 0.  1.
         -1    1    1    2    0  502  0.18316134996E+02 -0.17984094396E+02  0.63456277210E+02  0.68451497937E+02  0.00000000000E+00 0.  1.
<scales pt_clust_5="13000.00000" pt_clust_6="13000.00000" pt_clust_7="13000.00000" pt_clust_8="13000.00000" pt_clust_9="106.26668" pt_clust_10="25.66921"></scales>
<clustering>
<clus scale="   25.669">  1 10  2 -1</clus>
<clus scale="   91.142">  7  8 -1 -1</clus>
<clus scale="  107.129">  2  7  1 -1</clus>
<clus scale="  106.267">  1  9  2 -1</clus>
<clus scale="  111.315">  5  6 -1 -1</clus>
<clus scale="   25.669">  1  5  2 -1</clus>
</clustering>
</event>
<event>
10    2  0.1671105E-006  0.1018896E+03  0.7546771E-02  0.1278799E+00
         21   -1    0    0  503  502  0.00000000000E+00  0.00000000000E+00  0.59861988433E+02  0.59861988433E+02  0.00000000000E+00 0. -1.
          2   -1    0    0  502    0 -0.00000000000E+00 -0.00000000000E+00 -0.58243205313E+03  0.58243205313E+03  0.00000000000E+00 0. -1.
         23    2    1    2    0    0  0.18769898758E+02 -0.20121524886E+02 -0.30486731120E+03  0.31920701288E+03  0.90508865711E+02 0.  0.
         23    2    1    2    0    0 -0.38303657298E+02  0.43326879844E+02 -0.13944141291E+03  0.17860482274E+03  0.95453582388E+02 0.  0.
        -13    1    4    4    0    0  0.19920819777E+02 -0.10698978814E+02 -0.61356923299E+01  0.23429765868E+02  0.00000000000E+00 0.  1.
         13    1    4    4    0    0 -0.58224477076E+02  0.54025858658E+02 -0.13330572058E+03  0.15517505687E+03  0.00000000000E+00 0. -1.
        -13    1    3    3    0    0  0.52634654276E+02 -0.14244628969E+02 -0.12964433187E+03  0.14064483308E+03  0.00000000000E+00 0.  1.
         13    1    3    3    0    0 -0.33864755518E+02 -0.58768959168E+01 -0.17522297933E+03  0.17856217980E+03  0.00000000000E+00 0. -1.
         21    1    1    2  503  501 -0.32860671228E+02  0.31385858516E+02 -0.24162413096E+02  0.51465697653E+02  0.00000000000E+00 0. -1.
          2    1    1    2  501    0  0.52394429768E+02 -0.54591213473E+02 -0.54098927493E+02  0.93016508293E+02  0.00000000000E+00 0. -1.
<scales pt_clust_5="13000.00000" pt_clust_6="13000.00000" pt_clust_7="13000.00000" pt_clust_8="13000.00000" pt_clust_9="45.44112" pt_clust_10="56.55555"></scales>
<clustering>
<clus scale="   45.441">  1  9  2 -1</clus>
<clus scale="   56.556">  1 10  2 -1</clus>
<clus scale="   90.509">  7  8 -1 -1</clus>
<clus scale="   95.454">  5  6 -1 -1</clus>
<clus scale="   97.273">  2  7  1 -1</clus>
<clus scale="   45.441">  1  5  2 -1</clus>
</clustering>
</event>
<event>
10    2  0.1671105E-006  0.1592282E+03  0.7546771E-02  0.1205005E+00
         21   -1    0    0  501  502  0.00000000000E+00  0.00000000000E+00  0.34329629918E+03  0.34329629918E+03  0.00000000000E+00 0. -1.
          2   -1    0    0  503    0 -0.00000000000E+00 -0.00000000000E+00 -0.36242741863E+03  0.36242741863E+03  0.00000000000E+00 0. -1.
         23    2    1    2    0    0  0.50569733143E+02 -0.12917077546E+02 -0.22261928397E+03  0.24595201610E+03  0.90602979118E+02 0.  0.
         23    2    1    2    0    0  0.50329093104E+01  0.16050344592E+03  0.13381591274E+02  0.18568393869E+03  0.92264683246E+02 0.  0.
        -11    1    4    4    0    0 -0.30026410852E+02  0.12802716057E+02 -0.40055784407E+01  0.32886768551E+02  0.00000000000E+00 0. -1.
         11    1    4    4    0    0  0.35059320162E+02  0.14770072986E+03  0.17387169714E+02  0.15279717014E+03  0.00000000000E+00 0.  1.
        -13    1    3    3    0    0  0.53483685603E+02 -0.36046769400E+02 -0.86760634186E+02  0.10810773263E+03  0.00000000000E+00 0.  1.
         13    1    3    3    0    0 -0.29139524592E+01  0.23129691854E+02 -0.13585864978E+03  0.13784428347E+03  0.00000000000E+00 0. -1.
         21    1    1    2  503  502  0.81914887937E+01 -0.38390592711E+02 -0.70244726759E+01  0.39878331381E+02  0.00000000000E+00 0.  1.
          2    1    1    2  501    0 -0.63794131248E+02 -0.10919577566E+03  0.19713104592E+03  0.23420943164E+03  0.00000000000E+00 0. -1.
<scales pt_clust_5="13000.00000" pt_clust_6="13000.00000" pt_clust_7="13000.00000" pt_clust_8="13000.00000" pt_clust_9="39.25478" pt_clust_10="129.77235"></scales>
<clustering>
<clus scale="   39.255">  2  9  1 -1</clus>
<clus scale="   90.603">  7  8 -1 -1</clus>
<clus scale="   92.265">  5  6 -1 -1</clus>
<clus scale="  113.698">  2  7  1 -1</clus>
<clus scale="  129.772">  1 10  2 -1</clus>
<clus scale="  129.772">  1  5  2 -1</clus>
</clustering>
</event>
<event>
10    2  0.1671105E-006  0.2589079E+03  0.7546771E-02  0.1149077E+00
         21   -1    0    0  503  502  0.00000000000E+00  0.00000000000E+00  0.20635839478E+03  0.20635839478E+03  0.00000000000E+00 0. -1.
         -1   -1    0    0    0  501 -0.00000000000E+00 -0.00000000000E+00 -0.12036830467E+04  0.12036830467E+04  0.00000000000E+00 0.  1.
         23    2    1    2    0    0 -0.71188008378E+00  0.71995660019E+01 -0.41511988798E+03  0.42549760155E+03  0.93120067643E+02 0.  0.
         23    2    1    2    0    0  0.24621587369E+03 -0.49273504210E+01  0.76450020926E+02  0.27232855502E+03  0.87588246598E+02 0.  0.
        -13    1    4    4    0    0  0.10952119765E+03 -0.40823227678E+02  0.13655831225E+02  0.11767714468E+03  0.00000000000E+00 0.  1.
         13    1    4    4    0    0  0.13669467603E+03  0.35895877257E+02  0.62794189702E+02  0.15465141034E+03  0.00000000000E+00 0. -1.
        -13    1    3    3    0    0 -0.43479925619E+02  0.20932060187E+02 -0.22973604912E+03  0.23474945653E+03  0.00000000000E+00 0.  1.
         13    1    3    3    0    0  0.42768045535E+02 -0.13732494185E+02 -0.18538383886E+03  0.19074814501E+03  0.00000000000E+00 0. -1.
         21    1    1    2  503  501 -0.18951242236E+02 -0.35719888911E+02 -0.74338135874E+02  0.84623982956E+02  0.00000000000E+00 0. -1.
         -1    1    1    2    0  502 -0.22655275137E+03  0.33447673330E+02 -0.58431664898E+03  0.62759130194E+03  0.00000000000E+00 0.  1.
<scales pt_clust_5="13000.00000" pt_clust_6="13000.00000" pt_clust_7="13000.00000" pt_clust_8="13000.00000" pt_clust_9="40.43588" pt_clust_10="243.64253"></scales>
<clustering>
<clus scale="   40.436">  2  9  1 -1</clus>
<clus scale="   87.588">  5  6 -1 -1</clus>
<clus scale="   93.120">  7  8 -1 -1</clus>
<clus scale="   93.648">  2  7  1 -1</clus>
<clus scale="  243.643">  1 10  2 -1</clus>
<clus scale="  243.643">  1  5  2 -1</clus>
</clustering>
</event>
<event>
10    2  0.1671105E-006  0.1287260E+03  0.7546771E-02  0.1229988E+00
          1   -1    0    0  503    0 -0.00000000000E+00  0.00000000000E+00  0.58278703845E+03  0.58278703845E+03  0.00000000000E+00 0. -1.
         21   -1    0    0  501  502  0.00000000000E+00 -0.00000000000E+00 -0.18771938225E+03  0.18771938225E+03  0.00000000000E+00 0.  1.
         23    2    1    2    0    0  0.71788392983E+02 -0.71710888042E+02  0.36482593312E+03  0.38934574366E+03  0.90532435057E+02 0.  0.
         23    2    1    2    0    0 -0.11405599215E+03  0.80436746912E+02 -0.11569019731E+03  0.20367725428E+03  0.92851292713E+02 0.  0.
        -11    1    3    3    0    0  0.35966976995E+02  0.17203217410E+02  0.96534837557E+02  0.10444399928E+03  0.00000000000E+00 0.  1.
         11    1    3    3    0    0  0.35821415988E+02 -0.88914105451E+02  0.26829109556E+03  0.28490174438E+03  0.00000000000E+00 0. -1.
        -11    1    4    4    0    0 -0.35858715643E+02 -0.18849857912E+02 -0.36535365783E+02  0.54552704642E+02  0.00000000000E+00 0. -1.
         11    1    4    4    0    0 -0.78197276508E+02  0.99286604824E+02 -0.79154831527E+02  0.14912454964E+03  0.00000000000E+00 0.  1.
         21    1    1    2  503  502 -0.26388799962E+02  0.56602067907E+01  0.65011470138E+02  0.70391036033E+02  0.00000000000E+00 0. -1.
          1    1    1    2  501    0  0.68656399130E+02 -0.14386065661E+02  0.80920450255E+02  0.10709238673E+03  0.00000000000E+00 0. -1.
<scales pt_clust_5="13000.00000" pt_clust_6="13000.00000" pt_clust_7="13000.00000" pt_clust_8="13000.00000" pt_clust_9="26.98901" pt_clust_10="65.22184"></scales>
<clustering>
<clus scale="   26.989">  1  9  2 -1</clus>
<clus scale="   65.222">  2 10  1 -1</clus>
<clus scale="   90.532">  5  6 -1 -1</clus>
<clus scale="   92.851">  7  8 -1 -1</clus>
<clus scale="  127.064">  1  5  2 -1</clus>
<clus scale="   65.222">  2  5  1 -1</clus>
</clustering>
</event>
<event>
10    2  0.1671105E-006  0.1327908E+03  0.7546771E-02  0.1234216E+00
         21   -1    0    0  501  502  0.00000000000E+00  0.00000000000E+00  0.23194183533E+03  0.23194183533E+03  0.00000000000E+00 0.  1.
          1   -1    0    0  503    0 -0.00000000000E+00 -0.00000000000E+00 -0.68498533657E+03  0.68498533657E+03  0.00000000000E+00 0. -1.
         23    2    1    2    0    0  0.27456748022E+02  0.61570120438E+02 -0.42339391056E+03  0.44631666384E+03  0.12406211418E+03 0.  0.
         23    2    1    2    0    0  0.20347615206E+02 -0.33068432149E+02 -0.22120281406E+03  0.24383207046E+03  0.94951814015E+02 0.  0.
        -11    1    4    4    0    0  0.19253251771E+02  0.31978910450E+02 -0.73444621234E+02  0.82385986706E+02  0.00000000000E+00 0.  1.
         11    1    4    4    0    0  0.10943634347E+01 -0.65047342599E+02 -0.14775819283E+03  0.16144608375E+03  0.00000000000E+00 0. -1.
        -13    1    3    3    0    0 -0.16557904774E+02 -0.32958880022E+02 -0.10617316513E+03  0.11239747763E+03  0.00000000000E+00 0. -1.
         13    1    3    3    0    0  0.44014652795E+02  0.94529000460E+02 -0.31722074543E+03  0.33391918621E+03  0.00000000000E+00 0.  1.
         21    1    1    2  503  502 -0.62256154698E+02  0.11071412630E+02  0.16568461813E+03  0.17734090803E+03  0.00000000000E+00 0.  1.
          1    1    1    2  501    0  0.14451791470E+02 -0.39573100919E+02  0.25868605249E+02  0.49437529576E+02  0.00000000000E+00 0. -1.
<scales pt_clust_5="13000.00000" pt_clust_6="13000.00000" pt_clust_7="13000.00000" pt_clust_8="13000.00000" pt_clust_9="54.95023" pt_clust_10="42.12938"></scales>
<clustering>
<clus scale="   42.129">  1 10  2 -1</clus>
<clus scale="   54.950">  1  9  2 -1</clus>
<clus scale="   94.952">  5  6 -1 -1</clus>
<clus scale="  106.103">  1  5  2 -1</clus>
<clus scale="  124.062">  7  8 -1 -1</clus>
<clus scale="   42.129">  1  5  2 -1</clus>
</clustering>
</event>
<event>
10    2  0.1671105E-006  0.1064036E+03  0.7546771E-02  0.1268245E+00
         -3   -1    0    0    0  501 -0.00000000000E+00  0.00000000000E+00  0.22304904392E+03  0.22304904392E+03  0.00000000000E+00 0.  1.
         21   -1    0    0  501  502  0.00000000000E+00 -0.00000000000E+00 -0.11620676780E+03  0.11620676780E+03  0.00000000000E+00 0.  1.
         23    2    1    2    0    0 -0.53802767744E+02 -0.45862654968E+02  0.12242904045E+03  0.16811811299E+03  0.90976420201E+02 0.  0.
         23    2    1    2    0    0  0.18254244519E+02  0.13203576288E+02  0.30193860893E+02  0.10035169407E+03  0.93012049748E+02 0.  0.
        -11    1    3    3    0    0 -0.40616408094E+02  0.11231890102E+02  0.93946578358E+02  0.10296507926E+03  0.00000000000E+00 0.  1.
         11    1    3    3    0    0 -0.13186359650E+02 -0.57094545070E+02  0.28482462089E+02  0.65153033730E+02  0.00000000000E+00 0. -1.
        -13    1    4    4    0    0  0.22287942756E+02 -0.22886527577E+02 -0.20525840073E+02  0.37971774353E+02  0.00000000000E+00 0.  1.
         13    1    4    4    0    0 -0.40336982368E+01  0.36090103864E+02  0.50719700966E+02  0.62379919722E+02  0.00000000000E+00 0. -1.
         21    1    1    2  503  502  0.68888100426E+01  0.22579495269E+02 -0.20262749398E+02  0.31110582180E+02  0.00000000000E+00 0.  1.
         -3    1    1    2    0  503  0.28659713182E+02  0.10079583411E+02 -0.25517875824E+02  0.39675422468E+02  0.00000000000E+00 0.  1.
<scales pt_clust_5="13000.00000" pt_clust_6="13000.00000" pt_clust_7="13000.00000" pt_clust_8="13000.00000" pt_clust_9="21.31117" pt_clust_10="53.98882"></scales>
<clustering>
<clus scale="   21.311">  9 10 -1 -1</clus>
<clus scale="   53.989">  2  9  1 -1</clus>
<clus scale="   90.976">  5  6 -1 -1</clus>
<clus scale="   93.012">  7  8 -1 -1</clus>
<clus scale="  104.629">  1  5  2 -1</clus>
<clus scale="   53.989">  2  5  1 -1</clus>
</clustering>
</event>
<event>
10    2  0.1671105E-006  0.1077875E+03  0.7546771E-02  0.1267580E+00
         -3   -1    0    0    0  501 -0.00000000000E+00  0.00000000000E+00  0.70949764870E+03  0.70949764870E+03  0.00000000000E+00 0.  1.
         21   -1    0    0  503  502  0.00000000000E+00 -0.00000000000E+00 -0.29332779674E+02  0.29332779674E+02  0.00000000000E+00 0.  1.
         23    2    1    2    0    0 -0.31444071917E+00  0.57277296123E+02  0.40810773318E+03  0.42363567622E+03  0.98155370490E+02 0.  0.
         23    2    1    2    0    0  0.21721027714E+02 -0.19280385449E+02  0.14897545505E+03  0.17733808777E+03  0.91714638191E+02 0.  0.
        -11    1    3    3    0    0 -0.34115906265E+02  0.54817381187E+02  0.35363268215E+03  0.35947867006E+03  0.00000000000E+00 0.  1.
         11    1    3    3    0    0  0.33801465545E+02  0.24599149362E+01  0.54475051030E+02  0.64157006159E+02  0.00000000000E+00 0. -1.
        -13    1    4    4    0    0  0.34648291773E+02  0.26542299873E+02  0.43534673203E+02  0.61646294100E+02  0.00000000000E+00 0.  1.
         13    1    4    4    0    0 -0.12927264058E+02 -0.45822685322E+02  0.10544078185E+03  0.11569179367E+03  0.00000000000E+00 0. -1.
         21    1    1    2  503  501 -0.49149396758E+00 -0.40832987728E+02  0.76521909013E+02  0.86736249700E+02  0.00000000000E+00 0.  1.
         -3    1    1    2    0  502 -0.20915093028E+02  0.28360770540E+01  0.46559771780E+02  0.51120414685E+02  0.00000000000E+00 0.  1.
<scales pt_clust_5="13000.00000" pt_clust_6="13000.00000" pt_clust_7="13000.00000" pt_clust_8="13000.00000" pt_clust_9="40.54143" pt_clust_10="21.10650"></scales>
<clustering>
<clus scale="   21.107">  2 10  1 -1</clus>
<clus scale="   40.541">  2  9  1 -1</clus>
<clus scale="   91.715">  7  8 -1 -1</clus>
<clus scale="   98.155">  5  6 -1 -1</clus>
<clus scale="  101.957">  2  7  1 -1</clus>
<clus scale="   21.107">  2  5  1 -1</clus>
</clustering>
</event>
<event>
10    2  0.1671105E-006  0.1505046E+03  0.7546771E-02  0.1217791E+00
         21   -1    0    0  503  502  0.00000000000E+00  0.00000000000E+00  0.28614335006E+03  0.28614335006E+03  0.00000000000E+00 0. -1.
          2   -1    0    0  502    0 -0.00000000000E+00 -0.00000000000E+00 -0.34162361624E+03  0.34162361624E+03  0.00000000000E+00 0. -1.
         23    2    1    2    0    0 -0.12855449408E+02 -0.42735633493E+02 -0.59486696902E+02  0.11854179054E+03  0.92314094514E+02 0.  0.
         23    2    1    2    0    0 -0.97673203063E+02  0.86454787326E+02 -0.20928833051E+03  0.26319844745E+03  0.91963757033E+02 0.  0.
        -11    1    4    4    0    0 -0.45508408745E+02 -0.10527784903E+02 -0.41397899588E+02  0.62415027131E+02  0.00000000000E+00 0.  1.
         11    1    4    4    0    0 -0.52164794317E+02  0.96982572229E+02 -0.16789043092E+03  0.20078342032E+03  0.00000000000E+00 0. -1.
        -13    1    3    3    0    0  0.67536480657E+00  0.29032849231E+02 -0.22114849584E+02  0.36502452304E+02  0.00000000000E+00 0. -1.
         13    1    3    3    0    0 -0.13530814214E+02 -0.71768482724E+02 -0.37371847318E+02  0.82039338233E+02  0.00000000000E+00 0.  1.
         21    1    1    2  503  501  0.44421762745E+02 -0.70357536542E+01  0.10207213699E+03  0.11154154376E+03  0.00000000000E+00 0. -1.
          2    1    1    2  501    0  0.66106889725E+02 -0.36683400179E+02  0.11122262425E+03  0.13448518454E+03  0.00000000000E+00 0. -1.
<scales pt_clust_5="13000.00000" pt_clust_6="13000.00000" pt_clust_7="13000.00000" pt_clust_8="13000.00000" pt_clust_9="23.22279" pt_clust_10="122.88546"></scales>
<clustering>
<clus scale="   23.223">  9 10 -1 -1</clus>
<clus scale="   91.964">  5  6 -1 -1</clus>
<clus scale="   92.314">  7  8 -1 -1</clus>
<clus scale="  102.535">  2  7  1 -1</clus>
<clus scale="  122.885">  1  9  2 -1</clus>
<clus scale="  122.885">  1  5  2 -1</clus>
</clustering>
</event>
<event>
10    2  0.1671105E-006  0.1049365E+03  0.7546771E-02  0.1270461E+00
         21   -1    0    0  501  502  0.00000000000E+00  0.00000000000E+00  0.34664411524E+03  0.34664411524E+03  0.00000000000E+00 0.  1.
          2   -1    0    0  503    0 -0.00000000000E+00 -0.00000000000E+00 -0.12508615989E+03  0.12508615989E+03  0.00000000000E+00 0. -1.
         23    2    1    2    0    0 -0.54982555675E+02 -0.23800989813E+02 -0.74700727124E+02  0.13216313015E+03  0.91089657993E+02 0.  0.
         23    2    1    2    0    0 -0.11364999786E+01  0.11642222539E+02  0.14306780326E+03  0.17027671542E+03  0.91591104955E+02 0.  0.
        -11    1    3    3    0    0 -0.23067336205E+02  0.29935536307E+02 -0.54807429103E+02  0.66573963517E+02  0.00000000000E+00 0.  1.
         11    1    3    3    0    0 -0.31915219469E+02 -0.53736526120E+02 -0.19893298022E+02  0.65589166631E+02  0.00000000000E+00 0. -1.
        -11    1    4    4    0    0  0.45018337907E+02  0.17235885052E+01  0.66430045687E+02  0.80265636951E+02  0.00000000000E+00 0.  1.
         11    1    4    4    0    0 -0.46154837886E+02  0.99186340338E+01  0.76637757576E+02  0.90011078472E+02  0.00000000000E+00 0. -1.
         21    1    1    2  503  502  0.27873676959E+02 -0.93807108627E+01  0.34177575169E+02  0.45089314121E+02  0.00000000000E+00 0.  1.
          2    1    1    2  501    0  0.28245378694E+02  0.21539478137E+02  0.11901330405E+03  0.12420111544E+03  0.00000000000E+00 0. -1.
<scales pt_clust_5="13000.00000" pt_clust_6="13000.00000" pt_clust_7="13000.00000" pt_clust_8="13000.00000" pt_clust_9="29.40986" pt_clust_10="43.14035"></scales>
<clustering>
<clus scale="   29.410">  1  9  2 -1</clus>
<clus scale="   43.140">  1 10  2 -1</clus>
<clus scale="   91.090">  5  6 -1 -1</clus>
<clus scale="   91.591">  7  8 -1 -1</clus>
<clus scale="  104.499">  2  5  1 -1</clus>
<clus scale="   29.410">  1  5  2 -1</clus>
</clustering>
</event>
<event>
10    2  0.1671105E-006  0.9689844E+02  0.7546771E-02  0.1287472E+00
          1   -1    0    0  503    0 -0.00000000000E+00  0.00000000000E+00  0.30388601260E+03  0.30388601260E+03  0.00000000000E+00 0. -1.
         21   -1    0    0  501  502  0.00000000000E+00 -0.00000000000E+00 -0.29369571414E+03  0.29369571414E+03  0.00000000000E+00 0. -1.
         23    2    1    2    0    0 -0.70213990355E+01 -0.18388257304E+02  0.23382171656E+03  0.25279487248E+03  0.94049052962E+02 0.  0.
         23    2    1    2    0    0  0.55486808740E+02  0.23328184132E+02 -0.12170477939E+02  0.11151728866E+03  0.93085954995E+02 0.  0.
        -11    1    4    4    0    0  0.76729811256E+02  0.13162396339E+02 -0.28452114909E+02  0.82886883495E+02  0.00000000000E+00 0. -1.
         11    1    4    4    0    0 -0.21243002516E+02  0.10165787793E+02  0.16281636970E+02  0.28630405163E+02  0.00000000000E+00 0.  1.
        -13    1    3    3    0    0 -0.26212104389E+02 -0.28129423225E+02  0.22697790729E+03  0.23021144468E+03  0.00000000000E+00 0. -1.
         13    1    3    3    0    0  0.19190705354E+02  0.97411659213E+01  0.68438092774E+01  0.22583427793E+02  0.00000000000E+00 0.  1.
         21    1    1    2  503  502 -0.18086297872E+02  0.18234358540E+02 -0.89684087940E+01  0.27203646049E+02  0.00000000000E+00 0.  1.
          1    1    1    2  501    0 -0.30379111832E+02 -0.23174285367E+02 -0.20249253138E+03  0.20606591955E+03  0.00000000000E+00 0. -1.
<scales pt_clust_5="13000.00000" pt_clust_6="13000.00000" pt_clust_7="13000.00000" pt_clust_8="13000.00000" pt_clust_9="25.68280" pt_clust_10="44.83728"></scales>
<clustering>
<clus scale="   25.683">  2  9  1 -1</clus>
<clus scale="   44.837">  2 10  1 -1</clus>
<clus scale="   93.086">  5  6 -1 -1</clus>
<clus scale="   94.049">  7  8 -1 -1</clus>
<clus scale="   95.964">  2  5  1 -1</clus>
<clus scale="   25.683">  2  5  1 -1</clus>
</clustering>
</event>
<event>
10    2  0.1671105E-006  0.1078205E+03  0.7546771E-02  0.1268286E+00
         21   -1    0    0  501  502  0.00000000000E+00  0.00000000000E+00  0.65449559266E+02  0.65449559266E+02  0.00000000000E+00 0. -1.
          1   -1    0    0  503    0 -0.00000000000E+00 -0.00000000000E+00 -0.30740276123E+03  0.30740276123E+03  0.00000000000E+00 0. -1.
         23    2    1    2    0    0 -0.35502379971E+02 -0.22616196754E+02 -0.95470057490E+02  0.14325193321E+03  0.98156370917E+02 0.  0.
         23    2    1    2    0    0  0.57503293919E+02 -0.45462724748E+01 -0.71123566872E+02  0.12841840172E+03  0.90030143452E+02 0.  0.
        -11    1    3    3    0    0  0.30972147168E+02 -0.24468003627E+02 -0.44372060592E+02  0.59387177597E+02  0.00000000000E+00 0. -1.
         11    1    3    3    0    0 -0.66474527138E+02  0.18518068730E+01 -0.51097996898E+02  0.83864755612E+02  0.00000000000E+00 0.  1.
        -11    1    4    4    0    0  0.27083829156E+02 -0.21502527848E+02  0.13333215552E+02  0.37063015832E+02  0.00000000000E+00 0.  1.
         11    1    4    4    0    0  0.30419464762E+02  0.16956255373E+02 -0.84456782424E+02  0.91355385884E+02  0.00000000000E+00 0. -1.
         21    1    1    2  503  502  0.13592361563E+02  0.25265028670E+02 -0.49255718693E+02  0.57001752521E+02  0.00000000000E+00 0. -1.
          1    1    1    2  501    0 -0.35593275511E+02  0.18974405592E+01 -0.26103858907E+02  0.44180233048E+02  0.00000000000E+00 0. -1.
<scales pt_clust_5="13000.00000" pt_clust_6="13000.00000" pt_clust_7="13000.00000" pt_clust_8="13000.00000" pt_clust_9="28.68927" pt_clust_10="34.14276"></scales>
<clustering>
<clus scale="   28.689">  2  9  1 -1</clus>
<clus scale="   34.143">  1 10  2 -1</clus>
<clus scale="   90.030">  7  8 -1 -1</clus>
<clus scale="   98.156">  5  6 -1 -1</clus>
<clus scale="  100.479">  1  7  2 -1</clus>
<clus scale="   34.143">  1  5  2 -1</clus>
</clustering>
</event>
<event>
10    2  0.1671105E-006  0.1067771E+03  0.7546771E-02  0.1266810E+00
          1   -1    0    0  502    0 -0.00000000000E+00  0.00000000000E+00  0.52326649516E+03  0.52326649516E+03  0.00000000000E+00 0. -1.
         21   -1    0    0  503  502  0.00000000000E+00 -0.00000000000E+00 -0.50781842087E+02  0.50781842087E+02  0.00000000000E+00 0.  1.
         23    2    1    2    0    0  0.40280646970E+02  0.10353719548E+02  0.10147711289E+03  0.14231778052E+03  0.90702900630E+02 0.  0.
         23    2    1    2    0    0 -0.18270687569E+02 -0.86903103038E+02  0.16153643311E+03  0.20560728648E+03  0.91073430213E+02 0.  0.
        -11    1    3    3    0    0 -0.24325122199E+02 -0.13019098917E+02  0.13566460073E+02  0.30745037739E+02  0.00000000000E+00 0. -1.
         11    1    3    3    0    0  0.64605769170E+02  0.23372818465E+02  0.87910652816E+02  0.11157274278E+03  0.00000000000E+00 0.  1.
        -11    1    4    4    0    0  0.19489069234E+02 -0.87282557277E+02  0.11249707677E+03  0.14371381599E+03  0.00000000000E+00 0.  1.
         11    1    4    4    0    0 -0.37759756804E+02  0.37945423924E+00  0.49039356346E+02  0.61893470498E+02  0.00000000000E+00 0. -1.
         21    1    1    2  503  501 -0.86721433394E+01  0.33119569081E+02  0.13148142109E+03  0.13586565430E+03  0.00000000000E+00 0. -1.
          1    1    1    2  501    0 -0.13337816062E+02  0.43429814409E+02  0.77989685985E+02  0.90257615950E+02  0.00000000000E+00 0. -1.
<scales pt_clust_5="13000.00000" pt_clust_6="13000.00000" pt_clust_7="13000.00000" pt_clust_8="13000.00000" pt_clust_9="26.17738" pt_clust_10="85.16805"></scales>
<clustering>
<clus scale="   26.177">  9 10 -1 -1</clus>
<clus scale="   85.168">  2  9  1 -1</clus>
<clus scale="   90.703">  5  6 -1 -1</clus>
<clus scale="   91.073">  7  8 -1 -1</clus>
<clus scale="  106.461">  1  5  2 -1</clus>
<clus scale="   85.168">  2  5  1 -1</clus>
</clustering>
</event>
<event>
10    2  0.1671105E-006  0.1659802E+03  0.7546771E-02  0.1217001E+00
          3   -1    0    0  502    0 -0.00000000000E+00  0.00000000000E+00  0.22019067660E+03  0.22019067660E+03  0.00000000000E+00 0. -1.
         21   -1    0    0  503  502  0.00000000000E+00 -0.00000000000E+00 -0.52991654641E+03  0.52991654641E+03  0.00000000000E+00 0. -1.
         23    2    1    2    0    0  0.64015380479E+01  0.21593401461E+02  0.16107806114E+03  0.17885178295E+03  0.74394649066E+02 0.  0.
         23    2    1    2    0    0 -0.13191883329E+03  0.38974390958E+02 -0.23567349039E+03  0.28802202023E+03  0.92158061720E+02 0.  0.
        -13    1    4    4    0    0 -0.24268167962E+02 -0.11473912032E+02 -0.11700970512E+03  0.12004943034E+03  0.00000000000E+00 0.  1.
         13    1    4    4    0    0 -0.10765066533E+03  0.50448302990E+02 -0.11866378527E+03  0.16797258989E+03  0.00000000000E+00 0. -1.
        -13    1    3    3    0    0 -0.18522279258E+01 -0.26550196247E+02  0.78726952564E+02  0.83104011510E+02  0.00000000000E+00 0.  1.
         13    1    3    3    0    0  0.82537659737E+01  0.48143597708E+02  0.82351108572E+02  0.95747771442E+02  0.00000000000E+00 0. -1.
         21    1    1    2  503  501  0.84337564035E+02 -0.92383852296E+01 -0.17322147388E+03  0.19288299946E+03  0.00000000000E+00 0. -1.
          3    1    1    2  501    0  0.41179731209E+02 -0.51329407190E+02 -0.61908966683E+02  0.90350420368E+02  0.00000000000E+00 0. -1.
<scales pt_clust_5="13000.00000" pt_clust_6="13000.00000" pt_clust_7="13000.00000" pt_clust_8="13000.00000" pt_clust_9="65.38453" pt_clust_10="156.74222"></scales>
<clustering>
<clus scale="   65.385">  9 10 -1 -1</clus>
<clus scale="   74.395">  7  8 -1 -1</clus>
<clus scale="   77.729">  1  7  2 -1</clus>
<clus scale="   92.158">  5  6 -1 -1</clus>
<clus scale="  156.742">  2  9  1 -1</clus>
<clus scale="  156.742">  2  5  1 -1</clus>
</clustering>
</event>
<event>
10    2  0.1671105E-006  0.1484773E+03  0.7546771E-02  0.1203924E+00
         21   -1    0    0  503  502  0.00000000000E+00  0.00000000000E+00  0.14677183430E+03  0.14677183430E+03  0.00000000000E+00 0. -1.
         -1   -1    0    0    0  501 -0.00000000000E+00 -0.00000000000E+00 -0.37056185359E+03  0.37056185359E+03  0.00000000000E+00 0.  1.
         23    2    1    2    0    0  0.36233774280E+02 -0.90921372617E+02 -0.18211053135E+03  0.22593237704E+03  0.91113176698E+02 0.  0.
         23    2    1    2    0    0  0.19693956330E+02  0.16046602584E+03 -0.54194276470E+02  0.18955773544E+03  0.82812547947E+02 0.  0.
        -13    1    3    3    0    0 -0.26676529367E+02 -0.53208863045E+02 -0.94355756468E+02  0.11156087623E+03  0.00000000000E+00 0.  1.
         13    1    3    3    0    0  0.62910303647E+02 -0.37712509571E+02 -0.87754774882E+02  0.11437150081E+03  0.00000000000E+00 0. -1.
        -13    1    4    4    0    0  0.33283677052E+02  0.11922492500E+03 -0.71343435476E+02  0.14287152160E+03  0.00000000000E+00 0. -1.
         13    1    4    4    0    0 -0.13589720722E+02  0.41241100835E+02  0.17149159006E+02  0.46686213832E+02  0.00000000000E+00 0.  1.
         21    1    1    2  503  501 -0.20487038990E+02 -0.15353577907E+02 -0.16949334000E+02  0.30703925550E+02  0.00000000000E+00 0.  1.
         -1    1    1    2    0  502 -0.35440691619E+02 -0.54191075314E+02  0.29464122532E+02  0.71139649864E+02  0.00000000000E+00 0.  1.
<scales pt_clust_5="13000.00000" pt_clust_6="13000.00000" pt_clust_7="13000.00000" pt_clust_8="13000.00000" pt_clust_9="25.60178" pt_clust_10="66.19937"></scales>
<clustering>
<clus scale="   25.602">  2  9  1 -1</clus>
<clus scale="   66.199">  1 10  2 -1</clus>
<clus scale="   82.813">  7  8 -1 -1</clus>
<clus scale="   91.113">  5  6 -1 -1</clus>
<clus scale="  143.533">  1  7  2 -1</clus>
<clus scale="   66.199">  1  5  2 -1</clus>
</clustering>
</event>
<event>
10    2  0.1671105E-006  0.1495503E+03  0.7546771E-02  0.1221043E+00
          2   -1    0    0  502    0 -0.00000000000E+00  0.00000000000E+00  0.27744819611E+03  0.27744819611E+03  0.00000000000E+00 0. -1.
         21   -1    0    0  503  502  0.00000000000E+00 -0.00000000000E+00 -0.33663040745E+03  0.33663040745E+03  0.00000000000E+00 0. -1.
         23    2    1    2    0    0  0.90895783796E+00 -0.35961608034E+02  0.20933409652E+03  0.23097059777E+03  0.90733618978E+02 0.  0.
         23    2    1    2    0    0  0.11069128579E+03 -0.19738563212E+02 -0.14183387741E+03  0.20309083344E+03  0.92124189105E+02 0.  0.
        -11    1    3    3    0    0  0.35978948972E+02 -0.17208046933E+02  0.38020104821E+02  0.55101089091E+02  0.00000000000E+00 0.  1.
         11    1    3    3    0    0 -0.35069991134E+02 -0.18753561101E+02  0.17131399170E+03  0.17586950868E+03  0.00000000000E+00 0. -1.
        -13    1    4    4    0    0  0.11172204955E+03 -0.43943392774E+02 -0.12660393849E+03  0.17447462671E+03  0.00000000000E+00 0. -1.
         13    1    4    4    0    0 -0.10307637620E+01  0.24204829562E+02 -0.15229938925E+02  0.28616206732E+02  0.00000000000E+00 0.  1.
         21    1    1    2  503  501 -0.40973217294E+02  0.35623108758E+02 -0.58578747624E+02  0.79870395555E+02  0.00000000000E+00 0.  1.
          2    1    1    2  501    0 -0.70627026336E+02  0.20077062488E+02 -0.68103682821E+02  0.10014677679E+03  0.00000000000E+00 0. -1.
<scales pt_clust_5="13000.00000" pt_clust_6="13000.00000" pt_clust_7="13000.00000" pt_clust_8="13000.00000" pt_clust_9="24.33132" pt_clust_10="121.15723"></scales>
<clustering>
<clus scale="   24.331">  9 10 -1 -1</clus>
<clus scale="   90.734">  5  6 -1 -1</clus>
<clus scale="   92.124">  7  8 -1 -1</clus>
<clus scale="   97.605">  1  5  2 -1</clus>
<clus scale="  121.157">  2  9  1 -1</clus>
<clus scale="  121.157">  2  5  1 -1</clus>
</clustering>
</event>
<event>
10    2  0.1671105E-006  0.1035639E+03  0.7546771E-02  0.1275778E+00
         21   -1    0    0  501  502  0.00000000000E+00  0.00000000000E+00  0.90707722858E+02  0.90707722858E+02  0.00000000000E+00 0.  1.
         -3   -1    0    0    0  501 -0.00000000000E+00 -0.00000000000E+00 -0.21691057646E+03  0.21691057646E+03  0.00000000000E+00 0.  1.
         23    2    1    2    0    0 -0.39068147796E+02  0.45268632051E+02 -0.76451828178E+02  0.13065194318E+03  0.87461300036E+02 0.  0.
         23    2    1    2    0    0  0.39124421836E+02  0.13432832087E+02 -0.27381442419E+02  0.10585417380E+03  0.93510434499E+02 0.  0.
        -11    1    3    3    0    0  0.26967574910E+02  0.24451278600E+01 -0.16449735983E+02  0.31683158944E+02  0.00000000000E+00 0. -1.
         11    1    3    3    0    0 -0.66035722706E+02  0.42823504191E+02 -0.60002092195E+02  0.98968784232E+02  0.00000000000E+00 0.  1.
        -13    1    4    4    0    0  0.19445862547E+02  0.17676272816E+02  0.33011640946E+02  0.42194319864E+02  0.00000000000E+00 0.  1.
         13    1    4    4    0    0  0.19678559289E+02 -0.42434407291E+01 -0.60393083365E+02  0.63659853937E+02  0.00000000000E+00 0. -1.
         21    1    1    2  503  502 -0.16112398671E+02 -0.33173062391E+02 -0.81439782478E+01  0.37767523629E+02  0.00000000000E+00 0. -1.
         -3    1    1    2    0  503  0.16056124631E+02 -0.25528401747E+02 -0.14225604755E+02  0.33344658711E+02  0.00000000000E+00 0.  1.
<scales pt_clust_5="13000.00000" pt_clust_6="13000.00000" pt_clust_7="13000.00000" pt_clust_8="13000.00000" pt_clust_9="30.13736" pt_clust_10="67.50218"></scales>
<clustering>
<clus scale="   30.137">  9 10 -1 -1</clus>
<clus scale="   67.502">  1  9  2 -1</clus>
<clus scale="   87.461">  5  6 -1 -1</clus>
<clus scale="   93.510">  7  8 -1 -1</clus>
<clus scale="   98.136">  2  5  1 -1</clus>
<clus scale="   67.502">  1  5  2 -1</clus>
</clustering>
</event>
<event>
10    2  0.1671105E-006  0.1973346E+03  0.7546771E-02  0.1152130E+00
         21   -1    0    0  503  502  0.00000000000E+00  0.00000000000E+00  0.17118513839E+04  0.17118513839E+04  0.00000000000E+00 0.  1.
         -1   -1    0    0    0  501 -0.00000000000E+00 -0.00000000000E+00 -0.90074903845E+02  0.90074903845E+02  0.00000000000E+00 0.  1.
         23    2    1    2    0    0  0.21786935689E+03 -0.80267573267E+00  0.16197960107E+03  0.28614692032E+03  0.90415529016E+02 0.  0.
         23    2    1    2    0    0 -0.10421022913E+03 -0.39040848981E+02  0.45614444586E+03  0.47838318034E+03  0.91644705247E+02 0.  0.
        -11    1    3    3    0    0  0.18930197161E+03 -0.20964067617E+02  0.10032305134E+03  0.21526598249E+03  0.00000000000E+00 0.  1.
         11    1    3    3    0    0  0.28567385286E+02  0.20161391884E+02  0.61656549722E+02  0.70880937835E+02  0.00000000000E+00 0. -1.
        -13    1    4    4    0    0 -0.58321123489E+02  0.19439447480E+02  0.28881379147E+03  0.29528401871E+03  0.00000000000E+00 0. -1.
         13    1    4    4    0    0 -0.45889105642E+02 -0.58480296462E+02  0.16733065439E+03  0.18309916163E+03  0.00000000000E+00 0.  1.
         21    1    1    2  503  501 -0.11255375648E+02  0.94403277240E+02  0.16241855739E+03  0.18819790121E+03  0.00000000000E+00 0.  1.
         -1    1    1    2    0  502 -0.10240375211E+03 -0.54559752526E+02  0.84123387575E+03  0.84919828588E+03  0.00000000000E+00 0.  1.
<scales pt_clust_5="13000.00000" pt_clust_6="13000.00000" pt_clust_7="13000.00000" pt_clust_8="13000.00000" pt_clust_9="95.07188" pt_clust_10="114.34516"></scales>
<clustering>
<clus scale="   90.416">  5  6 -1 -1</clus>
<clus scale="   91.645">  7  8 -1 -1</clus>
<clus scale="   95.072">  2  9  1 -1</clus>
<clus scale="  114.345">  1 10  2 -1</clus>
<clus scale="  196.767">  2  5  1 -1</clus>
<clus scale="  114.345">  1  5  2 -1</clus>
</clustering>
</event>
<event>
10    2  0.1671105E-006  0.1630979E+03  0.7546771E-02  0.1207682E+00
         21   -1    0    0  503  502  0.00000000000E+00  0.00000000000E+00  0.25914370099E+03  0.25914370099E+03  0.00000000000E+00 0. -1.
          2   -1    0    0  502    0 -0.00000000000E+00 -0.00000000000E+00 -0.52289700132E+03  0.52289700132E+03  0.00000000000E+00 0. -1.
         23    2    1    2    0    0  0.16585564225E+02  0.29515048182E+02 -0.34979545230E+03  0.36377653817E+03  0.93969634801E+02 0.  0.
         23    2    1    2    0    0 -0.85572366817E+02 -0.14094056224E+03 -0.75760046121E+02  0.20217098507E+03  0.89143987838E+02 0.  0.
        -11    1    3    3    0    0  0.27676109485E+02  0.59625673558E+02 -0.19801126648E+03  0.20863760360E+03  0.00000000000E+00 0.  1.
         11    1    3    3    0    0 -0.11090545260E+02 -0.30110625375E+02 -0.15178418582E+03  0.15513893457E+03  0.00000000000E+00 0. -1.
        -11    1    4    4    0    0 -0.40369263349E+02 -0.43768068684E+02 -0.74005253839E+02  0.94984729591E+02  0.00000000000E+00 0.  1.
         11    1    4    4    0    0 -0.45203103467E+02 -0.97172493556E+02 -0.17547922813E+01  0.10718625548E+03  0.00000000000E+00 0. -1.
         21    1    1    2  503  501  0.39931015247E+02  0.16373485969E+02  0.58987901199E+02  0.73090009641E+02  0.00000000000E+00 0. -1.
          2    1    1    2  501    0  0.29055787345E+02  0.95052028089E+02  0.10281429689E+03  0.14300316943E+03  0.00000000000E+00 0. -1.
<scales pt_clust_5="13000.00000" pt_clust_6="13000.00000" pt_clust_7="13000.00000" pt_clust_8="13000.00000" pt_clust_9="38.09069" pt_clust_10="148.30966"></scales>
<clustering>
<clus scale="   38.091">  9 10 -1 -1</clus>
<clus scale="   89.144">  7  8 -1 -1</clus>
<clus scale="   93.970">  5  6 -1 -1</clus>
<clus scale="   99.882">  2  5  1 -1</clus>
<clus scale="  148.310">  1  9  2 -1</clus>
<clus scale="  148.310">  1  5  2 -1</clus>
</clustering>
</event>
<event>
10    2  0.1671105E-006  0.1554590E+03  0.7546771E-02  0.1194009E+00
         21   -1    0    0  501  502  0.00000000000E+00  0.00000000000E+00  0.21538731367E+03  0.21538731367E+03  0.00000000000E+00 0. -1.
          2   -1    0    0  503    0 -0.00000000000E+00 -0.00000000000E+00 -0.34568047608E+03  0.34568047608E+03  0.00000000000E+00 0. -1.
         23    2    1    2    0    0  0.81142718572E+02  0.12173016201E+03 -0.22320509248E+03  0.28234133111E+03  0.92161493158E+02 0.  0.
         23    2    1    2    0    0 -0.89659235657E+02 -0.21141847122E+02  0.18358619088E+02  0.13123624807E+03  0.91652374076E+02 0.  0.
        -11    1    4    4    0    0 -0.73703780924E+02  0.25923660839E+02  0.22671978404E+02  0.81352947817E+02  0.00000000000E+00 0. -1.
         11    1    4    4    0    0 -0.15955454734E+02 -0.47065507961E+02 -0.43133593165E+01  0.49883300251E+02  0.00000000000E+00 0.  1.
        -11    1    3    3    0    0  0.21284923720E+01  0.33804649661E+02 -0.12234953511E+03  0.12695154021E+03  0.00000000000E+00 0.  1.
         11    1    3    3    0    0  0.79014226200E+02  0.87925512350E+02 -0.10085555737E+03  0.15538979090E+03  0.00000000000E+00 0. -1.
         21    1    1    2  503  502 -0.31990720234E+02 -0.29360619639E+02  0.14068205626E+02  0.45643910615E+02  0.00000000000E+00 0. -1.
          2    1    1    2  501    0  0.40507237319E+02 -0.71227695250E+02  0.60485105355E+02  0.10184629996E+03  0.00000000000E+00 0. -1.
<scales pt_clust_5="13000.00000" pt_clust_6="13000.00000" pt_clust_7="13000.00000" pt_clust_8="13000.00000" pt_clust_9="43.42179" pt_clust_10="88.15350"></scales>
<clustering>
<clus scale="   43.422">  1  9  2 -1</clus>
<clus scale="   88.153">  1 10  2 -1</clus>
<clus scale="   91.652">  5  6 -1 -1</clus>
<clus scale="   92.161">  7  8 -1 -1</clus>
<clus scale="  155.158">  1  5  2 -1</clus>
<clus scale="   43.422">  1  5  2 -1</clus>
</clustering>
</event>
<event>
10    2  0.1671105E-006  0.1259939E+03  0.7546771E-02  0.1235156E+00
          1   -1    0    0  503    0 -0.00000000000E+00  0.00000000000E+00  0.59505267783E+03  0.59505267783E+03  0.00000000000E+00 0. -1.
         21   -1    0    0  501  502  0.00000000000E+00 -0.00000000000E+00 -0.12529580218E+03  0.12529580218E+03  0.00000000000E+00 0. -1.
         23    2    1    2    0    0  0.42370981865E+02  0.52064818632E+02  0.23846469273E+03  0.26555855428E+03  0.95655060656E+02 0.  0.
         23    2    1    2    0    0 -0.69826988184E+02 -0.66935205742E+02  0.31945902148E+03  0.34573504230E+03  0.90125041030E+02 0.  0.
        -13    1    3    3    0    0  0.98438367380E+01 -0.26271318755E+02  0.93329878508E+02  0.97455372008E+02  0.00000000000E+00 0.  1.
         13    1    3    3    0    0  0.32527145127E+02  0.78336137387E+02  0.14513481423E+03  0.16810318228E+03  0.00000000000E+00 0. -1.
        -13    1    4    4    0    0 -0.94767846677E+01  0.19175398670E+02  0.10159255426E+03  0.10381980756E+03  0.00000000000E+00 0.  1.
         13    1    4    4    0    0 -0.60350203517E+02 -0.86110604412E+02  0.21786646722E+03  0.24191523474E+03  0.00000000000E+00 0. -1.
         21    1    1    2  503  502  0.39628823575E+02 -0.57855966109E+01 -0.58809237961E+02  0.71150848593E+02  0.00000000000E+00 0. -1.
          1    1    1    2  501    0 -0.12172817255E+02  0.20655983721E+02 -0.29357600601E+02  0.37904034831E+02  0.00000000000E+00 0. -1.
<scales pt_clust_5="13000.00000" pt_clust_6="13000.00000" pt_clust_7="13000.00000" pt_clust_8="13000.00000" pt_clust_9="32.24018" pt_clust_10="23.97597"></scales>
<clustering>
<clus scale="   23.976">  2 10  1 -1</clus>
<clus scale="   32.240">  2  9  1 -1</clus>
<clus scale="   90.125">  7  8 -1 -1</clus>
<clus scale="   95.655">  5  6 -1 -1</clus>
<clus scale="  121.849">  2  7  1 -1</clus>
<clus scale="   23.976">  2  5  1 -1</clus>
</clustering>
</event>
<event>
10    2  0.1671105E-006  0.1608223E+03  0.7546771E-02  0.1205307E+00
         21   -1    0    0  503  502  0.00000000000E+00  0.00000000000E+00  0.74058979595E+03  0.74058979595E+03  0.00000000000E+00 0.  1.
         -1   -1    0    0    0  501 -0.00000000000E+00 -0.00000000000E+00 -0.13342811850E+03  0.13342811850E+03  0.00000000000E+00 0.  1.
         23    2    1    2    0    0  0.15229116959E+02  0.32467593008E+02 -0.32919948549E+02  0.11533932785E+03  0.10456274164E+03 0.  0.
         23    2    1    2    0    0 -0.25800078379E+02  0.99843594881E+02  0.95822240998E+02  0.16770432780E+03  0.91150711516E+02 0.  0.
        -11    1    3    3    0    0  0.59188563285E+02  0.25442955076E+02 -0.97678168577E+01  0.65161646947E+02  0.00000000000E+00 0.  1.
         11    1    3    3    0    0 -0.43959446326E+02  0.70246379315E+01 -0.23152131691E+02  0.50177680907E+02  0.00000000000E+00 0. -1.
        -13    1    4    4    0    0  0.25229332229E+02  0.77409115521E+02  0.49993643007E+02  0.95540853626E+02  0.00000000000E+00 0.  1.
         13    1    4    4    0    0 -0.51029410608E+02  0.22434479360E+02  0.45828597991E+02  0.72163474175E+02  0.00000000000E+00 0. -1.
         21    1    1    2  503  501 -0.37263904500E+02 -0.77664655615E+00  0.98653677745E+01  0.38555508553E+02  0.00000000000E+00 0. -1.
         -1    1    1    2    0  502  0.47834865920E+02 -0.13153454133E+03  0.53439401723E+03  0.55241875024E+03  0.00000000000E+00 0.  1.
<scales pt_clust_5="13000.00000" pt_clust_6="13000.00000" pt_clust_7="13000.00000" pt_clust_8="13000.00000" pt_clust_9="37.27200" pt_clust_10="132.49664"></scales>
<clustering>
<clus scale="   37.272">  2  9  1 -1</clus>
<clus scale="   91.151">  7  8 -1 -1</clus>
<clus scale="  104.563">  5  6 -1 -1</clus>
<clus scale="  109.635">  2  5  1 -1</clus>
<clus scale="  132.497">  1 10  2 -1</clus>
<clus scale="  132.497">  1  5  2 -1</clus>
</clustering>
</event>
<event>
10    2  0.1671105E-006  0.1156293E+03  0.7546771E-02  0.1251074E+00
         21   -1    0    0  503  502  0.00000000000E+00  0.00000000000E+00  0.14946921558E+03  0.14946921558E+03  0.00000000000E+00 0.  1.
         -1   -1    0    0    0  501 -0.00000000000E+00 -0.00000000000E+00 -0.60485322778E+03  0.60485322778E+03  0.00000000000E+00 0.  1.
         23    2    1    2    0    0  0.32382927059E+02  0.92224784249E+02 -0.41759350031E+03  0.43862028562E+03  0.91920393054E+02 0.  0.
         23    2    1    2    0    0  0.46892373648E+02 -0.23347322512E+02 -0.11339343472E+03  0.15608087195E+03  0.93590466272E+02 0.  0.
        -13    1    3    3    0    0 -0.52540420678E+01  0.96103570334E+02 -0.30699548440E+03  0.32172927848E+03  0.00000000000E+00 0.  1.
         13    1    3    3    0    0  0.37636969126E+02 -0.38787860844E+01 -0.11059801591E+03  0.11689100714E+03  0.00000000000E+00 0. -1.
        -13    1    4    4    0    0  0.27192880421E+02 -0.10769275427E+02  0.96798354421E+01  0.30807941395E+02  0.00000000000E+00 0. -1.
         13    1    4    4    0    0  0.19699493227E+02 -0.12578047085E+02 -0.12307327016E+03  0.12527293056E+03  0.00000000000E+00 0.  1.
         21    1    1    2  503  501 -0.20600955975E+02  0.45049817785E+01 -0.17459889883E+02  0.27377764749E+02  0.00000000000E+00 0. -1.
         -1    1    1    2    0  502 -0.58674344731E+02 -0.73382443515E+02  0.93062812712E+02  0.13224352104E+03  0.00000000000E+00 0.  1.
<scales pt_clust_5="13000.00000" pt_clust_6="13000.00000" pt_clust_7="13000.00000" pt_clust_8="13000.00000" pt_clust_9="21.08777" pt_clust_10="94.27216"></scales>
<clustering>
<clus scale="   21.088">  2  9  1 -1</clus>
<clus scale="   91.920">  5  6 -1 -1</clus>
<clus scale="   93.590">  7  8 -1 -1</clus>
<clus scale="   94.272">  1 10  2 -1</clus>
<clus scale="  114.282">  2  5  1 -1</clus>
<clus scale="   94.272">  1  5  2 -1</clus>
</clustering>
</event>
<event>
10    2  0.1671105E-006  0.9428353E+02  0.7546771E-02  0.1295866E+00
          2   -1    0    0  503    0 -0.00000000000E+00  0.00000000000E+00  0.27723093347E+03  0.27723093347E+03  0.00000000000E+00 0. -1.
         21   -1    0    0  501  502  0.00000000000E+00 -0.00000000000E+00 -0.77616020738E+02  0.77616020738E+02  0.00000000000E+00 0.  1.
         23    2    1    2    0    0 -0.65408462052E+01 -0.17648672848E+02  0.17675316679E+03  0.19818140898E+03  0.87635213089E+02 0.  0.
         23    2    1    2    0    0 -0.21820163873E+02  0.94268787270E+01  0.23746964575E+02  0.98832448109E+02  0.92945946005E+02 0.  0.
        -11    1    3    3    0    0 -0.18930659370E+02  0.32236763098E+02  0.61252983190E+02  0.71760063468E+02  0.00000000000E+00 0.  1.
         11    1    3    3    0    0  0.12389813165E+02 -0.49885435946E+02  0.11550018360E+03  0.12642134552E+03  0.00000000000E+00 0. -1.
        -13    1    4    4    0    0 -0.33539178797E+02 -0.33592211093E+02  0.26123221583E+02  0.54182431344E+02  0.00000000000E+00 0.  1.
         13    1    4    4    0    0  0.11719014925E+02  0.43019089820E+02 -0.23762570081E+01  0.44650016765E+02  0.00000000000E+00 0. -1.
         21    1    1    2  503  502  0.10719943611E+02 -0.17341888875E+02  0.12605601427E+02  0.23969970549E+02  0.00000000000E+00 0. -1.
          2    1    1    2  501    0  0.17641066467E+02  0.25563682996E+02 -0.13490820067E+02  0.33863126561E+02  0.00000000000E+00 0. -1.
<scales pt_clust_5="13000.00000" pt_clust_6="13000.00000" pt_clust_7="13000.00000" pt_clust_8="13000.00000" pt_clust_9="20.38770" pt_clust_10="29.02403"></scales>
<clustering>
<clus scale="   20.388">  2  9  1 -1</clus>
<clus scale="   29.024">  2 10  1 -1</clus>
<clus scale="   87.635">  5  6 -1 -1</clus>
<clus scale="   89.053">  1  5  2 -1</clus>
<clus scale="   92.946">  7  8 -1 -1</clus>
<clus scale="   20.388">  2  5  1 -1</clus>
</clustering>
</event>
<event>
10    2  0.1671105E-006  0.1624485E+03  0.7546771E-02  0.1185975E+00
         -1   -1    0    0    0  501 -0.00000000000E+00  0.00000000000E+00  0.22119068833E+03  0.22119068833E+03  0.00000000000E+00 0.  1.
         21   -1    0    0  503  502  0.00000000000E+00 -0.00000000000E+00 -0.22441958256E+03  0.22441958256E+03  0.00000000000E+00 0. -1.
         23    2    1    2    0    0  0.83029432367E+02 -0.10566290711E+03  0.35708030714E+02  0.16561681936E+03  0.89974056369E+02 0.  0.
         23    2    1    2    0    0 -0.51615022907E+02  0.14591325706E+03 -0.57574174171E+02  0.18800736937E+03  0.89873223101E+02 0.  0.
        -11    1    4    4    0    0 -0.10260150514E+02  0.35463668230E+02 -0.59535779090E+02  0.70053204386E+02  0.00000000000E+00 0. -1.
         11    1    4    4    0    0 -0.41354872393E+02  0.11044958883E+03  0.19616049183E+01  0.11795416499E+03  0.00000000000E+00 0.  1.
        -11    1    3    3    0    0  0.17462378602E+02 -0.90115968146E+02  0.34969438640E+02  0.98227715133E+02  0.00000000000E+00 0.  1.
         11    1    3    3    0    0  0.65567053765E+02 -0.15546938968E+02  0.73859207347E+00  0.67389104231E+02  0.00000000000E+00 0. -1.
         21    1    1    2  503  501 -0.37000855574E+02 -0.25374476225E+01  0.34537524154E+02  0.50678817353E+02  0.00000000000E+00 0.  1.
         -1    1    1    2    0  502  0.55864461137E+01 -0.37712902327E+02 -0.15900274931E+02  0.41307264797E+02  0.00000000000E+00 0.  1.
<scales pt_clust_5="13000.00000" pt_clust_6="13000.00000" pt_clust_7="13000.00000" pt_clust_8="13000.00000" pt_clust_9="37.08776" pt_clust_10="38.00840"></scales>
<clustering>
<clus scale="   37.088">  1  9  2 -1</clus>
<clus scale="   38.008">  2 10  1 -1</clus>
<clus scale="   89.873">  5  6 -1 -1</clus>
<clus scale="   89.974">  7  8 -1 -1</clus>
<clus scale="  162.393">  2  5  1 -1</clus>
<clus scale="   38.008">  2  5  1 -1</clus>
</clustering>
</event>
<event>
10    2  0.1671105E-006  0.4018596E+03  0.7546771E-02  0.1060042E+00
         21   -1    0    0  503  502  0.00000000000E+00  0.00000000000E+00  0.51817175886E+03  0.51817175886E+03  0.00000000000E+00 0. -1.
          2   -1    0    0  502    0 -0.00000000000E+00 -0.00000000000E+00 -0.15264897915E+04  0.15264897915E+04  0.00000000000E+00 0. -1.
         23    2    1    2    0    0  0.22948868533E+03  0.28541208428E+02 -0.11337759228E+04  0.11606790403E+04  0.90820341083E+02 0.  0.
         23    2    1    2    0    0 -0.75036575286E+02  0.37202314377E+03 -0.99310493724E+02  0.39641086770E+03  0.56985039547E+02 0.  0.
        -11    1    4    4    0    0 -0.23201609773E+02  0.37696597298E+02 -0.17288605810E+01  0.44298274265E+02  0.00000000000E+00 0.  1.
         11    1    4    4    0    0 -0.51834965513E+02  0.33432654648E+03 -0.97581633143E+02  0.35211259343E+03  0.00000000000E+00 0. -1.
        -13    1    3    3    0    0  0.57132011095E+02 -0.27731755740E+02 -0.21495757763E+03  0.22414253757E+03  0.00000000000E+00 0.  1.
         13    1    3    3    0    0  0.17235667423E+03  0.56272964168E+02 -0.91881834514E+03  0.93653650276E+03  0.00000000000E+00 0. -1.
         21    1    1    2  503  501 -0.66760269042E+02 -0.12901556580E+03  0.98595797335E+02  0.17556503352E+03  0.00000000000E+00 0. -1.
          2    1    1    2  501    0 -0.87691841001E+02 -0.27154878640E+03  0.12617258649E+03  0.31200660883E+03  0.00000000000E+00 0. -1.
<scales pt_clust_5="13000.00000" pt_clust_6="13000.00000" pt_clust_7="13000.00000" pt_clust_8="13000.00000" pt_clust_9="38.40940" pt_clust_10="401.42483"></scales>
<clustering>
<clus scale="   38.409">  9 10 -1 -1</clus>
<clus scale="   56.985">  5  6 -1 -1</clus>
<clus scale="   90.820">  7  8 -1 -1</clus>
<clus scale="  248.451">  2  7  1 -1</clus>
<clus scale="  401.425">  1  9  2 -1</clus>
<clus scale="  401.425">  1  5  2 -1</clus>
</clustering>
</event>
<event>
10    2  0.1671105E-006  0.9612047E+02  0.7546771E-02  0.1290911E+00
         21   -1    0    0  503  502  0.00000000000E+00  0.00000000000E+00  0.21333457227E+03  0.21333457227E+03  0.00000000000E+00 0.  1.
         -4   -1    0    0    0  501 -0.00000000000E+00 -0.00000000000E+00 -0.29324031044E+03  0.29324031044E+03  0.00000000000E+00 0.  1.
         23    2    1    2    0    0 -0.24401779619E+02  0.11077831361E+01 -0.18225023575E+03  0.20535058137E+03  0.91416840938E+02 0.  0.
         23    2    1    2    0    0 -0.15092045013E+02  0.21121593564E+01 -0.70339939237E+02  0.11950059353E+03  0.95396298473E+02 0.  0.
        -11    1    3    3    0    0 -0.36693701569E+02 -0.38142076753E+02 -0.11356030111E+03  0.12528841823E+03  0.00000000000E+00 0.  1.
         11    1    3    3    0    0  0.12291921950E+02  0.39249859889E+02 -0.68689934640E+02  0.80062163145E+02  0.00000000000E+00 0. -1.
        -13    1    4    4    0    0 -0.39185828701E+02 -0.26912079851E+02 -0.66274756827E+02  0.81560606946E+02  0.00000000000E+00 0.  1.
         13    1    4    4    0    0  0.24093783688E+02  0.29024239208E+02 -0.40651824099E+01  0.37939986584E+02  0.00000000000E+00 0. -1.
         21    1    1    2  503  501  0.28500750650E+02  0.15603107810E+02  0.12722013703E+03  0.13130389570E+03  0.00000000000E+00 0.  1.
         -4    1    1    2    0  502  0.10993073981E+02 -0.18823050303E+02  0.45464299783E+02  0.50419812108E+02  0.00000000000E+00 0.  1.
<scales pt_clust_5="13000.00000" pt_clust_6="13000.00000" pt_clust_7="13000.00000" pt_clust_8="13000.00000" pt_clust_9="37.10308" pt_clust_10="21.79805"></scales>
<clustering>
<clus scale="   21.798">  1 10  2 -1</clus>
<clus scale="   37.103">  1  9  2 -1</clus>
<clus scale="   91.417">  5  6 -1 -1</clus>
<clus scale="   92.172">  2  5  1 -1</clus>
<clus scale="   95.396">  7  8 -1 -1</clus>
<clus scale="   21.798">  1  5  2 -1</clus>
</clustering>
</event>
<event>
10    2  0.1671105E-006  0.1502294E+03  0.7546771E-02  0.1216950E+00
         21   -1    0    0  501  502  0.00000000000E+00  0.00000000000E+00  0.54093296208E+02  0.54093296208E+02  0.00000000000E+00 0. -1.
          2   -1    0    0  503    0 -0.00000000000E+00 -0.00000000000E+00 -0.12173157249E+04  0.12173157249E+04  0.00000000000E+00 0. -1.
         23    2    1    2    0    0 -0.64044627392E+02 -0.37001901379E+00 -0.46941323276E+03  0.48234280165E+03  0.90575625852E+02 0.  0.
         23    2    1    2    0    0 -0.94288736983E+02  0.70331582184E+02 -0.20561203373E+03  0.25355737579E+03  0.90433052748E+02 0.  0.
        -11    1    4    4    0    0 -0.36848212498E+02  0.25642279289E+02 -0.11632616737E+02  0.46374939608E+02  0.00000000000E+00 0.  1.
         11    1    4    4    0    0 -0.57440524485E+02  0.44689302895E+02 -0.19397941699E+03  0.20718243619E+03  0.00000000000E+00 0. -1.
        -13    1    3    3    0    0 -0.79241200275E+02 -0.20737738387E+02 -0.40286682041E+03  0.41110934871E+03  0.00000000000E+00 0. -1.
         13    1    3    3    0    0  0.15196572883E+02  0.20367719373E+02 -0.66546412357E+02  0.71233452938E+02  0.00000000000E+00 0.  1.
         21    1    1    2  503  502  0.80082709478E+02 -0.10687490911E+03 -0.29437629572E+03  0.32325360019E+03  0.00000000000E+00 0. -1.
          2    1    1    2  501    0  0.78250654897E+02  0.36913345942E+02 -0.19382086649E+03  0.21225524348E+03  0.00000000000E+00 0. -1.
<scales pt_clust_5="13000.00000" pt_clust_6="13000.00000" pt_clust_7="13000.00000" pt_clust_8="13000.00000" pt_clust_9="119.96145" pt_clust_10="86.52029"></scales>
<clustering>
<clus scale="   86.520">  1 10  2 -1</clus>
<clus scale="   90.433">  5  6 -1 -1</clus>
<clus scale="   90.576">  7  8 -1 -1</clus>
<clus scale="  104.944">  2  7  1 -1</clus>
<clus scale="  119.961">  2  9  1 -1</clus>
<clus scale="   86.520">  1  5  2 -1</clus>
</clustering>
</event>
<event>
10    2  0.1671105E-006  0.9480780E+02  0.7546771E-02  0.1292236E+00
         21   -1    0    0  501  502  0.00000000000E+00  0.00000000000E+00  0.30879734943E+02  0.30879734943E+02  0.00000000000E+00 0.  1.
          2   -1    0    0  503    0 -0.00000000000E+00 -0.00000000000E+00 -0.89785664330E+03  0.89785664330E+03  0.00000000000E+00 0. -1.
         23    2    1    2    0    0 -0.99066046028E+01  0.54959454501E+02 -0.26137139873E+03  0.28250531944E+03  0.91518112883E+02 0.  0.
         23    2    1    2    0    0  0.29403218336E+02  0.19032723141E+02 -0.23835958002E+03  0.25731276487E+03  0.90375747758E+02 0.  0.
        -13    1    3    3    0    0  0.10048138837E+00  0.76645053539E+02 -0.14825667660E+03  0.16689672401E+03  0.00000000000E+00 0.  1.
         13    1    3    3    0    0 -0.10007085991E+02 -0.21685599038E+02 -0.11311472213E+03  0.11560859543E+03  0.00000000000E+00 0. -1.
        -13    1    4    4    0    0 -0.29743424175E+02 -0.70048036998E+01 -0.10079292598E+03  0.10532308619E+03  0.00000000000E+00 0. -1.
         13    1    4    4    0    0  0.59146642511E+02  0.26037526841E+02 -0.13756665404E+03  0.15198967869E+03  0.00000000000E+00 0.  1.
         21    1    1    2  503  502  0.27641882617E+02 -0.71907425328E+02 -0.27086566665E+03  0.28160781392E+03  0.00000000000E+00 0. -1.
          2    1    1    2  501    0 -0.47138496350E+02 -0.20847523137E+01 -0.96380262956E+02  0.10731048000E+03  0.00000000000E+00 0. -1.
<scales pt_clust_5="13000.00000" pt_clust_6="13000.00000" pt_clust_7="13000.00000" pt_clust_8="13000.00000" pt_clust_9="74.47689" pt_clust_10="47.18457"></scales>
<clustering>
<clus scale="   47.185">  1 10  2 -1</clus>
<clus scale="   74.477">  2  9  1 -1</clus>
<clus scale="   90.376">  7  8 -1 -1</clus>
<clus scale="   91.518">  5  6 -1 -1</clus>
<clus scale="   93.706">  1  7  2 -1</clus>
<clus scale="   47.185">  1  5  2 -1</clus>
</clustering>
</event>
<event>
10    2  0.1671105E-006  0.1637904E+03  0.7546771E-02  0.1206593E+00
         21   -1    0    0  501  502  0.00000000000E+00  0.00000000000E+00  0.16891057384E+03  0.16891057384E+03  0.00000000000E+00 0. -1.
          1   -1    0    0  503    0 -0.00000000000E+00 -0.00000000000E+00 -0.71814545954E+03  0.71814545954E+03  0.00000000000E+00 0. -1.
         23    2    1    2    0    0 -0.37041135591E+02 -0.21933300060E+02 -0.20063862435E+03  0.22460517776E+03  0.91315458266E+02 0.  0.
         23    2    1    2    0    0  0.16979405104E+02 -0.12217485001E+03 -0.36993846145E+03  0.40107340548E+03  0.93757224525E+02 0.  0.
        -11    1    3    3    0    0 -0.57536182157E+02 -0.32438212929E+02 -0.18584330813E+03  0.19723180548E+03  0.00000000000E+00 0. -1.
         11    1    3    3    0    0  0.20495046565E+02  0.10504912870E+02 -0.14795316222E+02  0.27373372285E+02  0.00000000000E+00 0.  1.
        -11    1    4    4    0    0  0.20788423804E+02  0.96515523975E+01 -0.49034786527E+02  0.54126900130E+02  0.00000000000E+00 0.  1.
         11    1    4    4    0    0 -0.38090186998E+01 -0.13182640241E+03 -0.32090367492E+03  0.34694650535E+03  0.00000000000E+00 0. -1.
         21    1    1    2  503  502 -0.88566441968E+02  0.12014992441E+03  0.12571036874E+02  0.14979335749E+03  0.00000000000E+00 0. -1.
          1    1    1    2  501    0  0.10862817246E+03  0.23958225661E+02  0.87711632241E+01  0.11158409265E+03  0.00000000000E+00 0. -1.
<scales pt_clust_5="13000.00000" pt_clust_6="13000.00000" pt_clust_7="13000.00000" pt_clust_8="13000.00000" pt_clust_9="134.30139" pt_clust_10="107.08888"></scales>
<clustering>
<clus scale="   91.315">  5  6 -1 -1</clus>
<clus scale="   93.757">  7  8 -1 -1</clus>
<clus scale="  100.954">  2  5  1 -1</clus>
<clus scale="  107.089">  1 10  2 -1</clus>
<clus scale="  134.301">  1  9  2 -1</clus>
<clus scale="  107.089">  1  5  2 -1</clus>
</clustering>
</event>
<event>
10    2  0.1671105E-006  0.9321188E+02  0.7546771E-02  0.1296015E+00
         21   -1    0    0  501  502  0.00000000000E+00  0.00000000000E+00  0.63136367413E+02  0.63136367413E+02  0.00000000000E+00 0.  1.
          1   -1    0    0  503    0 -0.00000000000E+00 -0.00000000000E+00 -0.47022713221E+03  0.47022713221E+03  0.00000000000E+00 0. -1.
         23    2    1    2    0    0 -0.14005384305E+02 -0.10355716314E+02 -0.33984617613E+03  0.35209483098E+03  0.90398865712E+02 0.  0.
         23    2    1    2    0    0  0.25105721861E+02 -0.23662297845E+02 -0.66248044013E+02  0.11829026326E+03  0.91725576785E+02 0.  0.
        -11    1    3    3    0    0  0.23971900261E+02  0.25261231861E+02 -0.82747073195E+02  0.89776722816E+02  0.00000000000E+00 0. -1.
         11    1    3    3    0    0 -0.37977284566E+02 -0.35616948175E+02 -0.25709910293E+03  0.26231810816E+03  0.00000000000E+00 0.  1.
        -11    1    4    4    0    0 -0.14923225152E+02 -0.30944580456E+02  0.64747637254E+01  0.34959866616E+02  0.00000000000E+00 0.  1.
         11    1    4    4    0    0  0.40028947013E+02  0.72822826107E+01 -0.72722807739E+02  0.83330396641E+02  0.00000000000E+00 0. -1.
         21    1    1    2  503  502  0.19302012349E+02  0.11379628150E+02  0.83939004603E+01  0.23927414873E+02  0.00000000000E+00 0.  1.
          1    1    1    2  501    0 -0.30402349906E+02  0.22638386009E+02 -0.93904451187E+01  0.39050990518E+02  0.00000000000E+00 0. -1.
<scales pt_clust_5="13000.00000" pt_clust_6="13000.00000" pt_clust_7="13000.00000" pt_clust_8="13000.00000" pt_clust_9="22.40678" pt_clust_10="35.76276"></scales>
<clustering>
<clus scale="   22.407">  1  9  2 -1</clus>
<clus scale="   35.763">  1 10  2 -1</clus>
<clus scale="   90.399">  5  6 -1 -1</clus>
<clus scale="   91.726">  7  8 -1 -1</clus>
<clus scale="   91.907">  2  5  1 -1</clus>
<clus scale="   22.407">  1  5  2 -1</clus>
</clustering>
</event>
<event>
10    2  0.1671105E-006  0.3521118E+03  0.7546771E-02  0.1111266E+00
         21   -1    0    0  503  502  0.00000000000E+00  0.00000000000E+00  0.44611241828E+03  0.44611241828E+03  0.00000000000E+00 0. -1.
          2   -1    0    0  502    0 -0.00000000000E+00 -0.00000000000E+00 -0.11981976411E+04  0.11981976411E+04  0.00000000000E+00 0. -1.
         23    2    1    2    0    0  0.23583182161E+02  0.34872269721E+01 -0.35922156909E+02  0.10084314792E+03  0.91162557518E+02 0.  0.
         23    2    1    2    0    0 -0.11397517271E+03 -0.33112642542E+03 -0.10223713437E+04  0.10843879059E+04  0.89548402484E+02 0.  0.
        -11    1    4    4    0    0 -0.94792656020E+02 -0.29999988014E+03 -0.81121193641E+03  0.87008642185E+03  0.00000000000E+00 0. -1.
         11    1    4    4    0    0 -0.19182516689E+02 -0.31126545279E+02 -0.21115940729E+03  0.21430148402E+03  0.00000000000E+00 0.  1.
        -13    1    3    3    0    0 -0.27412656418E+02  0.11767304222E+02 -0.38984443304E+02  0.49088797095E+02  0.00000000000E+00 0.  1.
         13    1    3    3    0    0  0.50995838579E+02 -0.82800772502E+01  0.30622863955E+01  0.51754350827E+02  0.00000000000E+00 0. -1.
         21    1    1    2  503  501  0.24769568650E+02  0.82575612159E+02  0.10089998231E+03  0.13271424070E+03  0.00000000000E+00 0. -1.
          2    1    1    2  501    0  0.65622421898E+02  0.24506358629E+03  0.20530829546E+03  0.32636476490E+03  0.00000000000E+00 0. -1.
<scales pt_clust_5="13000.00000" pt_clust_6="13000.00000" pt_clust_7="13000.00000" pt_clust_8="13000.00000" pt_clust_9="22.36436" pt_clust_10="342.68886"></scales>
<clustering>
<clus scale="   22.364">  9 10 -1 -1</clus>
<clus scale="   89.548">  5  6 -1 -1</clus>
<clus scale="   91.163">  7  8 -1 -1</clus>
<clus scale="   94.228">  2  7  1 -1</clus>
<clus scale="  342.689">  1  9  2 -1</clus>
<clus scale="  342.689">  1  5  2 -1</clus>
</clustering>
</event>
<event>
10    2  0.1671105E-006  0.9309161E+02  0.7546771E-02  0.1296585E+00
         21   -1    0    0  501  502  0.00000000000E+00  0.00000000000E+00  0.89084798569E+02  0.89084798569E+02  0.00000000000E+00 0. -1.
          1   -1    0    0  503    0 -0.00000000000E+00 -0.00000000000E+00 -0.59899498230E+03  0.59899498230E+03  0.00000000000E+00 0. -1.
         23    2    1    2    0    0 -0.22885358708E+02  0.30599729275E+02 -0.38046538042E+03  0.39257747484E+03  0.88899296821E+02 0.  0.
         23    2    1    2    0    0 -0.40244893176E+02  0.91387097949E+01 -0.13446084550E+03  0.16738442138E+03  0.90745016978E+02 0.  0.
        -11    1    3    3    0    0  0.31950317486E+02 -0.33164867907E+01 -0.11594549046E+03  0.12031283651E+03  0.00000000000E+00 0.  1.
         11    1    3    3    0    0 -0.54835676194E+02  0.33916216065E+02 -0.26451988996E+03  0.27226463832E+03  0.00000000000E+00 0. -1.
        -13    1    4    4    0    0 -0.63734301251E+02  0.65668835411E+01 -0.12759335617E+03  0.14277692269E+03  0.00000000000E+00 0. -1.
         13    1    4    4    0    0  0.23489408076E+02  0.25718262537E+01 -0.68674893279E+01  0.24607498689E+02  0.00000000000E+00 0.  1.
         21    1    1    2  503  502  0.56925748827E+02  0.17295392373E+01 -0.37670213215E+02  0.68283066343E+02  0.00000000000E+00 0.  1.
          1    1    1    2  501    0  0.62045030568E+01 -0.41467978307E+02  0.42686255396E+02  0.59834818315E+02  0.00000000000E+00 0. -1.
<scales pt_clust_5="13000.00000" pt_clust_6="13000.00000" pt_clust_7="13000.00000" pt_clust_8="13000.00000" pt_clust_9="61.31270" pt_clust_10="41.92957"></scales>
<clustering>
<clus scale="   41.930">  1 10  2 -1</clus>
<clus scale="   61.313">  1  9  2 -1</clus>
<clus scale="   88.899">  5  6 -1 -1</clus>
<clus scale="   90.745">  7  8 -1 -1</clus>
<clus scale="   91.293">  2  5  1 -1</clus>
<clus scale="   41.930">  1  5  2 -1</clus>
</clustering>
</event>
<event>
10    2  0.1671105E-006  0.1506346E+03  0.7546771E-02  0.1200237E+00
         21   -1    0    0  501  502  0.00000000000E+00  0.00000000000E+00  0.49906409161E+02  0.49906409161E+02  0.00000000000E+00 0.  1.
          1   -1    0    0  503    0 -0.00000000000E+00 -0.00000000000E+00 -0.81382003551E+03  0.81382003551E+03  0.00000000000E+00 0. -1.
         23    2    1    2    0    0  0.67630369849E+02  0.13431462764E+03 -0.38013200925E+03  0.41939946287E+03  0.93708478167E+02 0.  0.
         23    2    1    2    0    0 -0.10831032991E+02 -0.96524425400E+02 -0.16688930107E+03  0.21340090580E+03  0.90849500874E+02 0.  0.
        -11    1    4    4    0    0 -0.27477033157E+02 -0.35944616537E+02 -0.12835763367E+02  0.47029348607E+02  0.00000000000E+00 0.  1.
         11    1    4    4    0    0  0.16646000166E+02 -0.60579808863E+02 -0.15405353770E+03  0.16637155719E+03  0.00000000000E+00 0. -1.
        -13    1    3    3    0    0  0.18808253850E+02 -0.12140528880E+02 -0.58482649982E+02  0.62620788907E+02  0.00000000000E+00 0. -1.
         13    1    3    3    0    0  0.48822115998E+02  0.14645515652E+03 -0.32164935926E+03  0.35677867397E+03  0.00000000000E+00 0.  1.
         21    1    1    2  503  502 -0.20778279237E+02 -0.36416655271E+02 -0.95585931065E+02  0.10437710423E+03  0.00000000000E+00 0. -1.
          1    1    1    2  501    0 -0.36021057620E+02 -0.13735469691E+01 -0.12130638497E+03  0.12654897178E+03  0.00000000000E+00 0. -1.
<scales pt_clust_5="13000.00000" pt_clust_6="13000.00000" pt_clust_7="13000.00000" pt_clust_8="13000.00000" pt_clust_9="43.79029" pt_clust_10="36.04725"></scales>
<clustering>
<clus scale="   36.047">  1 10  2 -1</clus>
<clus scale="   43.790">  2  9  1 -1</clus>
<clus scale="   90.850">  5  6 -1 -1</clus>
<clus scale="   93.708">  7  8 -1 -1</clus>
<clus scale="  148.873">  1  5  2 -1</clus>
<clus scale="   36.047">  1  5  2 -1</clus>
</clustering>
</event>
<event>
10    2  0.1671105E-006  0.2171523E+03  0.7546771E-02  0.1136198E+00
         21   -1    0    0  503  502  0.00000000000E+00  0.00000000000E+00  0.31950248212E+03  0.31950248212E+03  0.00000000000E+00 0. -1.
          2   -1    0    0  502    0 -0.00000000000E+00 -0.00000000000E+00 -0.74219675213E+03  0.74219675213E+03  0.00000000000E+00 0. -1.
         23    2    1    2    0    0  0.18010195562E+03  0.64718304388E+02 -0.55183939497E+03  0.59116908057E+03  0.91263303923E+02 0.  0.
         23    2    1    2    0    0 -0.19596473761E+03 -0.19230784801E+03  0.14744303993E+03  0.32534487944E+03  0.93409602074E+02 0.  0.
        -11    1    4    4    0    0 -0.12020396868E+03 -0.64234107678E+02  0.10041233510E+03  0.16928571031E+03  0.00000000000E+00 0.  1.
         11    1    4    4    0    0 -0.75760768931E+02 -0.12807374033E+03  0.47030704829E+02  0.15605916913E+03  0.00000000000E+00 0. -1.
        -13    1    3    3    0    0  0.11601619483E+03  0.14879587897E+02 -0.42309466010E+03  0.43896497696E+03  0.00000000000E+00 0. -1.
         13    1    3    3    0    0  0.64085760792E+02  0.49838716491E+02 -0.12874473487E+03  0.15220410361E+03  0.00000000000E+00 0.  1.
         21    1    1    2  503  501 -0.24688475104E+02  0.58636925243E+02 -0.13565156123E+02  0.65052465484E+02  0.00000000000E+00 0. -1.
          2    1    1    2  501    0  0.40551257092E+02  0.68952618381E+02 -0.47327588412E+01  0.80132808759E+02  0.00000000000E+00 0. -1.
<scales pt_clust_5="13000.00000" pt_clust_6="13000.00000" pt_clust_7="13000.00000" pt_clust_8="13000.00000" pt_clust_9="57.88777" pt_clust_10="144.02760"></scales>
<clustering>
<clus scale="   57.888">  9 10 -1 -1</clus>
<clus scale="   91.263">  7  8 -1 -1</clus>
<clus scale="   93.410">  5  6 -1 -1</clus>
<clus scale="  144.028">  1  9  2 -1</clus>
<clus scale="  216.238">  2  7  1 -1</clus>
<clus scale="  144.028">  1  5  2 -1</clus>
</clustering>
</event>
<event>
10    2  0.1671105E-006  0.2134405E+03  0.7546771E-02  0.1138936E+00
         21   -1    0    0  501  502  0.00000000000E+00  0.00000000000E+00  0.44301363148E+02  0.44301363148E+02  0.00000000000E+00 0.  1.
          2   -1    0    0  503    0 -0.00000000000E+00 -0.00000000000E+00 -0.14757924099E+04  0.14757924099E+04  0.00000000000E+00 0. -1.
         23    2    1    2    0    0 -0.82553275498E+02 -0.18727994380E+03 -0.61661236144E+03  0.65607722739E+03  0.91311025478E+02 0.  0.
         23    2    1    2    0    0  0.79817634455E+02  0.16223837514E+03 -0.47819601516E+03  0.51918753615E+03  0.90510350984E+02 0.  0.
        -11    1    3    3    0    0 -0.25137357240E+02 -0.89434850097E+02 -0.40974225055E+03  0.42014187012E+03  0.00000000000E+00 0. -1.
         11    1    3    3    0    0 -0.57415918259E+02 -0.97845093704E+02 -0.20687011089E+03  0.23593535727E+03  0.00000000000E+00 0.  1.
        -13    1    4    4    0    0  0.97659968538E+01  0.10320626185E+03 -0.32009830843E+03  0.33646669113E+03  0.00000000000E+00 0.  1.
         13    1    4    4    0    0  0.70051637601E+02  0.59032113285E+02 -0.15809770673E+03  0.18272084502E+03  0.00000000000E+00 0. -1.
         21    1    1    2  503  502 -0.26375016943E+02 -0.59218781504E+01 -0.75107478683E+02  0.79823827982E+02  0.00000000000E+00 0.  1.
          2    1    1    2  501    0  0.29110657986E+02  0.30963446812E+02 -0.26157519147E+03  0.26500518153E+03  0.00000000000E+00 0. -1.
<scales pt_clust_5="13000.00000" pt_clust_6="13000.00000" pt_clust_7="13000.00000" pt_clust_8="13000.00000" pt_clust_9="27.03165" pt_clust_10="41.58853"></scales>
<clustering>
<clus scale="   27.032">  1  9  2 -1</clus>
<clus scale="   41.589">  1 10  2 -1</clus>
<clus scale="   90.510">  7  8 -1 -1</clus>
<clus scale="   91.311">  5  6 -1 -1</clus>
<clus scale="  213.099">  1  7  2 -1</clus>
<clus scale="   27.032">  1  5  2 -1</clus>
</clustering>
</event>
<event>
10    2  0.1671105E-006  0.9451806E+02  0.7546771E-02  0.1292885E+00
          1   -1    0    0  503    0 -0.00000000000E+00  0.00000000000E+00  0.53978899591E+03  0.53978899591E+03  0.00000000000E+00 0. -1.
         21   -1    0    0  501  502  0.00000000000E+00 -0.00000000000E+00 -0.11735265536E+03  0.11735265536E+03  0.00000000000E+00 0. -1.
         23    2    1    2    0    0 -0.56268045673E+01 -0.27028691412E+01  0.40356579906E+03  0.41418903460E+03  0.92995891186E+02 0.  0.
         23    2    1    2    0    0  0.24857470435E+00  0.34607311301E+02  0.57153063252E+02  0.11539810421E+03  0.94087842107E+02 0.  0.
        -13    1    3    3    0    0  0.96879857103E+01  0.43479289786E+02  0.19488550889E+03  0.19991164870E+03  0.00000000000E+00 0. -1.
         13    1    3    3    0    0 -0.15314790278E+02 -0.46182158927E+02  0.20868029017E+03  0.21427738590E+03  0.00000000000E+00 0.  1.
        -13    1    4    4    0    0  0.24125094546E+02 -0.11900183522E+02 -0.11374243689E+02  0.29206300248E+02  0.00000000000E+00 0.  1.
         13    1    4    4    0    0 -0.23876519841E+02  0.46507494822E+02  0.68527306941E+02  0.86191803966E+02  0.00000000000E+00 0. -1.
         21    1    1    2  503  502 -0.12889452997E+02  0.42827360916E+02 -0.13044189970E+02  0.46588321858E+02  0.00000000000E+00 0. -1.
          1    1    1    2  501    0  0.18267682860E+02 -0.74731803075E+02 -0.25238331793E+02  0.80966190596E+02  0.00000000000E+00 0. -1.
<scales pt_clust_5="13000.00000" pt_clust_6="13000.00000" pt_clust_7="13000.00000" pt_clust_8="13000.00000" pt_clust_9="44.72495" pt_clust_10="49.85852"></scales>
<clustering>
<clus scale="   44.725">  2  9  1 -1</clus>
<clus scale="   49.859">  2 10  1 -1</clus>
<clus scale="   92.996">  5  6 -1 -1</clus>
<clus scale="   93.431">  1  5  2 -1</clus>
<clus scale="   94.088">  7  8 -1 -1</clus>
<clus scale="   44.725">  2  5  1 -1</clus>
</clustering>
</event>
<event>
10    2  0.1671105E-006  0.3177631E+03  0.7546771E-02  0.1076976E+00
         21   -1    0    0  501  502  0.00000000000E+00  0.00000000000E+00  0.37090834994E+03  0.37090834994E+03  0.00000000000E+00 0. -1.
          2   -1    0    0  503    0 -0.00000000000E+00 -0.00000000000E+00 -0.10857006647E+04  0.10857006647E+04  0.00000000000E+00 0. -1.
         23    2    1    2    0    0 -0.16706494171E+03  0.19256967415E+03 -0.32556883627E+03  0.42486049994E+03  0.97558203680E+02 0.  0.
         23    2    1    2    0    0  0.29695185192E+03 -0.19797572253E+03 -0.60836596619E+03  0.71092343369E+03  0.89040387953E+02 0.  0.
        -11    1    3    3    0    0 -0.12628937821E+03  0.19347014087E+03 -0.28968641198E+03  0.37053733920E+03  0.00000000000E+00 0. -1.
         11    1    3    3    0    0 -0.40775563507E+02 -0.90046671909E+00 -0.35882424294E+02  0.54323160741E+02  0.00000000000E+00 0.  1.
        -13    1    4    4    0    0  0.25988067985E+03 -0.15499713905E+03 -0.55925459275E+03  0.63586773812E+03  0.00000000000E+00 0. -1.
         13    1    4    4    0    0  0.37071172070E+02 -0.42978583477E+02 -0.49111373438E+02  0.75055695569E+02  0.00000000000E+00 0.  1.
         21    1    1    2  503  502 -0.55145046787E+02  0.10948797099E+02 -0.27829065400E+02  0.62732043041E+02  0.00000000000E+00 0. -1.
          2    1    1    2  501    0 -0.74741863415E+02 -0.55427487244E+01  0.24697155310E+03  0.25809303798E+03  0.00000000000E+00 0. -1.
<scales pt_clust_5="13000.00000" pt_clust_6="13000.00000" pt_clust_7="13000.00000" pt_clust_8="13000.00000" pt_clust_9="56.22146" pt_clust_10="114.16379"></scales>
<clustering>
<clus scale="   56.221">  1  9  2 -1</clus>
<clus scale="   89.040">  7  8 -1 -1</clus>
<clus scale="   97.558">  5  6 -1 -1</clus>
<clus scale="  114.164">  1 10  2 -1</clus>
<clus scale="  315.252">  1  7  2 -1</clus>
<clus scale="   56.221">  1  5  2 -1</clus>
</clustering>
</event>
<event>
10    2  0.1671105E-006  0.9641662E+02  0.7546771E-02  0.1288234E+00
         21   -1    0    0  501  502  0.00000000000E+00  0.00000000000E+00  0.51560269003E+03  0.51560269003E+03  0.00000000000E+00 0. -1.
          1   -1    0    0  503    0 -0.00000000000E+00 -0.00000000000E+00 -0.21279793549E+03  0.21279793549E+03  0.00000000000E+00 0. -1.
         23    2    1    2    0    0 -0.44557678122E+02  0.32180442983E+02 -0.11606672814E+03  0.15751669363E+03  0.91208858137E+02 0.  0.
         23    2    1    2    0    0 -0.59414400361E+01  0.21937248162E+02 -0.19031197400E+02  0.96298426916E+02  0.91622360729E+02 0.  0.
        -11    1    3    3    0    0 -0.17114812394E+02  0.17226077451E+02 -0.12310832918E+03  0.12548033815E+03  0.00000000000E+00 0. -1.
         11    1    3    3    0    0 -0.27442865727E+02  0.14954365532E+02  0.70416010418E+01  0.32036355489E+02  0.00000000000E+00 0.  1.
        -13    1    4    4    0    0  0.24085900372E+02  0.13922689534E+02  0.28294394638E+02  0.39680532362E+02  0.00000000000E+00 0.  1.
         13    1    4    4    0    0 -0.30027340408E+02  0.80145586288E+01 -0.47325592038E+02  0.56617894554E+02  0.00000000000E+00 0. -1.
         21    1    1    2  503  502 -0.22945844824E+01 -0.71397108891E+02  0.61961235272E+02  0.94562185636E+02  0.00000000000E+00 0. -1.
          1    1    1    2  501    0  0.52793702640E+02  0.17279417746E+02  0.37594144481E+03  0.38002331934E+03  0.00000000000E+00 0. -1.
<scales pt_clust_5="13000.00000" pt_clust_6="13000.00000" pt_clust_7="13000.00000" pt_clust_8="13000.00000" pt_clust_9="67.52624" pt_clust_10="55.54956"></scales>
<clustering>
<clus scale="   55.550">  1 10  2 -1</clus>
<clus scale="   67.526">  1  9  2 -1</clus>
<clus scale="   91.209">  5  6 -1 -1</clus>
<clus scale="   91.622">  7  8 -1 -1</clus>
<clus scale="   96.024">  2  5  1 -1</clus>
<clus scale="   55.550">  1  5  2 -1</clus>
</clustering>
</event>
<event>
10    2  0.1671105E-006  0.4329279E+03  0.7546771E-02  0.1086239E+00
          2   -1    0    0  502    0 -0.00000000000E+00  0.00000000000E+00  0.18830467405E+04  0.18830467405E+04  0.00000000000E+00 0. -1.
         21   -1    0    0  503  502  0.00000000000E+00 -0.00000000000E+00 -0.13279379220E+03  0.13279379220E+03  0.00000000000E+00 0. -1.
         23    2    1    2    0    0 -0.31814088767E+02 -0.88698883354E+01  0.39249891457E+03  0.40435600310E+03  0.91419736063E+02 0.  0.
         23    2    1    2    0    0  0.43251232784E+03 -0.53812546355E+02  0.62049921330E+03  0.76434261913E+03  0.96112755876E+02 0.  0.
        -11    1    4    4    0    0  0.47959375186E+02  0.12442725278E+02  0.34762245899E+02  0.60525505537E+02  0.00000000000E+00 0.  1.
         11    1    4    4    0    0  0.38455295265E+03 -0.66255271632E+02  0.58573696740E+03  0.70381711360E+03  0.00000000000E+00 0. -1.
        -11    1    3    3    0    0  0.28166122586E+02  0.14921287090E+02  0.10645697002E+03  0.11112633233E+03  0.00000000000E+00 0.  1.
         11    1    3    3    0    0 -0.59980211353E+02 -0.23791175425E+02  0.28604194455E+03  0.29322967078E+03  0.00000000000E+00 0. -1.
         21    1    1    2  503  501 -0.25209434360E+03 -0.62667482669E+01  0.47866844196E+03  0.54103078243E+03  0.00000000000E+00 0. -1.
          2    1    1    2  501    0 -0.14860389547E+03  0.68949182957E+02  0.25858637848E+03  0.30611112805E+03  0.00000000000E+00 0. -1.
<scales pt_clust_5="13000.00000" pt_clust_6="13000.00000" pt_clust_7="13000.00000" pt_clust_8="13000.00000" pt_clust_9="79.03976" pt_clust_10="79.03976"></scales>
<clustering>
<clus scale="   79.040">  9 10 -1 -1</clus>
<clus scale="   91.420">  7  8 -1 -1</clus>
<clus scale="   96.113">  5  6 -1 -1</clus>
<clus scale="   97.203">  1  7  2 -1</clus>
<clus scale="  432.490">  1  5  2 -1</clus>
<clus scale="  432.928">  2  5  1 -1</clus>
</clustering>
</event>
<event>
10    2  0.1671105E-006  0.1466549E+03  0.7546771E-02  0.1227559E+00
          2   -1    0    0  503    0 -0.00000000000E+00  0.00000000000E+00  0.54366685808E+03  0.54366685808E+03  0.00000000000E+00 0. -1.
         21   -1    0    0  501  502  0.00000000000E+00 -0.00000000000E+00 -0.12774638041E+03  0.12774638041E+03  0.00000000000E+00 0. -1.
         23    2    1    2    0    0  0.11482285580E+03  0.37518869947E+01  0.40644649730E+03  0.43224898181E+03  0.91880695657E+02 0.  0.
         23    2    1    2    0    0  0.95191357283E+01  0.30342289866E+01  0.11347934127E+02  0.90586294199E+02  0.89315623478E+02 0.  0.
        -11    1    4    4    0    0 -0.26899493252E+02  0.18655746908E+02  0.32105065649E+02  0.45851443491E+02  0.00000000000E+00 0. -1.
         11    1    4    4    0    0  0.36418628980E+02 -0.15621517921E+02 -0.20757131521E+02  0.44734850709E+02  0.00000000000E+00 0.  1.
        -13    1    3    3    0    0  0.75278789163E+02 -0.32622369788E+02  0.15769036163E+03  0.17775647740E+03  0.00000000000E+00 0.  1.
         13    1    3    3    0    0  0.39544066641E+02  0.36374256783E+02  0.24875613567E+03  0.25449250441E+03  0.00000000000E+00 0. -1.
         21    1    1    2  503  502 -0.10964648924E+03 -0.35440769416E+02 -0.90436271603E+01  0.11558627917E+03  0.00000000000E+00 0. -1.
          2    1    1    2  501    0 -0.14695502290E+02  0.28654653434E+02  0.71696733947E+01  0.32991683309E+02  0.00000000000E+00 0. -1.
<scales pt_clust_5="13000.00000" pt_clust_6="13000.00000" pt_clust_7="13000.00000" pt_clust_8="13000.00000" pt_clust_9="114.30480" pt_clust_10="32.20321"></scales>
<clustering>
<clus scale="   32.203">  2 10  1 -1</clus>
<clus scale="   89.316">  5  6 -1 -1</clus>
<clus scale="   90.355">  2  5  1 -1</clus>
<clus scale="   91.881">  7  8 -1 -1</clus>
<clus scale="  114.305">  2  9  1 -1</clus>
<clus scale="   32.203">  2  5  1 -1</clus>
</clustering>
</event>
<event>
10    2  0.1671105E-006  0.9759193E+02  0.7546771E-02  0.1286305E+00
         -1   -1    0    0    0  501 -0.00000000000E+00  0.00000000000E+00  0.14467076993E+03  0.14467076993E+03  0.00000000000E+00 0.  1.
         21   -1    0    0  503  502  0.00000000000E+00 -0.00000000000E+00 -0.38862782555E+03  0.38862782555E+03  0.00000000000E+00 0.  1.
         23    2    1    2    0    0  0.46402324546E+02 -0.19355941023E+02  0.56333679110E+02  0.12021235566E+03  0.93539825080E+02 0.  0.
         23    2    1    2    0    0  0.19191479014E+02 -0.56163246267E+02 -0.43146395108E+02  0.11759841047E+03  0.91897506146E+02 0.  0.
        -11    1    3    3    0    0  0.27807156387E+02  0.37313655651E+02  0.23598886224E+02  0.52177143228E+02  0.00000000000E+00 0.  1.
         11    1    3    3    0    0  0.18595168159E+02 -0.56669596673E+02  0.32734792886E+02  0.68035212436E+02  0.00000000000E+00 0. -1.
        -13    1    4    4    0    0  0.35471627070E+02 -0.43652825401E+02 -0.66105976430E+02  0.86797497731E+02  0.00000000000E+00 0.  1.
         13    1    4    4    0    0 -0.16280148056E+02 -0.12510420865E+02  0.22959581322E+02  0.30800912737E+02  0.00000000000E+00 0. -1.
         21    1    1    2  503  501  0.17491586640E+01  0.76818717774E+02 -0.15707178217E+03  0.17485914249E+03  0.00000000000E+00 0.  1.
         -1    1    1    2    0  502 -0.67342962224E+02 -0.12995304849E+01 -0.10007255745E+03  0.12062868686E+03  0.00000000000E+00 0.  1.
<scales pt_clust_5="13000.00000" pt_clust_6="13000.00000" pt_clust_7="13000.00000" pt_clust_8="13000.00000" pt_clust_9="85.19570" pt_clust_10="67.35550"></scales>
<clustering>
<clus scale="   67.355">  2 10  1 -1</clus>
<clus scale="   85.196">  2  9  1 -1</clus>
<clus scale="   91.898">  7  8 -1 -1</clus>
<clus scale="   93.540">  5  6 -1 -1</clus>
<clus scale="   96.019">  2  7  1 -1</clus>
<clus scale="   67.355">  2  5  1 -1</clus>
</clustering>
</event>
<event>
10    2  0.1671105E-006  0.1975310E+03  0.7546771E-02  0.1152102E+00
         -4   -1    0    0    0  501 -0.00000000000E+00  0.00000000000E+00  0.86741707033E+03  0.86741707033E+03  0.00000000000E+00 0.  1.
         21   -1    0    0  503  502  0.00000000000E+00 -0.00000000000E+00 -0.61248433946E+02  0.61248433946E+02  0.00000000000E+00 0. -1.
         23    2    1    2    0    0 -0.17450063251E+03  0.68351406621E+02  0.46306580518E+03  0.50812307586E+03  0.92934034420E+02 0.  0.
         23    2    1    2    0    0  0.15153241022E+03 -0.42515537139E+02  0.28165246365E+03  0.33647722748E+03  0.95494356330E+02 0.  0.
        -11    1    3    3    0    0 -0.10734598747E+03 -0.33069455561E+01  0.28830366018E+03  0.30765743513E+03  0.00000000000E+00 0.  1.
         11    1    3    3    0    0 -0.67154645037E+02  0.71658352177E+02  0.17476214500E+03  0.20046564073E+03  0.00000000000E+00 0. -1.
        -13    1    4    4    0    0  0.28965978473E+02  0.24253493369E+02  0.28229380719E+02  0.47160977357E+02  0.00000000000E+00 0. -1.
         13    1    4    4    0    0  0.12256643175E+03 -0.66769030508E+02  0.25342308293E+03  0.28931625012E+03  0.00000000000E+00 0.  1.
         21    1    1    2  503  501 -0.13302345697E+01 -0.22336437494E+02  0.53933514925E+02  0.58391009549E+02  0.00000000000E+00 0.  1.
         -4    1    1    2    0  502  0.24298456859E+02 -0.34994319880E+01  0.75168526258E+01  0.25674191387E+02  0.00000000000E+00 0.  1.
<scales pt_clust_5="13000.00000" pt_clust_6="13000.00000" pt_clust_7="13000.00000" pt_clust_8="13000.00000" pt_clust_9="22.37601" pt_clust_10="24.59159"></scales>
<clustering>
<clus scale="   22.376">  1  9  2 -1</clus>
<clus scale="   24.592">  2 10  1 -1</clus>
<clus scale="   92.934">  5  6 -1 -1</clus>
<clus scale="   95.494">  7  8 -1 -1</clus>
<clus scale="  196.306">  1  5  2 -1</clus>
<clus scale="   24.592">  2  5  1 -1</clus>
</clustering>
</event>
<event>
10    2  0.1671105E-006  0.1102627E+03  0.7546771E-02  0.1267208E+00
          2   -1    0    0  503    0 -0.00000000000E+00  0.00000000000E+00  0.12636185107E+03  0.12636185107E+03  0.00000000000E+00 0. -1.
         21   -1    0    0  501  502  0.00000000000E+00 -0.00000000000E+00 -0.12235876946E+04  0.12235876946E+04  0.00000000000E+00 0. -1.
         23    2    1    2    0    0  0.81675474423E+01  0.13071192731E+02  0.41602186721E+02  0.10456683997E+03  0.94688527132E+02 0.  0.
         23    2    1    2    0    0 -0.36875477285E+02 -0.49400826055E+02 -0.39673849612E+02  0.11795525166E+03  0.92407708616E+02 0.  0.
        -11    1    4    4    0    0  0.57083442764E+01 -0.64149888353E+02 -0.33104033473E+02  0.72413192184E+02  0.00000000000E+00 0. -1.
         11    1    4    4    0    0 -0.42583821561E+02  0.14749062297E+02 -0.65698161387E+01  0.45542059478E+02  0.00000000000E+00 0.  1.
        -13    1    3    3    0    0  0.47609326174E+02  0.26105578197E+02  0.21220435029E+02  0.58296277879E+02  0.00000000000E+00 0.  1.
         13    1    3    3    0    0 -0.39441778732E+02 -0.13034385466E+02  0.20381751693E+02  0.46270562089E+02  0.00000000000E+00 0. -1.
         21    1    1    2  503  502 -0.38713878704E+02 -0.90207918620E+02 -0.30419049311E+03  0.31963743379E+03  0.00000000000E+00 0.  1.
          2    1    1    2  501    0  0.67421808547E+02  0.12653755194E+03 -0.79496368756E+03  0.80779002028E+03  0.00000000000E+00 0. -1.
<scales pt_clust_5="13000.00000" pt_clust_6="13000.00000" pt_clust_7="13000.00000" pt_clust_8="13000.00000" pt_clust_9="95.95666" pt_clust_10="60.15542"></scales>
<clustering>
<clus scale="   92.408">  5  6 -1 -1</clus>
<clus scale="   94.689">  7  8 -1 -1</clus>
<clus scale="   95.935">  1  7  2 -1</clus>
<clus scale="   95.957">  2  9  1 -1</clus>
<clus scale="   60.155">  2 10  1 -1</clus>
<clus scale="   95.957">  2  5  1 -1</clus>
</clustering>
</event>
<event>
10    2  0.1671105E-006  0.1852519E+03  0.7546771E-02  0.1166147E+00
          1   -1    0    0  503    0 -0.00000000000E+00  0.00000000000E+00  0.11280852436E+04  0.11280852436E+04  0.00000000000E+00 0. -1.
         21   -1    0    0  501  502  0.00000000000E+00 -0.00000000000E+00 -0.82956814288E+02  0.82956814288E+02  0.00000000000E+00 0. -1.
         23    2    1    2    0    0 -0.83154058245E+02 -0.13405509581E+03  0.83827074681E+03  0.86090179271E+03  0.11648470119E+03 0.  0.
         23    2    1    2    0    0  0.11571459949E+03  0.47139956471E+02  0.16326911528E+03  0.22570303098E+03  0.93128997401E+02 0.  0.
        -13    1    3    3    0    0  0.29948489558E+02 -0.28556807421E+02  0.18484954055E+03  0.18942480281E+03  0.00000000000E+00 0.  1.
         13    1    3    3    0    0 -0.11310254780E+03 -0.10549828839E+03  0.65342120626E+03  0.67147698990E+03  0.00000000000E+00 0. -1.
        -13    1    4    4    0    0  0.33774812335E+02  0.34462570726E+02  0.69449202601E+01  0.48750780986E+02  0.00000000000E+00 0.  1.
         13    1    4    4    0    0  0.81939787154E+02  0.12677385744E+02  0.15632419502E+03  0.17695224999E+03  0.00000000000E+00 0. -1.
         21    1    1    2  503  502 -0.19119125716E+02  0.13220402070E+02  0.43732844567E+02  0.49526575623E+02  0.00000000000E+00 0.  1.
          1    1    1    2  501    0 -0.13441415528E+02  0.73694737269E+02 -0.14427735069E+00  0.74910658578E+02  0.00000000000E+00 0. -1.
<scales pt_clust_5="13000.00000" pt_clust_6="13000.00000" pt_clust_7="13000.00000" pt_clust_8="13000.00000" pt_clust_9="23.24478" pt_clust_10="75.48082"></scales>
<clustering>
<clus scale="   23.245">  1  9  2 -1</clus>
<clus scale="   75.481">  2 10  1 -1</clus>
<clus scale="   93.129">  7  8 -1 -1</clus>
<clus scale="  116.485">  5  6 -1 -1</clus>
<clus scale="  171.530">  2  7  1 -1</clus>
<clus scale="   75.481">  2  5  1 -1</clus>
</clustering>
</event>
<event>
10    2  0.1671105E-006  0.2214340E+03  0.7546771E-02  0.1132904E+00
          1   -1    0    0  503    0 -0.00000000000E+00  0.00000000000E+00  0.12944997839E+04  0.12944997839E+04  0.00000000000E+00 0. -1.
         21   -1    0    0  501  502  0.00000000000E+00 -0.00000000000E+00 -0.21325442875E+03  0.21325442875E+03  0.00000000000E+00 0. -1.
         23    2    1    2    0    0 -0.17071620209E+03  0.10745199919E+03  0.10582226823E+04  0.10812477756E+04  0.92582681795E+02 0.  0.
         23    2    1    2    0    0  0.22208535343E+03 -0.34724035526E+00  0.65138461192E+02  0.24968415459E+03  0.93686355158E+02 0.  0.
        -11    1    3    3    0    0 -0.12598808157E+03  0.97600875446E+02  0.95655099107E+03  0.96973642095E+03  0.00000000000E+00 0. -1.
         11    1    3    3    0    0 -0.44728120528E+02  0.98511237404E+01  0.10167169125E+03  0.11151135461E+03  0.00000000000E+00 0.  1.
        -13    1    4    4    0    0  0.37974859925E+02  0.34917987609E+02  0.27591500808E+02  0.58503391028E+02  0.00000000000E+00 0. -1.
         13    1    4    4    0    0  0.18411049350E+03 -0.35265227964E+02  0.37546960384E+02  0.19118076356E+03  0.00000000000E+00 0.  1.
         21    1    1    2  503  502 -0.26235902949E+02 -0.44295082399E+02  0.43713083436E+02  0.67536735128E+02  0.00000000000E+00 0. -1.
          1    1    1    2  501    0 -0.25133248383E+02 -0.62809676432E+02 -0.85828871814E+02  0.10928554737E+03  0.00000000000E+00 0. -1.
<scales pt_clust_5="13000.00000" pt_clust_6="13000.00000" pt_clust_7="13000.00000" pt_clust_8="13000.00000" pt_clust_9="51.48181" pt_clust_10="92.38001"></scales>
<clustering>
<clus scale="   51.482">  2  9  1 -1</clus>
<clus scale="   92.380">  2 10  1 -1</clus>
<clus scale="   92.583">  5  6 -1 -1</clus>
<clus scale="   93.686">  7  8 -1 -1</clus>
<clus scale="  220.969">  1  5  2 -1</clus>
<clus scale="   51.482">  2  5  1 -1</clus>
</clustering>
</event>
<event>
10    2  0.1671105E-006  0.1011679E+03  0.7546771E-02  0.1279381E+00
         21   -1    0    0  501  502  0.00000000000E+00  0.00000000000E+00  0.18181668294E+03  0.18181668294E+03  0.00000000000E+00 0.  1.
          3   -1    0    0  503    0 -0.00000000000E+00 -0.00000000000E+00 -0.13459802695E+03  0.13459802695E+03  0.00000000000E+00 0. -1.
         23    2    1    2    0    0 -0.20650742555E+02  0.15310573631E+02 -0.45909125840E+02  0.10562736036E+03  0.91589434916E+02 0.  0.
         23    2    1    2    0    0 -0.10597850344E+00 -0.64596480715E+02  0.33421303771E+02  0.11939626958E+03  0.94687745200E+02 0.  0.
        -13    1    3    3    0    0  0.24067395879E+01  0.21587993225E+02  0.23629942003E+02  0.32096853522E+02  0.00000000000E+00 0.  1.
         13    1    3    3    0    0 -0.23057482143E+02 -0.62774195948E+01 -0.69539067842E+02  0.73530506838E+02  0.00000000000E+00 0. -1.
        -13    1    4    4    0    0  0.45082579162E+02 -0.42025901284E+02  0.60076461118E+01  0.61925012188E+02  0.00000000000E+00 0. -1.
         13    1    4    4    0    0 -0.45188557666E+02 -0.22570579431E+02  0.27413657659E+02  0.57471257390E+02  0.00000000000E+00 0.  1.
         21    1    1    2  503  502  0.18075107955E+02  0.10878887852E+02  0.91660978347E+00  0.21116342059E+02  0.00000000000E+00 0.  1.
          3    1    1    2  501    0  0.26816131035E+01  0.38407019232E+02  0.58789868276E+02  0.70274737901E+02  0.00000000000E+00 0. -1.
<scales pt_clust_5="13000.00000" pt_clust_6="13000.00000" pt_clust_7="13000.00000" pt_clust_8="13000.00000" pt_clust_9="21.09644" pt_clust_10="39.06728"></scales>
<clustering>
<clus scale="   21.096">  2  9  1 -1</clus>
<clus scale="   39.067">  1 10  2 -1</clus>
<clus scale="   91.589">  5  6 -1 -1</clus>
<clus scale="   94.688">  7  8 -1 -1</clus>
<clus scale="   98.274">  2  5  1 -1</clus>
<clus scale="   39.067">  1  5  2 -1</clus>
</clustering>
</event>
<event>
10    2  0.1671105E-006  0.2296510E+03  0.7546771E-02  0.1127000E+00
         21   -1    0    0  501  502  0.00000000000E+00  0.00000000000E+00  0.59737387778E+03  0.59737387778E+03  0.00000000000E+00 0. -1.
          1   -1    0    0  503    0 -0.00000000000E+00 -0.00000000000E+00 -0.27913575038E+03  0.27913575038E+03  0.00000000000E+00 0. -1.
         23    2    1    2    0    0 -0.16524011278E+03 -0.48398653963E+02  0.72497151465E+01  0.19430257246E+03  0.89745232289E+02 0.  0.
         23    2    1    2    0    0  0.24746866042E+03  0.13789441667E+03  0.57598070583E+02  0.30318894419E+03  0.91380468956E+02 0.  0.
        -11    1    4    4    0    0  0.15345345186E+03  0.43867249680E+02  0.59164179752E+02  0.17021368231E+03  0.00000000000E+00 0. -1.
         11    1    4    4    0    0  0.94015208564E+02  0.94027166994E+02 -0.15661091686E+01  0.13297526188E+03  0.00000000000E+00 0.  1.
        -11    1    3    3    0    0 -0.94875825735E+02 -0.72781863156E+02  0.78039475363E+01  0.11983122928E+03  0.00000000000E+00 0.  1.
         11    1    3    3    0    0 -0.70364287041E+02  0.24383209193E+02 -0.55423238983E+00  0.74471343180E+02  0.00000000000E+00 0. -1.
         21    1    1    2  503  502  0.85719881617E+02  0.10447619238E+02  0.81702320709E+02  0.11887943498E+03  0.00000000000E+00 0.  1.
          1    1    1    2  501    0 -0.16794842926E+03 -0.99943381949E+02  0.17168802096E+03  0.26013867653E+03  0.00000000000E+00 0. -1.
<scales pt_clust_5="13000.00000" pt_clust_6="13000.00000" pt_clust_7="13000.00000" pt_clust_8="13000.00000" pt_clust_9="86.35422" pt_clust_10="161.82896"></scales>
<clustering>
<clus scale="   86.354">  1  9  2 -1</clus>
<clus scale="   89.745">  7  8 -1 -1</clus>
<clus scale="   91.380">  5  6 -1 -1</clus>
<clus scale="  161.829">  1 10  2 -1</clus>
<clus scale="  229.005">  2  7  1 -1</clus>
<clus scale="   86.354">  1  5  2 -1</clus>
</clustering>
</event>
<event>
10    2  0.1671105E-006  0.4752083E+03  0.7546771E-02  0.1071576E+00
          2   -1    0    0  503    0 -0.00000000000E+00  0.00000000000E+00  0.50266618113E+03  0.50266618113E+03  0.00000000000E+00 0. -1.
         21   -1    0    0  501  502  0.00000000000E+00 -0.00000000000E+00 -0.19183830399E+04  0.19183830399E+04  0.00000000000E+00 0. -1.
         23    2    1    2    0    0  0.29687779945E+02  0.28563965074E+02 -0.28087883265E+02  0.11274477604E+03  0.10111968631E+03 0.  0.
         23    2    1    2    0    0  0.31407345947E+03 -0.27253324383E+03  0.10287710501E+03  0.43740716799E+03  0.88458040568E+02 0.  0.
        -11    1    3    3    0    0  0.46479445647E+02 -0.14207206464E+01  0.22443935474E+02  0.51634170414E+02  0.00000000000E+00 0. -1.
         11    1    3    3    0    0 -0.16791665702E+02  0.29984685720E+02 -0.50531818739E+02  0.61110605625E+02  0.00000000000E+00 0.  1.
        -13    1    4    4    0    0  0.10544636749E+03 -0.74112268379E+02 -0.73893764039E+01  0.12909751208E+03  0.00000000000E+00 0.  1.
         13    1    4    4    0    0  0.20862709198E+03 -0.19842097545E+03  0.11026648142E+03  0.30830965591E+03  0.00000000000E+00 0. -1.
         21    1    1    2  503  502 -0.29246440777E+03 -0.24369902139E+03 -0.95883023257E+02  0.39257890543E+03  0.00000000000E+00 0. -1.
          2    1    1    2  501    0 -0.51296831649E+02  0.48766830014E+03 -0.13946230572E+04  0.14783183715E+04  0.00000000000E+00 0. -1.
<scales pt_clust_5="13000.00000" pt_clust_6="13000.00000" pt_clust_7="13000.00000" pt_clust_8="13000.00000" pt_clust_9="367.44837" pt_clust_10="466.90271"></scales>
<clustering>
<clus scale="   88.458">  7  8 -1 -1</clus>
<clus scale="  101.120">  5  6 -1 -1</clus>
<clus scale="  109.190">  1  5  2 -1</clus>
<clus scale="  367.448">  1  9  2 -1</clus>
<clus scale="  466.903">  2 10  1 -1</clus>
<clus scale="  466.903">  2  5  1 -1</clus>
</clustering>
</event>
<event>
10    2  0.1671105E-006  0.1160318E+03  0.7546771E-02  0.1251862E+00
         -4   -1    0    0    0  501 -0.00000000000E+00  0.00000000000E+00  0.44293256029E+03  0.44293256029E+03  0.00000000000E+00 0.  1.
         21   -1    0    0  503  502  0.00000000000E+00 -0.00000000000E+00 -0.96629390876E+02  0.96629390876E+02  0.00000000000E+00 0.  1.
         23    2    1    2    0    0 -0.11524243232E+02  0.50804730806E+02  0.25485664025E+03  0.27711185868E+03  0.95525631571E+02 0.  0.
         23    2    1    2    0    0 -0.74653195258E+01 -0.11242595883E+03  0.11035059004E+03  0.18146538722E+03  0.89761388256E+02 0.  0.
        -13    1    4    4    0    0  0.58503594287E+01 -0.56157680229E+02 -0.47370645275E+00  0.56463582529E+02  0.00000000000E+00 0. -1.
         13    1    4    4    0    0 -0.13315678955E+02 -0.56268278600E+02  0.11082429649E+03  0.12500180469E+03  0.00000000000E+00 0.  1.
        -13    1    3    3    0    0  0.40276315049E+01  0.64936134994E+02  0.24573898451E+03  0.25420576695E+03  0.00000000000E+00 0.  1.
         13    1    3    3    0    0 -0.15551874737E+02 -0.14131404188E+02  0.91176557430E+01  0.22906091731E+02  0.00000000000E+00 0. -1.
         21    1    1    2  503  501 -0.10577817500E+02  0.27694241163E+02  0.49413963854E+01  0.30054593906E+02  0.00000000000E+00 0. -1.
         -4    1    1    2    0  502  0.29567380258E+02  0.33926986860E+02 -0.23845457251E+02  0.50930111371E+02  0.00000000000E+00 0.  1.
<scales pt_clust_5="13000.00000" pt_clust_6="13000.00000" pt_clust_7="13000.00000" pt_clust_8="13000.00000" pt_clust_9="29.64559" pt_clust_10="52.50318"></scales>
<clustering>
<clus scale="   29.646">  2  9  1 -1</clus>
<clus scale="   52.503">  2 10  1 -1</clus>
<clus scale="   89.761">  5  6 -1 -1</clus>
<clus scale="   95.526">  7  8 -1 -1</clus>
<clus scale="  111.334">  2  5  1 -1</clus>
<clus scale="   29.646">  2  5  1 -1</clus>
</clustering>
</event>
<event>
10    2  0.1671105E-006  0.1943907E+03  0.7546771E-02  0.1154860E+00
          2   -1    0    0  503    0 -0.00000000000E+00  0.00000000000E+00  0.14693813054E+04  0.14693813054E+04  0.00000000000E+00 0. -1.
         21   -1    0    0  501  502  0.00000000000E+00 -0.00000000000E+00 -0.89785133001E+02  0.89785133001E+02  0.00000000000E+00 0.  1.
         23    2    1    2    0    0  0.14509355449E+03  0.44300924552E+02  0.82679170199E+03  0.84538182524E+03  0.89839860303E+02 0.  0.
         23    2    1    2    0    0 -0.20409090888E+03 -0.80665978654E+02  0.58322737723E+03  0.63001131490E+03  0.92736099483E+02 0.  0.
        -11    1    3    3    0    0  0.92194007596E+02 -0.14258081727E+02  0.35591319905E+03  0.36793645265E+03  0.00000000000E+00 0. -1.
         11    1    3    3    0    0  0.52899546896E+02  0.58559006279E+02  0.47087850294E+03  0.47744537259E+03  0.00000000000E+00 0.  1.
        -13    1    4    4    0    0 -0.11269039056E+02 -0.38486406525E+02  0.80830710481E+02  0.90231915004E+02  0.00000000000E+00 0. -1.
         13    1    4    4    0    0 -0.19282186982E+03 -0.42179572128E+02  0.50239666675E+03  0.53977939989E+03  0.00000000000E+00 0.  1.
         21    1    1    2  503  502  0.20159796893E+02 -0.51406714336E+01 -0.44382688115E+01  0.21273037949E+02  0.00000000000E+00 0. -1.
          2    1    1    2  501    0  0.38837557491E+02  0.41505725535E+02 -0.25984638025E+02  0.62500260299E+02  0.00000000000E+00 0. -1.
<scales pt_clust_5="13000.00000" pt_clust_6="13000.00000" pt_clust_7="13000.00000" pt_clust_8="13000.00000" pt_clust_9="20.80490" pt_clust_10="63.47747"></scales>
<clustering>
<clus scale="   20.805">  2  9  1 -1</clus>
<clus scale="   63.477">  2 10  1 -1</clus>
<clus scale="   89.840">  5  6 -1 -1</clus>
<clus scale="   92.736">  7  8 -1 -1</clus>
<clus scale="  193.026">  1  5  2 -1</clus>
<clus scale="   20.805">  2  5  1 -1</clus>
</clustering>
</event>
<event>
10    2  0.1671105E-006  0.3270876E+03  0.7546771E-02  0.1102688E+00
          1   -1    0    0  503    0 -0.00000000000E+00  0.00000000000E+00  0.10637968889E+04  0.10637968889E+04  0.00000000000E+00 0. -1.
         21   -1    0    0  501  502  0.00000000000E+00 -0.00000000000E+00 -0.21402870421E+03  0.21402870421E+03  0.00000000000E+00 0. -1.
         23    2    1    2    0    0 -0.22732935235E+02 -0.10689893027E+03  0.20317916315E+03  0.24824438064E+03  0.91647872544E+02 0.  0.
         23    2    1    2    0    0 -0.14339188402E+03  0.36322489948E+03  0.26520632627E+03  0.48078018287E+03  0.91222961732E+02 0.  0.
        -11    1    4    4    0    0  0.25297678208E+01  0.89639319237E+02  0.43958527467E+02  0.99869712203E+02  0.00000000000E+00 0.  1.
         11    1    4    4    0    0 -0.14592165184E+03  0.27358558024E+03  0.22124779880E+03  0.38091047067E+03  0.00000000000E+00 0. -1.
        -13    1    3    3    0    0 -0.53022541244E+02 -0.72733632044E+02  0.16804527912E+03  0.19063259676E+03  0.00000000000E+00 0. -1.
         13    1    3    3    0    0  0.30289606009E+02 -0.34165298231E+02  0.35133884030E+02  0.57611783885E+02  0.00000000000E+00 0.  1.
         21    1    1    2  503  502  0.43840002867E+02 -0.44273550626E+02 -0.30729340249E+02  0.69472192197E+02  0.00000000000E+00 0.  1.
          1    1    1    2  501    0  0.12228481639E+03 -0.21205241858E+03  0.41211203549E+03  0.47932883737E+03  0.00000000000E+00 0. -1.
<scales pt_clust_5="13000.00000" pt_clust_6="13000.00000" pt_clust_7="13000.00000" pt_clust_8="13000.00000" pt_clust_9="62.30645" pt_clust_10="314.10950"></scales>
<clustering>
<clus scale="   62.306">  2  9  1 -1</clus>
<clus scale="   91.223">  5  6 -1 -1</clus>
<clus scale="   91.648">  7  8 -1 -1</clus>
<clus scale="  146.438">  1  7  2 -1</clus>
<clus scale="  314.109">  2 10  1 -1</clus>
<clus scale="   62.306">  2  5  1 -1</clus>
</clustering>
</event>
<event>
10    2  0.1671105E-006  0.1031883E+03  0.7546771E-02  0.1275055E+00
         -1   -1    0    0    0  501 -0.00000000000E+00  0.00000000000E+00  0.12936638840E+03  0.12936638840E+03  0.00000000000E+00 0.  1.
         21   -1    0    0  503  502  0.00000000000E+00 -0.00000000000E+00 -0.16822569798E+03  0.16822569798E+03  0.00000000000E+00 0. -1.
         23    2    1    2    0    0 -0.55326655874E+02 -0.13236807009E+02 -0.15300298799E+02  0.10933589130E+03  0.92108555919E+02 0.  0.
         23    2    1    2    0    0  0.31549662131E+02  0.13377947157E+02 -0.52448056234E+02  0.10900116519E+03  0.89196999727E+02 0.  0.
        -11    1    3    3    0    0 -0.65410686935E+02  0.23983453731E+02 -0.86360376348E+01  0.70202173501E+02  0.00000000000E+00 0.  1.
         11    1    3    3    0    0  0.10084031061E+02 -0.37220260741E+02 -0.66642611644E+01  0.39133717801E+02  0.00000000000E+00 0. -1.
        -11    1    4    4    0    0 -0.26353063014E+02  0.15533197775E+01  0.46740866706E+01  0.26809397956E+02  0.00000000000E+00 0.  1.
         11    1    4    4    0    0  0.57902725145E+02  0.11824627380E+02 -0.57122142904E+02  0.82191767239E+02  0.00000000000E+00 0. -1.
         21    1    1    2  503  501  0.11557883187E+02 -0.27033081172E+02  0.38273630453E+02  0.48262230880E+02  0.00000000000E+00 0.  1.
         -1    1    1    2    0  502  0.12219110556E+02  0.26891941025E+02 -0.93845849996E+01  0.30992799010E+02  0.00000000000E+00 0.  1.
<scales pt_clust_5="13000.00000" pt_clust_6="13000.00000" pt_clust_7="13000.00000" pt_clust_8="13000.00000" pt_clust_9="29.40021" pt_clust_10="27.18621"></scales>
<clustering>
<clus scale="   29.400">  1  9  2 -1</clus>
<clus scale="   27.186">  2 10  1 -1</clus>
<clus scale="   89.197">  7  8 -1 -1</clus>
<clus scale="   92.109">  5  6 -1 -1</clus>
<clus scale="  100.598">  2  7  1 -1</clus>
<clus scale="   27.186">  2  5  1 -1</clus>
</clustering>
</event>
<event>
10    2  0.1671105E-006  0.4828915E+03  0.7546771E-02  0.1046088E+00
          1   -1    0    0  503    0 -0.00000000000E+00  0.00000000000E+00  0.19578017336E+04  0.19578017336E+04  0.00000000000E+00 0. -1.
         21   -1    0    0  501  502  0.00000000000E+00 -0.00000000000E+00 -0.38285383002E+03  0.38285383002E+03  0.00000000000E+00 0. -1.
         23    2    1    2    0    0  0.14236390822E+03  0.12850779436E+03  0.48179432107E+03  0.52666482515E+03  0.92023554865E+02 0.  0.
         23    2    1    2    0    0 -0.26275288380E+03  0.47540251177E+02 -0.60804972777E+02  0.28895598182E+03  0.92190895900E+02 0.  0.
        -11    1    4    4    0    0 -0.20753813229E+03  0.23888123287E+02 -0.83176439322E+02  0.22485781918E+03  0.00000000000E+00 0. -1.
         11    1    4    4    0    0 -0.55214751508E+02  0.23652127890E+02  0.22371466545E+02  0.64098162635E+02  0.00000000000E+00 0.  1.
        -13    1    3    3    0    0  0.97864681716E+02  0.72797271849E+02  0.18619768860E+03  0.22259047139E+03  0.00000000000E+00 0.  1.
         13    1    3    3    0    0  0.44499226509E+02  0.55710522514E+02  0.29559663248E+03  0.30407435375E+03  0.00000000000E+00 0. -1.
         21    1    1    2  503  502  0.33204103915E+03 -0.50371530899E+03  0.63612597024E+03  0.87671923339E+03  0.00000000000E+00 0. -1.
          1    1    1    2  501    0 -0.21165206357E+03  0.32766726345E+03  0.51783258501E+03  0.64831552323E+03  0.00000000000E+00 0. -1.
<scales pt_clust_5="13000.00000" pt_clust_6="13000.00000" pt_clust_7="13000.00000" pt_clust_8="13000.00000" pt_clust_9="13000.00000" pt_clust_10="482.89152"></scales>
<clustering>
<clus scale="   92.024">  7  8 -1 -1</clus>
<clus scale="   92.191">  5  6 -1 -1</clus>
<clus scale="  212.721">  1  7  2 -1</clus>
<clus scale="  274.067">  1  5  2 -1</clus>
<clus scale="  482.892">  2 10  1 -1</clus>
<clus scale="  482.892">  2  5  1 -1</clus>
</clustering>
</event>
<event>
10    2  0.1671105E-006  0.1806486E+03  0.7546771E-02  0.1171166E+00
         21   -1    0    0  501  502  0.00000000000E+00  0.00000000000E+00  0.62681410825E+02  0.62681410825E+02  0.00000000000E+00 0.  1.
          2   -1    0    0  503    0 -0.00000000000E+00 -0.00000000000E+00 -0.11672717519E+04  0.11672717519E+04  0.00000000000E+00 0.  1.
         23    2    1    2    0    0 -0.16529321617E+02  0.16963396814E+03 -0.85663727539E+03  0.87613357775E+03  0.68802055601E+02 0.  0.
         23    2    1    2    0    0  0.43030444152E+02 -0.86864018718E+02 -0.15035251820E+03  0.20539451798E+03  0.10091606123E+03 0.  0.
        -13    1    4    4    0    0  0.10147989171E+02 -0.10274116559E+03 -0.10645026976E+03  0.14829156660E+03  0.00000000000E+00 0. -1.
         13    1    4    4    0    0  0.32882454981E+02  0.15877146876E+02 -0.43902248439E+02  0.57102951382E+02  0.00000000000E+00 0.  1.
        -13    1    3    3    0    0 -0.30298577724E+02  0.15430787152E+03 -0.81036326343E+03  0.82548018859E+03  0.00000000000E+00 0.  1.
         13    1    3    3    0    0  0.13769256106E+02  0.15326096623E+02 -0.46274011956E+02  0.50653389166E+02  0.00000000000E+00 0. -1.
         21    1    1    2  503  502 -0.22053089235E+02  0.60671365107E+01 -0.19703188169E+02  0.30188814390E+02  0.00000000000E+00 0. -1.
          2    1    1    2  501    0 -0.44480332993E+01 -0.88837085935E+02 -0.77897359268E+02  0.11823625256E+03  0.00000000000E+00 0.  1.
<scales pt_clust_5="13000.00000" pt_clust_6="13000.00000" pt_clust_7="13000.00000" pt_clust_8="13000.00000" pt_clust_9="22.87245" pt_clust_10="87.55959"></scales>
<clustering>
<clus scale="   22.872">  1  9  2 -1</clus>
<clus scale="   68.802">  7  8 -1 -1</clus>
<clus scale="   87.560">  1 10  2 -1</clus>
<clus scale="  100.916">  5  6 -1 -1</clus>
<clus scale="  164.874">  2  7  1 -1</clus>
<clus scale="   22.872">  1  5  2 -1</clus>
</clustering>
</event>
<event>
10    2  0.1671105E-006  0.1490646E+03  0.7546771E-02  0.1214422E+00
         -3   -1    0    0    0  501 -0.00000000000E+00  0.00000000000E+00  0.63996683623E+03  0.63996683623E+03  0.00000000000E+00 0.  1.
         21   -1    0    0  501  502  0.00000000000E+00 -0.00000000000E+00 -0.69385140334E+02  0.69385140334E+02  0.00000000000E+00 0. -1.
         23    2    1    2    0    0  0.37753707453E+01  0.64870157359E+02  0.27723425786E+03  0.29950118151E+03  0.92842518594E+02 0.  0.
         23    2    1    2    0    0 -0.11471771774E+03 -0.72134684269E+02  0.11476345734E+03  0.19773975904E+03  0.86987319353E+02 0.  0.
        -11    1    4    4    0    0 -0.10678943572E+03 -0.35474901574E+02  0.11406086575E+03  0.16022588217E+03  0.00000000000E+00 0. -1.
         11    1    4    4    0    0 -0.79282820220E+01 -0.36659782695E+02  0.70259159256E+00  0.37513876873E+02  0.00000000000E+00 0.  1.
        -11    1    3    3    0    0 -0.15880384501E+02 -0.12770584945E+02  0.14984714377E+02  0.25294586708E+02  0.00000000000E+00 0. -1.
         11    1    3    3    0    0  0.19655755246E+02  0.77640742305E+02  0.26224954348E+03  0.27420659481E+03  0.00000000000E+00 0.  1.
         21    1    1    2  503  502  0.44096917224E+02  0.34671653494E+01  0.47424514523E+02  0.64850936169E+02  0.00000000000E+00 0.  1.
         -3    1    1    2    0  503  0.66845429771E+02  0.37973615603E+01  0.13115946618E+03  0.14726009984E+03  0.00000000000E+00 0.  1.
<scales pt_clust_5="13000.00000" pt_clust_6="13000.00000" pt_clust_7="13000.00000" pt_clust_8="13000.00000" pt_clust_9="22.07899" pt_clust_10="124.06186"></scales>
<clustering>
<clus scale="   22.079">  9 10 -1 -1</clus>
<clus scale="   86.987">  5  6 -1 -1</clus>
<clus scale="   92.843">  7  8 -1 -1</clus>
<clus scale="  113.323">  1  7  2 -1</clus>
<clus scale="  124.062">  2  9  1 -1</clus>
<clus scale="  124.062">  2  5  1 -1</clus>
</clustering>
</event>
<event>
10    2  0.1671105E-006  0.1521149E+03  0.7546771E-02  0.1208626E+00
         21   -1    0    0  503  502  0.00000000000E+00  0.00000000000E+00  0.22053687890E+03  0.22053687890E+03  0.00000000000E+00 0.  1.
          1   -1    0    0  502    0 -0.00000000000E+00 -0.00000000000E+00 -0.52060661979E+03  0.52060661979E+03  0.00000000000E+00 0. -1.
         23    2    1    2    0    0  0.34460838129E+02  0.70314807448E+02 -0.39832929228E+03  0.41620115854E+03  0.91790292363E+02 0.  0.
         23    2    1    2    0    0 -0.13357688756E+03 -0.91264047129E+01  0.11858597144E+03  0.20047653966E+03  0.90565634652E+02 0.  0.
        -13    1    3    3    0    0  0.75719919207E+01  0.74835506358E+02 -0.36717526667E+03  0.37480043294E+03  0.00000000000E+00 0. -1.
         13    1    3    3    0    0  0.26888846209E+02 -0.45206989098E+01 -0.31154025607E+02  0.41400725605E+02  0.00000000000E+00 0.  1.
        -13    1    4    4    0    0 -0.48031627740E+02  0.39880387634E+02  0.54657500957E+02  0.82975448128E+02  0.00000000000E+00 0.  1.
         13    1    4    4    0    0 -0.85545259819E+02 -0.49006792347E+02  0.63928470484E+02  0.11750109154E+03  0.00000000000E+00 0. -1.
         21    1    1    2  503  501  0.50479361347E+02 -0.12529836989E+02  0.22450834744E+01  0.52059611378E+02  0.00000000000E+00 0. -1.
          1    1    1    2  501    0  0.48636688083E+02 -0.48658565746E+02 -0.22571503527E+02  0.72406189098E+02  0.00000000000E+00 0. -1.
<scales pt_clust_5="13000.00000" pt_clust_6="13000.00000" pt_clust_7="13000.00000" pt_clust_8="13000.00000" pt_clust_9="33.79318" pt_clust_10="128.24734"></scales>
<clustering>
<clus scale="   33.793">  9 10 -1 -1</clus>
<clus scale="   90.566">  7  8 -1 -1</clus>
<clus scale="   91.790">  5  6 -1 -1</clus>
<clus scale="  120.653">  2  5  1 -1</clus>
<clus scale="  128.247">  1  9  2 -1</clus>
<clus scale="  128.247">  1  5  2 -1</clus>
</clustering>
</event>
<event>
10    2  0.1671105E-006  0.1384206E+03  0.7546771E-02  0.1232347E+00
          2   -1    0    0  502    0 -0.00000000000E+00  0.00000000000E+00  0.38529605876E+03  0.38529605876E+03  0.00000000000E+00 0. -1.
         21   -1    0    0  503  502  0.00000000000E+00 -0.00000000000E+00 -0.25110863559E+03  0.25110863559E+03  0.00000000000E+00 0. -1.
         23    2    1    2    0    0  0.19741767297E+02 -0.67553668169E+01  0.31304486624E+03  0.32783004286E+03  0.95079316184E+02 0.  0.
         23    2    1    2    0    0 -0.11013061961E+02 -0.99517209141E+02 -0.12053734546E+03  0.18209811961E+03  0.92765893868E+02 0.  0.
        -11    1    4    4    0    0  0.13098758982E+02 -0.10660292279E+03 -0.11291034096E+03  0.15583486686E+03  0.00000000000E+00 0. -1.
         11    1    4    4    0    0 -0.24111820943E+02  0.70857136495E+01 -0.76270045005E+01  0.26263252745E+02  0.00000000000E+00 0.  1.
        -11    1    3    3    0    0 -0.38665456392E+02 -0.34427164685E+01  0.12143653799E+03  0.12749000970E+03  0.00000000000E+00 0. -1.
         11    1    3    3    0    0  0.58407223690E+02 -0.33126503484E+01  0.19160832825E+03  0.20034003316E+03  0.00000000000E+00 0.  1.
         21    1    1    2  503  501 -0.22046249991E+02  0.61496830507E+02 -0.30415609871E+02  0.72062518863E+02  0.00000000000E+00 0. -1.
          2    1    1    2  501    0  0.13317544655E+02  0.44775745451E+02 -0.27904487740E+02  0.54414013015E+02  0.00000000000E+00 0. -1.
<scales pt_clust_5="13000.00000" pt_clust_6="13000.00000" pt_clust_7="13000.00000" pt_clust_8="13000.00000" pt_clust_9="29.59678" pt_clust_10="108.53474"></scales>
<clustering>
<clus scale="   29.597">  9 10 -1 -1</clus>
<clus scale="   92.766">  5  6 -1 -1</clus>
<clus scale="   95.079">  7  8 -1 -1</clus>
<clus scale="   97.342">  1  7  2 -1</clus>
<clus scale="  108.535">  2  9  1 -1</clus>
<clus scale="  108.535">  2  5  1 -1</clus>
</clustering>
</event>
<event>
10    2  0.1671105E-006  0.1121328E+03  0.7546771E-02  0.1257727E+00
         21   -1    0    0  501  502  0.00000000000E+00  0.00000000000E+00  0.16925996142E+03  0.16925996142E+03  0.00000000000E+00 0.  1.
          4   -1    0    0  503    0 -0.00000000000E+00 -0.00000000000E+00 -0.87673322041E+03  0.87673322041E+03  0.00000000000E+00 0. -1.
         23    2    1    2    0    0  0.46073729948E+02  0.76208600962E+02 -0.58964812764E+03  0.60292021729E+03  0.88866948477E+02 0.  0.
         23    2    1    2    0    0 -0.24770404538E+02 -0.18973197776E+02 -0.23797331777E+03  0.25693560241E+03  0.91711769381E+02 0.  0.
        -13    1    3    3    0    0 -0.19035465242E+02  0.51568826492E+02 -0.21918333423E+03  0.22597129643E+03  0.00000000000E+00 0. -1.
         13    1    3    3    0    0  0.65109195190E+02  0.24639774470E+02 -0.37046479341E+03  0.37694892086E+03  0.00000000000E+00 0.  1.
        -13    1    4    4    0    0 -0.52883761443E+02  0.54183764805E+01 -0.18286696201E+03  0.19043733044E+03  0.00000000000E+00 0. -1.
         13    1    4    4    0    0  0.28113356905E+02 -0.24391574257E+02 -0.55106355756E+02  0.66498271977E+02  0.00000000000E+00 0.  1.
         21    1    1    2  503  502 -0.59650724491E+02 -0.45706867110E+02  0.12495012233E+03  0.14580761195E+03  0.00000000000E+00 0.  1.
          4    1    1    2  501    0  0.38347399081E+02 -0.11528536076E+02 -0.48019359076E+01  0.40329750170E+02  0.00000000000E+00 0. -1.
<scales pt_clust_5="13000.00000" pt_clust_6="13000.00000" pt_clust_7="13000.00000" pt_clust_8="13000.00000" pt_clust_9="61.49223" pt_clust_10="40.04285"></scales>
<clustering>
<clus scale="   40.043">  1 10  2 -1</clus>
<clus scale="   61.492">  1  9  2 -1</clus>
<clus scale="   88.867">  5  6 -1 -1</clus>
<clus scale="   91.712">  7  8 -1 -1</clus>
<clus scale="  109.818">  2  5  1 -1</clus>
<clus scale="   40.043">  1  5  2 -1</clus>
</clustering>
</event>
<event>
10    2  0.1671105E-006  0.2128652E+03  0.7546771E-02  0.1162891E+00
          1   -1    0    0  502    0 -0.00000000000E+00  0.00000000000E+00  0.61319083634E+03  0.61319083634E+03  0.00000000000E+00 0. -1.
         21   -1    0    0  503  502  0.00000000000E+00 -0.00000000000E+00 -0.12661342692E+04  0.12661342692E+04  0.00000000000E+00 0. -1.
         23    2    1    2    0    0 -0.16849788745E+02 -0.80424535180E+02  0.40001603237E+03  0.41817522964E+03  0.90031523874E+02 0.  0.
         23    2    1    2    0    0 -0.17162036366E+03  0.11644912062E+03  0.13031932714E+03  0.26172762901E+03  0.92218641505E+02 0.  0.
        -11    1    3    3    0    0  0.27827028954E+02 -0.11216163583E+02  0.47652640660E+02  0.56310922811E+02  0.00000000000E+00 0.  1.
         11    1    3    3    0    0 -0.44676817699E+02 -0.69208371598E+02  0.35236339171E+03  0.36186430683E+03  0.00000000000E+00 0. -1.
        -13    1    4    4    0    0 -0.24620088457E+02  0.45110235891E+02 -0.20647609381E+01  0.51432921126E+02  0.00000000000E+00 0.  1.
         13    1    4    4    0    0 -0.14700027521E+03  0.71338884724E+02  0.13238408808E+03  0.21029470788E+03  0.00000000000E+00 0. -1.
         21    1    1    2  503  501  0.60506893469E+02  0.12444193914E+01 -0.46025287127E+03  0.46421475445E+03  0.00000000000E+00 0.  1.
          1    1    1    2  501    0  0.12796325894E+03 -0.37269004827E+02 -0.72302592114E+03  0.73520749248E+03  0.00000000000E+00 0. -1.
<scales pt_clust_5="13000.00000" pt_clust_6="13000.00000" pt_clust_7="13000.00000" pt_clust_8="13000.00000" pt_clust_9="27.34101" pt_clust_10="196.09580"></scales>
<clustering>
<clus scale="   27.341">  9 10 -1 -1</clus>
<clus scale="   90.032">  5  6 -1 -1</clus>
<clus scale="   92.219">  7  8 -1 -1</clus>
<clus scale="  121.892">  1  5  2 -1</clus>
<clus scale="  196.096">  2  9  1 -1</clus>
<clus scale="  196.096">  2  5  1 -1</clus>
</clustering>
</event>
<event>
10    2  0.1671105E-006  0.2805133E+03  0.7546771E-02  0.1095514E+00
          2   -1    0    0  503    0 -0.00000000000E+00  0.00000000000E+00  0.10338650017E+04  0.10338650017E+04  0.00000000000E+00 0. -1.
         21   -1    0    0  501  502  0.00000000000E+00 -0.00000000000E+00 -0.21975829470E+03  0.21975829470E+03  0.00000000000E+00 0. -1.
         23    2    1    2    0    0 -0.33015590483E+03 -0.11766051180E+01  0.61357022887E+03  0.70332670968E+03  0.95894363261E+02 0.  0.
         23    2    1    2    0    0  0.19835505368E+03 -0.55695366865E+02 -0.54331723323E+02  0.23272672605E+03  0.93611386321E+02 0.  0.
        -11    1    3    3    0    0 -0.11948972638E+03 -0.18634754648E+02  0.14182427619E+03  0.18638447926E+03  0.00000000000E+00 0.  1.
         11    1    3    3    0    0 -0.21066617845E+03  0.17458149530E+02  0.47174595268E+03  0.51694223043E+03  0.00000000000E+00 0. -1.
        -11    1    4    4    0    0  0.13812721539E+03 -0.58401981104E+02  0.23386973637E+01  0.14998462766E+03  0.00000000000E+00 0.  1.
         11    1    4    4    0    0  0.60227838287E+02  0.27066142389E+01 -0.56670420687E+02  0.82742098391E+02  0.00000000000E+00 0. -1.
         21    1    1    2  503  502  0.65286969064E+02  0.33136831513E+01  0.21232953327E+03  0.22216480263E+03  0.00000000000E+00 0.  1.
          2    1    1    2  501    0  0.66513882081E+02  0.53558288832E+02  0.42538668197E+02  0.95405058063E+02  0.00000000000E+00 0. -1.
<scales pt_clust_5="13000.00000" pt_clust_6="13000.00000" pt_clust_7="13000.00000" pt_clust_8="13000.00000" pt_clust_9="65.37101" pt_clust_10="89.92545"></scales>
<clustering>
<clus scale="   65.371">  1  9  2 -1</clus>
<clus scale="   89.925">  2 10  1 -1</clus>
<clus scale="   93.611">  7  8 -1 -1</clus>
<clus scale="   95.894">  5  6 -1 -1</clus>
<clus scale="  279.741">  2  7  1 -1</clus>
<clus scale="   89.925">  2  5  1 -1</clus>
</clustering>
</event>
<event>
10    2  0.1671105E-006  0.1434628E+03  0.7546771E-02  0.1208807E+00
          1   -1    0    0  503    0 -0.00000000000E+00  0.00000000000E+00  0.27217863452E+03  0.27217863452E+03  0.00000000000E+00 0. -1.
         21   -1    0    0  501  502  0.00000000000E+00 -0.00000000000E+00 -0.29540152804E+03  0.29540152804E+03  0.00000000000E+00 0.  1.
         23    2    1    2    0    0  0.28180536468E+02  0.10006793325E+03  0.16972379666E+03  0.21965640629E+03  0.92924893176E+02 0.  0.
         23    2    1    2    0    0  0.27604423174E+01 -0.13353245094E+03 -0.31789732716E+02  0.16595138630E+03  0.93224138575E+02 0.  0.
        -11    1    3    3    0    0 -0.22108532009E+02  0.71271368947E+02  0.12830207249E+03  0.14842444888E+03  0.00000000000E+00 0. -1.
         11    1    3    3    0    0  0.50289068477E+02  0.28796564300E+02  0.41421724172E+02  0.71231957415E+02  0.00000000000E+00 0.  1.
        -11    1    4    4    0    0 -0.25592413358E+02 -0.22249787036E+02  0.20652690772E+02  0.39705897305E+02  0.00000000000E+00 0. -1.
         11    1    4    4    0    0  0.28352855675E+02 -0.11128266390E+03 -0.52442423488E+02  0.12624548900E+03  0.00000000000E+00 0.  1.
         21    1    1    2  503  502 -0.10449337716E+02 -0.20918020948E+02 -0.26687192439E+02  0.35481805187E+02  0.00000000000E+00 0. -1.
          1    1    1    2  501    0 -0.20491641069E+02  0.54382538641E+02 -0.13446976503E+03  0.14649056478E+03  0.00000000000E+00 0. -1.
<scales pt_clust_5="13000.00000" pt_clust_6="13000.00000" pt_clust_7="13000.00000" pt_clust_8="13000.00000" pt_clust_9="23.38273" pt_clust_10="50.49964"></scales>
<clustering>
<clus scale="   23.383">  2  9  1 -1</clus>
<clus scale="   50.500">  2 10  1 -1</clus>
<clus scale="   92.925">  5  6 -1 -1</clus>
<clus scale="   93.224">  7  8 -1 -1</clus>
<clus scale="  143.269">  1  5  2 -1</clus>
<clus scale="   23.383">  2  5  1 -1</clus>
</clustering>
</event>
<event>
10    2  0.1671105E-006  0.1447401E+03  0.7546771E-02  0.1222994E+00
         21   -1    0    0  501  502  0.00000000000E+00  0.00000000000E+00  0.23090249362E+03  0.23090249362E+03  0.00000000000E+00 0.  1.
         -3   -1    0    0    0  501 -0.00000000000E+00 -0.00000000000E+00 -0.35202822973E+03  0.35202822973E+03  0.00000000000E+00 0.  1.
         23    2    1    2    0    0 -0.16808949557E+01  0.57831095547E+02 -0.16688792769E+03  0.19857827510E+03  0.90744090247E+02 0.  0.
         23    2    1    2    0    0  0.14246630921E+02  0.11417738740E+03 -0.49076766103E+02  0.15603802090E+03  0.93273215398E+02 0.  0.
        -13    1    3    3    0    0  0.29874699581E+02 -0.10149288016E+02 -0.63218808522E+02  0.70654960712E+02  0.00000000000E+00 0. -1.
         13    1    3    3    0    0 -0.31555594537E+02  0.67980383563E+02 -0.10366911917E+03  0.12792331439E+03  0.00000000000E+00 0.  1.
        -13    1    4    4    0    0  0.34669306290E+02  0.12143805043E+03 -0.44372721948E+02  0.13385850494E+03  0.00000000000E+00 0.  1.
         13    1    4    4    0    0 -0.20422675369E+02 -0.72606630359E+01 -0.47040441549E+01  0.22179515963E+02  0.00000000000E+00 0. -1.
         21    1    1    2  503  502  0.43337897386E+01 -0.64075227931E+02  0.10011036564E+03  0.11893906792E+03  0.00000000000E+00 0.  1.
         -3    1    1    2    0  503 -0.16899525704E+02 -0.10793325501E+03 -0.52714079678E+01  0.10937535942E+03  0.00000000000E+00 0.  1.
<scales pt_clust_5="13000.00000" pt_clust_6="13000.00000" pt_clust_7="13000.00000" pt_clust_8="13000.00000" pt_clust_9="64.22162" pt_clust_10="110.67891"></scales>
<clustering>
<clus scale="   64.222">  1  9  2 -1</clus>
<clus scale="   90.744">  5  6 -1 -1</clus>
<clus scale="   93.273">  7  8 -1 -1</clus>
<clus scale="  103.357">  2  5  1 -1</clus>
<clus scale="  110.679">  1 10  2 -1</clus>
<clus scale="   64.222">  1  5  2 -1</clus>
</clustering>
</event>
<event>
10    2  0.1671105E-006  0.1709681E+03  0.7546771E-02  0.1194228E+00
         21   -1    0    0  501  502  0.00000000000E+00  0.00000000000E+00  0.29665376972E+03  0.29665376972E+03  0.00000000000E+00 0. -1.
          2   -1    0    0  503    0 -0.00000000000E+00 -0.00000000000E+00 -0.41456942748E+03  0.41456942748E+03  0.00000000000E+00 0. -1.
         23    2    1    2    0    0 -0.59049729808E+02  0.31911344219E+02  0.26409526468E+02  0.11563661885E+03  0.90383405841E+02 0.  0.
         23    2    1    2    0    0  0.55757777849E+02  0.11849754439E+03 -0.31386029480E+03  0.35339035283E+03  0.96051335257E+02 0.  0.
        -11    1    4    4    0    0  0.18257550046E+02  0.12915701537E+02 -0.25234261035E+01  0.22506024952E+02  0.00000000000E+00 0.  1.
         11    1    4    4    0    0  0.37500227803E+02  0.10558184285E+03 -0.31133686870E+03  0.33088432788E+03  0.00000000000E+00 0. -1.
        -11    1    3    3    0    0 -0.80884454602E+02  0.10407149317E+02  0.14904361498E+02  0.82902012911E+02  0.00000000000E+00 0. -1.
         11    1    3    3    0    0  0.21834724793E+02  0.21504194903E+02  0.11505164970E+02  0.32734605943E+02  0.00000000000E+00 0.  1.
         21    1    1    2  503  502 -0.29711833795E+02 -0.17054466107E+02  0.46645756365E+02  0.57874644435E+02  0.00000000000E+00 0.  1.
          2    1    1    2  501    0  0.33003785753E+02 -0.13335442250E+03  0.12288935421E+03  0.18432158108E+03  0.00000000000E+00 0. -1.
<scales pt_clust_5="13000.00000" pt_clust_6="13000.00000" pt_clust_7="13000.00000" pt_clust_8="13000.00000" pt_clust_9="34.25854" pt_clust_10="141.43636"></scales>
<clustering>
<clus scale="   34.259">  1  9  2 -1</clus>
<clus scale="   90.383">  7  8 -1 -1</clus>
<clus scale="   96.051">  5  6 -1 -1</clus>
<clus scale="  116.090">  2  7  1 -1</clus>
<clus scale="  141.436">  1 10  2 -1</clus>
<clus scale="   34.259">  1  5  2 -1</clus>
</clustering>
</event>
<event>
10    2  0.1671105E-006  0.1440641E+03  0.7546771E-02  0.1226554E+00
         21   -1    0    0  503  502  0.00000000000E+00  0.00000000000E+00  0.14838614021E+03  0.14838614021E+03  0.00000000000E+00 0. -1.
          1   -1    0    0  502    0 -0.00000000000E+00 -0.00000000000E+00 -0.31991749699E+03  0.31991749699E+03  0.00000000000E+00 0. -1.
         23    2    1    2    0    0 -0.15666907399E+02  0.34026793560E+02 -0.29817115456E+02  0.10179192657E+03  0.89829066974E+02 0.  0.
         23    2    1    2    0    0  0.12224314695E+03  0.10761257300E+01 -0.18436067823E+03  0.23853299181E+03  0.89244515133E+02 0.  0.
        -13    1    4    4    0    0  0.18894193166E+02 -0.13302257730E+02  0.37606905337E+01  0.23411180863E+02  0.00000000000E+00 0.  1.
         13    1    4    4    0    0  0.10334895379E+03  0.14378383460E+02 -0.18812136877E+03  0.21512181095E+03  0.00000000000E+00 0. -1.
        -13    1    3    3    0    0  0.17805020734E+02 -0.24234398121E+02 -0.75313557291E+01  0.31000744100E+02  0.00000000000E+00 0.  1.
         13    1    3    3    0    0 -0.33471928133E+02  0.58261191681E+02 -0.22285759727E+02  0.70791182470E+02  0.00000000000E+00 0. -1.
         21    1    1    2  503  501 -0.46127710264E+02 -0.36696632954E+02  0.30244228756E+02  0.66250448280E+02  0.00000000000E+00 0.  1.
          1    1    1    2  501    0 -0.60448529289E+02  0.15937136642E+01  0.12402208161E+02  0.61728270539E+02  0.00000000000E+00 0. -1.
<scales pt_clust_5="13000.00000" pt_clust_6="13000.00000" pt_clust_7="13000.00000" pt_clust_8="13000.00000" pt_clust_9="43.81153" pt_clust_10="121.48660"></scales>
<clustering>
<clus scale="   43.812">  9 10 -1 -1</clus>
<clus scale="   89.245">  5  6 -1 -1</clus>
<clus scale="   89.829">  7  8 -1 -1</clus>
<clus scale="   97.327">  2  7  1 -1</clus>
<clus scale="  121.487">  1  9  2 -1</clus>
<clus scale="  121.487">  1  5  2 -1</clus>
</clustering>
</event>
<event>
10    2  0.1671105E-006  0.9272963E+02  0.7546771E-02  0.1296459E+00
         21   -1    0    0  503  502  0.00000000000E+00  0.00000000000E+00  0.36833332581E+03  0.36833332581E+03  0.00000000000E+00 0. -1.
          1   -1    0    0  502    0 -0.00000000000E+00 -0.00000000000E+00 -0.12025672553E+03  0.12025672553E+03  0.00000000000E+00 0. -1.
         23    2    1    2    0    0  0.25605183646E+01 -0.28473544227E+02 -0.62728073846E+02  0.11389334618E+03  0.90661921891E+02 0.  0.
         23    2    1    2    0    0 -0.82299698740E+01 -0.27461470334E+02  0.97189210815E+02  0.13606834985E+03  0.90812930667E+02 0.  0.
        -11    1    4    4    0    0  0.25724193965E+02  0.20611333764E+02  0.53226168551E+02  0.62606599120E+02  0.00000000000E+00 0.  1.
         11    1    4    4    0    0 -0.33954163840E+02 -0.48072804098E+02  0.43963042264E+02  0.73461750734E+02  0.00000000000E+00 0. -1.
        -13    1    3    3    0    0 -0.41653707443E+02 -0.97907052584E+01 -0.46580554420E+02  0.63250591327E+02  0.00000000000E+00 0.  1.
         13    1    3    3    0    0  0.44214225807E+02 -0.18682838969E+02 -0.16147519426E+02  0.50642754855E+02  0.00000000000E+00 0. -1.
         21    1    1    2  503  501 -0.36843899608E+02  0.19356272565E+02  0.14017026744E+03  0.14621847386E+03  0.00000000000E+00 0. -1.
          1    1    1    2  501    0  0.42513351118E+02  0.36578741996E+02  0.73445195883E+02  0.92409881439E+02  0.00000000000E+00 0. -1.
<scales pt_clust_5="13000.00000" pt_clust_6="13000.00000" pt_clust_7="13000.00000" pt_clust_8="13000.00000" pt_clust_9="41.61896" pt_clust_10="52.42215"></scales>
<clustering>
<clus scale="   41.619">  1  9  2 -1</clus>
<clus scale="   52.422">  1 10  2 -1</clus>
<clus scale="   90.662">  7  8 -1 -1</clus>
<clus scale="   90.813">  5  6 -1 -1</clus>
<clus scale="   92.582">  2  7  1 -1</clus>
<clus scale="   41.619">  1  5  2 -1</clus>
</clustering>
</event>
<event>
10    2  0.1671105E-006  0.3375310E+03  0.7546771E-02  0.1081383E+00
          3   -1    0    0  503    0 -0.00000000000E+00  0.00000000000E+00  0.12956720366E+04  0.12956720366E+04  0.00000000000E+00 0. -1.
         21   -1    0    0  501  502  0.00000000000E+00 -0.00000000000E+00 -0.17952982871E+03  0.17952982871E+03  0.00000000000E+00 0. -1.
         23    2    1    2    0    0 -0.11289766363E+03  0.17879734255E+03  0.26549062890E+03  0.35128957525E+03  0.90579906670E+02 0.  0.
         23    2    1    2    0    0 -0.25188250223E+03 -0.20680961450E+03  0.52015620688E+03  0.61927199226E+03  0.81977492395E+02 0.  0.
        -11    1    3    3    0    0 -0.12723253949E+03  0.14293226441E+03  0.21785471943E+03  0.28996280812E+03  0.00000000000E+00 0. -1.
         11    1    3    3    0    0  0.14334875862E+02  0.35865078142E+02  0.47635909471E+02  0.61326767135E+02  0.00000000000E+00 0.  1.
        -11    1    4    4    0    0 -0.17932370514E+03 -0.18148762281E+03  0.43711584986E+03  0.50612746878E+03  0.00000000000E+00 0. -1.
         11    1    4    4    0    0 -0.72558797089E+02 -0.25321991692E+02  0.83040357025E+02  0.11314452348E+03  0.00000000000E+00 0.  1.
         21    1    1    2  503  502  0.78412835521E+01  0.23051297086E+02  0.22852841919E+02  0.33393119184E+02  0.00000000000E+00 0. -1.
          3    1    1    2  501    0  0.35693888231E+03  0.49609748683E+01  0.30764253021E+03  0.47124717863E+03  0.00000000000E+00 0. -1.
<scales pt_clust_5="13000.00000" pt_clust_6="13000.00000" pt_clust_7="13000.00000" pt_clust_8="13000.00000" pt_clust_9="24.34847" pt_clust_10="327.42458"></scales>
<clustering>
<clus scale="   24.348">  2  9  1 -1</clus>
<clus scale="   81.977">  7  8 -1 -1</clus>
<clus scale="   90.580">  5  6 -1 -1</clus>
<clus scale="  233.556">  1  5  2 -1</clus>
<clus scale="  327.425">  2 10  1 -1</clus>
<clus scale="   24.348">  2  5  1 -1</clus>
</clustering>
</event>
<event>
10    2  0.1671105E-006  0.1019965E+03  0.7546771E-02  0.1280912E+00
          3   -1    0    0  502    0 -0.00000000000E+00  0.00000000000E+00  0.23343268568E+03  0.23343268568E+03  0.00000000000E+00 0. -1.
         21   -1    0    0  503  502  0.00000000000E+00 -0.00000000000E+00 -0.36634346591E+03  0.36634346591E+03  0.00000000000E+00 0. -1.
         23    2    1    2    0    0 -0.17141990088E+02 -0.23826740736E+02  0.13371426980E+03  0.16410629855E+03  0.90497568359E+02 0.  0.
         23    2    1    2    0    0 -0.44194666421E+02  0.17619912120E+02  0.43362972635E+02  0.11858002493E+03  0.99585365763E+02 0.  0.
        -11    1    3    3    0    0  0.37403301297E+02 -0.77187559866E+01  0.50582493314E+02  0.63381186261E+02  0.00000000000E+00 0.  1.
         11    1    3    3    0    0 -0.54545291385E+02 -0.16107984750E+02  0.83131776482E+02  0.10072511229E+03  0.00000000000E+00 0. -1.
        -11    1    4    4    0    0 -0.23003124771E+02  0.26178029873E+02 -0.27328261888E+02  0.44286193053E+02  0.00000000000E+00 0.  1.
         11    1    4    4    0    0 -0.21191541650E+02 -0.85581177529E+01  0.70691234524E+02  0.74293831880E+02  0.00000000000E+00 0. -1.
         21    1    1    2  503  501  0.37527722660E+02 -0.11275634838E+01 -0.12762183609E+03  0.13302982528E+03  0.00000000000E+00 0.  1.
          3    1    1    2  501    0  0.23808933849E+02  0.73343921001E+01 -0.18236618656E+03  0.18406000282E+03  0.00000000000E+00 0. -1.
<scales pt_clust_5="13000.00000" pt_clust_6="13000.00000" pt_clust_7="13000.00000" pt_clust_8="13000.00000" pt_clust_9="20.81074" pt_clust_10="66.73369"></scales>
<clustering>
<clus scale="   20.811">  9 10 -1 -1</clus>
<clus scale="   66.734">  2  9  1 -1</clus>
<clus scale="   90.498">  5  6 -1 -1</clus>
<clus scale="   93.144">  1  5  2 -1</clus>
<clus scale="   99.585">  7  8 -1 -1</clus>
<clus scale="   66.734">  2  5  1 -1</clus>
</clustering>
</event>
<event>
10    2  0.1671105E-006  0.2461383E+03  0.7546771E-02  0.1142534E+00
          2   -1    0    0  502    0 -0.00000000000E+00  0.00000000000E+00  0.15442799401E+04  0.15442799401E+04  0.00000000000E+00 0. -1.
         21   -1    0    0  503  502  0.00000000000E+00 -0.00000000000E+00 -0.65529664384E+02  0.65529664384E+02  0.00000000000E+00 0. -1.
         23    2    1    2    0    0 -0.84683760570E+02  0.21573822645E+02  0.28699365071E+03  0.31400811555E+03  0.92730641955E+02 0.  0.
         23    2    1    2    0    0 -0.65048396420E+02  0.18074090743E+03  0.78617335249E+03  0.81448351868E+03  0.91740353945E+02 0.  0.
        -13    1    3    3    0    0 -0.25108059451E+01 -0.24029553600E+02  0.21390933546E+02  0.32269112642E+02  0.00000000000E+00 0.  1.
         13    1    3    3    0    0 -0.82172954625E+02  0.45603376245E+02  0.26560271716E+03  0.28173900291E+03  0.00000000000E+00 0. -1.
        -13    1    4    4    0    0 -0.27085643467E+02  0.39622013668E+02  0.79548983265E+02  0.92906279592E+02  0.00000000000E+00 0.  1.
         13    1    4    4    0    0 -0.37962752953E+02  0.14111889376E+03  0.70662436922E+03  0.72157723909E+03  0.00000000000E+00 0. -1.
         21    1    1    2  503  501  0.11227289364E+02 -0.23494049091E+02  0.85535380759E+02  0.89410982160E+02  0.00000000000E+00 0. -1.
          2    1    1    2  501    0  0.13850486763E+03 -0.17882068098E+03  0.32004789181E+03  0.39190698814E+03  0.00000000000E+00 0. -1.
<scales pt_clust_5="13000.00000" pt_clust_6="13000.00000" pt_clust_7="13000.00000" pt_clust_8="13000.00000" pt_clust_9="20.96565" pt_clust_10="236.61358"></scales>
<clustering>
<clus scale="   20.966">  9 10 -1 -1</clus>
<clus scale="   91.740">  7  8 -1 -1</clus>
<clus scale="   92.731">  5  6 -1 -1</clus>
<clus scale="  127.420">  1  5  2 -1</clus>
<clus scale="  236.614">  2  9  1 -1</clus>
<clus scale="  236.614">  2  5  1 -1</clus>
</clustering>
</event>
<event>
10    2  0.1671105E-006  0.9433246E+02  0.7546771E-02  0.1293277E+00
         21   -1    0    0  501  502  0.00000000000E+00  0.00000000000E+00  0.21972822925E+03  0.21972822925E+03  0.00000000000E+00 0.  1.
         -1   -1    0    0    0  501 -0.00000000000E+00 -0.00000000000E+00 -0.14089908563E+03  0.14089908563E+03  0.00000000000E+00 0.  1.
         23    2    1    2    0    0  0.18704646902E+02  0.13547991381E+02 -0.85645987547E+02  0.12693732130E+03  0.90798879237E+02 0.  0.
         23    2    1    2    0    0 -0.27956656793E+02  0.25622706542E+02  0.85054860286E+02  0.13080791663E+03  0.91860133054E+02 0.  0.
        -11    1    3    3    0    0 -0.71742653204E+01  0.49049494835E+02 -0.49386989759E+02  0.69974265155E+02  0.00000000000E+00 0.  1.
         11    1    3    3    0    0  0.25878912223E+02 -0.35501503454E+02 -0.36258997788E+02  0.56963056149E+02  0.00000000000E+00 0. -1.
        -13    1    4    4    0    0 -0.11850371057E+02  0.56747910840E+02  0.74114938598E+02  0.94094531203E+02  0.00000000000E+00 0.  1.
         13    1    4    4    0    0 -0.16106285736E+02 -0.31125204299E+02  0.10939921688E+02  0.36713385425E+02  0.00000000000E+00 0. -1.
         21    1    1    2  503  502  0.25816300099E+02 -0.43213587545E+01  0.39290027280E+02  0.47210822233E+02  0.00000000000E+00 0.  1.
         -1    1    1    2    0  503 -0.16564290208E+02 -0.34849339168E+02  0.40130243600E+02  0.55671254719E+02  0.00000000000E+00 0.  1.
<scales pt_clust_5="13000.00000" pt_clust_6="13000.00000" pt_clust_7="13000.00000" pt_clust_8="13000.00000" pt_clust_9="26.17548" pt_clust_10="37.26850"></scales>
<clustering>
<clus scale="   26.175">  1  9  2 -1</clus>
<clus scale="   37.269">  1 10  2 -1</clus>
<clus scale="   90.799">  5  6 -1 -1</clus>
<clus scale="   91.860">  7  8 -1 -1</clus>
<clus scale="   93.299">  2  5  1 -1</clus>
<clus scale="   26.175">  1  5  2 -1</clus>
</clustering>
</event>
<event>
10    2  0.1671105E-006  0.2536317E+03  0.7546771E-02  0.1133603E+00
          1   -1    0    0  502    0 -0.00000000000E+00  0.00000000000E+00  0.15128108352E+04  0.15128108352E+04  0.00000000000E+00 0. -1.
         21   -1    0    0  503  502  0.00000000000E+00 -0.00000000000E+00 -0.82424949708E+02  0.82424949708E+02  0.00000000000E+00 0. -1.
         23    2    1    2    0    0  0.39945660506E+02  0.94983432481E+02  0.64229417767E+03  0.65836141463E+03  0.10139247192E+03 0.  0.
         23    2    1    2    0    0  0.12892627581E+03  0.12109577231E+03  0.40777287773E+03  0.45353534978E+03  0.90163313062E+02 0.  0.
        -11    1    4    4    0    0  0.17517355869E+02  0.14815278451E+02  0.66661015438E+01  0.23891151961E+02  0.00000000000E+00 0.  1.
         11    1    4    4    0    0  0.11140891995E+03  0.10628049386E+03  0.40110677619E+03  0.42964419782E+03  0.00000000000E+00 0. -1.
        -11    1    3    3    0    0 -0.19545499852E+02  0.75452843950E+02  0.43075029350E+03  0.43774532958E+03  0.00000000000E+00 0.  1.
         11    1    3    3    0    0  0.59491160358E+02  0.19530588531E+02  0.21154388417E+03  0.22061608505E+03  0.00000000000E+00 0. -1.
         21    1    1    2  503  501 -0.11677668883E+03 -0.65542545390E+02  0.21848917170E+03  0.25626185526E+03  0.00000000000E+00 0.  1.
          1    1    1    2  501    0 -0.52095247487E+02 -0.15053665940E+03  0.16182965837E+03  0.22707716521E+03  0.00000000000E+00 0. -1.
<scales pt_clust_5="13000.00000" pt_clust_6="13000.00000" pt_clust_7="13000.00000" pt_clust_8="13000.00000" pt_clust_9="107.57622" pt_clust_10="107.57622"></scales>
<clustering>
<clus scale="   90.163">  5  6 -1 -1</clus>
<clus scale="  101.392">  7  8 -1 -1</clus>
<clus scale="  107.576">  9 10 -1 -1</clus>
<clus scale="  144.561">  1  7  2 -1</clus>
<clus scale="  242.265">  1  5  2 -1</clus>
<clus scale="  253.632">  2  5  1 -1</clus>
</clustering>
</event>
<event>
10    2  0.1671105E-006  0.1101958E+03  0.7546771E-02  0.1260677E+00
         21   -1    0    0  501  502  0.00000000000E+00  0.00000000000E+00  0.12371370975E+03  0.12371370975E+03  0.00000000000E+00 0.  1.
          2   -1    0    0  503    0 -0.00000000000E+00 -0.00000000000E+00 -0.53894236640E+03  0.53894236640E+03  0.00000000000E+00 0. -1.
         23    2    1    2    0    0 -0.92828872871E+00  0.58121550144E+02 -0.26931552309E+03  0.29010741240E+03  0.90843180498E+02 0.  0.
         23    2    1    2    0    0  0.34962073770E+02 -0.58803947858E+02 -0.23772209652E+03  0.26394417722E+03  0.92056953188E+02 0.  0.
        -11    1    3    3    0    0  0.30494689855E+02  0.62703198208E+02 -0.22523057544E+03  0.23577622714E+03  0.00000000000E+00 0.  1.
         11    1    3    3    0    0 -0.31422978583E+02 -0.45816480644E+01 -0.44084947653E+02  0.54331185258E+02  0.00000000000E+00 0. -1.
        -11    1    4    4    0    0 -0.23551037798E+02 -0.18122590777E+02 -0.13927428393E+03  0.14240928988E+03  0.00000000000E+00 0. -1.
         11    1    4    4    0    0  0.58513111568E+02 -0.40681357081E+02 -0.98447812583E+02  0.12153488734E+03  0.00000000000E+00 0.  1.
         21    1    1    2  503  502 -0.16799787924E+02  0.19801652482E+02  0.21438534154E+02  0.33674160152E+02  0.00000000000E+00 0. -1.
          2    1    1    2  501    0 -0.17233997118E+02 -0.19119254768E+02  0.70370428809E+02  0.74930326372E+02  0.00000000000E+00 0. -1.
<scales pt_clust_5="13000.00000" pt_clust_6="13000.00000" pt_clust_7="13000.00000" pt_clust_8="13000.00000" pt_clust_9="27.76979" pt_clust_10="25.74017"></scales>
<clustering>
<clus scale="   25.740">  1 10  2 -1</clus>
<clus scale="   27.770">  1  9  2 -1</clus>
<clus scale="   90.843">  5  6 -1 -1</clus>
<clus scale="   92.057">  7  8 -1 -1</clus>
<clus scale="  109.184">  2  5  1 -1</clus>
<clus scale="   25.740">  1  5  2 -1</clus>
</clustering>
</event>
<event>
10    2  0.1671105E-006  0.9857356E+02  0.7546771E-02  0.1284892E+00
         -1   -1    0    0    0  501 -0.00000000000E+00  0.00000000000E+00  0.55680786351E+03  0.55680786351E+03  0.00000000000E+00 0.  1.
         21   -1    0    0  503  502  0.00000000000E+00 -0.00000000000E+00 -0.74134251599E+02  0.74134251599E+02  0.00000000000E+00 0.  1.
         23    2    1    2    0    0  0.22033947004E+02 -0.41830122071E+00  0.18491353709E+03  0.20814778736E+03  0.92988254023E+02 0.  0.
         23    2    1    2    0    0  0.79484669468E+02  0.26027116996E+02  0.90544026337E+02  0.15620370245E+03  0.95948696986E+02 0.  0.
        -11    1    3    3    0    0 -0.32287202998E+02 -0.42807030659E+01  0.31319707361E+02  0.45185306963E+02  0.00000000000E+00 0.  1.
         11    1    3    3    0    0  0.54321150002E+02  0.38624018452E+01  0.15359382973E+03  0.16296248039E+03  0.00000000000E+00 0. -1.
        -13    1    4    4    0    0  0.41199133542E+02  0.56181439877E+02  0.23925882338E+02  0.73662545686E+02  0.00000000000E+00 0.  1.
         13    1    4    4    0    0  0.38285535926E+02 -0.30154322881E+02  0.66618143999E+02  0.82541156761E+02  0.00000000000E+00 0. -1.
         21    1    1    2  503  501 -0.48022344117E+02  0.32619046960E+02  0.16914703192E+03  0.17883194951E+03  0.00000000000E+00 0.  1.
         -1    1    1    2    0  502 -0.53496272355E+02 -0.58227862735E+02  0.38069016564E+02  0.87758675792E+02  0.00000000000E+00 0.  1.
<scales pt_clust_5="13000.00000" pt_clust_6="13000.00000" pt_clust_7="13000.00000" pt_clust_8="13000.00000" pt_clust_9="58.05297" pt_clust_10="81.01527"></scales>
<clustering>
<clus scale="   58.053">  1  9  2 -1</clus>
<clus scale="   81.015">  2 10  1 -1</clus>
<clus scale="   92.988">  5  6 -1 -1</clus>
<clus scale="   95.694">  1  5  2 -1</clus>
<clus scale="   95.949">  7  8 -1 -1</clus>
<clus scale="   81.015">  2  5  1 -1</clus>
</clustering>
</event>
<event>
10    2  0.1671105E-006  0.1324074E+03  0.7546771E-02  0.1251268E+00
          2   -1    0    0  503    0 -0.00000000000E+00  0.00000000000E+00  0.37488963817E+03  0.37488963817E+03  0.00000000000E+00 0. -1.
         21   -1    0    0  501  502  0.00000000000E+00 -0.00000000000E+00 -0.21579241703E+03  0.21579241703E+03  0.00000000000E+00 0. -1.
         23    2    1    2    0    0  0.20689397331E+02 -0.14795596321E+01  0.15493417943E+03  0.17270141553E+03  0.73423012139E+02 0.  0.
         23    2    1    2    0    0 -0.66532051867E+02 -0.55201444822E+02 -0.10516671672E+03  0.16696436314E+03  0.96660989128E+02 0.  0.
        -11    1    3    3    0    0 -0.13826966085E+02 -0.26035862429E+02  0.36489921758E+02  0.46910185604E+02  0.00000000000E+00 0.  1.
         11    1    3    3    0    0  0.34516363416E+02  0.24556302797E+02  0.11844425768E+03  0.12579122993E+03  0.00000000000E+00 0. -1.
        -11    1    4    4    0    0 -0.83997854722E+02 -0.15156169480E+02 -0.61563236149E+02  0.10523963662E+03  0.00000000000E+00 0.  1.
         11    1    4    4    0    0  0.17465802856E+02 -0.40045275342E+02 -0.43603480568E+02  0.61724726523E+02  0.00000000000E+00 0. -1.
         21    1    1    2  503  502  0.78855834429E+02 -0.42180103955E+01  0.15083905736E+03  0.17025996435E+03  0.00000000000E+00 0. -1.
          2    1    1    2  501    0 -0.33013179893E+02  0.60899014850E+02 -0.41509298940E+02  0.80756312167E+02  0.00000000000E+00 0. -1.
<scales pt_clust_5="13000.00000" pt_clust_6="13000.00000" pt_clust_7="13000.00000" pt_clust_8="13000.00000" pt_clust_9="90.48962" pt_clust_10="69.27164"></scales>
<clustering>
<clus scale="   69.272">  2 10  1 -1</clus>
<clus scale="   73.423">  5  6 -1 -1</clus>
<clus scale="   75.817">  1  5  2 -1</clus>
<clus scale="   90.490">  1  9  2 -1</clus>
<clus scale="   96.661">  7  8 -1 -1</clus>
<clus scale="   69.272">  2  5  1 -1</clus>
</clustering>
</event>
<event>
10    2  0.1671105E-006  0.9314695E+02  0.7546771E-02  0.1295920E+00
         -1   -1    0    0    0  501 -0.00000000000E+00  0.00000000000E+00  0.22072051184E+03  0.22072051184E+03  0.00000000000E+00 0.  1.
         21   -1    0    0  501  502  0.00000000000E+00 -0.00000000000E+00 -0.14797062150E+03  0.14797062150E+03  0.00000000000E+00 0.  1.
         23    2    1    2    0    0 -0.18627865937E+02  0.74978696580E+01  0.12393285979E+03  0.15573544538E+03  0.92146404027E+02 0.  0.
         23    2    1    2    0    0 -0.63369754350E+02  0.15277484812E+02 -0.22385015704E+02  0.11545863173E+03  0.92630877165E+02 0.  0.
        -11    1    3    3    0    0  0.26844175221E+02  0.20358388315E+02  0.14775808949E+02  0.36788561377E+02  0.00000000000E+00 0.  1.
         11    1    3    3    0    0 -0.45472041158E+02 -0.12860518657E+02  0.10915705084E+03  0.11894688401E+03  0.00000000000E+00 0. -1.
        -11    1    4    4    0    0 -0.35191226251E+02 -0.17800867473E+02  0.28416127882E+02  0.48608328624E+02  0.00000000000E+00 0.  1.
         11    1    4    4    0    0 -0.28178528099E+02  0.33078352285E+02 -0.50801143586E+02  0.66850303106E+02  0.00000000000E+00 0. -1.
         21    1    1    2  503  502  0.44009674858E+02  0.69974806927E+01 -0.97976359854E+01  0.45626854900E+02  0.00000000000E+00 0.  1.
         -1    1    1    2    0  503  0.37987945428E+02 -0.29772835163E+02 -0.19000317757E+02  0.51870201333E+02  0.00000000000E+00 0.  1.
<scales pt_clust_5="13000.00000" pt_clust_6="13000.00000" pt_clust_7="13000.00000" pt_clust_8="13000.00000" pt_clust_9="36.38711" pt_clust_10="93.14695"></scales>
<clustering>
<clus scale="   36.387">  9 10 -1 -1</clus>
<clus scale="   92.146">  5  6 -1 -1</clus>
<clus scale="   92.631">  7  8 -1 -1</clus>
<clus scale="   93.147">  2  9  1 -1</clus>
<clus scale="   92.260">  1  5  2 -1</clus>
<clus scale="   93.147">  2  5  1 -1</clus>
</clustering>
</event>
<event>
10    2  0.1671105E-006  0.1113625E+03  0.7546771E-02  0.1258807E+00
          2   -1    0    0  503    0 -0.00000000000E+00  0.00000000000E+00  0.15841147872E+03  0.15841147872E+03  0.00000000000E+00 0. -1.
         21   -1    0    0  501  502  0.00000000000E+00 -0.00000000000E+00 -0.71353420178E+03  0.71353420178E+03  0.00000000000E+00 0. -1.
         23    2    1    2    0    0  0.43207262065E+02 -0.28208650536E+02  0.21363445631E+02  0.10774571679E+03  0.92141994862E+02 0.  0.
         23    2    1    2    0    0  0.19047125010E+02  0.94164132762E+02  0.30179325313E+02  0.13779369574E+03  0.94056547034E+02 0.  0.
        -13    1    3    3    0    0 -0.15706796350E+02 -0.41836284924E+02  0.41836194645E+01  0.44882968481E+02  0.00000000000E+00 0.  1.
         13    1    3    3    0    0  0.58914058415E+02  0.13627634388E+02  0.17179826167E+02  0.62862748310E+02  0.00000000000E+00 0. -1.
        -13    1    4    4    0    0 -0.13890740535E+02  0.77495125837E+02 -0.14270982102E+02  0.80013174736E+02  0.00000000000E+00 0.  1.
         13    1    4    4    0    0  0.32937865544E+02  0.16669006925E+02  0.44450307415E+02  0.57780521007E+02  0.00000000000E+00 0. -1.
         21    1    1    2  503  502  0.32229167497E+02 -0.50537543012E+02 -0.25417780746E+03  0.26114961286E+03  0.00000000000E+00 0. -1.
          2    1    1    2  501    0 -0.94483554571E+02 -0.15417939214E+02 -0.35248768655E+03  0.36525665511E+03  0.00000000000E+00 0. -1.
<scales pt_clust_5="13000.00000" pt_clust_6="13000.00000" pt_clust_7="13000.00000" pt_clust_8="13000.00000" pt_clust_9="59.93966" pt_clust_10="88.45202"></scales>
<clustering>
<clus scale="   59.940">  2  9  1 -1</clus>
<clus scale="   88.452">  2 10  1 -1</clus>
<clus scale="   92.142">  5  6 -1 -1</clus>
<clus scale="   94.057">  7  8 -1 -1</clus>
<clus scale="  109.750">  1  5  2 -1</clus>
<clus scale="   59.940">  2  5  1 -1</clus>
</clustering>
</event>
<event>
10    2  0.1671105E-006  0.1454119E+03  0.7546771E-02  0.1224347E+00
          1   -1    0    0  503    0 -0.00000000000E+00  0.00000000000E+00  0.12924109120E+04  0.12924109120E+04  0.00000000000E+00 0. -1.
         21   -1    0    0  501  502  0.00000000000E+00 -0.00000000000E+00 -0.60505272479E+02  0.60505272479E+02  0.00000000000E+00 0.  1.
         23    2    1    2    0    0  0.15482601110E+02 -0.28550187494E+02  0.30892053154E+03  0.32459103234E+03  0.94194582258E+02 0.  0.
         23    2    1    2    0    0 -0.12937079820E+03 -0.52707401287E+02  0.80599062356E+03  0.82314329064E+03  0.91810228685E+02 0.  0.
        -13    1    4    4    0    0 -0.22007834916E+02  0.21275810419E+02  0.82458015315E+02  0.87956405090E+02  0.00000000000E+00 0. -1.
         13    1    4    4    0    0 -0.10736296329E+03 -0.73983211706E+02  0.72353260824E+03  0.73518688555E+03  0.00000000000E+00 0.  1.
        -13    1    3    3    0    0  0.47424747514E+02 -0.13923161124E+02  0.25822113167E+03  0.26290894609E+03  0.00000000000E+00 0. -1.
         13    1    3    3    0    0 -0.31942146405E+02 -0.14627026370E+02  0.50699399871E+02  0.61682086254E+02  0.00000000000E+00 0.  1.
         21    1    1    2  503  502  0.20333723993E+02  0.22452618854E+02  0.84858274026E+02  0.90102758534E+02  0.00000000000E+00 0. -1.
          1    1    1    2  501    0  0.93554473098E+02  0.58804969926E+02  0.32136210431E+02  0.11507910299E+03  0.00000000000E+00 0. -1.
<scales pt_clust_5="13000.00000" pt_clust_6="13000.00000" pt_clust_7="13000.00000" pt_clust_8="13000.00000" pt_clust_9="30.29159" pt_clust_10="112.76298"></scales>
<clustering>
<clus scale="   30.292">  1  9  2 -1</clus>
<clus scale="   91.810">  5  6 -1 -1</clus>
<clus scale="   94.195">  7  8 -1 -1</clus>
<clus scale="   99.093">  1  7  2 -1</clus>
<clus scale="  112.763">  2 10  1 -1</clus>
<clus scale="  112.763">  2  5  1 -1</clus>
</clustering>
</event>
<event>
10    2  0.1671105E-006  0.1525002E+03  0.7546771E-02  0.1213244E+00
          2   -1    0    0  502    0 -0.00000000000E+00  0.00000000000E+00  0.63796650504E+03  0.63796650504E+03  0.00000000000E+00 0. -1.
         21   -1    0    0  503  502  0.00000000000E+00 -0.00000000000E+00 -0.16015066515E+03  0.16015066515E+03  0.00000000000E+00 0. -1.
         23    2    1    2    0    0  0.51785961533E+02 -0.12944326352E+02  0.19937718232E+03  0.22699402324E+03  0.94475840089E+02 0.  0.
         23    2    1    2    0    0 -0.34914851217E+02  0.13479440358E+03  0.37662307291E+03  0.41138891948E+03  0.89483663082E+02 0.  0.
        -11    1    3    3    0    0  0.79687866446E+02 -0.10325381871E+02  0.14275948827E+03  0.16382014852E+03  0.00000000000E+00 0.  1.
         11    1    3    3    0    0 -0.27901904912E+02 -0.26189444817E+01  0.56617694044E+02  0.63173874717E+02  0.00000000000E+00 0. -1.
        -13    1    4    4    0    0  0.27155148676E+02  0.16354054751E+02  0.77897983624E+02  0.84100850525E+02  0.00000000000E+00 0.  1.
         13    1    4    4    0    0 -0.62069999893E+02  0.11844034883E+03  0.29872508928E+03  0.32728806896E+03  0.00000000000E+00 0. -1.
         21    1    1    2  503  501  0.38714742907E+01 -0.46368391076E+02 -0.47416572397E+02  0.66433029000E+02  0.00000000000E+00 0. -1.
          2    1    1    2  501    0 -0.20742584607E+02 -0.75481686149E+02 -0.50767842936E+02  0.93301198472E+02  0.00000000000E+00 0. -1.
<scales pt_clust_5="13000.00000" pt_clust_6="13000.00000" pt_clust_7="13000.00000" pt_clust_8="13000.00000" pt_clust_9="21.01198" pt_clust_10="126.45848"></scales>
<clustering>
<clus scale="   21.012">  9 10 -1 -1</clus>
<clus scale="   89.484">  7  8 -1 -1</clus>
<clus scale="   94.476">  5  6 -1 -1</clus>
<clus scale="  108.513">  1  5  2 -1</clus>
<clus scale="  126.458">  2  9  1 -1</clus>
<clus scale="  126.458">  2  5  1 -1</clus>
</clustering>
</event>
<event>
10    2  0.1671105E-006  0.1848688E+03  0.7546771E-02  0.1163859E+00
          1   -1    0    0  503    0 -0.00000000000E+00  0.00000000000E+00  0.39759548791E+03  0.39759548791E+03  0.00000000000E+00 0. -1.
         21   -1    0    0  501  502  0.00000000000E+00 -0.00000000000E+00 -0.17355254399E+03  0.17355254399E+03  0.00000000000E+00 0. -1.
         23    2    1    2    0    0 -0.15540380301E+03 -0.14415223485E+03  0.16433835615E+03  0.28111195267E+03  0.84182099218E+02 0.  0.
         23    2    1    2    0    0  0.53662034469E+02  0.12123778113E+03  0.17837655144E+02  0.16140364785E+03  0.90303610570E+02 0.  0.
        -11    1    3    3    0    0 -0.44754864709E+02 -0.41903878476E+02  0.45203500793E+01  0.61476552533E+02  0.00000000000E+00 0.  1.
         11    1    3    3    0    0 -0.11064893830E+03 -0.10224835637E+03  0.15981800607E+03  0.21963540013E+03  0.00000000000E+00 0. -1.
        -13    1    4    4    0    0  0.67600276184E+02  0.94367237342E+02 -0.14646183067E+02  0.11700206623E+03  0.00000000000E+00 0. -1.
         13    1    4    4    0    0 -0.13938241714E+02  0.26870543788E+02  0.32483838211E+02  0.44401581621E+02  0.00000000000E+00 0.  1.
         21    1    1    2  503  502  0.45016767618E+02  0.38438779846E+02  0.36577181372E+02  0.69584045297E+02  0.00000000000E+00 0. -1.
          1    1    1    2  501    0  0.56725000918E+02 -0.15524326124E+02  0.52897512503E+01  0.59048386084E+02  0.00000000000E+00 0. -1.
<scales pt_clust_5="13000.00000" pt_clust_6="13000.00000" pt_clust_7="13000.00000" pt_clust_8="13000.00000" pt_clust_9="63.15219" pt_clust_10="58.81097"></scales>
<clustering>
<clus scale="   58.811">  2 10  1 -1</clus>
<clus scale="   63.152">  1  9  2 -1</clus>
<clus scale="   84.182">  5  6 -1 -1</clus>
<clus scale="   90.304">  7  8 -1 -1</clus>
<clus scale="  181.957">  1  5  2 -1</clus>
<clus scale="   58.811">  2  5  1 -1</clus>
</clustering>
</event>
<event>
10    2  0.1671105E-006  0.1305833E+03  0.7546771E-02  0.1226745E+00
         21   -1    0    0  503  502  0.00000000000E+00  0.00000000000E+00  0.46823747238E+03  0.46823747238E+03  0.00000000000E+00 0. -1.
         -3   -1    0    0    0  501 -0.00000000000E+00 -0.00000000000E+00 -0.15608740273E+03  0.15608740273E+03  0.00000000000E+00 0.  1.
         23    2    1    2    0    0 -0.12886947549E+02  0.11069006086E+03 -0.56986596391E+02  0.15470279239E+03  0.90923697761E+02 0.  0.
         23    2    1    2    0    0  0.18677507666E+02 -0.64599696749E+02  0.25530855061E+02  0.11639731036E+03  0.91512508362E+02 0.  0.
        -11    1    3    3    0    0 -0.21578232223E+02  0.48730112283E+02  0.18722084373E+02  0.56486816092E+02  0.00000000000E+00 0. -1.
         11    1    3    3    0    0  0.86912846732E+01  0.61959948579E+02 -0.75708680765E+02  0.98215976298E+02  0.00000000000E+00 0.  1.
        -13    1    4    4    0    0  0.28954341434E+01  0.23288109728E+02  0.11043843476E+02  0.25936192325E+02  0.00000000000E+00 0.  1.
         13    1    4    4    0    0  0.15782073523E+02 -0.87887806476E+02  0.14487011585E+02  0.90461118037E+02  0.00000000000E+00 0. -1.
         21    1    1    2  503  501  0.22192396310E+02 -0.36353813989E+02  0.11366573226E+03  0.12138369304E+03  0.00000000000E+00 0. -1.
         -3    1    1    2    0  502 -0.27982956427E+02 -0.97365501241E+01  0.22994007872E+03  0.23184107932E+03  0.00000000000E+00 0.  1.
<scales pt_clust_5="13000.00000" pt_clust_6="13000.00000" pt_clust_7="13000.00000" pt_clust_8="13000.00000" pt_clust_9="42.01039" pt_clust_10="29.62847"></scales>
<clustering>
<clus scale="   29.628">  1 10  2 -1</clus>
<clus scale="   42.010">  1  9  2 -1</clus>
<clus scale="   90.924">  5  6 -1 -1</clus>
<clus scale="   91.513">  7  8 -1 -1</clus>
<clus scale="  130.171">  2  5  1 -1</clus>
<clus scale="   29.628">  1  5  2 -1</clus>
</clustering>
</event>
<event>
10    2  0.1671105E-006  0.1123025E+03  0.7546771E-02  0.1258031E+00
         21   -1    0    0  501  502  0.00000000000E+00  0.00000000000E+00  0.49885622670E+03  0.49885622670E+03  0.00000000000E+00 0.  1.
         -3   -1    0    0    0  501 -0.00000000000E+00 -0.00000000000E+00 -0.77555716538E+02  0.77555716538E+02  0.00000000000E+00 0.  1.
         23    2    1    2    0    0 -0.13491659019E+02 -0.62495495849E+02  0.85653930845E+02  0.13997700007E+03  0.90383919004E+02 0.  0.
         23    2    1    2    0    0 -0.57984940881E+02  0.53263897647E+02  0.31818959658E+03  0.34119838350E+03  0.94722866152E+02 0.  0.
        -13    1    3    3    0    0 -0.37735560089E+02  0.58087610622E+01  0.31602941336E+02  0.49562688601E+02  0.00000000000E+00 0.  1.
         13    1    3    3    0    0  0.24243901070E+02 -0.68304256911E+02  0.54050989509E+02  0.90414311467E+02  0.00000000000E+00 0. -1.
        -13    1    4    4    0    0 -0.42216902566E+01  0.28353581031E+02  0.15156171089E+02  0.32426189230E+02  0.00000000000E+00 0. -1.
         13    1    4    4    0    0 -0.53763250624E+02  0.24910316617E+02  0.30303342549E+03  0.30877219427E+03  0.00000000000E+00 0.  1.
         21    1    1    2  503  502  0.27062682073E+02  0.73452060128E+01  0.37208648556E+02  0.46592105981E+02  0.00000000000E+00 0.  1.
         -3    1    1    2    0  503  0.44413917826E+02  0.18863921884E+01 -0.19751665815E+02  0.48644453688E+02  0.00000000000E+00 0.  1.
<scales pt_clust_5="13000.00000" pt_clust_6="13000.00000" pt_clust_7="13000.00000" pt_clust_8="13000.00000" pt_clust_9="28.04177" pt_clust_10="45.31906"></scales>
<clustering>
<clus scale="   28.042">  1  9  2 -1</clus>
<clus scale="   45.319">  1 10  2 -1</clus>
<clus scale="   90.384">  5  6 -1 -1</clus>
<clus scale="   94.723">  7  8 -1 -1</clus>
<clus scale="  108.668">  2  5  1 -1</clus>
<clus scale="   28.042">  1  5  2 -1</clus>
</clustering>
</event>
<event>
10    2  0.1671105E-006  0.9543840E+02  0.7546771E-02  0.1290840E+00
         -2   -1    0    0    0  501 -0.00000000000E+00  0.00000000000E+00  0.13279716992E+04  0.13279716992E+04  0.00000000000E+00 0.  1.
         21   -1    0    0  503  502  0.00000000000E+00 -0.00000000000E+00 -0.16235805383E+02  0.16235805383E+02  0.00000000000E+00 0.  1.
         23    2    1    2    0    0 -0.12860490888E+02 -0.37500570544E+02  0.53342644159E+03  0.54256170819E+03  0.90872182699E+02 0.  0.
         23    2    1    2    0    0  0.38584320413E+02 -0.25956655277E+02  0.50020268329E+03  0.51072640245E+03  0.92066476288E+02 0.  0.
        -11    1    4    4    0    0  0.23438134422E+02 -0.59764433354E+02  0.36182102943E+03  0.36747189141E+03  0.00000000000E+00 0.  1.
         11    1    4    4    0    0  0.15146185992E+02  0.33807778077E+02  0.13838165385E+03  0.14325451104E+03  0.00000000000E+00 0. -1.
        -13    1    3    3    0    0 -0.52224987147E+02 -0.24292770612E+02  0.31582173366E+03  0.32103108173E+03  0.00000000000E+00 0.  1.
         13    1    3    3    0    0  0.39364496259E+02 -0.13207799932E+02  0.21760470793E+03  0.22153062646E+03  0.00000000000E+00 0. -1.
         21    1    1    2  503  501  0.95061778983E+01  0.25509041554E+02  0.15489907261E+03  0.15727301521E+03  0.00000000000E+00 0. -1.
         -2    1    1    2    0  502 -0.35230007424E+02  0.37948184268E+02  0.12320769631E+03  0.13364637871E+03  0.00000000000E+00 0.  1.
<scales pt_clust_5="13000.00000" pt_clust_6="13000.00000" pt_clust_7="13000.00000" pt_clust_8="13000.00000" pt_clust_9="27.22276" pt_clust_10="53.18727"></scales>
<clustering>
<clus scale="   27.223">  1  9  2 -1</clus>
<clus scale="   53.187">  2 10  1 -1</clus>
<clus scale="   90.872">  7  8 -1 -1</clus>
<clus scale="   92.066">  5  6 -1 -1</clus>
<clus scale="   94.287">  1  7  2 -1</clus>
<clus scale="   53.187">  2  5  1 -1</clus>
</clustering>
</event>
<event>
10    2  0.1671105E-006  0.2917992E+03  0.7546771E-02  0.1089655E+00
         21   -1    0    0  503  502  0.00000000000E+00  0.00000000000E+00  0.16934408037E+03  0.16934408037E+03  0.00000000000E+00 0.  1.
          1   -1    0    0  502    0 -0.00000000000E+00 -0.00000000000E+00 -0.15030880337E+04  0.15030880337E+04  0.00000000000E+00 0. -1.
         23    2    1    2    0    0  0.21955108896E+03 -0.20406514025E+03 -0.12778797435E+04  0.13157365031E+04  0.91327130308E+02 0.  0.
         23    2    1    2    0    0 -0.16927301599E+03  0.72487618176E+02 -0.33981011136E+02  0.20572767658E+03  0.85213608432E+02 0.  0.
        -13    1    4    4    0    0 -0.52098262793E+02  0.20971787126E+02 -0.51912604216E+02  0.76478515400E+02  0.00000000000E+00 0. -1.
         13    1    4    4    0    0 -0.11717475319E+03  0.51515831050E+02  0.17931593079E+02  0.12924916118E+03  0.00000000000E+00 0.  1.
        -13    1    3    3    0    0  0.59681878588E+02 -0.10158324378E+03 -0.61544347143E+03  0.62661930115E+03  0.00000000000E+00 0.  1.
         13    1    3    3    0    0  0.15986921038E+03 -0.10248189647E+03 -0.66243627206E+03  0.68911720198E+03  0.00000000000E+00 0. -1.
         21    1    1    2  503  501 -0.40318499357E+01  0.79922527364E+02 -0.12865829771E+02  0.81051809171E+02  0.00000000000E+00 0. -1.
          1    1    1    2  501    0 -0.46246223043E+02  0.51654994708E+02 -0.90173689729E+01  0.69916125230E+02  0.00000000000E+00 0. -1.
<scales pt_clust_5="13000.00000" pt_clust_6="13000.00000" pt_clust_7="13000.00000" pt_clust_8="13000.00000" pt_clust_9="46.27789" pt_clust_10="149.37350"></scales>
<clustering>
<clus scale="   46.278">  9 10 -1 -1</clus>
<clus scale="   85.214">  5  6 -1 -1</clus>
<clus scale="   91.327">  7  8 -1 -1</clus>
<clus scale="  149.374">  1  9  2 -1</clus>
<clus scale="  289.944">  1  5  2 -1</clus>
<clus scale="  149.374">  1  5  2 -1</clus>
</clustering>
</event>
<event>
10    2  0.1671105E-006  0.1977634E+03  0.7546771E-02  0.1175129E+00
         21   -1    0    0  501  502  0.00000000000E+00  0.00000000000E+00  0.29243863655E+03  0.29243863655E+03  0.00000000000E+00 0. -1.
          3   -1    0    0  503    0 -0.00000000000E+00 -0.00000000000E+00 -0.40677773186E+03  0.40677773186E+03  0.00000000000E+00 0. -1.
         23    2    1    2    0    0 -0.90339422452E+01  0.49187118280E+02 -0.16313553912E+03  0.19942462251E+03  0.10322786068E+03 0.  0.
         23    2    1    2    0    0  0.15278779957E+03 -0.88206143742E+02 -0.62822539763E+02  0.21045021149E+03  0.96011377042E+02 0.  0.
        -11    1    4    4    0    0  0.50923664551E+02  0.17595431113E+02 -0.13808682082E+02  0.55619227865E+02  0.00000000000E+00 0.  1.
         11    1    4    4    0    0  0.10186413502E+03 -0.10580157486E+03 -0.49013857680E+02  0.15483098362E+03  0.00000000000E+00 0. -1.
        -13    1    3    3    0    0 -0.25005883121E+02 -0.25944909064E+02 -0.69752253770E+02  0.78509931875E+02  0.00000000000E+00 0.  1.
         13    1    3    3    0    0  0.15971940876E+02  0.75132027344E+02 -0.93383285352E+02  0.12091469064E+03  0.00000000000E+00 0. -1.
         21    1    1    2  503  502  0.58463477622E+02  0.12486769378E+02  0.71983984819E+01  0.60213906748E+02  0.00000000000E+00 0. -1.
          3    1    1    2  501    0 -0.20221733495E+03  0.26532256084E+02  0.10442058509E+03  0.22912762766E+03  0.00000000000E+00 0. -1.
<scales pt_clust_5="13000.00000" pt_clust_6="13000.00000" pt_clust_7="13000.00000" pt_clust_8="13000.00000" pt_clust_9="59.78208" pt_clust_10="172.89350"></scales>
<clustering>
<clus scale="   59.782">  1  9  2 -1</clus>
<clus scale="   96.011">  5  6 -1 -1</clus>
<clus scale="  103.228">  7  8 -1 -1</clus>
<clus scale="  114.833">  2  7  1 -1</clus>
<clus scale="  172.894">  1 10  2 -1</clus>
<clus scale="   59.782">  1  5  2 -1</clus>
</clustering>
</event>
<event>
10    2  0.1671105E-006  0.1748879E+03  0.7546771E-02  0.1191164E+00
          1   -1    0    0  503    0 -0.00000000000E+00  0.00000000000E+00  0.41373238254E+03  0.41373238254E+03  0.00000000000E+00 0. -1.
         21   -1    0    0  501  502  0.00000000000E+00 -0.00000000000E+00 -0.33584485952E+03  0.33584485952E+03  0.00000000000E+00 0. -1.
         23    2    1    2    0    0  0.66991981585E+02  0.25981205659E+02  0.17326718009E+03  0.20852185960E+03  0.91087329461E+02 0.  0.
         23    2    1    2    0    0 -0.61148555630E+02 -0.11401562769E+03 -0.38703146604E+02  0.16245652188E+03  0.90307689203E+02 0.  0.
        -13    1    3    3    0    0  0.89789858451E+02  0.23388431306E+02  0.13281808622E+03  0.16201815153E+03  0.00000000000E+00 0.  1.
         13    1    3    3    0    0 -0.22797876865E+02  0.25927743532E+01  0.40449093876E+02  0.46503708065E+02  0.00000000000E+00 0. -1.
        -13    1    4    4    0    0 -0.68679840637E+02 -0.79020222940E+02 -0.60132941754E+02  0.12073560712E+03  0.00000000000E+00 0. -1.
         13    1    4    4    0    0  0.75312850068E+01 -0.34995404754E+02  0.21429795150E+02  0.41720914754E+02  0.00000000000E+00 0.  1.
         21    1    1    2  503  502 -0.73347781399E+02  0.21654742171E+03 -0.24768076831E+02  0.22996986871E+03  0.00000000000E+00 0. -1.
          1    1    1    2  501    0  0.67504355443E+02 -0.12851299968E+03 -0.31908433635E+02  0.14862899188E+03  0.00000000000E+00 0. -1.
<scales pt_clust_5="13000.00000" pt_clust_6="13000.00000" pt_clust_7="13000.00000" pt_clust_8="13000.00000" pt_clust_9="13000.00000" pt_clust_10="174.88791"></scales>
<clustering>
<clus scale="   90.308">  7  8 -1 -1</clus>
<clus scale="   91.087">  5  6 -1 -1</clus>
<clus scale="  116.017">  1  5  2 -1</clus>
<clus scale="  146.192">  1  7  2 -1</clus>
<clus scale="  174.888">  2 10  1 -1</clus>
<clus scale="  174.888">  2  5  1 -1</clus>
</clustering>
</event>
<event>
10    2  0.1671105E-006  0.1541028E+03  0.7546771E-02  0.1196154E+00
         21   -1    0    0  503  502  0.00000000000E+00  0.00000000000E+00  0.12457835700E+03  0.12457835700E+03  0.00000000000E+00 0. -1.
         -3   -1    0    0    0  501 -0.00000000000E+00 -0.00000000000E+00 -0.66289968176E+03  0.66289968176E+03  0.00000000000E+00 0.  1.
         23    2    1    2    0    0 -0.13622429410E+03 -0.96052554134E+01 -0.47762924312E+03  0.50439254741E+03  0.87366061832E+02 0.  0.
         23    2    1    2    0    0  0.48606382746E+02  0.81681297018E+01  0.50126499081E+02  0.11499669335E+03  0.91007004040E+02 0.  0.
        -11    1    4    4    0    0 -0.91493492311E+01  0.31355452759E+02 -0.34911408313E+01  0.32849095473E+02  0.00000000000E+00 0.  1.
         11    1    4    4    0    0  0.57755731977E+02 -0.23187323058E+02  0.53617639912E+02  0.82147597875E+02  0.00000000000E+00 0. -1.
        -13    1    3    3    0    0 -0.69756178347E+02  0.36232892084E+02 -0.28215075689E+03  0.29289553855E+03  0.00000000000E+00 0.  1.
         13    1    3    3    0    0 -0.66468115756E+02 -0.45838147497E+02 -0.19547848623E+03  0.21149700886E+03  0.00000000000E+00 0. -1.
         21    1    1    2  503  501  0.41550356818E+02 -0.44794570961E+02 -0.52052039220E+02  0.80264565820E+02  0.00000000000E+00 0. -1.
         -3    1    1    2    0  502  0.46067554539E+02  0.46231696672E+02 -0.58766541501E+02  0.87824232182E+02  0.00000000000E+00 0.  1.
<scales pt_clust_5="13000.00000" pt_clust_6="13000.00000" pt_clust_7="13000.00000" pt_clust_8="13000.00000" pt_clust_9="61.09816" pt_clust_10="65.44396"></scales>
<clustering>
<clus scale="   61.098">  1  9  2 -1</clus>
<clus scale="   65.444">  1 10  2 -1</clus>
<clus scale="   87.366">  7  8 -1 -1</clus>
<clus scale="   91.007">  5  6 -1 -1</clus>
<clus scale="  151.981">  2  7  1 -1</clus>
<clus scale="   61.098">  1  5  2 -1</clus>
</clustering>
</event>
<event>
10    2  0.1671105E-006  0.9254806E+02  0.7546771E-02  0.1297354E+00
          1   -1    0    0  503    0 -0.00000000000E+00  0.00000000000E+00  0.46134362190E+03  0.46134362190E+03  0.00000000000E+00 0. -1.
         21   -1    0    0  501  502  0.00000000000E+00 -0.00000000000E+00 -0.76152230968E+02  0.76152230968E+02  0.00000000000E+00 0. -1.
         23    2    1    2    0    0  0.45919678468E+01  0.27090017897E+02  0.28542356175E+03  0.30090935775E+03  0.91240762493E+02 0.  0.
         23    2    1    2    0    0 -0.23554231672E+00  0.53679782444E+02  0.95899870595E+02  0.14345229807E+03  0.92196540701E+02 0.  0.
        -11    1    4    4    0    0 -0.43718592201E+02  0.24734332302E+02  0.67051461447E+02  0.83779478279E+02  0.00000000000E+00 0.  1.
         11    1    4    4    0    0  0.43483049884E+02  0.28945450143E+02  0.28848409148E+02  0.59672819789E+02  0.00000000000E+00 0. -1.
        -13    1    3    3    0    0  0.57187808964E+01 -0.28742097299E+02  0.42332047193E+02  0.51486064441E+02  0.00000000000E+00 0.  1.
         13    1    3    3    0    0 -0.11268130496E+01  0.55832115196E+02  0.24309151455E+03  0.24942329330E+03  0.00000000000E+00 0. -1.
         21    1    1    2  503  502 -0.24547648955E+02 -0.48537725815E+02  0.75871668283E+01  0.54918694422E+02  0.00000000000E+00 0. -1.
          1    1    1    2  501    0  0.20191223425E+02 -0.32232074527E+02 -0.37192082364E+01  0.38215502634E+02  0.00000000000E+00 0. -1.
<scales pt_clust_5="13000.00000" pt_clust_6="13000.00000" pt_clust_7="13000.00000" pt_clust_8="13000.00000" pt_clust_9="64.35261" pt_clust_10="38.03409"></scales>
<clustering>
<clus scale="   38.034">  2 10  1 -1</clus>
<clus scale="   64.353">  2  9  1 -1</clus>
<clus scale="   91.241">  7  8 -1 -1</clus>
<clus scale="   91.596">  1  7  2 -1</clus>
<clus scale="   92.197">  5  6 -1 -1</clus>
<clus scale="   38.034">  2  5  1 -1</clus>
</clustering>
</event>
<event>
10    2  0.1671105E-006  0.9173696E+02  0.7546771E-02  0.1302265E+00
         -1   -1    0    0    0  501 -0.00000000000E+00  0.00000000000E+00  0.21693245596E+03  0.21693245596E+03  0.00000000000E+00 0.  1.
         21   -1    0    0  503  502  0.00000000000E+00 -0.00000000000E+00 -0.88167381594E+02  0.88167381594E+02  0.00000000000E+00 0. -1.
         23    2    1    2    0    0 -0.22563276211E+00 -0.35420101511E+02  0.62460143681E+02  0.11646172132E+03  0.91692030644E+02 0.  0.
         23    2    1    2    0    0  0.16190532367E+01 -0.28804702380E+02  0.34179267721E+02  0.96809078929E+02  0.85857109249E+02 0.  0.
        -11    1    3    3    0    0  0.20129805691E+02 -0.16457782263E+02  0.79631975272E+02  0.83769440489E+02  0.00000000000E+00 0.  1.
         11    1    3    3    0    0 -0.20355438453E+02 -0.18962319248E+02 -0.17171831591E+02  0.32692280833E+02  0.00000000000E+00 0. -1.
        -11    1    4    4    0    0  0.37274333856E+02 -0.38061815886E+02  0.24985396971E+02  0.58841718659E+02  0.00000000000E+00 0.  1.
         11    1    4    4    0    0 -0.35655280619E+02  0.92571135067E+01  0.91938707500E+01  0.37967360270E+02  0.00000000000E+00 0. -1.
         21    1    1    2  503  501  0.13303915154E+02  0.25993086768E+02  0.40592293257E+02  0.50003689764E+02  0.00000000000E+00 0.  1.
         -1    1    1    2    0  502 -0.14697335629E+02  0.38231717122E+02 -0.84666302880E+01  0.41825347544E+02  0.00000000000E+00 0.  1.
<scales pt_clust_5="13000.00000" pt_clust_6="13000.00000" pt_clust_7="13000.00000" pt_clust_8="13000.00000" pt_clust_9="29.19991" pt_clust_10="42.90537"></scales>
<clustering>
<clus scale="   29.200">  1  9  2 -1</clus>
<clus scale="   42.905">  2 10  1 -1</clus>
<clus scale="   85.857">  7  8 -1 -1</clus>
<clus scale="   85.905">  2  7  1 -1</clus>
<clus scale="   91.692">  5  6 -1 -1</clus>
<clus scale="   42.905">  2  5  1 -1</clus>
</clustering>
</event>
<event>
10    2  0.1671105E-006  0.2629854E+03  0.7546771E-02  0.1139219E+00
         21   -1    0    0  503  502  0.00000000000E+00  0.00000000000E+00  0.45697210176E+03  0.45697210176E+03  0.00000000000E+00 0.  1.
         -1   -1    0    0    0  501 -0.00000000000E+00 -0.00000000000E+00 -0.39975103488E+03  0.39975103488E+03  0.00000000000E+00 0.  1.
         23    2    1    2    0    0  0.44084153226E+02  0.42938739469E+02  0.80137847921E+01  0.11028860473E+03  0.91171309482E+02 0.  0.
         23    2    1    2    0    0 -0.14340996261E+03 -0.26716036970E+03 -0.20127097066E+03  0.37383142689E+03  0.85433316596E+02 0.  0.
        -11    1    4    4    0    0 -0.66193018269E+02 -0.20479491880E+03 -0.12744413790E+03  0.25012893219E+03  0.00000000000E+00 0.  1.
         11    1    4    4    0    0 -0.77216944342E+02 -0.62365450908E+02 -0.73826832762E+02  0.12370249471E+03  0.00000000000E+00 0. -1.
        -11    1    3    3    0    0 -0.23243376762E+02  0.33197615584E+02  0.11637536023E+02  0.42163591978E+02  0.00000000000E+00 0. -1.
         11    1    3    3    0    0  0.67327529988E+02  0.97411238853E+01 -0.36237512304E+01  0.68125012748E+02  0.00000000000E+00 0.  1.
         21    1    1    2  503  501  0.48166995103E+02  0.24307526597E+01  0.42721466895E+02  0.64428966385E+02  0.00000000000E+00 0. -1.
         -1    1    1    2    0  502  0.51158814282E+02  0.22179087757E+03  0.20775678585E+03  0.30817413863E+03  0.00000000000E+00 0.  1.
<scales pt_clust_5="13000.00000" pt_clust_6="13000.00000" pt_clust_7="13000.00000" pt_clust_8="13000.00000" pt_clust_9="48.22829" pt_clust_10="248.72168"></scales>
<clustering>
<clus scale="   48.228">  1  9  2 -1</clus>
<clus scale="   85.433">  5  6 -1 -1</clus>
<clus scale="   91.171">  7  8 -1 -1</clus>
<clus scale="  113.149">  2  7  1 -1</clus>
<clus scale="  248.722">  1 10  2 -1</clus>
<clus scale="   48.228">  1  5  2 -1</clus>
</clustering>
</event>
<event>
10    2  0.1671105E-006  0.4348125E+03  0.7546771E-02  0.1032361E+00
          1   -1    0    0  502    0 -0.00000000000E+00  0.00000000000E+00  0.66710575778E+03  0.66710575778E+03  0.00000000000E+00 0. -1.
         21   -1    0    0  503  502  0.00000000000E+00 -0.00000000000E+00 -0.95474594093E+03  0.95474594093E+03  0.00000000000E+00 0. -1.
         23    2    1    2    0    0 -0.44767007877E+03  0.10726935608E+03  0.49951149245E+03  0.68556126979E+03  0.92559761044E+02 0.  0.
         23    2    1    2    0    0  0.23266256808E+03 -0.10603271214E+03 -0.41382752180E+03  0.49505181607E+03  0.91914504650E+02 0.  0.
        -11    1    4    4    0    0  0.17186082441E+03 -0.60491019884E+02 -0.21275278824E+03  0.28010543615E+03  0.00000000000E+00 0.  1.
         11    1    4    4    0    0  0.60801743671E+02 -0.45541692260E+02 -0.20107473356E+03  0.21494637993E+03  0.00000000000E+00 0. -1.
        -11    1    3    3    0    0 -0.36316633414E+03  0.12323892945E+03  0.40414438732E+03  0.55714477992E+03  0.00000000000E+00 0. -1.
         11    1    3    3    0    0 -0.84503744631E+02 -0.15969573374E+02  0.95367105128E+02  0.12841648987E+03  0.00000000000E+00 0.  1.
         21    1    1    2  503  501  0.17978447673E+02 -0.14180290843E+02 -0.10858982409E+03  0.11097772356E+03  0.00000000000E+00 0. -1.
          1    1    1    2  501    0  0.19702906302E+03  0.12943646909E+02 -0.26473432971E+03  0.33026088929E+03  0.00000000000E+00 0. -1.
<scales pt_clust_5="13000.00000" pt_clust_6="13000.00000" pt_clust_7="13000.00000" pt_clust_8="13000.00000" pt_clust_9="22.89771" pt_clust_10="203.51436"></scales>
<clustering>
<clus scale="   22.898">  2  9  1 -1</clus>
<clus scale="   91.915">  5  6 -1 -1</clus>
<clus scale="   92.560">  7  8 -1 -1</clus>
<clus scale="  203.514">  2 10  1 -1</clus>
<clus scale="  434.676">  2  5  1 -1</clus>
<clus scale="   22.898">  2  5  1 -1</clus>
</clustering>
</event>
<event>
10    2  0.1671105E-006  0.1700916E+03  0.7546771E-02  0.1193603E+00
          1   -1    0    0  503    0 -0.00000000000E+00  0.00000000000E+00  0.73613089297E+03  0.73613089297E+03  0.00000000000E+00 0. -1.
         21   -1    0    0  501  502  0.00000000000E+00 -0.00000000000E+00 -0.89039953446E+02  0.89039953446E+02  0.00000000000E+00 0.  1.
         23    2    1    2    0    0 -0.65671342362E+02 -0.53606048814E+02  0.10043088634E+03  0.16019130197E+03  0.91589063859E+02 0.  0.
         23    2    1    2    0    0  0.16367397633E+03 -0.55823150384E+02  0.40685130820E+03  0.45143079889E+03  0.91413262476E+02 0.  0.
        -11    1    3    3    0    0 -0.61575023894E+02 -0.14063986987E+02  0.10248498329E+03  0.12038459659E+03  0.00000000000E+00 0. -1.
         11    1    3    3    0    0 -0.40963184672E+01 -0.39542061827E+02 -0.20540969492E+01  0.39806705375E+02  0.00000000000E+00 0.  1.
        -11    1    4    4    0    0  0.95620752051E+02 -0.75194647587E+02  0.29476880922E+03  0.31888275923E+03  0.00000000000E+00 0.  1.
         11    1    4    4    0    0  0.68053224284E+02  0.19371497203E+02  0.11208249898E+03  0.13254803966E+03  0.00000000000E+00 0. -1.
         21    1    1    2  503  502  0.57053671155E+01  0.28439355425E+02  0.17364395437E+02  0.33806365965E+02  0.00000000000E+00 0.  1.
          1    1    1    2  501    0 -0.10370800109E+03  0.80989843773E+02  0.12244434955E+03  0.17974237959E+03  0.00000000000E+00 0. -1.
<scales pt_clust_5="13000.00000" pt_clust_6="13000.00000" pt_clust_7="13000.00000" pt_clust_8="13000.00000" pt_clust_9="29.00600" pt_clust_10="143.43903"></scales>
<clustering>
<clus scale="   29.006">  2  9  1 -1</clus>
<clus scale="   91.413">  7  8 -1 -1</clus>
<clus scale="   91.589">  5  6 -1 -1</clus>
<clus scale="  119.522">  1  5  2 -1</clus>
<clus scale="  143.439">  2 10  1 -1</clus>
<clus scale="   29.006">  2  5  1 -1</clus>
</clustering>
</event>
<event>
10    2  0.1671105E-006  0.2778180E+03  0.7546771E-02  0.1096923E+00
         21   -1    0    0  503  502  0.00000000000E+00  0.00000000000E+00  0.89348763385E+02  0.89348763385E+02  0.00000000000E+00 0. -1.
          1   -1    0    0  502    0 -0.00000000000E+00 -0.00000000000E+00 -0.12798930264E+04  0.12798930264E+04  0.00000000000E+00 0. -1.
         23    2    1    2    0    0 -0.21360597612E+03  0.15987699751E+03 -0.70113130071E+03  0.75594772724E+03  0.93186362228E+02 0.  0.
         23    2    1    2    0    0  0.23609727060E+03 -0.10540350919E+03 -0.46996671927E+03  0.54429681050E+03  0.92403894765E+02 0.  0.
        -13    1    3    3    0    0 -0.18871156272E+03  0.93842009963E+02 -0.49236735101E+03  0.53557817831E+03  0.00000000000E+00 0.  1.
         13    1    3    3    0    0 -0.24894413397E+02  0.66034987547E+02 -0.20876394970E+03  0.22036954893E+03  0.00000000000E+00 0. -1.
        -13    1    4    4    0    0  0.54768002862E+01 -0.32125916287E+02 -0.56321322552E+02  0.65070432707E+02  0.00000000000E+00 0.  1.
         13    1    4    4    0    0  0.23062047032E+03 -0.73277592906E+02 -0.41364539672E+03  0.47922637780E+03  0.00000000000E+00 0. -1.
         21    1    1    2  503  501  0.17391211313E+01 -0.33726797670E+02 -0.14349682605E+02  0.36693798035E+02  0.00000000000E+00 0.  1.
          1    1    1    2  501    0 -0.24230415617E+02 -0.20746690647E+02 -0.50965604438E+01  0.32303454028E+02  0.00000000000E+00 0. -1.
<scales pt_clust_5="13000.00000" pt_clust_6="13000.00000" pt_clust_7="13000.00000" pt_clust_8="13000.00000" pt_clust_9="29.30571" pt_clust_10="66.20018"></scales>
<clustering>
<clus scale="   29.306">  9 10 -1 -1</clus>
<clus scale="   66.200">  1  9  2 -1</clus>
<clus scale="   92.404">  7  8 -1 -1</clus>
<clus scale="   93.186">  5  6 -1 -1</clus>
<clus scale="  277.556">  1  7  2 -1</clus>
<clus scale="   66.200">  1  5  2 -1</clus>
</clustering>
</event>
<event>
10    2  0.1671105E-006  0.1844193E+03  0.7546771E-02  0.1190251E+00
         -1   -1    0    0    0  501 -0.00000000000E+00  0.00000000000E+00  0.40593588729E+03  0.40593588729E+03  0.00000000000E+00 0.  1.
         21   -1    0    0  503  502  0.00000000000E+00 -0.00000000000E+00 -0.25078949300E+03  0.25078949300E+03  0.00000000000E+00 0.  1.
         23    2    1    2    0    0  0.32456494996E+02 -0.22922612537E+02  0.66817979271E+02  0.11960358719E+03  0.90892824152E+02 0.  0.
         23    2    1    2    0    0 -0.12661265381E+03 -0.12417508829E+03  0.21641544174E+03  0.29576196198E+03  0.95860722261E+02 0.  0.
        -11    1    4    4    0    0 -0.81316048087E+02 -0.19713184464E+02  0.12153039613E+03  0.14754845476E+03  0.00000000000E+00 0.  1.
         11    1    4    4    0    0 -0.45296605719E+02 -0.10446190383E+03  0.94885045610E+02  0.14821350722E+03  0.00000000000E+00 0. -1.
        -13    1    3    3    0    0 -0.39781441370E+01  0.32297109816E+02  0.16498200390E+02  0.36484511088E+02  0.00000000000E+00 0. -1.
         13    1    3    3    0    0  0.36434639133E+02 -0.55219722354E+02  0.50319778881E+02  0.83119076103E+02  0.00000000000E+00 0.  1.
         21    1    1    2  503  501  0.24905819050E+02  0.72604287599E+01  0.14723885034E+02  0.29829623511E+02  0.00000000000E+00 0.  1.
         -1    1    1    2    0  502  0.69250339759E+02  0.13983727207E+03 -0.14281091175E+03  0.21153020761E+03  0.00000000000E+00 0.  1.
<scales pt_clust_5="13000.00000" pt_clust_6="13000.00000" pt_clust_7="13000.00000" pt_clust_8="13000.00000" pt_clust_9="25.94251" pt_clust_10="157.54751"></scales>
<clustering>
<clus scale="   25.943">  1  9  2 -1</clus>
<clus scale="   90.893">  7  8 -1 -1</clus>
<clus scale="   95.861">  5  6 -1 -1</clus>
<clus scale="  100.956">  1  7  2 -1</clus>
<clus scale="  157.548">  2 10  1 -1</clus>
<clus scale="  157.548">  2  5  1 -1</clus>
</clustering>
</event>
<event>
10    2  0.1671105E-006  0.1147588E+03  0.7546771E-02  0.1252005E+00
          2   -1    0    0  502    0 -0.00000000000E+00  0.00000000000E+00  0.84683661128E+03  0.84683661128E+03  0.00000000000E+00 0. -1.
         21   -1    0    0  503  502  0.00000000000E+00 -0.00000000000E+00 -0.14191586418E+03  0.14191586418E+03  0.00000000000E+00 0. -1.
         23    2    1    2    0    0  0.60913077444E+02 -0.27616646602E+02  0.64099944909E+03  0.65087197890E+03  0.90999763802E+02 0.  0.
         23    2    1    2    0    0 -0.11845812759E+03  0.88903092200E+02 -0.60398337236E+02  0.18402800817E+03  0.91006927515E+02 0.  0.
        -11    1    4    4    0    0 -0.58168263210E+02  0.68354228589E+02  0.85504931592E+01  0.90160736156E+02  0.00000000000E+00 0.  1.
         11    1    4    4    0    0 -0.60289864384E+02  0.20548863611E+02 -0.68948830396E+02  0.93867272018E+02  0.00000000000E+00 0. -1.
        -13    1    3    3    0    0  0.75102041533E+02 -0.47086169099E+02  0.51926768156E+03  0.52677922233E+03  0.00000000000E+00 0. -1.
         13    1    3    3    0    0 -0.14188964089E+02  0.19469522498E+02  0.12173176753E+03  0.12409275657E+03  0.00000000000E+00 0.  1.
         21    1    1    2  503  501  0.15779337342E+02 -0.20138879761E+02  0.14617570378E+02  0.29465833244E+02  0.00000000000E+00 0.  1.
          2    1    1    2  501    0  0.41765712808E+02 -0.41147565837E+02  0.10970206487E+03  0.12438665514E+03  0.00000000000E+00 0. -1.
<scales pt_clust_5="13000.00000" pt_clust_6="13000.00000" pt_clust_7="13000.00000" pt_clust_8="13000.00000" pt_clust_9="22.37957" pt_clust_10="90.63788"></scales>
<clustering>
<clus scale="   22.380">  9 10 -1 -1</clus>
<clus scale="   90.638">  2  9  1 -1</clus>
<clus scale="   91.000">  7  8 -1 -1</clus>
<clus scale="   91.007">  5  6 -1 -1</clus>
<clus scale="  114.753">  1  7  2 -1</clus>
<clus scale="   90.638">  2  5  1 -1</clus>
</clustering>
</event>
<event>
10    2  0.1671105E-006  0.9405537E+02  0.7546771E-02  0.1295240E+00
          1   -1    0    0  503    0 -0.00000000000E+00  0.00000000000E+00  0.44057233520E+02  0.44057233520E+02  0.00000000000E+00 0. -1.
         21   -1    0    0  501  502  0.00000000000E+00 -0.00000000000E+00 -0.73259029447E+03  0.73259029447E+03  0.00000000000E+00 0.  1.
         23    2    1    2    0    0 -0.27019902894E+02  0.70475114227E+01 -0.41645348764E+02  0.10440032566E+03  0.91571558655E+02 0.  0.
         23    2    1    2    0    0 -0.26103920298E+02 -0.39725486943E+02 -0.30064649934E+03  0.31689509414E+03  0.88173999350E+02 0.  0.
        -11    1    3    3    0    0 -0.37849649061E+02  0.41634283281E+02 -0.11894767170E+02  0.57510824758E+02  0.00000000000E+00 0.  1.
         11    1    3    3    0    0  0.10829746168E+02 -0.34586771858E+02 -0.29750581594E+02  0.46889500902E+02  0.00000000000E+00 0. -1.
        -11    1    4    4    0    0 -0.57024459480E+02 -0.39284008968E+02 -0.20718463343E+03  0.21845021096E+03  0.00000000000E+00 0.  1.
         11    1    4    4    0    0  0.30920539182E+02 -0.44147797484E+00 -0.93461865903E+02  0.98444883180E+02  0.00000000000E+00 0. -1.
         21    1    1    2  503  502  0.23193753793E+02  0.39007280392E+02 -0.14916775108E+03  0.15591836358E+03  0.00000000000E+00 0. -1.
          1    1    1    2  501    0  0.29930069399E+02 -0.63293048716E+01 -0.19707346176E+03  0.19943374460E+03  0.00000000000E+00 0. -1.
<scales pt_clust_5="13000.00000" pt_clust_6="13000.00000" pt_clust_7="13000.00000" pt_clust_8="13000.00000" pt_clust_9="48.89973" pt_clust_10="30.59198"></scales>
<clustering>
<clus scale="   30.592">  2 10  1 -1</clus>
<clus scale="   48.900">  2  9  1 -1</clus>
<clus scale="   88.174">  7  8 -1 -1</clus>
<clus scale="   90.751">  2  7  1 -1</clus>
<clus scale="   91.572">  5  6 -1 -1</clus>
<clus scale="   30.592">  2  5  1 -1</clus>
</clustering>
</event>
<event>
10    2  0.1671105E-006  0.9741347E+02  0.7546771E-02  0.1286702E+00
         21   -1    0    0  503  502  0.00000000000E+00  0.00000000000E+00  0.14688065312E+03  0.14688065312E+03  0.00000000000E+00 0.  1.
         -3   -1    0    0    0  501 -0.00000000000E+00 -0.00000000000E+00 -0.16555642388E+03  0.16555642388E+03  0.00000000000E+00 0.  1.
         23    2    1    2    0    0 -0.93607742646E+00  0.18886762815E+02 -0.60283546750E+02  0.11205798436E+03  0.92548904903E+02 0.  0.
         23    2    1    2    0    0 -0.33264152993E+02 -0.52993953864E+02  0.12201470806E+02  0.11100701678E+03  0.90878043902E+02 0.  0.
        -13    1    4    4    0    0 -0.10924280767E+02 -0.58031401116E+02  0.42697182374E+02  0.72869971926E+02  0.00000000000E+00 0.  1.
         13    1    4    4    0    0 -0.22339872226E+02  0.50374472522E+01 -0.30495711568E+02  0.38137044851E+02  0.00000000000E+00 0. -1.
        -13    1    3    3    0    0  0.41672308727E+02  0.21602121172E+02 -0.49091470347E+02  0.67920581671E+02  0.00000000000E+00 0.  1.
         13    1    3    3    0    0 -0.42608386153E+02 -0.27153583566E+01 -0.11192076403E+02  0.44137402685E+02  0.00000000000E+00 0. -1.
         21    1    1    2  503  501  0.31734037715E+02  0.10450287962E+02  0.48484277316E+02  0.58881090471E+02  0.00000000000E+00 0.  1.
         -3    1    1    2    0  502  0.24661927041E+01  0.23656903087E+02 -0.19077972134E+02  0.30490985403E+02  0.00000000000E+00 0.  1.
<scales pt_clust_5="13000.00000" pt_clust_6="13000.00000" pt_clust_7="13000.00000" pt_clust_8="13000.00000" pt_clust_9="38.02100" pt_clust_10="23.78512"></scales>
<clustering>
<clus scale="   23.785">  1 10  2 -1</clus>
<clus scale="   38.021">  1  9  2 -1</clus>
<clus scale="   90.878">  5  6 -1 -1</clus>
<clus scale="   92.549">  7  8 -1 -1</clus>
<clus scale="   95.827">  1  5  2 -1</clus>
<clus scale="   23.785">  1  5  2 -1</clus>
</clustering>
</event>
<event>
10    2  0.1671105E-006  0.9756525E+02  0.7546771E-02  0.1286743E+00
          1   -1    0    0  503    0 -0.00000000000E+00  0.00000000000E+00  0.49606458820E+03  0.49606458820E+03  0.00000000000E+00 0. -1.
         21   -1    0    0  501  502  0.00000000000E+00 -0.00000000000E+00 -0.37849939240E+02  0.37849939240E+02  0.00000000000E+00 0.  1.
         23    2    1    2    0    0 -0.32874622515E+02 -0.65341752861E+01  0.17023582879E+03  0.19544763487E+03  0.89978354736E+02 0.  0.
         23    2    1    2    0    0  0.23995085492E+02 -0.63858149015E-02  0.10940220217E+03  0.14517658730E+03  0.92366852770E+02 0.  0.
        -13    1    3    3    0    0 -0.28568100514E+02  0.35464217882E+02  0.48178076402E+02  0.66294601310E+02  0.00000000000E+00 0.  1.
         13    1    3    3    0    0 -0.43065220013E+01 -0.41998393168E+02  0.12205775239E+03  0.12915303356E+03  0.00000000000E+00 0. -1.
        -13    1    4    4    0    0  0.65207182421E+01 -0.45860742444E+02  0.51036672792E+02  0.68923649306E+02  0.00000000000E+00 0. -1.
         13    1    4    4    0    0  0.17474367250E+02  0.45854356629E+02  0.58365529381E+02  0.76252937993E+02  0.00000000000E+00 0.  1.
         21    1    1    2  503  502 -0.15029501755E+02 -0.22462266797E+02  0.12471712108E+03  0.12761191027E+03  0.00000000000E+00 0.  1.
          1    1    1    2  501    0  0.23909038779E+02  0.29002827898E+02  0.53859496912E+02  0.65678394994E+02  0.00000000000E+00 0. -1.
<scales pt_clust_5="13000.00000" pt_clust_6="13000.00000" pt_clust_7="13000.00000" pt_clust_8="13000.00000" pt_clust_9="27.02664" pt_clust_10="33.24488"></scales>
<clustering>
<clus scale="   27.027">  1  9  2 -1</clus>
<clus scale="   33.245">  2 10  1 -1</clus>
<clus scale="   89.978">  5  6 -1 -1</clus>
<clus scale="   92.367">  7  8 -1 -1</clus>
<clus scale="   95.307">  1  5  2 -1</clus>
<clus scale="   33.245">  2  5  1 -1</clus>
</clustering>
</event>
<event>
10    2  0.1671105E-006  0.1042702E+03  0.7546771E-02  0.1272167E+00
         21   -1    0    0  501  502  0.00000000000E+00  0.00000000000E+00  0.54202235485E+03  0.54202235485E+03  0.00000000000E+00 0. -1.
          2   -1    0    0  503    0 -0.00000000000E+00 -0.00000000000E+00 -0.86012972726E+02  0.86012972726E+02  0.00000000000E+00 0. -1.
         23    2    1    2    0    0 -0.40843096025E+02  0.27662777001E+02 -0.29049272797E+02  0.10776804107E+03  0.91305545843E+02 0.  0.
         23    2    1    2    0    0  0.50587457198E+02  0.16492984412E+02  0.33505937563E+03  0.35168526660E+03  0.92664082517E+02 0.  0.
        -11    1    4    4    0    0  0.81516224915E+00 -0.29945052224E+02  0.47331397415E+02  0.56014567958E+02  0.00000000000E+00 0.  1.
         11    1    4    4    0    0  0.49772294949E+02  0.46438036636E+02  0.28772797821E+03  0.29567069865E+03  0.00000000000E+00 0. -1.
        -13    1    3    3    0    0  0.19256936158E+02 -0.14104409913E+02 -0.24853694256E+02  0.34459687860E+02  0.00000000000E+00 0.  1.
         13    1    3    3    0    0 -0.60100032183E+02  0.41767186914E+02 -0.41955785411E+01  0.73308353211E+02  0.00000000000E+00 0. -1.
         21    1    1    2  503  502  0.24382211387E+02 -0.26897022443E+02  0.94034527604E+02  0.10079898030E+03  0.00000000000E+00 0. -1.
          2    1    1    2  501    0 -0.34126572560E+02 -0.17258738971E+02  0.55964751686E+02  0.67783039595E+02  0.00000000000E+00 0. -1.
<scales pt_clust_5="13000.00000" pt_clust_6="13000.00000" pt_clust_7="13000.00000" pt_clust_8="13000.00000" pt_clust_9="36.30347" pt_clust_10="37.22393"></scales>
<clustering>
<clus scale="   36.303">  1  9  2 -1</clus>
<clus scale="   37.224">  1 10  2 -1</clus>
<clus scale="   91.306">  7  8 -1 -1</clus>
<clus scale="   92.664">  5  6 -1 -1</clus>
<clus scale="  103.065">  2  7  1 -1</clus>
<clus scale="   36.303">  1  5  2 -1</clus>
</clustering>
</event>
<event>
10    2  0.1671105E-006  0.1150923E+03  0.7546771E-02  0.1252962E+00
         21   -1    0    0  501  502  0.00000000000E+00  0.00000000000E+00  0.81550456549E+02  0.81550456549E+02  0.00000000000E+00 0. -1.
         -3   -1    0    0    0  501 -0.00000000000E+00 -0.00000000000E+00 -0.39935398785E+03  0.39935398785E+03  0.00000000000E+00 0.  1.
         23    2    1    2    0    0  0.73670587437E+02  0.23621285371E+02 -0.25502105688E+03  0.28189962451E+03  0.91903962193E+02 0.  0.
         23    2    1    2    0    0 -0.50657791296E+02 -0.21652305222E+02 -0.88068403889E+02  0.13582577103E+03  0.87507497809E+02 0.  0.
        -13    1    4    4    0    0 -0.52296245329E+01  0.31972390669E+02 -0.35497588299E+02  0.48058937909E+02  0.00000000000E+00 0. -1.
         13    1    4    4    0    0 -0.45428166763E+02 -0.53624695892E+02 -0.52570815590E+02  0.87766833124E+02  0.00000000000E+00 0.  1.
        -13    1    3    3    0    0  0.21095904405E+02 -0.35325048596E+02 -0.86760380169E+02  0.96022183937E+02  0.00000000000E+00 0.  1.
         13    1    3    3    0    0  0.52574683032E+02  0.58946333967E+02 -0.16826067672E+03  0.18587744057E+03  0.00000000000E+00 0. -1.
         21    1    1    2  503  502  0.29207808860E+01  0.21720639709E+02  0.15074888775E+02  0.26600177103E+02  0.00000000000E+00 0. -1.
         -3    1    1    2    0  503 -0.25933577027E+02 -0.23689619857E+02  0.10211040701E+02  0.36578871751E+02  0.00000000000E+00 0.  1.
<scales pt_clust_5="13000.00000" pt_clust_6="13000.00000" pt_clust_7="13000.00000" pt_clust_8="13000.00000" pt_clust_9="21.91614" pt_clust_10="29.15714"></scales>
<clustering>
<clus scale="   21.916">  1  9  2 -1</clus>
<clus scale="   29.157">  1 10  2 -1</clus>
<clus scale="   87.507">  5  6 -1 -1</clus>
<clus scale="   91.904">  7  8 -1 -1</clus>
<clus scale="  111.613">  1  5  2 -1</clus>
<clus scale="   21.916">  1  5  2 -1</clus>
</clustering>
</event>
<event>
10    2  0.1671105E-006  0.1081503E+03  0.7546771E-02  0.1266051E+00
         21   -1    0    0  501  502  0.00000000000E+00  0.00000000000E+00  0.46241362455E+02  0.46241362455E+02  0.00000000000E+00 0. -1.
          2   -1    0    0  503    0 -0.00000000000E+00 -0.00000000000E+00 -0.75436618733E+03  0.75436618733E+03  0.00000000000E+00 0. -1.
         23    2    1    2    0    0  0.27352835737E+02  0.81435547585E+02 -0.41468415635E+03  0.43408729122E+03  0.95335726975E+02 0.  0.
         23    2    1    2    0    0  0.45450226105E+02 -0.28664594134E+02 -0.13827313879E+03  0.17381387800E+03  0.90578260442E+02 0.  0.
        -13    1    3    3    0    0 -0.21310999367E+02  0.71781246696E+02 -0.29861258922E+03  0.30785740938E+03  0.00000000000E+00 0.  1.
         13    1    3    3    0    0  0.48663835104E+02  0.96543008893E+01 -0.11607156713E+03  0.12622988184E+03  0.00000000000E+00 0. -1.
        -13    1    4    4    0    0  0.26080968388E+02 -0.16642766869E+02 -0.14638358453E+03  0.14961735334E+03  0.00000000000E+00 0. -1.
         13    1    4    4    0    0  0.19369257718E+02 -0.12021827265E+02  0.81104457423E+01  0.24196524657E+02  0.00000000000E+00 0.  1.
         21    1    1    2  503  502 -0.32011545766E+02 -0.35298850606E+02 -0.13647339582E+03  0.14455357374E+03  0.00000000000E+00 0.  1.
          2    1    1    2  501    0 -0.40791516076E+02 -0.17472102845E+02 -0.18694133917E+02  0.48152806818E+02  0.00000000000E+00 0. -1.
<scales pt_clust_5="13000.00000" pt_clust_6="13000.00000" pt_clust_7="13000.00000" pt_clust_8="13000.00000" pt_clust_9="52.87804" pt_clust_10="44.37592"></scales>
<clustering>
<clus scale="   44.376">  1 10  2 -1</clus>
<clus scale="   52.878">  2  9  1 -1</clus>
<clus scale="   90.578">  7  8 -1 -1</clus>
<clus scale="   95.336">  5  6 -1 -1</clus>
<clus scale="  103.981">  1  7  2 -1</clus>
<clus scale="   44.376">  1  5  2 -1</clus>
</clustering>
</event>
<event>
10    2  0.1671105E-006  0.1033745E+03  0.7546771E-02  0.1275094E+00
         21   -1    0    0  501  502  0.00000000000E+00  0.00000000000E+00  0.49796844345E+03  0.49796844345E+03  0.00000000000E+00 0.  1.
          3   -1    0    0  503    0 -0.00000000000E+00 -0.00000000000E+00 -0.51880816989E+02  0.51880816989E+02  0.00000000000E+00 0. -1.
         23    2    1    2    0    0 -0.53060015250E+01  0.41314131002E+02  0.63844209502E+02  0.11950290088E+03  0.92031783420E+02 0.  0.
         23    2    1    2    0    0 -0.38745690567E+02 -0.47754064514E+02  0.31406519258E+03  0.33403397510E+03  0.95708265643E+02 0.  0.
        -11    1    4    4    0    0 -0.50490699807E+02  0.49304326586E+01  0.21817287058E+03  0.22399335122E+03  0.00000000000E+00 0.  1.
         11    1    4    4    0    0  0.11745009240E+02 -0.52684497173E+02  0.95892321996E+02  0.11004062387E+03  0.00000000000E+00 0. -1.
        -13    1    3    3    0    0  0.39623790766E+02 -0.39901947901E+00  0.22678692381E+02  0.45656621637E+02  0.00000000000E+00 0.  1.
         13    1    3    3    0    0 -0.44929792291E+02  0.41713150481E+02  0.41165517121E+02  0.73846279244E+02  0.00000000000E+00 0. -1.
         21    1    1    2  503  502  0.27959161568E+02 -0.20660036992E+02  0.46501570243E+02  0.58059864615E+02  0.00000000000E+00 0.  1.
          3    1    1    2  501    0  0.16092530525E+02  0.27099970504E+02  0.21676654131E+02  0.38252519843E+02  0.00000000000E+00 0. -1.
<scales pt_clust_5="13000.00000" pt_clust_6="13000.00000" pt_clust_7="13000.00000" pt_clust_8="13000.00000" pt_clust_9="34.58877" pt_clust_10="31.51791"></scales>
<clustering>
<clus scale="   31.518">  1 10  2 -1</clus>
<clus scale="   34.589">  2  9  1 -1</clus>
<clus scale="   92.032">  7  8 -1 -1</clus>
<clus scale="   95.708">  5  6 -1 -1</clus>
<clus scale="   99.980">  2  7  1 -1</clus>
<clus scale="   31.518">  1  5  2 -1</clus>
</clustering>
</event>
<event>
10    2  0.1671105E-006  0.2443447E+03  0.7546771E-02  0.1132767E+00
         21   -1    0    0  503  502  0.00000000000E+00  0.00000000000E+00  0.21099143408E+03  0.21099143408E+03  0.00000000000E+00 0. -1.
          2   -1    0    0  502    0 -0.00000000000E+00 -0.00000000000E+00 -0.53784228288E+03  0.53784228288E+03  0.00000000000E+00 0. -1.
         23    2    1    2    0    0 -0.42221592491E+02  0.13181337997E+03 -0.32428877834E+02  0.16816635632E+03  0.89837972319E+02 0.  0.
         23    2    1    2    0    0  0.66597907005E+02 -0.29175759764E+03 -0.12303756391E+03  0.33595305306E+03  0.90379393276E+02 0.  0.
        -11    1    4    4    0    0  0.34998616628E+02 -0.12452385601E+03 -0.10146857980E+03  0.16439880343E+03  0.00000000000E+00 0.  1.
         11    1    4    4    0    0  0.31599290377E+02 -0.16723374163E+03 -0.21568984114E+02  0.17155424963E+03  0.00000000000E+00 0. -1.
        -13    1    3    3    0    0  0.10290833240E+02  0.96978041078E+02 -0.50219016828E+00  0.97523811939E+02  0.00000000000E+00 0.  1.
         13    1    3    3    0    0 -0.52512425731E+02  0.34835338888E+02 -0.31926687666E+02  0.70642544383E+02  0.00000000000E+00 0. -1.
         21    1    1    2  503  501 -0.20777874453E+02  0.45891624597E+02 -0.94596724235E+02  0.10717416438E+03  0.00000000000E+00 0.  1.
          2    1    1    2  501    0 -0.35984400610E+01  0.11405259308E+03 -0.76787682812E+02  0.13754014320E+03  0.00000000000E+00 0. -1.
<scales pt_clust_5="13000.00000" pt_clust_6="13000.00000" pt_clust_7="13000.00000" pt_clust_8="13000.00000" pt_clust_9="43.75248" pt_clust_10="236.37267"></scales>
<clustering>
<clus scale="   43.752">  9 10 -1 -1</clus>
<clus scale="   89.838">  7  8 -1 -1</clus>
<clus scale="   90.379">  5  6 -1 -1</clus>
<clus scale="  165.010">  2  7  1 -1</clus>
<clus scale="  236.373">  1  9  2 -1</clus>
<clus scale="  236.373">  1  5  2 -1</clus>
</clustering>
</event>
<event>
10    2  0.1671105E-006  0.9514212E+02  0.7546771E-02  0.1291465E+00
         21   -1    0    0  501  502  0.00000000000E+00  0.00000000000E+00  0.22191291395E+03  0.22191291395E+03  0.00000000000E+00 0.  1.
          2   -1    0    0  503    0 -0.00000000000E+00 -0.00000000000E+00 -0.27731542556E+03  0.27731542556E+03  0.00000000000E+00 0. -1.
         23    2    1    2    0    0 -0.98915032520E+01 -0.40460068555E+01 -0.20093036159E+03  0.22166275992E+03  0.92990090430E+02 0.  0.
         23    2    1    2    0    0  0.14146281554E+00  0.43409917645E+02 -0.19838562581E+02  0.10549350457E+03  0.94079062384E+02 0.  0.
        -11    1    4    4    0    0  0.30600177607E+02  0.51378100770E+02  0.11695389027E+02  0.60933260481E+02  0.00000000000E+00 0.  1.
         11    1    4    4    0    0 -0.30458714792E+02 -0.79681831247E+01 -0.31533951608E+02  0.44560244087E+02  0.00000000000E+00 0. -1.
        -13    1    3    3    0    0  0.17857251237E+02  0.28603426601E+02 -0.29005080015E+02  0.44478445361E+02  0.00000000000E+00 0.  1.
         13    1    3    3    0    0 -0.27748754489E+02 -0.32649433457E+02 -0.17192528157E+03  0.17718431455E+03  0.00000000000E+00 0. -1.
         21    1    1    2  503  502 -0.42505361091E+01 -0.23016317233E+02  0.57534842984E+02  0.62113412991E+02  0.00000000000E+00 0. -1.
          2    1    1    2  501    0  0.14000576546E+02 -0.16347593557E+02  0.10783156958E+03  0.10995866203E+03  0.00000000000E+00 0. -1.
<scales pt_clust_5="13000.00000" pt_clust_6="13000.00000" pt_clust_7="13000.00000" pt_clust_8="13000.00000" pt_clust_9="31.82696" pt_clust_10="21.52347"></scales>
<clustering>
<clus scale="   21.523">  1 10  2 -1</clus>
<clus scale="   31.827">  1  9  2 -1</clus>
<clus scale="   92.990">  7  8 -1 -1</clus>
<clus scale="   94.065">  2  7  1 -1</clus>
<clus scale="   94.079">  5  6 -1 -1</clus>
<clus scale="   21.523">  1  5  2 -1</clus>
</clustering>
</event>
<event>
10    2  0.1671105E-006  0.1021544E+03  0.7546771E-02  0.1276559E+00
         -3   -1    0    0    0  501 -0.00000000000E+00  0.00000000000E+00  0.67043240385E+02  0.67043240385E+02  0.00000000000E+00 0.  1.
         21   -1    0    0  503  502  0.00000000000E+00 -0.00000000000E+00 -0.74390447505E+03  0.74390447505E+03  0.00000000000E+00 0. -1.
         23    2    1    2    0    0  0.26565761878E+02 -0.80095152412E+02 -0.11173485862E+03  0.16648142026E+03  0.90057823180E+02 0.  0.
         23    2    1    2    0    0 -0.77400474596E+02 -0.32289009591E+02 -0.38982462516E+03  0.40913887373E+03  0.91640416900E+02 0.  0.
        -11    1    4    4    0    0 -0.66603100192E+01 -0.25963854007E+02 -0.22455845338E+02  0.34967791384E+02  0.00000000000E+00 0.  1.
         11    1    4    4    0    0 -0.70740164577E+02 -0.63251555838E+01 -0.36736877982E+03  0.37417108235E+03  0.00000000000E+00 0. -1.
        -11    1    3    3    0    0  0.54597125762E+02 -0.34978730688E+02 -0.36568122733E+02  0.74441825221E+02  0.00000000000E+00 0.  1.
         11    1    3    3    0    0 -0.28031363884E+02 -0.45116421724E+02 -0.75166735892E+02  0.92039595040E+02  0.00000000000E+00 0. -1.
         21    1    1    2  503  501 -0.55970614512E+00  0.73877889237E+02 -0.36532614883E+02  0.82418976815E+02  0.00000000000E+00 0.  1.
         -3    1    1    2    0  502  0.51394418863E+02  0.38506272766E+02 -0.13876913599E+03  0.15290844462E+03  0.00000000000E+00 0.  1.
<scales pt_clust_5="13000.00000" pt_clust_6="13000.00000" pt_clust_7="13000.00000" pt_clust_8="13000.00000" pt_clust_9="77.84039" pt_clust_10="64.21931"></scales>
<clustering>
<clus scale="   64.219">  2 10  1 -1</clus>
<clus scale="   77.840">  1  9  2 -1</clus>
<clus scale="   90.058">  7  8 -1 -1</clus>
<clus scale="   91.640">  5  6 -1 -1</clus>
<clus scale="  100.737">  1  7  2 -1</clus>
<clus scale="   64.219">  2  5  1 -1</clus>
</clustering>
</event>
<event>
10    2  0.1671105E-006  0.1344305E+03  0.7546771E-02  0.1221202E+00
         -1   -1    0    0    0  501 -0.00000000000E+00  0.00000000000E+00  0.29099107182E+03  0.29099107182E+03  0.00000000000E+00 0.  1.
         21   -1    0    0  503  502  0.00000000000E+00 -0.00000000000E+00 -0.34964512157E+03  0.34964512157E+03  0.00000000000E+00 0.  1.
         23    2    1    2    0    0 -0.18117221038E+02  0.88901326851E+02  0.10766934162E+03  0.16760356043E+03  0.90920771722E+02 0.  0.
         23    2    1    2    0    0  0.99075628749E+02 -0.90759934620E+02  0.10161032691E+02  0.16296138168E+03  0.91650528580E+02 0.  0.
        -11    1    4    4    0    0  0.62873457736E+02 -0.28074718057E+02 -0.35405092322E+02  0.77425977837E+02  0.00000000000E+00 0.  1.
         11    1    4    4    0    0  0.36202171012E+02 -0.62685216563E+02  0.45566125013E+02  0.85535403841E+02  0.00000000000E+00 0. -1.
        -13    1    3    3    0    0 -0.40242830248E+02  0.42803076333E+01  0.41158804302E+02  0.57722210555E+02  0.00000000000E+00 0. -1.
         13    1    3    3    0    0  0.22125609210E+02  0.84621019218E+02  0.66510537317E+02  0.10988134988E+03  0.00000000000E+00 0.  1.
         21    1    1    2  503  501 -0.10802473404E+03  0.10081109340E+03 -0.13245216465E+03  0.19843335314E+03  0.00000000000E+00 0.  1.
         -1    1    1    2    0  502  0.27066326329E+02 -0.98952485631E+02 -0.44032259415E+02  0.11163789815E+03  0.00000000000E+00 0.  1.
<scales pt_clust_5="13000.00000" pt_clust_6="13000.00000" pt_clust_7="13000.00000" pt_clust_8="13000.00000" pt_clust_9="100.14149" pt_clust_10="102.58743"></scales>
<clustering>
<clus scale="   90.921">  7  8 -1 -1</clus>
<clus scale="   91.651">  5  6 -1 -1</clus>
<clus scale="  102.587">  2 10  1 -1</clus>
<clus scale="  100.141">  2  9  1 -1</clus>
<clus scale="  133.934">  1  7  2 -1</clus>
<clus scale="  102.587">  2  5  1 -1</clus>
</clustering>
</event>
<event>
10    2  0.1671105E-006  0.2044434E+03  0.7546771E-02  0.1146140E+00
          3   -1    0    0  503    0 -0.00000000000E+00  0.00000000000E+00  0.39836508751E+03  0.39836508751E+03  0.00000000000E+00 0. -1.
         21   -1    0    0  501  502  0.00000000000E+00 -0.00000000000E+00 -0.16345346192E+03  0.16345346192E+03  0.00000000000E+00 0.  1.
         23    2    1    2    0    0  0.40649778139E+02  0.18972581474E+03  0.19254438252E+03  0.28828495094E+03  0.91578296864E+02 0.  0.
         23    2    1    2    0    0 -0.18489843447E+02 -0.16737598452E+03  0.80503648068E+02  0.20743946598E+03  0.90519059807E+02 0.  0.
        -13    1    4    4    0    0 -0.95834323092E+01 -0.38460581885E+02  0.66558207185E+02  0.77466466793E+02  0.00000000000E+00 0.  1.
         13    1    4    4    0    0 -0.89064111379E+01 -0.12891540263E+03  0.13945440883E+02  0.12997299918E+03  0.00000000000E+00 0. -1.
        -13    1    3    3    0    0 -0.56853725252E+01  0.40998646799E+02  0.10142666630E+01  0.41403396442E+02  0.00000000000E+00 0. -1.
         13    1    3    3    0    0  0.46335150664E+02  0.14872716794E+03  0.19153011585E+03  0.24688155449E+03  0.00000000000E+00 0.  1.
         21    1    1    2  503  502 -0.31159284013E+01 -0.32196920749E+02 -0.20156163398E+02  0.38113273783E+02  0.00000000000E+00 0.  1.
          3    1    1    2  501    0 -0.19044006290E+02  0.98470905294E+01 -0.17980241598E+02  0.27980858733E+02  0.00000000000E+00 0. -1.
<scales pt_clust_5="13000.00000" pt_clust_6="13000.00000" pt_clust_7="13000.00000" pt_clust_8="13000.00000" pt_clust_9="30.97134" pt_clust_10="21.43920"></scales>
<clustering>
<clus scale="   21.439">  2 10  1 -1</clus>
<clus scale="   30.971">  2  9  1 -1</clus>
<clus scale="   90.519">  5  6 -1 -1</clus>
<clus scale="   91.578">  7  8 -1 -1</clus>
<clus scale="  203.971">  2  5  1 -1</clus>
<clus scale="   21.439">  2  5  1 -1</clus>
</clustering>
</event>
<event>
10    2  0.1671105E-006  0.1356743E+03  0.7546771E-02  0.1220661E+00
         21   -1    0    0  501  502  0.00000000000E+00  0.00000000000E+00  0.41817022059E+02  0.41817022059E+02  0.00000000000E+00 0. -1.
          2   -1    0    0  503    0 -0.00000000000E+00 -0.00000000000E+00 -0.11034706855E+04  0.11034706855E+04  0.00000000000E+00 0. -1.
         23    2    1    2    0    0 -0.79029965151E+02  0.16496839528E+01 -0.54384477328E+03  0.55792362161E+03  0.96245380543E+02 0.  0.
         23    2    1    2    0    0  0.10618502137E+03 -0.36409351759E+02 -0.35922182473E+03  0.38711857301E+03  0.90661847263E+02 0.  0.
        -11    1    3    3    0    0 -0.71196483921E+02 -0.40323381601E+02 -0.35197331498E+03  0.36135872604E+03  0.00000000000E+00 0.  1.
         11    1    3    3    0    0 -0.78334812301E+01  0.41973065553E+02 -0.19187145830E+03  0.19656489557E+03  0.00000000000E+00 0. -1.
        -13    1    4    4    0    0  0.76775268475E+02  0.62198521616E+01 -0.29352261445E+03  0.30346112371E+03  0.00000000000E+00 0. -1.
         13    1    4    4    0    0  0.29409752894E+02 -0.42629203921E+02 -0.65699210286E+02  0.83657449306E+02  0.00000000000E+00 0.  1.
         21    1    1    2  503  502 -0.21382025861E+02  0.91988251316E+01 -0.17005550431E+03  0.17164114879E+03  0.00000000000E+00 0. -1.
          2    1    1    2  501    0 -0.57730303565E+01  0.25560842675E+02  0.11468438880E+02  0.28604364144E+02  0.00000000000E+00 0. -1.
<scales pt_clust_5="13000.00000" pt_clust_6="13000.00000" pt_clust_7="13000.00000" pt_clust_8="13000.00000" pt_clust_9="23.27680" pt_clust_10="26.33094"></scales>
<clustering>
<clus scale="   23.277">  2  9  1 -1</clus>
<clus scale="   26.331">  1 10  2 -1</clus>
<clus scale="   90.662">  7  8 -1 -1</clus>
<clus scale="   96.245">  5  6 -1 -1</clus>
<clus scale="  131.772">  1  7  2 -1</clus>
<clus scale="   26.331">  1  5  2 -1</clus>
</clustering>
</event>
<event>
10    2  0.1671105E-006  0.2301224E+03  0.7546771E-02  0.1133934E+00
         21   -1    0    0  501  502  0.00000000000E+00  0.00000000000E+00  0.92633970203E+02  0.92633970203E+02  0.00000000000E+00 0. -1.
         -1   -1    0    0    0  501 -0.00000000000E+00 -0.00000000000E+00 -0.15448785691E+04  0.15448785691E+04  0.00000000000E+00 0.  1.
         23    2    1    2    0    0 -0.14243658829E+03 -0.88663263158E+02 -0.82081103925E+03  0.84296464348E+03  0.93323480914E+02 0.  0.
         23    2    1    2    0    0  0.19652137225E+03 -0.12601781439E+03 -0.35329487848E+03  0.43331653137E+03  0.91895625043E+02 0.  0.
        -13    1    3    3    0    0 -0.87832841743E+01 -0.49981110099E+02 -0.16832417532E+03  0.17580752386E+03  0.00000000000E+00 0. -1.
         13    1    3    3    0    0 -0.13365330411E+03 -0.38682153059E+02 -0.65248686393E+03  0.66715711963E+03  0.00000000000E+00 0.  1.
        -13    1    4    4    0    0  0.57205047135E+02 -0.94239068634E+01 -0.14926606377E+03  0.16012990112E+03  0.00000000000E+00 0.  1.
         13    1    4    4    0    0  0.13931632511E+03 -0.11659390753E+03 -0.20402881471E+03  0.27318663025E+03  0.00000000000E+00 0. -1.
         21    1    1    2  503  502 -0.30596145992E+02  0.39587973856E+02 -0.36642349846E+02  0.62016075543E+02  0.00000000000E+00 0. -1.
         -1    1    1    2    0  503 -0.23488637969E+02  0.17509310369E+03 -0.24149633130E+03  0.29921528889E+03  0.00000000000E+00 0.  1.
<scales pt_clust_5="13000.00000" pt_clust_6="13000.00000" pt_clust_7="13000.00000" pt_clust_8="13000.00000" pt_clust_9="34.13363" pt_clust_10="220.51153"></scales>
<clustering>
<clus scale="   34.134">  9 10 -1 -1</clus>
<clus scale="   91.896">  7  8 -1 -1</clus>
<clus scale="   93.323">  5  6 -1 -1</clus>
<clus scale="  191.986">  2  5  1 -1</clus>
<clus scale="  220.512">  1  9  2 -1</clus>
<clus scale="  220.512">  1  5  2 -1</clus>
</clustering>
</event>
<event>
10    2  0.1671105E-006  0.1331571E+03  0.7546771E-02  0.1226018E+00
         21   -1    0    0  503  502  0.00000000000E+00  0.00000000000E+00  0.77645154841E+02  0.77645154841E+02  0.00000000000E+00 0. -1.
          4   -1    0    0  502    0 -0.00000000000E+00 -0.00000000000E+00 -0.96986310651E+03  0.96986310651E+03  0.00000000000E+00 0. -1.
         23    2    1    2    0    0 -0.51560937899E+02 -0.66186282131E+02 -0.56497619704E+03  0.58027631832E+03  0.10238822262E+03 0.  0.
         23    2    1    2    0    0  0.64231176507E+01  0.96417242371E+02 -0.36986423832E+03  0.39296780126E+03  0.91030747381E+02 0.  0.
        -11    1    3    3    0    0  0.22845507460E+02 -0.49346630035E+02 -0.19054386655E+03  0.19815138704E+03  0.00000000000E+00 0.  1.
         11    1    3    3    0    0 -0.74406445358E+02 -0.16839652095E+02 -0.37443233048E+03  0.38212493128E+03  0.00000000000E+00 0. -1.
        -11    1    4    4    0    0  0.17236919725E+02  0.68573588135E+02 -0.35005906597E+03  0.35712854557E+03  0.00000000000E+00 0. -1.
         11    1    4    4    0    0 -0.10813802074E+02  0.27843654236E+02 -0.19805172351E+02  0.35839255689E+02  0.00000000000E+00 0.  1.
         21    1    1    2  503  501  0.23308570815E+02 -0.21067413337E+01  0.83553805463E+01  0.24850356467E+02  0.00000000000E+00 0. -1.
          4    1    1    2  501    0  0.21829249433E+02 -0.28124218907E+02  0.34267103144E+02  0.49413785302E+02  0.00000000000E+00 0. -1.
<scales pt_clust_5="13000.00000" pt_clust_6="13000.00000" pt_clust_7="13000.00000" pt_clust_8="13000.00000" pt_clust_9="22.16205" pt_clust_10="60.81518"></scales>
<clustering>
<clus scale="   22.162">  9 10 -1 -1</clus>
<clus scale="   60.815">  1  9  2 -1</clus>
<clus scale="   91.031">  7  8 -1 -1</clus>
<clus scale="  102.388">  5  6 -1 -1</clus>
<clus scale="  124.636">  1  7  2 -1</clus>
<clus scale="   60.815">  1  5  2 -1</clus>
</clustering>
</event>
<event>
10    2  0.1671105E-006  0.1860064E+03  0.7546771E-02  0.1163734E+00
          1   -1    0    0  503    0 -0.00000000000E+00  0.00000000000E+00  0.13290660608E+04  0.13290660608E+04  0.00000000000E+00 0. -1.
         21   -1    0    0  501  502  0.00000000000E+00 -0.00000000000E+00 -0.49133411758E+02  0.49133411758E+02  0.00000000000E+00 0. -1.
         23    2    1    2    0    0  0.17742118393E+03 -0.11060855444E+02  0.77749851207E+03  0.80277513010E+03  0.91341963001E+02 0.  0.
         23    2    1    2    0    0 -0.12389186019E+03  0.37909415725E+02  0.46940966354E+03  0.49797352261E+03  0.10414355561E+03 0.  0.
        -11    1    4    4    0    0 -0.50784464331E+02 -0.34629021676E+02  0.14157639802E+03  0.15434412018E+03  0.00000000000E+00 0. -1.
         11    1    4    4    0    0 -0.73107395858E+02  0.72538437401E+02  0.32783326552E+03  0.34362940243E+03  0.00000000000E+00 0.  1.
        -11    1    3    3    0    0  0.11312965264E+02  0.27089230282E+02  0.10689125819E+03  0.11084922489E+03  0.00000000000E+00 0.  1.
         11    1    3    3    0    0  0.16610821867E+03 -0.38150085726E+02  0.67060725388E+03  0.69192590521E+03  0.00000000000E+00 0. -1.
         21    1    1    2  503  502 -0.22174533394E+02 -0.30188406085E+02  0.11176313047E+02  0.39089125937E+02  0.00000000000E+00 0. -1.
          1    1    1    2  501    0 -0.31354790346E+02  0.33398458043E+01  0.21848160390E+02  0.38361693916E+02  0.00000000000E+00 0. -1.
<scales pt_clust_5="13000.00000" pt_clust_6="13000.00000" pt_clust_7="13000.00000" pt_clust_8="13000.00000" pt_clust_9="43.87346" pt_clust_10="31.53217"></scales>
<clustering>
<clus scale="   31.532">  2 10  1 -1</clus>
<clus scale="   43.873">  2  9  1 -1</clus>
<clus scale="   91.342">  7  8 -1 -1</clus>
<clus scale="  104.144">  5  6 -1 -1</clus>
<clus scale="  179.153">  1  7  2 -1</clus>
<clus scale="   31.532">  2  5  1 -1</clus>
</clustering>
</event>
<event>
10    2  0.1671105E-006  0.1614851E+03  0.7546771E-02  0.1187489E+00
         21   -1    0    0  501  502  0.00000000000E+00  0.00000000000E+00  0.13811660661E+03  0.13811660661E+03  0.00000000000E+00 0. -1.
          1   -1    0    0  503    0 -0.00000000000E+00 -0.00000000000E+00 -0.79206352970E+03  0.79206352970E+03  0.00000000000E+00 0. -1.
         23    2    1    2    0    0 -0.82890637810E+01  0.15983760339E+03 -0.58929430026E+03  0.61689921175E+03  0.87636163205E+02 0.  0.
         23    2    1    2    0    0 -0.27995045480E+02 -0.91882937275E+02 -0.56370290091E+02  0.14356107122E+03  0.90586835857E+02 0.  0.
        -13    1    3    3    0    0  0.26943821272E+02  0.11629591387E+02 -0.75735358632E+02  0.81222296493E+02  0.00000000000E+00 0.  1.
         13    1    3    3    0    0 -0.35232885053E+02  0.14820801201E+03 -0.51355894163E+03  0.53567691526E+03  0.00000000000E+00 0. -1.
        -13    1    4    4    0    0 -0.57629853610E+02 -0.48210175132E+02 -0.15281101464E+02  0.76674200846E+02  0.00000000000E+00 0. -1.
         13    1    4    4    0    0  0.29634808131E+02 -0.43672762144E+02 -0.41089188627E+02  0.66886870372E+02  0.00000000000E+00 0.  1.
         21    1    1    2  503  502  0.37481839728E+02 -0.17021226230E+02 -0.75131190714E+02  0.85669751196E+02  0.00000000000E+00 0. -1.
          1    1    1    2  501    0 -0.11977304673E+01 -0.50933439888E+02  0.66848857983E+02  0.84050102146E+02  0.00000000000E+00 0. -1.
<scales pt_clust_5="13000.00000" pt_clust_6="13000.00000" pt_clust_7="13000.00000" pt_clust_8="13000.00000" pt_clust_9="41.16565" pt_clust_10="51.14457"></scales>
<clustering>
<clus scale="   41.166">  2  9  1 -1</clus>
<clus scale="   51.145">  1 10  2 -1</clus>
<clus scale="   87.636">  5  6 -1 -1</clus>
<clus scale="   90.587">  7  8 -1 -1</clus>
<clus scale="  159.849">  2  5  1 -1</clus>
<clus scale="   51.145">  1  5  2 -1</clus>
</clustering>
</event>
<event>
10    2  0.1671105E-006  0.1389136E+03  0.7546771E-02  0.1215284E+00
         -1   -1    0    0    0  501 -0.00000000000E+00  0.00000000000E+00  0.85860841559E+03  0.85860841559E+03  0.00000000000E+00 0.  1.
         21   -1    0    0  501  502  0.00000000000E+00 -0.00000000000E+00 -0.48763794163E+02  0.48763794163E+02  0.00000000000E+00 0.  1.
         23    2    1    2    0    0  0.61622022951E+02 -0.11497636055E+03  0.42390403694E+03  0.45283348164E+03  0.91360234012E+02 0.  0.
         23    2    1    2    0    0  0.17556619555E+01  0.60650053737E+02  0.74344836098E+02  0.13100481215E+03  0.89182928769E+02 0.  0.
        -11    1    4    4    0    0 -0.33581078412E+02  0.56676197581E+02  0.68375417474E+02  0.94947764135E+02  0.00000000000E+00 0. -1.
         11    1    4    4    0    0  0.35336740367E+02  0.39738561557E+01  0.59694186235E+01  0.36057048010E+02  0.00000000000E+00 0.  1.
        -13    1    3    3    0    0  0.69457483008E+02 -0.88852391702E+02  0.40296365421E+03  0.41844808049E+03  0.00000000000E+00 0.  1.
         13    1    3    3    0    0 -0.78354600567E+01 -0.26123968852E+02  0.20940382736E+02  0.34385401146E+02  0.00000000000E+00 0. -1.
         21    1    1    2  503  502 -0.35980473979E+02  0.19728717539E+02  0.18405536926E+03  0.18857411211E+03  0.00000000000E+00 0.  1.
         -1    1    1    2    0  503 -0.27397210927E+02  0.34597589277E+02  0.12754037912E+03  0.13495980385E+03  0.00000000000E+00 0.  1.
<scales pt_clust_5="13000.00000" pt_clust_6="13000.00000" pt_clust_7="13000.00000" pt_clust_8="13000.00000" pt_clust_9="23.89768" pt_clust_10="87.07636"></scales>
<clustering>
<clus scale="   23.898">  9 10 -1 -1</clus>
<clus scale="   87.076">  2  9  1 -1</clus>
<clus scale="   89.183">  5  6 -1 -1</clus>
<clus scale="   91.360">  7  8 -1 -1</clus>
<clus scale="  137.491">  2  5  1 -1</clus>
<clus scale="   87.076">  2  5  1 -1</clus>
</clustering>
</event>
<event>
10    2  0.1671105E-006  0.1573306E+03  0.7546771E-02  0.1207058E+00
          1   -1    0    0  502    0 -0.00000000000E+00  0.00000000000E+00  0.24092219098E+03  0.24092219098E+03  0.00000000000E+00 0. -1.
         21   -1    0    0  503  502  0.00000000000E+00 -0.00000000000E+00 -0.21167179109E+03  0.21167179109E+03  0.00000000000E+00 0. -1.
         23    2    1    2    0    0 -0.21665047615E+02  0.39699949106E+02 -0.51300619207E+02  0.12389493643E+03  0.10330896135E+03 0.  0.
         23    2    1    2    0    0 -0.97104510487E+02 -0.42448768740E+02 -0.27263609033E+02  0.15817437712E+03  0.11421315718E+03 0.  0.
        -11    1    3    3    0    0 -0.50709553024E+02 -0.42169586702E+01 -0.49833128822E+02  0.71222062849E+02  0.00000000000E+00 0. -1.
         11    1    3    3    0    0  0.29044505409E+02  0.43916907776E+02 -0.14674903851E+01  0.52672873580E+02  0.00000000000E+00 0.  1.
        -13    1    4    4    0    0  0.16067910838E+02 -0.35614474356E+02 -0.21622914922E+02  0.44655559475E+02  0.00000000000E+00 0.  1.
         13    1    4    4    0    0 -0.11317242133E+03 -0.68342943843E+01 -0.56406941110E+01  0.11351881764E+03  0.00000000000E+00 0. -1.
         21    1    1    2  503  501  0.47582823296E+02 -0.10268864217E+02  0.11439745318E+02  0.50004423985E+02  0.00000000000E+00 0.  1.
          1    1    1    2  501    0  0.71186734807E+02  0.13017683851E+02  0.96374882813E+02  0.12052024453E+03  0.00000000000E+00 0. -1.
<scales pt_clust_5="13000.00000" pt_clust_6="13000.00000" pt_clust_7="13000.00000" pt_clust_8="13000.00000" pt_clust_9="47.40550" pt_clust_10="122.67509"></scales>
<clustering>
<clus scale="   47.406">  9 10 -1 -1</clus>
<clus scale="  103.309">  5  6 -1 -1</clus>
<clus scale="  112.775">  1  5  2 -1</clus>
<clus scale="  114.213">  7  8 -1 -1</clus>
<clus scale="  122.675">  2  9  1 -1</clus>
<clus scale="  122.675">  2  5  1 -1</clus>
</clustering>
</event>
<event>
10    2  0.1671105E-006  0.3773059E+03  0.7546771E-02  0.1080341E+00
          2   -1    0    0  503    0 -0.00000000000E+00  0.00000000000E+00  0.16957577884E+04  0.16957577884E+04  0.00000000000E+00 0. -1.
         21   -1    0    0  501  502  0.00000000000E+00 -0.00000000000E+00 -0.30339913579E+03  0.30339913579E+03  0.00000000000E+00 0.  1.
         23    2    1    2    0    0 -0.79742443989E+02  0.89554089474E+02  0.70349313724E+03  0.72463874362E+03  0.12577727257E+03 0.  0.
         23    2    1    2    0    0 -0.25742989233E+03  0.14410524192E+03  0.73017142174E+03  0.79274150624E+03  0.90842282943E+02 0.  0.
        -13    1    4    4    0    0 -0.66931387938E+02 -0.31691454629E+00  0.20673186658E+03  0.21729697602E+03  0.00000000000E+00 0.  1.
         13    1    4    4    0    0 -0.19049850439E+03  0.14442215647E+03  0.52343955516E+03  0.57544453022E+03  0.00000000000E+00 0. -1.
        -13    1    3    3    0    0 -0.90034109066E+02  0.13753108947E+02  0.47580924943E+03  0.48444786164E+03  0.00000000000E+00 0.  1.
         13    1    3    3    0    0  0.10291665077E+02  0.75800980527E+02  0.22768388780E+03  0.24019088198E+03  0.00000000000E+00 0. -1.
         21    1    1    2  503  502  0.21543041713E+03 -0.25071853268E+03 -0.10027333734E+03  0.34543420421E+03  0.00000000000E+00 0.  1.
          2    1    1    2  501    0  0.12174191919E+03  0.17059201287E+02  0.58967430939E+02  0.13634247008E+03  0.00000000000E+00 0. -1.
<scales pt_clust_5="13000.00000" pt_clust_6="13000.00000" pt_clust_7="13000.00000" pt_clust_8="13000.00000" pt_clust_9="366.20681" pt_clust_10="122.93133"></scales>
<clustering>
<clus scale="   90.842">  5  6 -1 -1</clus>
<clus scale="  122.931">  2 10  1 -1</clus>
<clus scale="  125.777">  7  8 -1 -1</clus>
<clus scale="  171.957">  1  7  2 -1</clus>
<clus scale="  366.207">  2  9  1 -1</clus>
<clus scale="  122.931">  2  5  1 -1</clus>
</clustering>
</event>
<event>
10    2  0.1671105E-006  0.2183831E+03  0.7546771E-02  0.1135152E+00
          2   -1    0    0  503    0 -0.00000000000E+00  0.00000000000E+00  0.43821432525E+03  0.43821432525E+03  0.00000000000E+00 0. -1.
         21   -1    0    0  501  502  0.00000000000E+00 -0.00000000000E+00 -0.66368188373E+03  0.66368188373E+03  0.00000000000E+00 0. -1.
         23    2    1    2    0    0 -0.40399056897E+02 -0.18395615629E+03  0.33542846023E+03  0.39502525289E+03  0.89781664380E+02 0.  0.
         23    2    1    2    0    0  0.57312748427E+02  0.14738982565E+03 -0.23206816360E+03  0.29505545032E+03  0.90518364822E+02 0.  0.
        -11    1    4    4    0    0 -0.24453122646E+02  0.40634785314E+02 -0.68364664279E+02  0.83203775795E+02  0.00000000000E+00 0.  1.
         11    1    4    4    0    0  0.81765871073E+02  0.10675504033E+03 -0.16370349932E+03  0.21185167453E+03  0.00000000000E+00 0. -1.
        -11    1    3    3    0    0  0.13181770992E+02 -0.13418928278E+03  0.20190984777E+03  0.24279231727E+03  0.00000000000E+00 0. -1.
         11    1    3    3    0    0 -0.53580827889E+02 -0.49766873516E+02  0.13351861246E+03  0.15223293563E+03  0.00000000000E+00 0.  1.
         21    1    1    2  503  502  0.26344015396E+02 -0.24122107266E+02  0.29185832135E+02  0.46126955282E+02  0.00000000000E+00 0. -1.
          2    1    1    2  501    0 -0.43257706927E+02  0.60688437912E+02 -0.35801368724E+03  0.36568855049E+03  0.00000000000E+00 0. -1.
<scales pt_clust_5="13000.00000" pt_clust_6="13000.00000" pt_clust_7="13000.00000" pt_clust_8="13000.00000" pt_clust_9="35.71951" pt_clust_10="74.19264"></scales>
<clustering>
<clus scale="   35.720">  1  9  2 -1</clus>
<clus scale="   74.193">  2 10  1 -1</clus>
<clus scale="   89.782">  7  8 -1 -1</clus>
<clus scale="   90.518">  5  6 -1 -1</clus>
<clus scale="  218.079">  1  7  2 -1</clus>
<clus scale="   74.193">  2  5  1 -1</clus>
</clustering>
</event>
<event>
10    2  0.1671105E-006  0.1796719E+03  0.7546771E-02  0.1168333E+00
         21   -1    0    0  501  502  0.00000000000E+00  0.00000000000E+00  0.12862351909E+03  0.12862351909E+03  0.00000000000E+00 0. -1.
          1   -1    0    0  503    0 -0.00000000000E+00 -0.00000000000E+00 -0.60191365521E+03  0.60191365521E+03  0.00000000000E+00 0. -1.
         23    2    1    2    0    0 -0.28602352812E+02  0.16913727908E+03 -0.39713579656E+03  0.44158090954E+03  0.88607815712E+02 0.  0.
         23    2    1    2    0    0 -0.40463718769E+02 -0.12645156666E+03 -0.95117531156E+02  0.18664914266E+03  0.90350686086E+02 0.  0.
        -11    1    3    3    0    0  0.20139235397E+02  0.38214472243E+01 -0.36035175218E+02  0.41457521806E+02  0.00000000000E+00 0.  1.
         11    1    3    3    0    0 -0.48741588209E+02  0.16531583185E+03 -0.36110062134E+03  0.40012338774E+03  0.00000000000E+00 0. -1.
        -13    1    4    4    0    0  0.22433565172E+02 -0.93534775729E+01 -0.20633378835E+01  0.24392821736E+02  0.00000000000E+00 0.  1.
         13    1    4    4    0    0 -0.62897283941E+02 -0.11709808909E+03 -0.93054193273E+02  0.16225632093E+03  0.00000000000E+00 0. -1.
         21    1    1    2  503  502  0.22368853995E+02  0.75204566005E+00 -0.17885965337E+02  0.28650287220E+02  0.00000000000E+00 0. -1.
          1    1    1    2  501    0  0.46697217586E+02 -0.43437758078E+02  0.36849156934E+02  0.73656834876E+02  0.00000000000E+00 0. -1.
<scales pt_clust_5="13000.00000" pt_clust_6="13000.00000" pt_clust_7="13000.00000" pt_clust_8="13000.00000" pt_clust_9="22.38149" pt_clust_10="71.24245"></scales>
<clustering>
<clus scale="   22.381">  1  9  2 -1</clus>
<clus scale="   71.242">  1 10  2 -1</clus>
<clus scale="   88.608">  5  6 -1 -1</clus>
<clus scale="   90.351">  7  8 -1 -1</clus>
<clus scale="  178.802">  2  5  1 -1</clus>
<clus scale="   22.381">  1  5  2 -1</clus>
</clustering>
</event>
<event>
10    2  0.1671105E-006  0.1703046E+03  0.7546771E-02  0.1177723E+00
          3   -1    0    0  503    0 -0.00000000000E+00  0.00000000000E+00  0.89146845955E+02  0.89146845955E+02  0.00000000000E+00 0. -1.
         21   -1    0    0  501  502  0.00000000000E+00 -0.00000000000E+00 -0.97917669967E+03  0.97917669967E+03  0.00000000000E+00 0. -1.
         23    2    1    2    0    0  0.97386089457E+01  0.13683932649E+03 -0.52658387287E+02  0.17320287018E+03  0.91686894969E+02 0.  0.
         23    2    1    2    0    0 -0.99250517972E+02 -0.15929027434E+03 -0.55521800004E+03  0.59342127798E+03  0.93046917050E+02 0.  0.
        -11    1    3    3    0    0  0.75430585080E+01  0.96006514147E+02 -0.79001109135E+02  0.12456052238E+03  0.00000000000E+00 0.  1.
         11    1    3    3    0    0  0.21955504377E+01  0.40832812345E+02  0.26342721848E+02  0.48642347806E+02  0.00000000000E+00 0. -1.
        -13    1    4    4    0    0 -0.30891672373E+02 -0.13117384990E+03 -0.38276077956E+03  0.40579143496E+03  0.00000000000E+00 0.  1.
         13    1    4    4    0    0 -0.68358845599E+02 -0.28116424446E+02 -0.17245722048E+03  0.18762984301E+03  0.00000000000E+00 0. -1.
         21    1    1    2  503  502  0.51635500571E+02  0.39553644308E+02 -0.16250008606E+03  0.17503426427E+03  0.00000000000E+00 0. -1.
          3    1    1    2  501    0  0.37876408456E+02 -0.17102696457E+02 -0.11965338034E+03  0.12666513320E+03  0.00000000000E+00 0. -1.
<scales pt_clust_5="13000.00000" pt_clust_6="13000.00000" pt_clust_7="13000.00000" pt_clust_8="13000.00000" pt_clust_9="69.29851" pt_clust_10="41.55869"></scales>
<clustering>
<clus scale="   41.559">  2 10  1 -1</clus>
<clus scale="   69.299">  2  9  1 -1</clus>
<clus scale="   91.687">  5  6 -1 -1</clus>
<clus scale="   93.047">  7  8 -1 -1</clus>
<clus scale="  169.565">  1  5  2 -1</clus>
<clus scale="   41.559">  2  5  1 -1</clus>
</clustering>
</event>
<event>
10    2  0.1671105E-006  0.1791948E+03  0.7546771E-02  0.1195791E+00
          2   -1    0    0  503    0 -0.00000000000E+00  0.00000000000E+00  0.25793071497E+03  0.25793071497E+03  0.00000000000E+00 0. -1.
         21   -1    0    0  501  502  0.00000000000E+00 -0.00000000000E+00 -0.26704940942E+03  0.26704940942E+03  0.00000000000E+00 0.  1.
         23    2    1    2    0    0 -0.30951678529E+02  0.14147897015E+02  0.21842313218E+02  0.99617302900E+02  0.91040381132E+02 0.  0.
         23    2    1    2    0    0  0.76746033815E+02  0.16692886077E+03 -0.26859381222E+02  0.20688340953E+03  0.91236618280E+02 0.  0.
        -11    1    4    4    0    0  0.35286166999E+02  0.14586218807E+03 -0.45448466800E+02  0.15680068439E+03  0.00000000000E+00 0.  1.
         11    1    4    4    0    0  0.41459866816E+02  0.21066672698E+02  0.18589085578E+02  0.50082725142E+02  0.00000000000E+00 0. -1.
        -13    1    3    3    0    0 -0.80633215950E+01 -0.38652677416E+02  0.60842498781E+01  0.39950778755E+02  0.00000000000E+00 0. -1.
         13    1    3    3    0    0 -0.22888356934E+02  0.52800574431E+02  0.15758063340E+02  0.59666524145E+02  0.00000000000E+00 0.  1.
         21    1    1    2  503  502 -0.28646734270E+02 -0.13765796342E+03  0.47952444809E+02  0.14855903622E+03  0.00000000000E+00 0. -1.
          2    1    1    2  501    0 -0.17147621016E+02 -0.43418794359E+02 -0.52054071256E+02  0.69920375746E+02  0.00000000000E+00 0. -1.
<scales pt_clust_5="13000.00000" pt_clust_6="13000.00000" pt_clust_7="13000.00000" pt_clust_8="13000.00000" pt_clust_9="154.22924" pt_clust_10="46.68225"></scales>
<clustering>
<clus scale="   46.682">  2 10  1 -1</clus>
<clus scale="   91.040">  7  8 -1 -1</clus>
<clus scale="   91.237">  5  6 -1 -1</clus>
<clus scale="   97.430">  1  7  2 -1</clus>
<clus scale="  154.229">  1  9  2 -1</clus>
<clus scale="   46.682">  2  5  1 -1</clus>
</clustering>
</event>
<event>
10    2  0.1671105E-006  0.1085969E+03  0.7546771E-02  0.1263829E+00
         21   -1    0    0  501  502  0.00000000000E+00  0.00000000000E+00  0.25533386072E+03  0.25533386072E+03  0.00000000000E+00 0. -1.
          3   -1    0    0  503    0 -0.00000000000E+00 -0.00000000000E+00 -0.65417914465E+03  0.65417914465E+03  0.00000000000E+00 0. -1.
         23    2    1    2    0    0 -0.55037279251E+02  0.29615229007E+02 -0.57215516113E+03  0.58310370804E+03  0.93499957331E+02 0.  0.
         23    2    1    2    0    0  0.54507870158E+02 -0.52298202644E+02  0.21218699835E+03  0.24327187916E+03  0.91932991958E+02 0.  0.
        -11    1    4    4    0    0  0.13112793196E+02 -0.66647802607E+02  0.16722577067E+03  0.18049469054E+03  0.00000000000E+00 0. -1.
         11    1    4    4    0    0  0.41395076962E+02  0.14349599963E+02  0.44961227681E+02  0.62777188615E+02  0.00000000000E+00 0.  1.
        -13    1    3    3    0    0 -0.81009403419E+02  0.26511552743E+02 -0.46908439351E+03  0.47676572245E+03  0.00000000000E+00 0. -1.
         13    1    3    3    0    0  0.25972124168E+02  0.31036762635E+01 -0.10307076762E+03  0.10633798558E+03  0.00000000000E+00 0.  1.
         21    1    1    2  503  502  0.53504070571E+00 -0.25176346172E+02 -0.17826406275E+02  0.30853126840E+02  0.00000000000E+00 0. -1.
          3    1    1    2  501    0 -0.56316122452E-02  0.47859319809E+02 -0.21050714873E+02  0.52284291341E+02  0.00000000000E+00 0. -1.
<scales pt_clust_5="13000.00000" pt_clust_6="13000.00000" pt_clust_7="13000.00000" pt_clust_8="13000.00000" pt_clust_9="25.18203" pt_clust_10="46.39363"></scales>
<clustering>
<clus scale="   25.182">  2  9  1 -1</clus>
<clus scale="   46.394">  1 10  2 -1</clus>
<clus scale="   91.933">  5  6 -1 -1</clus>
<clus scale="   93.500">  7  8 -1 -1</clus>
<clus scale="  107.251">  1  5  2 -1</clus>
<clus scale="   46.394">  1  5  2 -1</clus>
</clustering>
</event>
<event>
10    2  0.1671105E-006  0.1154409E+03  0.7546771E-02  0.1255930E+00
         21   -1    0    0  501  502  0.00000000000E+00  0.00000000000E+00  0.28088500240E+03  0.28088500240E+03  0.00000000000E+00 0. -1.
          1   -1    0    0  503    0 -0.00000000000E+00 -0.00000000000E+00 -0.15479760879E+03  0.15479760879E+03  0.00000000000E+00 0. -1.
         23    2    1    2    0    0 -0.44600551955E+02  0.78435388711E+02 -0.43002013098E+02  0.13368083662E+03  0.88769778144E+02 0.  0.
         23    2    1    2    0    0  0.26624947599E+02  0.17783045370E+02  0.26231376151E+02  0.10974983982E+03  0.10164554938E+03 0.  0.
        -11    1    3    3    0    0 -0.18900996816E+02  0.35662116189E+02 -0.67071431807E+02  0.78279059629E+02  0.00000000000E+00 0. -1.
         11    1    3    3    0    0 -0.25699555139E+02  0.42773272522E+02  0.24069418710E+02  0.55401776990E+02  0.00000000000E+00 0.  1.
        -13    1    4    4    0    0  0.52914559212E+02 -0.20744256184E+02  0.27394645410E+02  0.63093116411E+02  0.00000000000E+00 0. -1.
         13    1    4    4    0    0 -0.26289611613E+02  0.38527301554E+02 -0.11632692592E+01  0.46656723408E+02  0.00000000000E+00 0.  1.
         21    1    1    2  503  502 -0.13149904838E+02 -0.51295984162E+02  0.17955353374E+02  0.55915943193E+02  0.00000000000E+00 0. -1.
          1    1    1    2  501    0  0.31125509194E+02 -0.44922449920E+02  0.12490267718E+03  0.13633599156E+03  0.00000000000E+00 0. -1.
<scales pt_clust_5="13000.00000" pt_clust_6="13000.00000" pt_clust_7="13000.00000" pt_clust_8="13000.00000" pt_clust_9="52.95468" pt_clust_10="76.28968"></scales>
<clustering>
<clus scale="   52.955">  1  9  2 -1</clus>
<clus scale="   76.290">  1 10  2 -1</clus>
<clus scale="   88.770">  5  6 -1 -1</clus>
<clus scale="  101.646">  7  8 -1 -1</clus>
<clus scale="  104.283">  2  5  1 -1</clus>
<clus scale="   52.955">  1  5  2 -1</clus>
</clustering>
</event>
<event>
10    2  0.1671105E-006  0.1251431E+03  0.7546771E-02  0.1240612E+00
         21   -1    0    0  503  502  0.00000000000E+00  0.00000000000E+00  0.13731006627E+03  0.13731006627E+03  0.00000000000E+00 0. -1.
         -1   -1    0    0    0  501 -0.00000000000E+00 -0.00000000000E+00 -0.66711028236E+03  0.66711028236E+03  0.00000000000E+00 0.  1.
         23    2    1    2    0    0 -0.13523339566E+02 -0.60738723369E+02 -0.55167449654E+03  0.56620010527E+03  0.11120133025E+03 0.  0.
         23    2    1    2    0    0  0.44944505466E+02  0.20155232109E+02 -0.35150698032E+02  0.11290008204E+03  0.95313246711E+02 0.  0.
        -11    1    4    4    0    0  0.32075472353E+02 -0.41705840763E+01 -0.64814087653E+02  0.72436839084E+02  0.00000000000E+00 0.  1.
         11    1    4    4    0    0  0.12869033113E+02  0.24325816186E+02  0.29663389621E+02  0.40463242952E+02  0.00000000000E+00 0. -1.
        -13    1    3    3    0    0  0.85602455650E+00  0.27456132410E+02 -0.54198785884E+02  0.60762491524E+02  0.00000000000E+00 0.  1.
         13    1    3    3    0    0 -0.14379364122E+02 -0.88194855779E+02 -0.49747571065E+03  0.50543761375E+03  0.00000000000E+00 0. -1.
         21    1    1    2  503  501 -0.35170278059E+02  0.71514021654E+02  0.47331269100E+02  0.92690090013E+02  0.00000000000E+00 0. -1.
         -1    1    1    2    0  502  0.37491121589E+01 -0.30930530395E+02  0.96937093838E+01  0.32630071317E+02  0.00000000000E+00 0.  1.
<scales pt_clust_5="13000.00000" pt_clust_6="13000.00000" pt_clust_7="13000.00000" pt_clust_8="13000.00000" pt_clust_9="62.27628" pt_clust_10="31.15692"></scales>
<clustering>
<clus scale="   31.157">  1 10  2 -1</clus>
<clus scale="   62.276">  1  9  2 -1</clus>
<clus scale="   95.313">  5  6 -1 -1</clus>
<clus scale="  111.201">  7  8 -1 -1</clus>
<clus scale="  111.264">  1  5  2 -1</clus>
<clus scale="   31.157">  1  5  2 -1</clus>
</clustering>
</event>
<event>
10    2  0.1671105E-006  0.1636028E+03  0.7546771E-02  0.1185995E+00
         21   -1    0    0  503  502  0.00000000000E+00  0.00000000000E+00  0.85937825165E+03  0.85937825165E+03  0.00000000000E+00 0.  1.
         -1   -1    0    0    0  501 -0.00000000000E+00 -0.00000000000E+00 -0.79439684222E+02  0.79439684222E+02  0.00000000000E+00 0.  1.
         23    2    1    2    0    0 -0.88909880035E+02 -0.12184118118E+03  0.13550584237E+03  0.22521064647E+03  0.98019190826E+02 0.  0.
         23    2    1    2    0    0  0.49491580917E+02  0.10009899192E+03  0.15635550077E+03  0.21215792666E+03  0.89970653306E+02 0.  0.
        -11    1    3    3    0    0 -0.60899585276E+02 -0.13368785932E+03  0.96564978028E+02  0.17580101876E+03  0.00000000000E+00 0.  1.
         11    1    3    3    0    0 -0.28010294758E+02  0.11846678136E+02  0.38940864338E+02  0.49409627712E+02  0.00000000000E+00 0. -1.
        -13    1    4    4    0    0 -0.24551391883E+02  0.30829562213E+02  0.63121189395E+02  0.74414496573E+02  0.00000000000E+00 0.  1.
         13    1    4    4    0    0  0.74042972800E+02  0.69269429710E+02  0.93234311379E+02  0.13774343009E+03  0.00000000000E+00 0. -1.
         21    1    1    2  503  501  0.56953118625E+02 -0.26890794829E+02  0.28738167121E+03  0.29420230712E+03  0.00000000000E+00 0.  1.
         -1    1    1    2    0  502 -0.17534819507E+02  0.48632984089E+02  0.20069555308E+03  0.20724705562E+03  0.00000000000E+00 0.  1.
<scales pt_clust_5="13000.00000" pt_clust_6="13000.00000" pt_clust_7="13000.00000" pt_clust_8="13000.00000" pt_clust_9="49.45946" pt_clust_10="51.69755"></scales>
<clustering>
<clus scale="   51.698">  1 10  2 -1</clus>
<clus scale="   49.459">  1  9  2 -1</clus>
<clus scale="   89.971">  7  8 -1 -1</clus>
<clus scale="   98.019">  5  6 -1 -1</clus>
<clus scale="  158.911">  1  7  2 -1</clus>
<clus scale="   51.698">  1  5  2 -1</clus>
</clustering>
</event>
<event>
10    2  0.1671105E-006  0.2354020E+03  0.7546771E-02  0.1148920E+00
         21   -1    0    0  503  502  0.00000000000E+00  0.00000000000E+00  0.11967876068E+03  0.11967876068E+03  0.00000000000E+00 0. -1.
          1   -1    0    0  502    0 -0.00000000000E+00 -0.00000000000E+00 -0.10635983057E+04  0.10635983057E+04  0.00000000000E+00 0. -1.
         23    2    1    2    0    0 -0.15798134834E+02 -0.90014786622E+02 -0.46725093432E+03  0.48369805943E+03  0.85370569829E+02 0.  0.
         23    2    1    2    0    0 -0.17007343611E+03 -0.56088635695E+02 -0.38977554311E+03  0.43852327247E+03  0.91141526013E+02 0.  0.
        -11    1    4    4    0    0 -0.66782862474E+02  0.21947913563E+02 -0.16062144686E+03  0.17533086100E+03  0.00000000000E+00 0.  1.
         11    1    4    4    0    0 -0.10329057364E+03 -0.78036549258E+02 -0.22915409626E+03  0.26319241147E+03  0.00000000000E+00 0. -1.
        -13    1    3    3    0    0 -0.19993041649E+02 -0.33772368567E+01 -0.21369612431E+02  0.29458237874E+02  0.00000000000E+00 0.  1.
         13    1    3    3    0    0  0.41949068155E+01 -0.86637549766E+02 -0.44588132189E+03  0.45423982155E+03  0.00000000000E+00 0. -1.
         21    1    1    2  503  501  0.13976786233E+03  0.68426137145E+02 -0.49610697368E+02  0.16333527751E+03  0.00000000000E+00 0. -1.
          1    1    1    2  501    0  0.46103708611E+02  0.77677285172E+02 -0.37282370180E+02  0.97720456946E+02  0.00000000000E+00 0. -1.
<scales pt_clust_5="13000.00000" pt_clust_6="13000.00000" pt_clust_7="13000.00000" pt_clust_8="13000.00000" pt_clust_9="52.26048" pt_clust_10="227.62371"></scales>
<clustering>
<clus scale="   52.260">  9 10 -1 -1</clus>
<clus scale="   85.371">  7  8 -1 -1</clus>
<clus scale="   91.142">  5  6 -1 -1</clus>
<clus scale="  125.061">  2  7  1 -1</clus>
<clus scale="  227.624">  1  9  2 -1</clus>
<clus scale="  227.624">  1  5  2 -1</clus>
</clustering>
</event>
<event>
10    2  0.1671105E-006  0.1582701E+03  0.7546771E-02  0.1191057E+00
         21   -1    0    0  503  502  0.00000000000E+00  0.00000000000E+00  0.74181450705E+03  0.74181450705E+03  0.00000000000E+00 0. -1.
          3   -1    0    0  502    0 -0.00000000000E+00 -0.00000000000E+00 -0.94949297390E+02  0.94949297390E+02  0.00000000000E+00 0. -1.
         23    2    1    2    0    0 -0.14300869388E+03 -0.80076123193E+02  0.69366604697E+02  0.19993579762E+03  0.91098437385E+02 0.  0.
         23    2    1    2    0    0  0.92019689886E+02  0.85751753278E+01  0.14128431385E+03  0.19071118741E+03  0.88703679205E+02 0.  0.
        -11    1    3    3    0    0 -0.33218262587E+02 -0.69369115223E+02  0.23016882115E+02  0.80282650544E+02  0.00000000000E+00 0. -1.
         11    1    3    3    0    0 -0.10979043129E+03 -0.10707007971E+02  0.46349722582E+02  0.11965314708E+03  0.00000000000E+00 0.  1.
        -11    1    4    4    0    0  0.29863272139E+02 -0.38810176171E+02  0.43257474890E+02  0.65339528091E+02  0.00000000000E+00 0. -1.
         11    1    4    4    0    0  0.62156417747E+02  0.47385351499E+02  0.98026838963E+02  0.12537165932E+03  0.00000000000E+00 0.  1.
         21    1    1    2  503  501  0.29776650950E+02  0.15509623043E+02  0.16170470739E+03  0.16515329164E+03  0.00000000000E+00 0. -1.
          3    1    1    2  501    0  0.21212353042E+02  0.55991324822E+02  0.27450958372E+03  0.28096352776E+03  0.00000000000E+00 0. -1.
<scales pt_clust_5="13000.00000" pt_clust_6="13000.00000" pt_clust_7="13000.00000" pt_clust_8="13000.00000" pt_clust_9="23.97449" pt_clust_10="93.47357"></scales>
<clustering>
<clus scale="   23.974">  9 10 -1 -1</clus>
<clus scale="   88.704">  7  8 -1 -1</clus>
<clus scale="   91.098">  5  6 -1 -1</clus>
<clus scale="   93.474">  1  9  2 -1</clus>
<clus scale="  156.904">  1  7  2 -1</clus>
<clus scale="   93.474">  1  5  2 -1</clus>
</clustering>
</event>
<event>
10    2  0.1671105E-006  0.1036409E+03  0.7546771E-02  0.1274543E+00
         21   -1    0    0  503  502  0.00000000000E+00  0.00000000000E+00  0.40996014624E+02  0.40996014624E+02  0.00000000000E+00 0. -1.
         -3   -1    0    0    0  501 -0.00000000000E+00 -0.00000000000E+00 -0.74861904240E+03  0.74861904240E+03  0.00000000000E+00 0.  1.
         23    2    1    2    0    0  0.15658625760E+02 -0.18204135628E+02 -0.22399019500E+03  0.24236150739E+03  0.89391888299E+02 0.  0.
         23    2    1    2    0    0  0.20187045570E+02  0.75490936971E+02 -0.35329593285E+03  0.37363575020E+03  0.93162542301E+02 0.  0.
        -13    1    3    3    0    0 -0.85702280599E+01  0.32364993722E+02 -0.55838273910E+02  0.65106485551E+02  0.00000000000E+00 0.  1.
         13    1    3    3    0    0  0.24228853820E+02 -0.50569129351E+02 -0.16815192109E+03  0.17725502184E+03  0.00000000000E+00 0. -1.
        -13    1    4    4    0    0  0.34259724356E+02 -0.64230151905E+01 -0.67071404612E+02  0.75588075473E+02  0.00000000000E+00 0.  1.
         13    1    4    4    0    0 -0.14072678786E+02  0.81913952161E+02 -0.28622452824E+03  0.29804767473E+03  0.00000000000E+00 0. -1.
         21    1    1    2  503  501 -0.54410653507E+02 -0.71565864518E+02 -0.11340863000E+03  0.14471941659E+03  0.00000000000E+00 0. -1.
         -3    1    1    2    0  502  0.18564982177E+02  0.14279063176E+02 -0.16928269935E+02  0.28898382851E+02  0.00000000000E+00 0.  1.
<scales pt_clust_5="13000.00000" pt_clust_6="13000.00000" pt_clust_7="13000.00000" pt_clust_8="13000.00000" pt_clust_9="79.84112" pt_clust_10="23.42115"></scales>
<clustering>
<clus scale="   23.421">  1 10  2 -1</clus>
<clus scale="   79.841">  1  9  2 -1</clus>
<clus scale="   89.392">  5  6 -1 -1</clus>
<clus scale="   93.163">  7  8 -1 -1</clus>
<clus scale="  100.265">  2  5  1 -1</clus>
<clus scale="   23.421">  1  5  2 -1</clus>
</clustering>
</event>
<event>
10    2  0.1671105E-006  0.1867002E+03  0.7546771E-02  0.1177737E+00
         21   -1    0    0  501  502  0.00000000000E+00  0.00000000000E+00  0.30446518673E+03  0.30446518673E+03  0.00000000000E+00 0. -1.
          3   -1    0    0  503    0 -0.00000000000E+00 -0.00000000000E+00 -0.35734108214E+03  0.35734108214E+03  0.00000000000E+00 0. -1.
         23    2    1    2    0    0  0.66299833968E+01  0.64792861819E+02 -0.62227742582E+02  0.12836491746E+03  0.91450470016E+02 0.  0.
         23    2    1    2    0    0 -0.15645701976E+03 -0.51688837034E+01  0.11249734160E+03  0.21306938732E+03  0.90760098905E+02 0.  0.
        -11    1    3    3    0    0  0.34037509438E+02 -0.85866366323E+00 -0.42656946367E+02  0.54579340647E+02  0.00000000000E+00 0. -1.
         11    1    3    3    0    0 -0.27407526041E+02  0.65651525482E+02 -0.19570796215E+02  0.73785576818E+02  0.00000000000E+00 0.  1.
        -13    1    4    4    0    0 -0.88071574585E+01 -0.24745611463E+02 -0.24697437416E+00  0.26267323912E+02  0.00000000000E+00 0.  1.
         13    1    4    4    0    0 -0.14764986230E+03  0.19576727759E+02  0.11274431597E+03  0.18680206341E+03  0.00000000000E+00 0. -1.
         21    1    1    2  503  502 -0.21274524614E+02  0.79571443252E+02 -0.35213672737E+02  0.89578025913E+02  0.00000000000E+00 0. -1.
          3    1    1    2  501    0  0.17110156098E+03 -0.13919542137E+03 -0.67931821695E+02  0.23079393817E+03  0.00000000000E+00 0. -1.
<scales pt_clust_5="13000.00000" pt_clust_6="13000.00000" pt_clust_7="13000.00000" pt_clust_8="13000.00000" pt_clust_9="82.36638" pt_clust_10="163.15515"></scales>
<clustering>
<clus scale="   82.366">  2  9  1 -1</clus>
<clus scale="   90.760">  7  8 -1 -1</clus>
<clus scale="   91.450">  5  6 -1 -1</clus>
<clus scale="  128.662">  2  5  1 -1</clus>
<clus scale="  163.155">  1 10  2 -1</clus>
<clus scale="  163.155">  1  5  2 -1</clus>
</clustering>
</event>
<event>
10    2  0.1671105E-006  0.1377013E+03  0.7546771E-02  0.1217125E+00
         -3   -1    0    0    0  501 -0.00000000000E+00  0.00000000000E+00  0.33515460694E+03  0.33515460694E+03  0.00000000000E+00 0.  1.
         21   -1    0    0  503  502  0.00000000000E+00 -0.00000000000E+00 -0.97977902861E+02  0.97977902861E+02  0.00000000000E+00 0.  1.
         23    2    1    2    0    0  0.53762838674E+02  0.93277238174E+02  0.11504179363E+03  0.18098928721E+03  0.89058530299E+02 0.  0.
         23    2    1    2    0    0 -0.63674919235E+02 -0.71549921237E+02  0.36292276873E+02  0.13766079102E+03  0.91975417673E+02 0.  0.
        -13    1    4    4    0    0 -0.65756450918E+02 -0.39653937722E+02  0.60341759167E+02  0.97659989318E+02  0.00000000000E+00 0. -1.
         13    1    4    4    0    0  0.20815316829E+01 -0.31895983515E+02 -0.24049482294E+02  0.40000801706E+02  0.00000000000E+00 0.  1.
        -13    1    3    3    0    0 -0.92130451858E+01  0.58848076175E+02  0.83556629429E+02  0.10261426116E+03  0.00000000000E+00 0.  1.
         13    1    3    3    0    0  0.62975883860E+02  0.34429161999E+02  0.31485164199E+02  0.78375026052E+02  0.00000000000E+00 0. -1.
         21    1    1    2  503  501  0.29169705432E+02  0.11989150459E+02  0.17996059985E+02  0.36310736962E+02  0.00000000000E+00 0.  1.
         -3    1    1    2    0  502 -0.19257624871E+02 -0.33716467396E+02  0.67846573590E+02  0.78171694604E+02  0.00000000000E+00 0.  1.
<scales pt_clust_5="13000.00000" pt_clust_6="13000.00000" pt_clust_7="13000.00000" pt_clust_8="13000.00000" pt_clust_9="31.53746" pt_clust_10="37.39955"></scales>
<clustering>
<clus scale="   31.537">  2  9  1 -1</clus>
<clus scale="   37.400">  2 10  1 -1</clus>
<clus scale="   89.059">  7  8 -1 -1</clus>
<clus scale="   91.975">  5  6 -1 -1</clus>
<clus scale="  135.770">  1  7  2 -1</clus>
<clus scale="   31.537">  2  5  1 -1</clus>
</clustering>
</event>
<event>
10    2  0.1671105E-006  0.1026016E+03  0.7546771E-02  0.1276044E+00
         21   -1    0    0  503  502  0.00000000000E+00  0.00000000000E+00  0.25573815110E+03  0.25573815110E+03  0.00000000000E+00 0. -1.
         -2   -1    0    0    0  501 -0.00000000000E+00 -0.00000000000E+00 -0.12073283574E+03  0.12073283574E+03  0.00000000000E+00 0.  1.
         23    2    1    2    0    0  0.29888011861E+02  0.30758831738E+02 -0.65092398915E+02  0.12239099854E+03  0.94356436684E+02 0.  0.
         23    2    1    2    0    0 -0.40042705389E+02  0.63359058104E+01  0.14967866209E+03  0.18029374250E+03  0.91970482997E+02 0.  0.
        -11    1    4    4    0    0 -0.47489921095E+02  0.38624728302E+02  0.12429865676E+03  0.13855438757E+03  0.00000000000E+00 0.  1.
         11    1    4    4    0    0  0.74472157066E+01 -0.32288822492E+02  0.25380005332E+02  0.41739354934E+02  0.00000000000E+00 0. -1.
        -13    1    3    3    0    0 -0.25722705926E+02  0.38640430351E+02 -0.20823486761E+02  0.50875908432E+02  0.00000000000E+00 0.  1.
         13    1    3    3    0    0  0.55610717787E+02 -0.78815986134E+01 -0.44268912155E+02  0.71515090106E+02  0.00000000000E+00 0. -1.
         21    1    1    2  503  501 -0.10519795563E+02 -0.29375235775E+02  0.24012978059E+02  0.39372499168E+02  0.00000000000E+00 0. -1.
         -2    1    1    2    0  502  0.20674489090E+02 -0.77195017735E+01  0.26406074116E+02  0.34413746628E+02  0.00000000000E+00 0.  1.
<scales pt_clust_5="13000.00000" pt_clust_6="13000.00000" pt_clust_7="13000.00000" pt_clust_8="13000.00000" pt_clust_9="31.39766" pt_clust_10="22.06865"></scales>
<clustering>
<clus scale="   22.069">  1 10  2 -1</clus>
<clus scale="   31.398">  1  9  2 -1</clus>
<clus scale="   91.970">  5  6 -1 -1</clus>
<clus scale="   94.356">  7  8 -1 -1</clus>
<clus scale="  100.412">  1  5  2 -1</clus>
<clus scale="   22.069">  1  5  2 -1</clus>
</clustering>
</event>
<event>
10    2  0.1671105E-006  0.1846923E+03  0.7546771E-02  0.1188536E+00
         -1   -1    0    0    0  501 -0.00000000000E+00  0.00000000000E+00  0.39090324219E+03  0.39090324219E+03  0.00000000000E+00 0.  1.
         21   -1    0    0  503  502  0.00000000000E+00 -0.00000000000E+00 -0.18495058319E+03  0.18495058319E+03  0.00000000000E+00 0.  1.
         23    2    1    2    0    0 -0.18029414486E+02 -0.26979833813E+02  0.61655869761E+02  0.11866613138E+03  0.96058488642E+02 0.  0.
         23    2    1    2    0    0  0.14848691554E+03  0.14478451661E+03  0.10642211161E+03  0.24844148217E+03  0.85945237722E+02 0.  0.
        -11    1    4    4    0    0  0.91326974322E+02  0.38261799268E+02  0.72993999517E+02  0.12301506203E+03  0.00000000000E+00 0.  1.
         11    1    4    4    0    0  0.57159941220E+02  0.10652271734E+03  0.33428112094E+02  0.12542642014E+03  0.00000000000E+00 0. -1.
        -13    1    3    3    0    0  0.36121194539E+02 -0.30195749439E+02  0.30775106580E+02  0.56246165773E+02  0.00000000000E+00 0.  1.
         13    1    3    3    0    0 -0.54150609025E+02  0.32159156257E+01  0.30880763182E+02  0.62419965602E+02  0.00000000000E+00 0. -1.
         21    1    1    2  503  501 -0.13144176061E+02 -0.28736488085E+02  0.51923875667E+02  0.60783583113E+02  0.00000000000E+00 0. -1.
         -1    1    1    2    0  502 -0.11731332499E+03 -0.89068194712E+02 -0.14049198044E+02  0.14796262872E+03  0.00000000000E+00 0.  1.
<scales pt_clust_5="13000.00000" pt_clust_6="13000.00000" pt_clust_7="13000.00000" pt_clust_8="13000.00000" pt_clust_9="31.59992" pt_clust_10="163.47684"></scales>
<clustering>
<clus scale="   31.600">  1  9  2 -1</clus>
<clus scale="   85.945">  5  6 -1 -1</clus>
<clus scale="   96.058">  7  8 -1 -1</clus>
<clus scale="  104.395">  1  7  2 -1</clus>
<clus scale="  163.477">  2 10  1 -1</clus>
<clus scale="  163.477">  2  5  1 -1</clus>
</clustering>
</event>
<event>
10    2  0.1671105E-006  0.2646779E+03  0.7546771E-02  0.1136477E+00
         21   -1    0    0  503  502  0.00000000000E+00  0.00000000000E+00  0.13829547829E+03  0.13829547829E+03  0.00000000000E+00 0.  1.
         -1   -1    0    0    0  501 -0.00000000000E+00 -0.00000000000E+00 -0.98901930910E+03  0.98901930910E+03  0.00000000000E+00 0.  1.
         23    2    1    2    0    0  0.40201239110E+02  0.43850310020E+02 -0.25424485523E+03  0.28089138696E+03  0.10354001905E+03 0.  0.
         23    2    1    2    0    0 -0.21275886096E+03  0.11279759909E+03 -0.37904431651E+03  0.45778736331E+03  0.88910319153E+02 0.  0.
        -11    1    3    3    0    0 -0.90575757759E+01  0.49467703453E+02 -0.20475228619E+03  0.21083783357E+03  0.00000000000E+00 0.  1.
         11    1    3    3    0    0  0.49258814886E+02 -0.56173934326E+01 -0.49492569038E+02  0.70053553393E+02  0.00000000000E+00 0. -1.
        -11    1    4    4    0    0 -0.11998581604E+03  0.58605559815E+02 -0.28607890347E+03  0.31570927561E+03  0.00000000000E+00 0. -1.
         11    1    4    4    0    0 -0.92773044920E+02  0.54192039275E+02 -0.92965413036E+02  0.14207808770E+03  0.00000000000E+00 0.  1.
         21    1    1    2  503  501  0.21374777767E+03 -0.17084249130E+03 -0.16150723686E+03  0.31774180847E+03  0.00000000000E+00 0.  1.
         -1    1    1    2    0  502 -0.41190155821E+02  0.14194582190E+02 -0.55927422214E+02  0.70894228649E+02  0.00000000000E+00 0.  1.
<scales pt_clust_5="13000.00000" pt_clust_6="13000.00000" pt_clust_7="13000.00000" pt_clust_8="13000.00000" pt_clust_9="249.29773" pt_clust_10="43.56738"></scales>
<clustering>
<clus scale="   43.567">  1 10  2 -1</clus>
<clus scale="   88.910">  7  8 -1 -1</clus>
<clus scale="  103.540">  5  6 -1 -1</clus>
<clus scale="  118.612">  2  5  1 -1</clus>
<clus scale="  249.298">  1  9  2 -1</clus>
<clus scale="   43.567">  1  5  2 -1</clus>
</clustering>
</event>
<event>
10    2  0.1671105E-006  0.2408495E+03  0.7546771E-02  0.1132796E+00
          1   -1    0    0  502    0 -0.00000000000E+00  0.00000000000E+00  0.11885522398E+04  0.11885522398E+04  0.00000000000E+00 0. -1.
         21   -1    0    0  503  502  0.00000000000E+00 -0.00000000000E+00 -0.10529858017E+03  0.10529858017E+03  0.00000000000E+00 0. -1.
         23    2    1    2    0    0  0.11824844729E+03 -0.86072382661E+02  0.49784081460E+03  0.52677369027E+03  0.90850942418E+02 0.  0.
         23    2    1    2    0    0 -0.28267756274E+03  0.41175684058E+02  0.26788526883E+03  0.40140068462E+03  0.88079230953E+02 0.  0.
        -11    1    4    4    0    0 -0.25842040948E+03  0.60670309489E+02  0.25375075243E+03  0.36722123965E+03  0.00000000000E+00 0. -1.
         11    1    4    4    0    0 -0.24257153257E+02 -0.19494625431E+02  0.14134516400E+02  0.34179444973E+02  0.00000000000E+00 0.  1.
        -13    1    3    3    0    0  0.34043962829E+02 -0.78363429649E+02  0.29197625158E+03  0.30422023272E+03  0.00000000000E+00 0. -1.
         13    1    3    3    0    0  0.84204484459E+02 -0.77089530117E+01  0.20586456302E+03  0.22255345755E+03  0.00000000000E+00 0.  1.
         21    1    1    2  503  501  0.53017032076E+02 -0.97077169901E+01  0.13097394822E+03  0.14163057782E+03  0.00000000000E+00 0.  1.
          1    1    1    2  501    0  0.11141208337E+03  0.54604415593E+02  0.18655362800E+03  0.22404586728E+03  0.00000000000E+00 0. -1.
<scales pt_clust_5="13000.00000" pt_clust_6="13000.00000" pt_clust_7="13000.00000" pt_clust_8="13000.00000" pt_clust_9="40.85782" pt_clust_10="232.57991"></scales>
<clustering>
<clus scale="   40.858">  9 10 -1 -1</clus>
<clus scale="   88.079">  5  6 -1 -1</clus>
<clus scale="   90.851">  7  8 -1 -1</clus>
<clus scale="  172.177">  1  7  2 -1</clus>
<clus scale="  232.580">  2  9  1 -1</clus>
<clus scale="  232.580">  2  5  1 -1</clus>
</clustering>
</event>
<event>
10    2  0.1671105E-006  0.1037976E+03  0.7546771E-02  0.1274419E+00
         21   -1    0    0  501  502  0.00000000000E+00  0.00000000000E+00  0.57032271398E+02  0.57032271398E+02  0.00000000000E+00 0.  1.
          1   -1    0    0  503    0 -0.00000000000E+00 -0.00000000000E+00 -0.35936051823E+03  0.35936051823E+03  0.00000000000E+00 0. -1.
         23    2    1    2    0    0 -0.25934581883E+02  0.34999509567E+02 -0.15576405767E+03  0.18451381017E+03  0.88799415958E+02 0.  0.
         23    2    1    2    0    0  0.63469126964E+02 -0.99058132397E+01 -0.96820232258E+02  0.14882822184E+03  0.93001220569E+02 0.  0.
        -11    1    3    3    0    0 -0.52976293181E+02  0.27529017130E+02 -0.59672263667E+02  0.84410387243E+02  0.00000000000E+00 0.  1.
         11    1    3    3    0    0  0.27041711298E+02  0.74704924376E+01 -0.96091794000E+02  0.10010342293E+03  0.00000000000E+00 0. -1.
        -11    1    4    4    0    0  0.30812194159E+02  0.40185570561E+02 -0.60377898765E+02  0.78802043435E+02  0.00000000000E+00 0. -1.
         11    1    4    4    0    0  0.32656932805E+02 -0.50091383801E+02 -0.36442333493E+02  0.70026178403E+02  0.00000000000E+00 0.  1.
         21    1    1    2  503  502 -0.82799287110E+01 -0.32088623946E+02 -0.38838673821E+02  0.51055651894E+02  0.00000000000E+00 0.  1.
          1    1    1    2  501    0 -0.29254616370E+02  0.69949276181E+01 -0.10905283084E+02  0.31995105727E+02  0.00000000000E+00 0. -1.
<scales pt_clust_5="13000.00000" pt_clust_6="13000.00000" pt_clust_7="13000.00000" pt_clust_8="13000.00000" pt_clust_9="33.44441" pt_clust_10="30.07926"></scales>
<clustering>
<clus scale="   30.079">  1 10  2 -1</clus>
<clus scale="   33.444">  2  9  1 -1</clus>
<clus scale="   88.799">  5  6 -1 -1</clus>
<clus scale="   93.001">  7  8 -1 -1</clus>
<clus scale="  100.050">  2  5  1 -1</clus>
<clus scale="   30.079">  1  5  2 -1</clus>
</clustering>
</event>
<event>
10    2  0.1671105E-006  0.1601394E+03  0.7546771E-02  0.1201929E+00
         21   -1    0    0  501  502  0.00000000000E+00  0.00000000000E+00  0.12316042041E+03  0.12316042041E+03  0.00000000000E+00 0.  1.
         -1   -1    0    0    0  501 -0.00000000000E+00 -0.00000000000E+00 -0.50924570364E+03  0.50924570364E+03  0.00000000000E+00 0.  1.
         23    2    1    2    0    0 -0.66914081440E+02  0.38543400111E+02 -0.26554192334E+03  0.29116932507E+03  0.91126147873E+02 0.  0.
         23    2    1    2    0    0 -0.26282407835E+02 -0.13562847739E+03 -0.11254614565E+03  0.20068286921E+03  0.92309968330E+02 0.  0.
        -11    1    3    3    0    0 -0.50056022179E+02 -0.23217573686E+02 -0.13227518080E+03  0.14332265885E+03  0.00000000000E+00 0. -1.
         11    1    3    3    0    0 -0.16858059260E+02  0.61760973797E+02 -0.13326674254E+03  0.14784666622E+03  0.00000000000E+00 0.  1.
        -13    1    4    4    0    0 -0.12869674424E+02 -0.16496463791E+02 -0.70658400037E+02  0.73691053277E+02  0.00000000000E+00 0. -1.
         13    1    4    4    0    0 -0.13412733411E+02 -0.11913201360E+03 -0.41887745618E+02  0.12699181594E+03  0.00000000000E+00 0.  1.
         21    1    1    2  503  502  0.35730321642E+02  0.19675078828E+02 -0.15996361563E+02  0.43813790007E+02  0.00000000000E+00 0.  1.
         -1    1    1    2    0  503  0.57466167633E+02  0.77409998452E+02  0.79991473272E+01  0.96740139759E+02  0.00000000000E+00 0.  1.
<scales pt_clust_5="13000.00000" pt_clust_6="13000.00000" pt_clust_7="13000.00000" pt_clust_8="13000.00000" pt_clust_9="25.85781" pt_clust_10="136.76198"></scales>
<clustering>
<clus scale="   25.858">  9 10 -1 -1</clus>
<clus scale="   91.126">  5  6 -1 -1</clus>
<clus scale="   92.310">  7  8 -1 -1</clus>
<clus scale="  119.445">  2  5  1 -1</clus>
<clus scale="  136.762">  1  9  2 -1</clus>
<clus scale="  136.762">  1  5  2 -1</clus>
</clustering>
</event>
<event>
10    2  0.1671105E-006  0.1214466E+03  0.7546771E-02  0.1240951E+00
         21   -1    0    0  501  502  0.00000000000E+00  0.00000000000E+00  0.34586529614E+03  0.34586529614E+03  0.00000000000E+00 0. -1.
          1   -1    0    0  503    0 -0.00000000000E+00 -0.00000000000E+00 -0.45733456463E+03  0.45733456463E+03  0.00000000000E+00 0. -1.
         23    2    1    2    0    0 -0.16653385147E+02 -0.82013593311E+02 -0.31972420559E+03  0.34325532675E+03  0.92720477673E+02 0.  0.
         23    2    1    2    0    0  0.54177771295E+02  0.48856421606E+02 -0.87700737562E+02  0.14745391562E+03  0.93429422707E+02 0.  0.
        -11    1    3    3    0    0 -0.49906803513E+02 -0.29835015062E+02 -0.20277780589E+03  0.21094941508E+03  0.00000000000E+00 0.  1.
         11    1    3    3    0    0  0.33253418366E+02 -0.52178578249E+02 -0.11694639970E+03  0.13230591167E+03  0.00000000000E+00 0. -1.
        -13    1    4    4    0    0 -0.39282535626E+01 -0.22867411879E+02 -0.54860128837E+01  0.23842106439E+02  0.00000000000E+00 0.  1.
         13    1    4    4    0    0  0.58106024858E+02  0.71723833485E+02 -0.82214724678E+02  0.12361180918E+03  0.00000000000E+00 0. -1.
         21    1    1    2  503  502  0.31368619257E+01  0.35090364773E+02  0.39934868834E+02  0.53253801287E+02  0.00000000000E+00 0. -1.
          1    1    1    2  501    0 -0.40661248074E+02 -0.19331930688E+01  0.25602080583E+03  0.25923681711E+03  0.00000000000E+00 0. -1.
<scales pt_clust_5="13000.00000" pt_clust_6="13000.00000" pt_clust_7="13000.00000" pt_clust_8="13000.00000" pt_clust_9="35.23029" pt_clust_10="47.33366"></scales>
<clustering>
<clus scale="   35.230">  1  9  2 -1</clus>
<clus scale="   47.334">  1 10  2 -1</clus>
<clus scale="   92.720">  5  6 -1 -1</clus>
<clus scale="   93.429">  7  8 -1 -1</clus>
<clus scale="  120.902">  2  5  1 -1</clus>
<clus scale="   35.230">  1  5  2 -1</clus>
</clustering>
</event>
<event>
10    2  0.1671105E-006  0.1316171E+03  0.7546771E-02  0.1233478E+00
         21   -1    0    0  501  502  0.00000000000E+00  0.00000000000E+00  0.48563308911E+03  0.48563308911E+03  0.00000000000E+00 0.  1.
         -3   -1    0    0    0  501 -0.00000000000E+00 -0.00000000000E+00 -0.19031409870E+03  0.19031409870E+03  0.00000000000E+00 0.  1.
         23    2    1    2    0    0  0.56678531221E+02  0.21948678370E+02 -0.13146173812E+03  0.17181790274E+03  0.92439183962E+02 0.  0.
         23    2    1    2    0    0 -0.31688915120E+01  0.85079013426E+02  0.27306737933E+03  0.30039201150E+03  0.91766478214E+02 0.  0.
        -13    1    4    4    0    0 -0.25124926207E+02  0.96986421969E+02  0.22029645065E+03  0.24200858277E+03  0.00000000000E+00 0.  1.
         13    1    4    4    0    0  0.21956034695E+02 -0.11907408543E+02  0.52770928675E+02  0.58383428736E+02  0.00000000000E+00 0. -1.
        -13    1    3    3    0    0  0.59427821342E+02  0.76988404146E+00 -0.13735618923E+03  0.14966289249E+03  0.00000000000E+00 0.  1.
         13    1    3    3    0    0 -0.27492901215E+01  0.21178794328E+02  0.58944511088E+01  0.22155010252E+02  0.00000000000E+00 0. -1.
         21    1    1    2  503  502 -0.38577631854E+02 -0.17701620316E+02  0.39567222226E+02  0.58027115351E+02  0.00000000000E+00 0.  1.
         -3    1    1    2    0  503 -0.14932007855E+02 -0.89326071479E+02  0.11414612696E+03  0.14571015821E+03  0.00000000000E+00 0.  1.
<scales pt_clust_5="13000.00000" pt_clust_6="13000.00000" pt_clust_7="13000.00000" pt_clust_8="13000.00000" pt_clust_9="40.86319" pt_clust_10="111.64610"></scales>
<clustering>
<clus scale="   40.863">  9 10 -1 -1</clus>
<clus scale="   91.766">  5  6 -1 -1</clus>
<clus scale="   92.439">  7  8 -1 -1</clus>
<clus scale="  110.631">  2  7  1 -1</clus>
<clus scale="  111.646">  1  9  2 -1</clus>
<clus scale="  111.646">  1  5  2 -1</clus>
</clustering>
</event>
<event>
10    2  0.1671105E-006  0.1133493E+03  0.7546771E-02  0.1255286E+00
         21   -1    0    0  501  502  0.00000000000E+00  0.00000000000E+00  0.23151114867E+03  0.23151114867E+03  0.00000000000E+00 0.  1.
          3   -1    0    0  503    0 -0.00000000000E+00 -0.00000000000E+00 -0.23215986761E+03  0.23215986761E+03  0.00000000000E+00 0. -1.
         23    2    1    2    0    0  0.54054408638E+02 -0.35478537609E+02 -0.16237738098E+03  0.19648525555E+03  0.89774362003E+02 0.  0.
         23    2    1    2    0    0 -0.96027715052E+02 -0.13707574503E+02  0.73652445100E+02  0.15261845114E+03  0.91970045681E+02 0.  0.
        -13    1    4    4    0    0 -0.68865424533E+02  0.49652031457E+01  0.91897271140E+02  0.11494437081E+03  0.00000000000E+00 0.  1.
         13    1    4    4    0    0 -0.27162290518E+02 -0.18672777649E+02 -0.18244826040E+02  0.37674080328E+02  0.00000000000E+00 0. -1.
        -13    1    3    3    0    0  0.78693785828E+02 -0.34326402830E+02 -0.12975690213E+03  0.15558877694E+03  0.00000000000E+00 0. -1.
         13    1    3    3    0    0 -0.24639377190E+02 -0.11521347791E+01 -0.32620478850E+02  0.40896478617E+02  0.00000000000E+00 0.  1.
         21    1    1    2  503  502  0.75311795653E+01  0.23334534400E+02  0.12354891894E+02  0.27456556868E+02  0.00000000000E+00 0.  1.
          3    1    1    2  501    0  0.34442126848E+02  0.25851577712E+02  0.75721325040E+02  0.87110752711E+02  0.00000000000E+00 0. -1.
<scales pt_clust_5="13000.00000" pt_clust_6="13000.00000" pt_clust_7="13000.00000" pt_clust_8="13000.00000" pt_clust_9="24.51977" pt_clust_10="51.06234"></scales>
<clustering>
<clus scale="   24.520">  1  9  2 -1</clus>
<clus scale="   51.062">  1 10  2 -1</clus>
<clus scale="   89.774">  7  8 -1 -1</clus>
<clus scale="   91.970">  5  6 -1 -1</clus>
<clus scale="  111.575">  2  7  1 -1</clus>
<clus scale="   24.520">  1  5  2 -1</clus>
</clustering>
</event>
<event>
10    2  0.1671105E-006  0.1635060E+03  0.7546771E-02  0.1200779E+00
         -1   -1    0    0    0  501 -0.00000000000E+00  0.00000000000E+00  0.17331567568E+03  0.17331567568E+03  0.00000000000E+00 0.  1.
         21   -1    0    0  501  502  0.00000000000E+00 -0.00000000000E+00 -0.44025022441E+03  0.44025022441E+03  0.00000000000E+00 0.  1.
         23    2    1    2    0    0 -0.85135561793E+01 -0.72367881146E+02 -0.45560893261E+02  0.12374047296E+03  0.89029875852E+02 0.  0.
         23    2    1    2    0    0  0.29447952717E+02  0.19564663121E+03  0.12185481250E+02  0.21845584213E+03  0.91813303942E+02 0.  0.
        -13    1    3    3    0    0 -0.25359859813E+02 -0.11108922470E+02 -0.52977620789E+02  0.59775906121E+02  0.00000000000E+00 0.  1.
         13    1    3    3    0    0  0.16846303633E+02 -0.61258958676E+02  0.74167275282E+01  0.63964566843E+02  0.00000000000E+00 0. -1.
        -13    1    4    4    0    0  0.76410520743E+01  0.12206486004E+03  0.50931088319E+02  0.13248468398E+03  0.00000000000E+00 0.  1.
         13    1    4    4    0    0  0.21806900643E+02  0.73581771175E+02 -0.38745607069E+02  0.85971158141E+02  0.00000000000E+00 0. -1.
         21    1    1    2  503  502 -0.39564359486E+02 -0.81527887109E+02 -0.13339598513E+03  0.16126569309E+03  0.00000000000E+00 0. -1.
         -1    1    1    2    0  503  0.18629962948E+02 -0.41750862959E+02 -0.10016315159E+03  0.11010389191E+03  0.00000000000E+00 0.  1.
<scales pt_clust_5="13000.00000" pt_clust_6="13000.00000" pt_clust_7="13000.00000" pt_clust_8="13000.00000" pt_clust_9="41.75422" pt_clust_10="147.51344"></scales>
<clustering>
<clus scale="   41.754">  9 10 -1 -1</clus>
<clus scale="   89.030">  5  6 -1 -1</clus>
<clus scale="   91.813">  7  8 -1 -1</clus>
<clus scale="  115.047">  1  5  2 -1</clus>
<clus scale="  147.513">  2  9  1 -1</clus>
<clus scale="  147.513">  2  5  1 -1</clus>
</clustering>
</event>
<event>
10    2  0.1671105E-006  0.9155694E+02  0.7546771E-02  0.1323221E+00
          1   -1    0    0  503    0 -0.00000000000E+00  0.00000000000E+00  0.31909321824E+03  0.31909321824E+03  0.00000000000E+00 0. -1.
         21   -1    0    0  501  502  0.00000000000E+00 -0.00000000000E+00 -0.88499189215E+02  0.88499189215E+02  0.00000000000E+00 0. -1.
         23    2    1    2    0    0  0.16618867968E+02 -0.10626831923E+02  0.70889036147E+02  0.11720723517E+03  0.91231377289E+02 0.  0.
         23    2    1    2    0    0  0.12956977568E+02  0.12525780775E+02  0.35898295464E+02  0.71098506058E+02  0.58664567626E+02 0.  0.
        -11    1    3    3    0    0 -0.27903634796E+02 -0.17840867048E+02 -0.78670552762E-01  0.33119715592E+02  0.00000000000E+00 0.  1.
         11    1    3    3    0    0  0.44522502764E+02  0.72140351255E+01  0.70967706700E+02  0.84087519582E+02  0.00000000000E+00 0. -1.
        -13    1    4    4    0    0  0.25393425544E+02 -0.15157707448E+02  0.25404547836E+02  0.38986833760E+02  0.00000000000E+00 0.  1.
         13    1    4    4    0    0 -0.12436447976E+02  0.27683488223E+02  0.10493747628E+02  0.32111672297E+02  0.00000000000E+00 0. -1.
         21    1    1    2  503  502  0.55881167367E+00  0.53722990718E+02  0.14334098092E+03  0.15307876670E+03  0.00000000000E+00 0. -1.
          1    1    1    2  501    0 -0.30134657210E+02 -0.55621939570E+02 -0.19534283511E+02  0.66207899521E+02  0.00000000000E+00 0. -1.
<scales pt_clust_5="13000.00000" pt_clust_6="13000.00000" pt_clust_7="13000.00000" pt_clust_8="13000.00000" pt_clust_9="53.72590" pt_clust_10="56.87677"></scales>
<clustering>
<clus scale="   53.726">  1  9  2 -1</clus>
<clus scale="   56.877">  2 10  1 -1</clus>
<clus scale="   58.665">  7  8 -1 -1</clus>
<clus scale="   59.170">  2  7  1 -1</clus>
<clus scale="   91.231">  5  6 -1 -1</clus>
<clus scale="   56.877">  2  5  1 -1</clus>
</clustering>
</event>
<event>
10    2  0.1671105E-006  0.2375546E+03  0.7546771E-02  0.1121445E+00
         21   -1    0    0  501  502  0.00000000000E+00  0.00000000000E+00  0.14994984496E+03  0.14994984496E+03  0.00000000000E+00 0. -1.
          1   -1    0    0  503    0 -0.00000000000E+00 -0.00000000000E+00 -0.81301290098E+03  0.81301290098E+03  0.00000000000E+00 0. -1.
         23    2    1    2    0    0 -0.17389039945E+03 -0.63744714207E+02 -0.20253201543E+03  0.28892759899E+03  0.90325414899E+02 0.  0.
         23    2    1    2    0    0  0.25222848326E+03  0.53616992139E+02 -0.88296138376E+02  0.28720198697E+03  0.90525044326E+02 0.  0.
        -11    1    4    4    0    0  0.99995671765E+02  0.16661111219E+01 -0.76506770276E+02  0.12591741816E+03  0.00000000000E+00 0.  1.
         11    1    4    4    0    0  0.15223281150E+03  0.51950881017E+02 -0.11789368100E+02  0.16128456881E+03  0.00000000000E+00 0. -1.
        -11    1    3    3    0    0 -0.12177230928E+03 -0.18632403410E+01 -0.14651892277E+03  0.19052496346E+03  0.00000000000E+00 0.  1.
         11    1    3    3    0    0 -0.52118090169E+02 -0.61881473866E+02 -0.56013092660E+02  0.98402635534E+02  0.00000000000E+00 0. -1.
         21    1    1    2  503  502 -0.46365476750E+02 -0.26399337698E+02 -0.24284032221E+03  0.24863246883E+03  0.00000000000E+00 0. -1.
          1    1    1    2  501    0 -0.31972607060E+02  0.36527059766E+02 -0.12939458001E+03  0.13820069115E+03  0.00000000000E+00 0. -1.
<scales pt_clust_5="13000.00000" pt_clust_6="13000.00000" pt_clust_7="13000.00000" pt_clust_8="13000.00000" pt_clust_9="53.55591" pt_clust_10="48.54355"></scales>
<clustering>
<clus scale="   48.544">  1 10  2 -1</clus>
<clus scale="   53.556">  2  9  1 -1</clus>
<clus scale="   90.325">  7  8 -1 -1</clus>
<clus scale="   90.525">  5  6 -1 -1</clus>
<clus scale="  237.479">  2  7  1 -1</clus>
<clus scale="   48.544">  1  5  2 -1</clus>
</clustering>
</event>
<event>
10    2  0.1671105E-006  0.1409034E+03  0.7546771E-02  0.1221211E+00
         -3   -1    0    0    0  501 -0.00000000000E+00  0.00000000000E+00  0.83621053583E+03  0.83621053583E+03  0.00000000000E+00 0.  1.
         21   -1    0    0  501  502  0.00000000000E+00 -0.00000000000E+00 -0.10500978284E+03  0.10500978284E+03  0.00000000000E+00 0. -1.
         23    2    1    2    0    0 -0.28794962855E+02 -0.49008913147E+02  0.46973692704E+03  0.48875916220E+03  0.12248148662E+03 0.  0.
         23    2    1    2    0    0 -0.98063521439E+01  0.16793890325E+03  0.98964550958E+02  0.21625156896E+03  0.93118843225E+02 0.  0.
        -11    1    4    4    0    0 -0.49693020989E+02  0.68137849723E+02  0.36058920020E+02  0.91719183451E+02  0.00000000000E+00 0.  1.
         11    1    4    4    0    0  0.39886668845E+02  0.99801053523E+02  0.62905630938E+02  0.12453238550E+03  0.00000000000E+00 0. -1.
        -13    1    3    3    0    0 -0.48115000938E+02 -0.80544738696E+02  0.27563131444E+03  0.29116169004E+03  0.00000000000E+00 0.  1.
         13    1    3    3    0    0  0.19320038084E+02  0.31535825549E+02  0.19410561259E+03  0.19759747216E+03  0.00000000000E+00 0. -1.
         21    1    1    2  503  502 -0.25909481658E+02 -0.25119423272E+00  0.13651412273E+01  0.25946636563E+02  0.00000000000E+00 0. -1.
         -3    1    1    2    0  503  0.64510796657E+02 -0.11867879587E+03  0.16113413377E+03  0.21026295095E+03  0.00000000000E+00 0.  1.
<scales pt_clust_5="13000.00000" pt_clust_6="13000.00000" pt_clust_7="13000.00000" pt_clust_8="13000.00000" pt_clust_9="25.91070" pt_clust_10="131.99839"></scales>
<clustering>
<clus scale="   25.911">  2  9  1 -1</clus>
<clus scale="   93.119">  5  6 -1 -1</clus>
<clus scale="  122.481">  7  8 -1 -1</clus>
<clus scale="  131.998">  2 10  1 -1</clus>
<clus scale="  116.289">  2  5  1 -1</clus>
<clus scale="   25.911">  2  5  1 -1</clus>
</clustering>
</event>
<event>
10    2  0.1671105E-006  0.1094645E+03  0.7546771E-02  0.1264419E+00
         -4   -1    0    0    0  501 -0.00000000000E+00  0.00000000000E+00  0.19295147582E+03  0.19295147582E+03  0.00000000000E+00 0.  1.
         21   -1    0    0  503  502  0.00000000000E+00 -0.00000000000E+00 -0.54096751898E+03  0.54096751898E+03  0.00000000000E+00 0.  1.
         23    2    1    2    0    0  0.43437773492E+01 -0.15227140229E+02  0.13654520078E+03  0.16458068478E+03  0.90506771812E+02 0.  0.
         23    2    1    2    0    0  0.63671056305E+02 -0.44745046509E+02 -0.20250451250E+03  0.23774253804E+03  0.97248723457E+02 0.  0.
        -11    1    3    3    0    0 -0.21467589755E+01 -0.38889939341E+02  0.13442324000E+03  0.13995228976E+03  0.00000000000E+00 0.  1.
         11    1    3    3    0    0  0.64905363246E+01  0.23662799112E+02  0.21219607792E+01  0.24628395018E+02  0.00000000000E+00 0. -1.
        -13    1    4    4    0    0 -0.21029420432E+01 -0.45920869572E+02 -0.34980047573E+02  0.57764628933E+02  0.00000000000E+00 0.  1.
         13    1    4    4    0    0  0.65773998348E+02  0.11758230635E+01 -0.16752446492E+03  0.17997790911E+03  0.00000000000E+00 0. -1.
         21    1    1    2  503  501 -0.59850383615E+02 -0.11156304091E+01 -0.21116627817E+02  0.63476176794E+02  0.00000000000E+00 0. -1.
         -4    1    1    2    0  502 -0.81644500396E+01  0.61087817147E+02 -0.26094010362E+03  0.26811959519E+03  0.00000000000E+00 0.  1.
<scales pt_clust_5="13000.00000" pt_clust_6="13000.00000" pt_clust_7="13000.00000" pt_clust_8="13000.00000" pt_clust_9="59.86078" pt_clust_10="61.78608"></scales>
<clustering>
<clus scale="   59.861">  1  9  2 -1</clus>
<clus scale="   61.786">  2 10  1 -1</clus>
<clus scale="   90.507">  5  6 -1 -1</clus>
<clus scale="   97.249">  7  8 -1 -1</clus>
<clus scale="  103.521">  1  5  2 -1</clus>
<clus scale="   61.786">  2  5  1 -1</clus>
</clustering>
</event>
<event>
10    2  0.1671105E-006  0.2332275E+03  0.7546771E-02  0.1137051E+00
          2   -1    0    0  502    0 -0.00000000000E+00  0.00000000000E+00  0.89760819571E+03  0.89760819571E+03  0.00000000000E+00 0. -1.
         21   -1    0    0  503  502  0.00000000000E+00 -0.00000000000E+00 -0.21811731679E+03  0.21811731679E+03  0.00000000000E+00 0. -1.
         23    2    1    2    0    0 -0.12382843203E+03 -0.86509792479E+02  0.72165048452E+02  0.19057926812E+03  0.91078199611E+02 0.  0.
         23    2    1    2    0    0  0.17592315179E+03 -0.13892891430E+03  0.62878652851E+03  0.67354405027E+03  0.89659860873E+02 0.  0.
        -11    1    4    4    0    0  0.11773501191E+03 -0.48589886317E+02  0.26163306511E+03  0.29098860947E+03  0.00000000000E+00 0.  1.
         11    1    4    4    0    0  0.58188139884E+02 -0.90339027987E+02  0.36715346339E+03  0.38255544079E+03  0.00000000000E+00 0. -1.
        -11    1    3    3    0    0 -0.69381947582E+01 -0.31562249154E+02 -0.14101645849E+02  0.35258623538E+02  0.00000000000E+00 0.  1.
         11    1    3    3    0    0 -0.11689023727E+03 -0.54947543325E+02  0.86266694301E+02  0.15532064458E+03  0.00000000000E+00 0. -1.
         21    1    1    2  503  501  0.72838681335E+01  0.24084146881E+02 -0.32834828396E+02  0.41366977431E+02  0.00000000000E+00 0. -1.
          2    1    1    2  501    0 -0.59378587892E+02  0.20135455990E+03  0.11374130357E+02  0.21023521669E+03  0.00000000000E+00 0. -1.
<scales pt_clust_5="13000.00000" pt_clust_6="13000.00000" pt_clust_7="13000.00000" pt_clust_8="13000.00000" pt_clust_9="25.16150" pt_clust_10="215.30490"></scales>
<clustering>
<clus scale="   25.161">  2  9  1 -1</clus>
<clus scale="   89.660">  5  6 -1 -1</clus>
<clus scale="   91.078">  7  8 -1 -1</clus>
<clus scale="  170.960">  1  7  2 -1</clus>
<clus scale="  215.305">  2 10  1 -1</clus>
<clus scale="   25.161">  2  5  1 -1</clus>
</clustering>
</event>
<event>
10    2  0.1671105E-006  0.1300948E+03  0.7546771E-02  0.1227642E+00
         21   -1    0    0  503  502  0.00000000000E+00  0.00000000000E+00  0.18028226731E+03  0.18028226731E+03  0.00000000000E+00 0.  1.
         -3   -1    0    0    0  501 -0.00000000000E+00 -0.00000000000E+00 -0.27871105803E+03  0.27871105803E+03  0.00000000000E+00 0.  1.
         23    2    1    2    0    0 -0.10103064758E+03 -0.35596816605E+02 -0.17072674519E+03  0.22117981136E+03  0.91096445210E+02 0.  0.
         23    2    1    2    0    0  0.64623173963E+02  0.72292562451E+01 -0.79362571939E+01  0.11118363418E+03  0.89835402666E+02 0.  0.
        -11    1    4    4    0    0  0.28067215685E+02  0.42946871694E+02 -0.25302669016E+02  0.57205134769E+02  0.00000000000E+00 0.  1.
         11    1    4    4    0    0  0.36555958278E+02 -0.35717615449E+02  0.17366411822E+02  0.53978499410E+02  0.00000000000E+00 0. -1.
        -13    1    3    3    0    0 -0.21723010773E+02 -0.31817424652E+02 -0.12219498377E+03  0.12812436055E+03  0.00000000000E+00 0.  1.
         13    1    3    3    0    0 -0.79307636804E+02 -0.37793919526E+01 -0.48531761416E+02  0.93055450808E+02  0.00000000000E+00 0. -1.
         21    1    1    2  503  501  0.76784902600E+01  0.41641493721E+02  0.21750548840E+01  0.42399340510E+02  0.00000000000E+00 0. -1.
         -3    1    1    2    0  502  0.28728983354E+02 -0.13273933361E+02  0.78059156783E+02  0.84230539290E+02  0.00000000000E+00 0.  1.
<scales pt_clust_5="13000.00000" pt_clust_6="13000.00000" pt_clust_7="13000.00000" pt_clust_8="13000.00000" pt_clust_9="41.16126" pt_clust_10="31.64730"></scales>
<clustering>
<clus scale="   31.647">  1 10  2 -1</clus>
<clus scale="   41.161">  1  9  2 -1</clus>
<clus scale="   89.835">  5  6 -1 -1</clus>
<clus scale="   91.096">  7  8 -1 -1</clus>
<clus scale="  129.215">  1  5  2 -1</clus>
<clus scale="   31.647">  1  5  2 -1</clus>
</clustering>
</event>
<event>
10    2  0.1671105E-006  0.3766252E+03  0.7546771E-02  0.1078189E+00
          3   -1    0    0  502    0 -0.00000000000E+00  0.00000000000E+00  0.12385093627E+04  0.12385093627E+04  0.00000000000E+00 0. -1.
         21   -1    0    0  503  502  0.00000000000E+00 -0.00000000000E+00 -0.18523899849E+03  0.18523899849E+03  0.00000000000E+00 0. -1.
         23    2    1    2    0    0 -0.14558989365E+03 -0.62969108055E+02  0.18291947149E+03  0.25890337626E+03  0.91705504128E+02 0.  0.
         23    2    1    2    0    0  0.37754099035E+03  0.26069050932E+03  0.52739527449E+03  0.70514032703E+03  0.92630255328E+02 0.  0.
        -13    1    4    4    0    0  0.27704242585E+03  0.14716692240E+03  0.39019000523E+03  0.50065841543E+03  0.00000000000E+00 0.  1.
         13    1    4    4    0    0  0.10049856450E+03  0.11352358692E+03  0.13720526926E+03  0.20448191159E+03  0.00000000000E+00 0. -1.
        -13    1    3    3    0    0 -0.83170710573E+02 -0.60390156982E+02  0.16414715834E+03  0.19367144278E+03  0.00000000000E+00 0. -1.
         13    1    3    3    0    0 -0.62419183076E+02 -0.25789510723E+01  0.18772313148E+02  0.65231933479E+02  0.00000000000E+00 0.  1.
         21    1    1    2  503  501 -0.15893958903E+03 -0.11946910810E+03  0.21376584551E+03  0.29194262700E+03  0.00000000000E+00 0. -1.
          3    1    1    2  501    0 -0.73011507668E+02 -0.78252293171E+02  0.12918977277E+03  0.16776203094E+03  0.00000000000E+00 0. -1.
<scales pt_clust_5="13000.00000" pt_clust_6="13000.00000" pt_clust_7="13000.00000" pt_clust_8="13000.00000" pt_clust_9="20.94154" pt_clust_10="366.17068"></scales>
<clustering>
<clus scale="   20.942">  9 10 -1 -1</clus>
<clus scale="   91.706">  7  8 -1 -1</clus>
<clus scale="   92.630">  5  6 -1 -1</clus>
<clus scale="  183.225">  1  7  2 -1</clus>
<clus scale="  366.171">  2  9  1 -1</clus>
<clus scale="  366.171">  2  5  1 -1</clus>
</clustering>
</event>
<event>
10    2  0.1671105E-006  0.1550457E+03  0.7546771E-02  0.1195649E+00
         21   -1    0    0  503  502  0.00000000000E+00  0.00000000000E+00  0.14277659801E+03  0.14277659801E+03  0.00000000000E+00 0. -1.
         -2   -1    0    0    0  501 -0.00000000000E+00 -0.00000000000E+00 -0.72601563009E+03  0.72601563009E+03  0.00000000000E+00 0.  1.
         23    2    1    2    0    0 -0.15090288378E+02 -0.12637344443E+03 -0.56078116312E+03  0.58231229479E+03  0.91728575119E+02 0.  0.
         23    2    1    2    0    0  0.63555138120E+02  0.10723072166E+03 -0.91665591113E+02  0.17629787955E+03  0.84502535406E+02 0.  0.
        -11    1    4    4    0    0 -0.85522503409E+01  0.29792732638E+02 -0.57122923933E+02  0.64990586569E+02  0.00000000000E+00 0.  1.
         11    1    4    4    0    0  0.72107388461E+02  0.77437989026E+02 -0.34542667180E+02  0.11130729298E+03  0.00000000000E+00 0. -1.
        -13    1    3    3    0    0 -0.20978593397E+02  0.65393044542E+00 -0.30682646009E+02  0.37174638829E+02  0.00000000000E+00 0. -1.
         13    1    3    3    0    0  0.58883050188E+01 -0.12702737488E+03 -0.53009851711E+03  0.54513765596E+03  0.00000000000E+00 0.  1.
         21    1    1    2  503  501 -0.42038580870E+02  0.38732080593E+02  0.27018875840E+02  0.63225279757E+02  0.00000000000E+00 0. -1.
         -2    1    1    2    0  502 -0.64262688714E+01 -0.19589357826E+02  0.42188846311E+02  0.46956774002E+02  0.00000000000E+00 0.  1.
<scales pt_clust_5="13000.00000" pt_clust_6="13000.00000" pt_clust_7="13000.00000" pt_clust_8="13000.00000" pt_clust_9="53.92740" pt_clust_10="20.61650"></scales>
<clustering>
<clus scale="   20.616">  1 10  2 -1</clus>
<clus scale="   53.927">  1  9  2 -1</clus>
<clus scale="   84.503">  5  6 -1 -1</clus>
<clus scale="   91.729">  7  8 -1 -1</clus>
<clus scale="  150.883">  1  5  2 -1</clus>
<clus scale="   20.616">  1  5  2 -1</clus>
</clustering>
</event>
<event>
10    2  0.1671105E-006  0.1145298E+03  0.7546771E-02  0.1252824E+00
         21   -1    0    0  501  502  0.00000000000E+00  0.00000000000E+00  0.72697629759E+02  0.72697629759E+02  0.00000000000E+00 0. -1.
          2   -1    0    0  503    0 -0.00000000000E+00 -0.00000000000E+00 -0.59664397623E+03  0.59664397623E+03  0.00000000000E+00 0. -1.
         23    2    1    2    0    0 -0.33871938417E+02 -0.25914905728E+02 -0.33260448017E+03  0.34763632885E+03  0.91686347714E+02 0.  0.
         23    2    1    2    0    0  0.44547841025E+02  0.29224969506E+02 -0.71254926545E+02  0.12690468311E+03  0.90492679569E+02 0.  0.
        -11    1    3    3    0    0  0.14965156363E+02  0.15364327532E+02 -0.22805558217E+02  0.31306739707E+02  0.00000000000E+00 0.  1.
         11    1    3    3    0    0 -0.48837094780E+02 -0.41279233259E+02 -0.30979892195E+03  0.31632958914E+03  0.00000000000E+00 0. -1.
        -11    1    4    4    0    0  0.24169688113E+02  0.51893950186E+02 -0.94902133665E+01  0.58027752319E+02  0.00000000000E+00 0.  1.
         11    1    4    4    0    0  0.20378152912E+02 -0.22668980680E+02 -0.61764713179E+02  0.68876930791E+02  0.00000000000E+00 0. -1.
         21    1    1    2  503  502 -0.45295430926E+02 -0.37690608677E+02 -0.13201839968E+03  0.14457218231E+03  0.00000000000E+00 0. -1.
          2    1    1    2  501    0  0.34619528318E+02  0.34380544899E+02  0.11931459915E+02  0.50228411723E+02  0.00000000000E+00 0. -1.
<scales pt_clust_5="13000.00000" pt_clust_6="13000.00000" pt_clust_7="13000.00000" pt_clust_8="13000.00000" pt_clust_9="51.59959" pt_clust_10="48.79071"></scales>
<clustering>
<clus scale="   48.791">  1 10  2 -1</clus>
<clus scale="   51.600">  2  9  1 -1</clus>
<clus scale="   90.493">  7  8 -1 -1</clus>
<clus scale="   91.686">  5  6 -1 -1</clus>
<clus scale="  113.576">  1  7  2 -1</clus>
<clus scale="   48.791">  1  5  2 -1</clus>
</clustering>
</event>
<event>
10    2  0.1671105E-006  0.2711750E+03  0.7546771E-02  0.1108854E+00
          1   -1    0    0  503    0 -0.00000000000E+00  0.00000000000E+00  0.60395280919E+03  0.60395280919E+03  0.00000000000E+00 0. -1.
         21   -1    0    0  501  502  0.00000000000E+00 -0.00000000000E+00 -0.62792631798E+03  0.62792631798E+03  0.00000000000E+00 0. -1.
         23    2    1    2    0    0 -0.20669352630E+02  0.18644671125E+03  0.21833993251E+03  0.30224746491E+03  0.92149908511E+02 0.  0.
         23    2    1    2    0    0 -0.19510170499E+03 -0.36451889288E+03  0.89444424486E+02  0.43267866170E+03  0.90949550060E+02 0.  0.
        -11    1    4    4    0    0 -0.12203606055E+02 -0.55881117515E+02  0.41634962093E+02  0.70746712743E+02  0.00000000000E+00 0.  1.
         11    1    4    4    0    0 -0.18289809894E+03 -0.30863777537E+03  0.47809462393E+02  0.36193194895E+03  0.00000000000E+00 0. -1.
        -13    1    3    3    0    0  0.35479000487E+02  0.57079322236E+02  0.82849600044E+02  0.10668113577E+03  0.00000000000E+00 0.  1.
         13    1    3    3    0    0 -0.56148353117E+02  0.12936738901E+03  0.13549033247E+03  0.19556632913E+03  0.00000000000E+00 0. -1.
         21    1    1    2  503  502  0.32374694863E+02  0.26790618597E+02  0.38465763999E+02  0.56969053988E+02  0.00000000000E+00 0. -1.
          1    1    1    2  501    0  0.18339636276E+03  0.15128156304E+03 -0.37022362979E+03  0.43998394657E+03  0.00000000000E+00 0. -1.
<scales pt_clust_5="13000.00000" pt_clust_6="13000.00000" pt_clust_7="13000.00000" pt_clust_8="13000.00000" pt_clust_9="42.02211" pt_clust_10="255.46835"></scales>
<clustering>
<clus scale="   42.022">  1  9  2 -1</clus>
<clus scale="   90.950">  5  6 -1 -1</clus>
<clus scale="   92.150">  7  8 -1 -1</clus>
<clus scale="  219.355">  1  7  2 -1</clus>
<clus scale="  255.468">  2 10  1 -1</clus>
<clus scale="  255.468">  2  5  1 -1</clus>
</clustering>
</event>
<event>
10    2  0.1671105E-006  0.1927490E+03  0.7546771E-02  0.1156075E+00
         -1   -1    0    0    0  501 -0.00000000000E+00  0.00000000000E+00  0.23992443934E+03  0.23992443934E+03  0.00000000000E+00 0.  1.
         21   -1    0    0  503  502  0.00000000000E+00 -0.00000000000E+00 -0.50640602670E+03  0.50640602670E+03  0.00000000000E+00 0.  1.
         23    2    1    2    0    0 -0.19685097849E+03 -0.61797217625E+02  0.74908625851E+02  0.23713727907E+03  0.89741757612E+02 0.  0.
         23    2    1    2    0    0  0.67556685003E+02  0.13619562029E+03 -0.11336526924E+03  0.21009439848E+03  0.90414707492E+02 0.  0.
        -11    1    3    3    0    0 -0.19954445299E+03 -0.40935918738E+02  0.64496717213E+02  0.21366694806E+03  0.00000000000E+00 0.  1.
         11    1    3    3    0    0  0.26934745027E+01 -0.20861298886E+02  0.10411908638E+02  0.23470331008E+02  0.00000000000E+00 0. -1.
        -11    1    4    4    0    0 -0.97547652727E+01  0.41724110086E+02  0.93947360541E+00  0.42859531246E+02  0.00000000000E+00 0. -1.
         11    1    4    4    0    0  0.77311450276E+02  0.94471510202E+02 -0.11430474284E+03  0.16723486724E+03  0.00000000000E+00 0.  1.
         21    1    1    2  503  501  0.45061493099E+02 -0.49939656758E+02 -0.15274746493E+02  0.68976991511E+02  0.00000000000E+00 0. -1.
         -1    1    1    2    0  502  0.84232800389E+02 -0.24458745905E+02 -0.21275019748E+03  0.23012179697E+03  0.00000000000E+00 0.  1.
<scales pt_clust_5="13000.00000" pt_clust_6="13000.00000" pt_clust_7="13000.00000" pt_clust_8="13000.00000" pt_clust_9="67.26446" pt_clust_10="90.05528"></scales>
<clustering>
<clus scale="   67.264">  1  9  2 -1</clus>
<clus scale="   89.742">  5  6 -1 -1</clus>
<clus scale="   90.055">  2 10  1 -1</clus>
<clus scale="   90.415">  7  8 -1 -1</clus>
<clus scale="  192.434">  1  5  2 -1</clus>
<clus scale="   90.055">  2  5  1 -1</clus>
</clustering>
</event>
<event>
10    2  0.1671105E-006  0.9436475E+02  0.7546771E-02  0.1293464E+00
          2   -1    0    0  503    0 -0.00000000000E+00  0.00000000000E+00  0.73783514602E+03  0.73783514602E+03  0.00000000000E+00 0. -1.
         21   -1    0    0  501  502  0.00000000000E+00 -0.00000000000E+00 -0.62108717387E+02  0.62108717387E+02  0.00000000000E+00 0. -1.
         23    2    1    2    0    0  0.17576642088E+02  0.75729121216E+01  0.49210020928E+03  0.50061492877E+03  0.89924432667E+02 0.  0.
         23    2    1    2    0    0  0.31999559702E+01 -0.57780910349E+02  0.20080468556E+03  0.22811371449E+03  0.91457485626E+02 0.  0.
        -11    1    3    3    0    0  0.24206856767E+02 -0.38348356194E+02  0.25940457944E+03  0.26333876314E+03  0.00000000000E+00 0.  1.
         11    1    3    3    0    0 -0.66302146795E+01  0.45921268316E+02  0.23269562984E+03  0.23727616563E+03  0.00000000000E+00 0. -1.
        -13    1    4    4    0    0  0.50489502727E+01  0.24631093594E+02  0.36968139127E+02  0.44708231692E+02  0.00000000000E+00 0.  1.
         13    1    4    4    0    0 -0.18489943025E+01 -0.82412003943E+02  0.16383654643E+03  0.18340548280E+03  0.00000000000E+00 0. -1.
         21    1    1    2  503  502 -0.22000403277E+02  0.44686932749E+01 -0.31788377365E+00  0.22451904463E+02  0.00000000000E+00 0. -1.
          2    1    1    2  501    0  0.12238052187E+01  0.45739304953E+02 -0.16860582429E+02  0.48763315685E+02  0.00000000000E+00 0. -1.
<scales pt_clust_5="13000.00000" pt_clust_6="13000.00000" pt_clust_7="13000.00000" pt_clust_8="13000.00000" pt_clust_9="22.44965" pt_clust_10="50.33961"></scales>
<clustering>
<clus scale="   22.450">  2  9  1 -1</clus>
<clus scale="   50.340">  2 10  1 -1</clus>
<clus scale="   89.924">  5  6 -1 -1</clus>
<clus scale="   91.457">  7  8 -1 -1</clus>
<clus scale="   92.880">  1  5  2 -1</clus>
<clus scale="   22.450">  2  5  1 -1</clus>
</clustering>
</event>
<event>
10    2  0.1671105E-006  0.1118862E+03  0.7546771E-02  0.1257138E+00
         21   -1    0    0  503  502  0.00000000000E+00  0.00000000000E+00  0.24904057825E+03  0.24904057825E+03  0.00000000000E+00 0. -1.
          3   -1    0    0  502    0 -0.00000000000E+00 -0.00000000000E+00 -0.23443985527E+03  0.23443985527E+03  0.00000000000E+00 0. -1.
         23    2    1    2    0    0  0.32180948334E+02 -0.41508861946E+02 -0.62390360484E+02  0.12239006744E+03  0.91258821329E+02 0.  0.
         23    2    1    2    0    0 -0.83236048963E+02  0.11849560403E+03  0.15918988979E+03  0.23372730832E+03  0.91200798354E+02 0.  0.
        -11    1    4    4    0    0 -0.29294320636E+02  0.11203995494E+03  0.96239860570E+02  0.15057629125E+03  0.00000000000E+00 0. -1.
         11    1    4    4    0    0 -0.53941728327E+02  0.64556490887E+01  0.62950029216E+02  0.83151017061E+02  0.00000000000E+00 0.  1.
        -13    1    3    3    0    0  0.64067675661E+02 -0.21757639132E+02 -0.37272905595E+02  0.77248504301E+02  0.00000000000E+00 0. -1.
         13    1    3    3    0    0 -0.31886727328E+02 -0.19751222814E+02 -0.25117454890E+02  0.45141563137E+02  0.00000000000E+00 0.  1.
         21    1    1    2  503  501  0.24080377666E+02 -0.25568956634E+02 -0.49591920873E+02  0.60770015203E+02  0.00000000000E+00 0. -1.
          3    1    1    2  501    0  0.26974722963E+02 -0.51417785452E+02 -0.32606885441E+02  0.66593042564E+02  0.00000000000E+00 0. -1.
<scales pt_clust_5="13000.00000" pt_clust_6="13000.00000" pt_clust_7="13000.00000" pt_clust_8="13000.00000" pt_clust_9="23.73269" pt_clust_10="97.28676"></scales>
<clustering>
<clus scale="   23.733">  9 10 -1 -1</clus>
<clus scale="   91.201">  5  6 -1 -1</clus>
<clus scale="   91.259">  7  8 -1 -1</clus>
<clus scale="   97.287">  1  9  2 -1</clus>
<clus scale="  111.839">  1  5  2 -1</clus>
<clus scale="   97.287">  1  5  2 -1</clus>
</clustering>
</event>
<event>
10    2  0.1671105E-006  0.2348157E+03  0.7546771E-02  0.1140217E+00
          2   -1    0    0  502    0 -0.00000000000E+00  0.00000000000E+00  0.92555721918E+03  0.92555721918E+03  0.00000000000E+00 0.  1.
         21   -1    0    0  503  502  0.00000000000E+00 -0.00000000000E+00 -0.11357293618E+03  0.11357293618E+03  0.00000000000E+00 0.  1.
         23    2    1    2    0    0 -0.12556885643E+03  0.94138357778E+00  0.24348946627E+03  0.28872850187E+03  0.91151542495E+02 0.  0.
         23    2    1    2    0    0  0.11596641794E+02 -0.19403016814E+03  0.37436580405E+03  0.43192750501E+03  0.92894704319E+02 0.  0.
        -13    1    4    4    0    0 -0.14343197851E+02 -0.17625225755E+03  0.26859046258E+03  0.32157646401E+03  0.00000000000E+00 0.  1.
         13    1    4    4    0    0  0.25939839645E+02 -0.17777910587E+02  0.10577534147E+03  0.11035104100E+03  0.00000000000E+00 0. -1.
        -13    1    3    3    0    0 -0.10858266051E+03 -0.30860590842E+02  0.21478987316E+03  0.24264636788E+03  0.00000000000E+00 0.  1.
         13    1    3    3    0    0 -0.16986195911E+02  0.31801974420E+02  0.28699593111E+02  0.46082133992E+02  0.00000000000E+00 0. -1.
         21    1    1    2  503  501  0.75444342761E+02  0.24875994195E+02  0.70244779116E+02  0.10604241102E+03  0.00000000000E+00 0. -1.
          2    1    1    2  501    0  0.38527871871E+02  0.16821279037E+03  0.12388423355E+03  0.21243173745E+03  0.00000000000E+00 0.  1.
<scales pt_clust_5="13000.00000" pt_clust_6="13000.00000" pt_clust_7="13000.00000" pt_clust_8="13000.00000" pt_clust_9="78.73529" pt_clust_10="78.73529"></scales>
<clustering>
<clus scale="   78.735">  9 10 -1 -1</clus>
<clus scale="   91.152">  7  8 -1 -1</clus>
<clus scale="   92.895">  5  6 -1 -1</clus>
<clus scale="  155.168">  1  7  2 -1</clus>
<clus scale="  224.279">  1  5  2 -1</clus>
<clus scale="  234.816">  2  5  1 -1</clus>
</clustering>
</event>
<event>
10    2  0.1671105E-006  0.1006291E+03  0.7546771E-02  0.1279173E+00
          1   -1    0    0  503    0 -0.00000000000E+00  0.00000000000E+00  0.34898852758E+02  0.34898852758E+02  0.00000000000E+00 0. -1.
         21   -1    0    0  501  502  0.00000000000E+00 -0.00000000000E+00 -0.52021611802E+03  0.52021611802E+03  0.00000000000E+00 0.  1.
         23    2    1    2    0    0 -0.32401824645E+02  0.22389900096E+02 -0.12315006495E+03  0.15883318919E+03  0.92254309520E+02 0.  0.
         23    2    1    2    0    0  0.45739442737E+02 -0.18476893738E+02 -0.29092777573E+03  0.30904477298E+03  0.91848836644E+02 0.  0.
        -13    1    3    3    0    0 -0.46590120510E+01  0.56122047918E+02 -0.75591904895E+02  0.94263071992E+02  0.00000000000E+00 0. -1.
         13    1    3    3    0    0 -0.27742812594E+02 -0.33732147822E+02 -0.47558160057E+02  0.64570117201E+02  0.00000000000E+00 0.  1.
        -13    1    4    4    0    0  0.74134365795E+02 -0.15115935666E+02 -0.21247737102E+03  0.22554606824E+03  0.00000000000E+00 0.  1.
         13    1    4    4    0    0 -0.28394923058E+02 -0.33609580718E+01 -0.78450404715E+02  0.83498704748E+02  0.00000000000E+00 0. -1.
         21    1    1    2  503  502 -0.28123969620E+01 -0.22620714465E+02 -0.15657886845E+02  0.27654578645E+02  0.00000000000E+00 0. -1.
          1    1    1    2  501    0 -0.10525221130E+02  0.18707708108E+02 -0.55581537731E+02  0.59582429953E+02  0.00000000000E+00 0. -1.
<scales pt_clust_5="13000.00000" pt_clust_6="13000.00000" pt_clust_7="13000.00000" pt_clust_8="13000.00000" pt_clust_9="21.99473" pt_clust_10="21.46529"></scales>
<clustering>
<clus scale="   21.465">  2 10  1 -1</clus>
<clus scale="   21.995">  1  9  2 -1</clus>
<clus scale="   91.849">  7  8 -1 -1</clus>
<clus scale="   92.254">  5  6 -1 -1</clus>
<clus scale="  100.258">  2  7  1 -1</clus>
<clus scale="   21.465">  2  5  1 -1</clus>
</clustering>
</event>
<event>
10    2  0.1671105E-006  0.9870540E+02  0.7546771E-02  0.1285086E+00
          2   -1    0    0  503    0 -0.00000000000E+00  0.00000000000E+00  0.39569490887E+03  0.39569490887E+03  0.00000000000E+00 0. -1.
         21   -1    0    0  501  502  0.00000000000E+00 -0.00000000000E+00 -0.46768771495E+03  0.46768771495E+03  0.00000000000E+00 0. -1.
         23    2    1    2    0    0 -0.15479374841E+02  0.38234994938E+02  0.31687571267E+03  0.33146493857E+03  0.88075321956E+02 0.  0.
         23    2    1    2    0    0  0.16407403695E+02 -0.26059318624E+01  0.31676293224E+02  0.98799987900E+02  0.92098079675E+02 0.  0.
        -13    1    3    3    0    0 -0.24591419114E+02 -0.20876429748E+02  0.64725510843E+02  0.72318427575E+02  0.00000000000E+00 0.  1.
         13    1    3    3    0    0  0.91120442729E+01  0.59111424686E+02  0.25215020182E+03  0.25914651099E+03  0.00000000000E+00 0. -1.
        -13    1    4    4    0    0  0.43487600808E+02 -0.29861386955E+02  0.29208902509E+02  0.60299534332E+02  0.00000000000E+00 0.  1.
         13    1    4    4    0    0 -0.27080197113E+02  0.27255455093E+02  0.24673907153E+01  0.38500453568E+02  0.00000000000E+00 0. -1.
         21    1    1    2  503  502  0.41987646282E+01  0.33312314893E+02 -0.11208521636E+03  0.11700613520E+03  0.00000000000E+00 0. -1.
          2    1    1    2  501    0 -0.51267934814E+01 -0.68941377969E+02 -0.30845959560E+03  0.31611156216E+03  0.00000000000E+00 0. -1.
<scales pt_clust_5="13000.00000" pt_clust_6="13000.00000" pt_clust_7="13000.00000" pt_clust_8="13000.00000" pt_clust_9="33.57588" pt_clust_10="39.50841"></scales>
<clustering>
<clus scale="   33.576">  2  9  1 -1</clus>
<clus scale="   39.508">  2 10  1 -1</clus>
<clus scale="   88.075">  5  6 -1 -1</clus>
<clus scale="   92.098">  7  8 -1 -1</clus>
<clus scale="   94.963">  1  5  2 -1</clus>
<clus scale="   33.576">  2  5  1 -1</clus>
</clustering>
</event>
<event>
10    2  0.1671105E-006  0.1525844E+03  0.7546771E-02  0.1197497E+00
          3   -1    0    0  503    0 -0.00000000000E+00  0.00000000000E+00  0.24929089062E+03  0.24929089062E+03  0.00000000000E+00 0. -1.
         21   -1    0    0  501  502  0.00000000000E+00 -0.00000000000E+00 -0.22944905800E+03  0.22944905800E+03  0.00000000000E+00 0. -1.
         23    2    1    2    0    0 -0.23384124949E+02  0.10217616230E+03  0.10452846609E+03  0.17589211270E+03  0.95000261294E+02 0.  0.
         23    2    1    2    0    0  0.30339803512E+02 -0.16221605240E+03 -0.30420232686E+02  0.19240367350E+03  0.94123491686E+02 0.  0.
        -13    1    4    4    0    0  0.56267933664E+02 -0.51562008127E+02 -0.11134275891E+02  0.77127771525E+02  0.00000000000E+00 0. -1.
         13    1    4    4    0    0 -0.25928130151E+02 -0.11065404427E+03 -0.19285956795E+02  0.11527590197E+03  0.00000000000E+00 0.  1.
        -13    1    3    3    0    0  0.33010680743E+02  0.31402792886E+02  0.13462142948E+02  0.47508628026E+02  0.00000000000E+00 0. -1.
         13    1    3    3    0    0 -0.56394805692E+02  0.70773369410E+02  0.91066323138E+02  0.12838348467E+03  0.00000000000E+00 0.  1.
         21    1    1    2  503  502  0.25491065414E+02  0.57341670947E+02 -0.42654767526E+02  0.75876813557E+02  0.00000000000E+00 0. -1.
          3    1    1    2  501    0 -0.32446743977E+02  0.26982191533E+01 -0.11611633254E+02  0.34567348873E+02  0.00000000000E+00 0. -1.
<scales pt_clust_5="13000.00000" pt_clust_6="13000.00000" pt_clust_7="13000.00000" pt_clust_8="13000.00000" pt_clust_9="60.32484" pt_clust_10="32.55874"></scales>
<clustering>
<clus scale="   32.559">  2 10  1 -1</clus>
<clus scale="   60.325">  2  9  1 -1</clus>
<clus scale="   94.123">  5  6 -1 -1</clus>
<clus scale="   95.000">  7  8 -1 -1</clus>
<clus scale="  152.040">  2  5  1 -1</clus>
<clus scale="   32.559">  2  5  1 -1</clus>
</clustering>
</event>
<event>
10    2  0.1671105E-006  0.1931451E+03  0.7546771E-02  0.1155905E+00
          1   -1    0    0  502    0 -0.00000000000E+00  0.00000000000E+00  0.15258497742E+03  0.15258497742E+03  0.00000000000E+00 0. -1.
         21   -1    0    0  503  502  0.00000000000E+00 -0.00000000000E+00 -0.59537715982E+03  0.59537715982E+03  0.00000000000E+00 0.  1.
         23    2    1    2    0    0  0.50768852068E+02  0.15050173162E+03  0.12349621710E+02  0.18404442640E+03  0.92149824595E+02 0.  0.
         23    2    1    2    0    0 -0.11480799956E+03 -0.17369254209E+03 -0.21560210786E+03  0.31287449681E+03  0.89756369676E+02 0.  0.
        -11    1    4    4    0    0 -0.37964901888E+02 -0.13444943660E+03 -0.12085561076E+03  0.18472699702E+03  0.00000000000E+00 0. -1.
         11    1    4    4    0    0 -0.76843097674E+02 -0.39243105499E+02 -0.94746497094E+02  0.12814749978E+03  0.00000000000E+00 0.  1.
        -13    1    3    3    0    0  0.28653194103E+01  0.12583190045E+03 -0.87719474501E+01  0.12616982321E+03  0.00000000000E+00 0.  1.
         13    1    3    3    0    0  0.47903532657E+02  0.24669831165E+02  0.21121569161E+02  0.57874603191E+02  0.00000000000E+00 0. -1.
         21    1    1    2  503  501  0.29584870393E+02  0.10210237975E+01 -0.14526620944E+03  0.14825174080E+03  0.00000000000E+00 0.  1.
          1    1    1    2  501    0  0.34454277101E+02  0.22169786681E+02 -0.94273486819E+02  0.10279147323E+03  0.00000000000E+00 0. -1.
<scales pt_clust_5="13000.00000" pt_clust_6="13000.00000" pt_clust_7="13000.00000" pt_clust_8="13000.00000" pt_clust_9="26.94168" pt_clust_10="75.12276"></scales>
<clustering>
<clus scale="   26.942">  9 10 -1 -1</clus>
<clus scale="   75.123">  2  9  1 -1</clus>
<clus scale="   89.756">  5  6 -1 -1</clus>
<clus scale="   92.150">  7  8 -1 -1</clus>
<clus scale="  192.015">  2  5  1 -1</clus>
<clus scale="   75.123">  2  5  1 -1</clus>
</clustering>
</event>
<event>
10    2  0.1671105E-006  0.9572153E+02  0.7546771E-02  0.1290305E+00
         21   -1    0    0  503  502  0.00000000000E+00  0.00000000000E+00  0.10791379581E+04  0.10791379581E+04  0.00000000000E+00 0.  1.
         -1   -1    0    0    0  501 -0.00000000000E+00 -0.00000000000E+00 -0.52187287404E+02  0.52187287404E+02  0.00000000000E+00 0.  1.
         23    2    1    2    0    0 -0.16510064091E+02  0.27152125917E+02  0.28534358380E+02  0.10001160526E+03  0.90433906363E+02 0.  0.
         23    2    1    2    0    0 -0.47329147153E+02 -0.26138291342E+02  0.21765729278E+03  0.24234008364E+03  0.91819173361E+02 0.  0.
        -13    1    4    4    0    0 -0.45423207751E+02 -0.49809140787E+02  0.89747518604E+02  0.11224453396E+03  0.00000000000E+00 0.  1.
         13    1    4    4    0    0 -0.19059394018E+01  0.23670849445E+02  0.12790977417E+03  0.13009554968E+03  0.00000000000E+00 0. -1.
        -13    1    3    3    0    0 -0.72306602361E+01 -0.33525297098E+02  0.13144965977E+02  0.36728982065E+02  0.00000000000E+00 0.  1.
         13    1    3    3    0    0 -0.92794038545E+01  0.60677423016E+02  0.15389392403E+02  0.63282623194E+02  0.00000000000E+00 0. -1.
         21    1    1    2  503  501 -0.16142669649E+02 -0.21986543948E+02  0.11999207131E+03  0.12305320425E+03  0.00000000000E+00 0.  1.
         -1    1    1    2    0  502  0.79981880892E+02  0.20972709373E+02  0.66076694820E+03  0.66592035233E+03  0.00000000000E+00 0.  1.
<scales pt_clust_5="13000.00000" pt_clust_6="13000.00000" pt_clust_7="13000.00000" pt_clust_8="13000.00000" pt_clust_9="27.27625" pt_clust_10="69.03904"></scales>
<clustering>
<clus scale="   27.276">  1  9  2 -1</clus>
<clus scale="   69.039">  1 10  2 -1</clus>
<clus scale="   90.434">  7  8 -1 -1</clus>
<clus scale="   91.819">  5  6 -1 -1</clus>
<clus scale="   94.394">  2  7  1 -1</clus>
<clus scale="   27.276">  1  5  2 -1</clus>
</clustering>
</event>
<event>
10    2  0.1671105E-006  0.1258190E+03  0.7546771E-02  0.1234006E+00
         21   -1    0    0  501  502  0.00000000000E+00  0.00000000000E+00  0.40712718395E+02  0.40712718395E+02  0.00000000000E+00 0.  1.
          1   -1    0    0  503    0 -0.00000000000E+00 -0.00000000000E+00 -0.10136011185E+04  0.10136011185E+04  0.00000000000E+00 0. -1.
         23    2    1    2    0    0 -0.68763141761E+02 -0.12662204441E+03 -0.43798389202E+03  0.47009068819E+03  0.91617976729E+02 0.  0.
         23    2    1    2    0    0  0.38573566585E+02  0.32362379973E+02 -0.22154216206E+03  0.24469118308E+03  0.90871347696E+02 0.  0.
        -11    1    4    4    0    0 -0.10988672085E+02  0.44355322513E+02 -0.15020988600E+03  0.15700686418E+03  0.00000000000E+00 0.  1.
         11    1    4    4    0    0  0.49562238670E+02 -0.11992942540E+02 -0.71332276065E+02  0.87684318902E+02  0.00000000000E+00 0. -1.
        -11    1    3    3    0    0  0.17938674631E+02 -0.54281569994E+02 -0.12821033787E+03  0.14037868650E+03  0.00000000000E+00 0. -1.
         11    1    3    3    0    0 -0.86701816393E+02 -0.72340474418E+02 -0.30977355415E+03  0.32971200169E+03  0.00000000000E+00 0.  1.
         21    1    1    2  503  502  0.58952192533E+02  0.54354908364E+02 -0.21698352857E+03  0.23132589292E+03  0.00000000000E+00 0. -1.
          1    1    1    2  501    0 -0.28762617356E+02  0.39904756075E+02 -0.96378817501E+02  0.10820607274E+03  0.00000000000E+00 0. -1.
<scales pt_clust_5="13000.00000" pt_clust_6="13000.00000" pt_clust_7="13000.00000" pt_clust_8="13000.00000" pt_clust_9="82.02245" pt_clust_10="49.19022"></scales>
<clustering>
<clus scale="   49.190">  1 10  2 -1</clus>
<clus scale="   82.022">  2  9  1 -1</clus>
<clus scale="   90.871">  5  6 -1 -1</clus>
<clus scale="   91.618">  7  8 -1 -1</clus>
<clus scale="  125.276">  1  5  2 -1</clus>
<clus scale="   49.190">  1  5  2 -1</clus>
</clustering>
</event>
<event>
10    2  0.1671105E-006  0.1588460E+03  0.7546771E-02  0.1192977E+00
         21   -1    0    0  503  502  0.00000000000E+00  0.00000000000E+00  0.19683878001E+03  0.19683878001E+03  0.00000000000E+00 0. -1.
         -1   -1    0    0    0  501 -0.00000000000E+00 -0.00000000000E+00 -0.73126530130E+03  0.73126530130E+03  0.00000000000E+00 0.  1.
         23    2    1    2    0    0 -0.44361117386E+02 -0.11943943848E+03 -0.39235135160E+03  0.41895306248E+03  0.73132737263E+02 0.  0.
         23    2    1    2    0    0  0.15712776242E+03  0.16584432075E+03  0.63344296952E+02  0.25426648299E+03  0.91899248994E+02 0.  0.
        -13    1    3    3    0    0 -0.52878776415E+02 -0.38632828721E+02 -0.18505177879E+03  0.19629778726E+03  0.00000000000E+00 0.  1.
         13    1    3    3    0    0  0.85176590290E+01 -0.80806609760E+02 -0.20729957281E+03  0.22265527522E+03  0.00000000000E+00 0. -1.
        -13    1    4    4    0    0  0.43717795798E+02 -0.14179755775E+01  0.17049715904E+02  0.46946236660E+02  0.00000000000E+00 0.  1.
         13    1    4    4    0    0  0.11340996662E+03  0.16726229633E+03  0.46294581048E+02  0.20732024633E+03  0.00000000000E+00 0. -1.
         21    1    1    2  503  501 -0.19057601023E+02  0.23326633254E+02 -0.21499546868E+02  0.37007492366E+02  0.00000000000E+00 0.  1.
         -1    1    1    2    0  502 -0.93709044009E+02 -0.69731515525E+02 -0.18391991977E+03  0.21787704347E+03  0.00000000000E+00 0.  1.
<scales pt_clust_5="13000.00000" pt_clust_6="13000.00000" pt_clust_7="13000.00000" pt_clust_8="13000.00000" pt_clust_9="30.12182" pt_clust_10="117.51318"></scales>
<clustering>
<clus scale="   30.122">  2  9  1 -1</clus>
<clus scale="   73.133">  5  6 -1 -1</clus>
<clus scale="   91.899">  7  8 -1 -1</clus>
<clus scale="  117.513">  1 10  2 -1</clus>
<clus scale="  148.778">  2  5  1 -1</clus>
<clus scale="  117.513">  1  5  2 -1</clus>
</clustering>
</event>
<event>
10    2  0.1671105E-006  0.1404542E+03  0.7546771E-02  0.1213671E+00
         -1   -1    0    0    0  501 -0.00000000000E+00  0.00000000000E+00  0.29254533753E+03  0.29254533753E+03  0.00000000000E+00 0.  1.
         21   -1    0    0  503  502  0.00000000000E+00 -0.00000000000E+00 -0.13792563244E+03  0.13792563244E+03  0.00000000000E+00 0.  1.
         23    2    1    2    0    0  0.74713691574E+02 -0.33936332115E+02  0.75088442965E+02  0.14683657763E+03  0.95858728958E+02 0.  0.
         23    2    1    2    0    0 -0.10692602558E+03  0.76340432169E+02 -0.81414066319E+01  0.16041989748E+03  0.91690918167E+02 0.  0.
        -11    1    3    3    0    0  0.20279998963E+01 -0.33306503054E+02 -0.10088732260E+02  0.34859983475E+02  0.00000000000E+00 0. -1.
         11    1    3    3    0    0  0.72685691678E+02 -0.62982906054E+00  0.85177175226E+02  0.11197659416E+03  0.00000000000E+00 0.  1.
        -11    1    4    4    0    0 -0.35076659553E+02  0.53941121799E+02  0.35434458296E+02  0.73454867103E+02  0.00000000000E+00 0. -1.
         11    1    4    4    0    0 -0.71849366030E+02  0.22399310369E+02 -0.43575864928E+02  0.86965030375E+02  0.00000000000E+00 0.  1.
         21    1    1    2  503  501 -0.59317010183E+01 -0.45801586333E+02  0.34314953406E+02  0.57536826596E+02  0.00000000000E+00 0.  1.
         -1    1    1    2    0  502  0.38144035027E+02  0.33974862786E+01  0.53357715348E+02  0.65677668262E+02  0.00000000000E+00 0.  1.
<scales pt_clust_5="13000.00000" pt_clust_6="13000.00000" pt_clust_7="13000.00000" pt_clust_8="13000.00000" pt_clust_9="45.57476" pt_clust_10="38.29506"></scales>
<clustering>
<clus scale="   38.295">  2 10  1 -1</clus>
<clus scale="   45.575">  1  9  2 -1</clus>
<clus scale="   91.691">  7  8 -1 -1</clus>
<clus scale="   95.859">  5  6 -1 -1</clus>
<clus scale="  137.643">  2  7  1 -1</clus>
<clus scale="   38.295">  2  5  1 -1</clus>
</clustering>
</event>
<event>
10    2  0.1671105E-006  0.3288356E+03  0.7546771E-02  0.1071679E+00
          2   -1    0    0  502    0 -0.00000000000E+00  0.00000000000E+00  0.43394756125E+03  0.43394756125E+03  0.00000000000E+00 0. -1.
         21   -1    0    0  503  502  0.00000000000E+00 -0.00000000000E+00 -0.43164606641E+03  0.43164606641E+03  0.00000000000E+00 0. -1.
         23    2    1    2    0    0 -0.33975801680E+03  0.20300903324E+03  0.88916029254E+02  0.41602106823E+03  0.92300007565E+02 0.  0.
         23    2    1    2    0    0  0.18777235513E+03 -0.11542885026E+03 -0.12093934843E+03  0.26753861304E+03  0.91478449083E+02 0.  0.
        -13    1    3    3    0    0 -0.29007993734E+03  0.20175814971E+03  0.59634760152E+02  0.35834205117E+03  0.00000000000E+00 0.  1.
         13    1    3    3    0    0 -0.49678079467E+02  0.12508835333E+01  0.29281269103E+02  0.57679017063E+02  0.00000000000E+00 0. -1.
        -13    1    4    4    0    0  0.39277859547E+02 -0.17950571394E+02 -0.70861621169E+02  0.82983990134E+02  0.00000000000E+00 0. -1.
         13    1    4    4    0    0  0.14849449558E+03 -0.97478278862E+02 -0.50077727260E+02  0.18455462291E+03  0.00000000000E+00 0.  1.
         21    1    1    2  503  501  0.35254682950E+02 -0.37304533487E+02  0.47947543408E+01  0.51551048076E+02  0.00000000000E+00 0. -1.
          2    1    1    2  501    0  0.11673097872E+03 -0.50275649501E+02  0.29530059680E+02  0.13048289831E+03  0.00000000000E+00 0. -1.
<scales pt_clust_5="13000.00000" pt_clust_6="13000.00000" pt_clust_7="13000.00000" pt_clust_8="13000.00000" pt_clust_9="21.90575" pt_clust_10="178.76856"></scales>
<clustering>
<clus scale="   21.906">  9 10 -1 -1</clus>
<clus scale="   91.478">  7  8 -1 -1</clus>
<clus scale="   92.300">  5  6 -1 -1</clus>
<clus scale="  178.769">  2  9  1 -1</clus>
<clus scale="  328.606">  2  7  1 -1</clus>
<clus scale="  178.769">  2  5  1 -1</clus>
</clustering>
</event>
<event>
10    2  0.1671105E-006  0.1000921E+03  0.7546771E-02  0.1282514E+00
         21   -1    0    0  501  502  0.00000000000E+00  0.00000000000E+00  0.10862015443E+04  0.10862015443E+04  0.00000000000E+00 0.  1.
         -4   -1    0    0    0  501 -0.00000000000E+00 -0.00000000000E+00 -0.16724441642E+02  0.16724441642E+02  0.00000000000E+00 0.  1.
         23    2    1    2    0    0 -0.47198638688E+02  0.18414796292E+02  0.27633428601E+03  0.29460595123E+03  0.88686034195E+02 0.  0.
         23    2    1    2    0    0  0.15253655685E+02  0.24047741321E+02  0.49610474185E+03  0.50564101980E+03  0.93498439269E+02 0.  0.
        -13    1    4    4    0    0  0.35091864004E+02 -0.25861907700E+02  0.24630470377E+03  0.25013253344E+03  0.00000000000E+00 0.  1.
         13    1    4    4    0    0 -0.19838208319E+02  0.49909649021E+02  0.24980003808E+03  0.25550848636E+03  0.00000000000E+00 0. -1.
        -13    1    3    3    0    0 -0.67730392837E+02  0.34035867838E+02  0.19229568747E+03  0.20669658399E+03  0.00000000000E+00 0.  1.
         13    1    3    3    0    0  0.20531754149E+02 -0.15621071546E+02  0.84038598544E+02  0.87909367247E+02  0.00000000000E+00 0. -1.
         21    1    1    2  503  502  0.18970478062E+02 -0.13445096788E+02  0.17631069344E+03  0.17783731411E+03  0.00000000000E+00 0.  1.
         -4    1    1    2    0  503  0.12974504942E+02 -0.29017440825E+02  0.12072738136E+03  0.12484170081E+03  0.00000000000E+00 0.  1.
<scales pt_clust_5="13000.00000" pt_clust_6="13000.00000" pt_clust_7="13000.00000" pt_clust_8="13000.00000" pt_clust_9="20.22925" pt_clust_10="58.16329"></scales>
<clustering>
<clus scale="   20.229">  9 10 -1 -1</clus>
<clus scale="   58.163">  1  9  2 -1</clus>
<clus scale="   88.686">  7  8 -1 -1</clus>
<clus scale="   93.498">  5  6 -1 -1</clus>
<clus scale="   95.612">  2  7  1 -1</clus>
<clus scale="   58.163">  1  5  2 -1</clus>
</clustering>
</event>
<event>
10    2  0.1671105E-006  0.1387159E+03  0.7546771E-02  0.1216743E+00
         21   -1    0    0  503  502  0.00000000000E+00  0.00000000000E+00  0.19021004415E+02  0.19021004415E+02  0.00000000000E+00 0.  1.
          1   -1    0    0  502    0 -0.00000000000E+00 -0.00000000000E+00 -0.15404468218E+04  0.15404468218E+04  0.00000000000E+00 0. -1.
         23    2    1    2    0    0  0.86682660974E+02  0.19437276281E+01 -0.66665495464E+03  0.67845870104E+03  0.91431497178E+02 0.  0.
         23    2    1    2    0    0 -0.11213559315E+03  0.43294285407E+02 -0.63828866523E+03  0.65691458549E+03  0.98364455347E+02 0.  0.
        -11    1    4    4    0    0 -0.29492309346E+02  0.56433185787E+02 -0.17718322146E+03  0.18827744086E+03  0.00000000000E+00 0.  1.
         11    1    4    4    0    0 -0.82643283806E+02 -0.13138900380E+02 -0.46110544376E+03  0.46863714463E+03  0.00000000000E+00 0. -1.
        -11    1    3    3    0    0  0.83195013360E+02 -0.32277582969E+02 -0.53462111222E+03  0.54201751470E+03  0.00000000000E+00 0. -1.
         11    1    3    3    0    0  0.34876476139E+01  0.34221310597E+02 -0.13203384242E+03  0.13644118634E+03  0.00000000000E+00 0.  1.
         21    1    1    2  503  501  0.18209760128E+02 -0.16724981804E+02 -0.13966782709E+03  0.14183942437E+03  0.00000000000E+00 0. -1.
          1    1    1    2  501    0  0.72431720502E+01 -0.28513031231E+02 -0.76814370379E+02  0.82255115270E+02  0.00000000000E+00 0. -1.
<scales pt_clust_5="13000.00000" pt_clust_6="13000.00000" pt_clust_7="13000.00000" pt_clust_8="13000.00000" pt_clust_9="23.54293" pt_clust_10="57.91218"></scales>
<clustering>
<clus scale="   23.543">  9 10 -1 -1</clus>
<clus scale="   57.912">  1  9  2 -1</clus>
<clus scale="   91.431">  7  8 -1 -1</clus>
<clus scale="   98.364">  5  6 -1 -1</clus>
<clus scale="  133.889">  2  7  1 -1</clus>
<clus scale="   57.912">  1  5  2 -1</clus>
</clustering>
</event>
<event>
10    2  0.1671105E-006  0.1563570E+03  0.7546771E-02  0.1216843E+00
         21   -1    0    0  501  502  0.00000000000E+00  0.00000000000E+00  0.21778924696E+04  0.21778924696E+04  0.00000000000E+00 0. -1.
          1   -1    0    0  503    0 -0.00000000000E+00 -0.00000000000E+00 -0.27228745966E+03  0.27228745966E+03  0.00000000000E+00 0. -1.
         23    2    1    2    0    0  0.43165718436E+02 -0.78268875432E+01 -0.24147660216E+03  0.25887172463E+03  0.82335174753E+02 0.  0.
         23    2    1    2    0    0  0.21317892721E+02  0.96912547895E+02  0.47338407685E+03  0.49186152139E+03  0.89379961524E+02 0.  0.
        -11    1    3    3    0    0 -0.14343605655E+02 -0.25786653142E+02 -0.49130046588E+02  0.57310138555E+02  0.00000000000E+00 0.  1.
         11    1    3    3    0    0  0.57509324091E+02  0.17959765599E+02 -0.19234655558E+03  0.20156158607E+03  0.00000000000E+00 0. -1.
        -11    1    4    4    0    0 -0.20805063281E+02  0.69172681045E+02  0.17625890315E+03  0.19048598741E+03  0.00000000000E+00 0. -1.
         11    1    4    4    0    0  0.42122956002E+02  0.27739866850E+02  0.29712517370E+03  0.30137553398E+03  0.00000000000E+00 0.  1.
         21    1    1    2  503  502  0.84329632789E+02  0.43941346937E+02  0.53130917084E+03  0.53975157615E+03  0.00000000000E+00 0. -1.
          1    1    1    2  501    0 -0.14881324395E+03 -0.13302700729E+03  0.11423883645E+04  0.11596951071E+04  0.00000000000E+00 0. -1.
<scales pt_clust_5="13000.00000" pt_clust_6="13000.00000" pt_clust_7="13000.00000" pt_clust_8="13000.00000" pt_clust_9="101.83756" pt_clust_10="128.29154"></scales>
<clustering>
<clus scale="   82.335">  5  6 -1 -1</clus>
<clus scale="   89.380">  7  8 -1 -1</clus>
<clus scale="   93.293">  2  5  1 -1</clus>
<clus scale="  101.838">  1  9  2 -1</clus>
<clus scale="  128.292">  1 10  2 -1</clus>
<clus scale="  101.838">  1  5  2 -1</clus>
</clustering>
</event>
<event>
10    2  0.1671105E-006  0.1004611E+03  0.7546771E-02  0.1279809E+00
         -1   -1    0    0    0  501 -0.00000000000E+00  0.00000000000E+00  0.17645974650E+03  0.17645974650E+03  0.00000000000E+00 0.  1.
         21   -1    0    0  503  502  0.00000000000E+00 -0.00000000000E+00 -0.14011272205E+03  0.14011272205E+03  0.00000000000E+00 0.  1.
         23    2    1    2    0    0  0.58516358623E+01  0.28060880666E+02  0.42626163442E+02  0.10492839002E+03  0.91494931860E+02 0.  0.
         23    2    1    2    0    0  0.37651517308E+02 -0.50460707470E+02  0.54453505788E+02  0.12295453795E+03  0.90491515374E+02 0.  0.
        -13    1    4    4    0    0  0.90398203630E+01 -0.41622157082E+02 -0.16705308996E+02  0.45751389716E+02  0.00000000000E+00 0. -1.
         13    1    4    4    0    0  0.28611696945E+02 -0.88385503884E+01  0.71158814784E+02  0.77203148229E+02  0.00000000000E+00 0.  1.
        -13    1    3    3    0    0  0.14997671114E+02 -0.31485327962E+02  0.22078759980E+02  0.41276235995E+02  0.00000000000E+00 0. -1.
         13    1    3    3    0    0 -0.91460352518E+01  0.59546208627E+02  0.20547403463E+02  0.63652154023E+02  0.00000000000E+00 0.  1.
         21    1    1    2  503  501 -0.13992011910E+02  0.19485515902E+02 -0.35165934385E+01  0.24245167698E+02  0.00000000000E+00 0.  1.
         -1    1    1    2    0  502 -0.29511141260E+02  0.29143109023E+01 -0.57216051342E+02  0.64444372894E+02  0.00000000000E+00 0.  1.
<scales pt_clust_5="13000.00000" pt_clust_6="13000.00000" pt_clust_7="13000.00000" pt_clust_8="13000.00000" pt_clust_9="23.98878" pt_clust_10="38.28488"></scales>
<clustering>
<clus scale="   23.989">  2  9  1 -1</clus>
<clus scale="   38.285">  2 10  1 -1</clus>
<clus scale="   90.492">  5  6 -1 -1</clus>
<clus scale="   91.495">  7  8 -1 -1</clus>
<clus scale="   99.548">  2  5  1 -1</clus>
<clus scale="   23.989">  2  5  1 -1</clus>
</clustering>
</event>
<event>
10    2  0.1671105E-006  0.1612621E+03  0.7546771E-02  0.1204902E+00
         21   -1    0    0  503  502  0.00000000000E+00  0.00000000000E+00  0.35549534347E+03  0.35549534347E+03  0.00000000000E+00 0.  1.
         -1   -1    0    0    0  501 -0.00000000000E+00 -0.00000000000E+00 -0.43586591846E+03  0.43586591846E+03  0.00000000000E+00 0.  1.
         23    2    1    2    0    0 -0.68821237614E+02 -0.73214241112E+02 -0.24366232853E+03  0.27905769716E+03  0.91679769591E+02 0.  0.
         23    2    1    2    0    0  0.11649524761E+03 -0.65327652226E+01 -0.47760978398E+02  0.15545186798E+03  0.90941478235E+02 0.  0.
        -11    1    3    3    0    0 -0.56276999232E+01 -0.49595657020E+02 -0.38349223637E+02  0.62944921600E+02  0.00000000000E+00 0.  1.
         11    1    3    3    0    0 -0.63193537691E+02 -0.23618584092E+02 -0.20531310489E+03  0.21611277556E+03  0.00000000000E+00 0. -1.
        -13    1    4    4    0    0  0.51413012221E+02  0.10569340747E+01 -0.69464529158E+02  0.86427633003E+02  0.00000000000E+00 0.  1.
         13    1    4    4    0    0  0.65082235384E+02 -0.75896992974E+01  0.21703550760E+02  0.69024234973E+02  0.00000000000E+00 0. -1.
         21    1    1    2  503  501  0.77148518576E+02  0.22102881334E+02 -0.24673082679E+02  0.83959468141E+02  0.00000000000E+00 0.  1.
         -1    1    1    2    0  502 -0.12482252857E+03  0.57644125000E+02  0.23572581461E+03  0.27289222866E+03  0.00000000000E+00 0.  1.
<scales pt_clust_5="13000.00000" pt_clust_6="13000.00000" pt_clust_7="13000.00000" pt_clust_8="13000.00000" pt_clust_9="80.25230" pt_clust_10="133.17325"></scales>
<clustering>
<clus scale="   80.252">  2  9  1 -1</clus>
<clus scale="   90.941">  7  8 -1 -1</clus>
<clus scale="   91.680">  5  6 -1 -1</clus>
<clus scale="  109.695">  2  5  1 -1</clus>
<clus scale="  133.173">  1 10  2 -1</clus>
<clus scale="  133.173">  1  5  2 -1</clus>
</clustering>
</event>
<event>
10    2  0.1671105E-006  0.9895145E+02  0.7546771E-02  0.1282562E+00
         21   -1    0    0  501  502  0.00000000000E+00  0.00000000000E+00  0.20452511920E+03  0.20452511920E+03  0.00000000000E+00 0.  1.
          1   -1    0    0  503    0 -0.00000000000E+00 -0.00000000000E+00 -0.26621336071E+03  0.26621336071E+03  0.00000000000E+00 0. -1.
         23    2    1    2    0    0 -0.45573601325E+02  0.78695314099E+00 -0.19969511869E+03  0.22394639885E+03  0.90533290533E+02 0.  0.
         23    2    1    2    0    0  0.75224981031E+00  0.42924530324E+02  0.42352545212E+02  0.10885734071E+03  0.90626162648E+02 0.  0.
        -11    1    4    4    0    0  0.21580260086E+02  0.10979819382E+02  0.61565695715E+02  0.66155868583E+02  0.00000000000E+00 0.  1.
         11    1    4    4    0    0 -0.20828010275E+02  0.31944710942E+02 -0.19213150504E+02  0.42701472123E+02  0.00000000000E+00 0. -1.
        -13    1    3    3    0    0 -0.61784733992E+02  0.22163180969E+02 -0.17709355994E+03  0.18886685500E+03  0.00000000000E+00 0. -1.
         13    1    3    3    0    0  0.16211132667E+02 -0.21376227828E+02 -0.22601558747E+02  0.35079543844E+02  0.00000000000E+00 0.  1.
         21    1    1    2  503  502  0.66418845633E+02 -0.29908735936E+02  0.62166365997E+02  0.95763524380E+02  0.00000000000E+00 0.  1.
          1    1    1    2  501    0 -0.21597494118E+02 -0.13802747529E+02  0.33487965974E+02  0.42171215973E+02  0.00000000000E+00 0. -1.
<scales pt_clust_5="13000.00000" pt_clust_6="13000.00000" pt_clust_7="13000.00000" pt_clust_8="13000.00000" pt_clust_9="66.97376" pt_clust_10="25.63138"></scales>
<clustering>
<clus scale="   25.631">  1 10  2 -1</clus>
<clus scale="   66.974">  1  9  2 -1</clus>
<clus scale="   90.533">  7  8 -1 -1</clus>
<clus scale="   90.626">  5  6 -1 -1</clus>
<clus scale="   98.866">  2  7  1 -1</clus>
<clus scale="   25.631">  1  5  2 -1</clus>
</clustering>
</event>
<event>
10    2  0.1671105E-006  0.2147730E+03  0.7546771E-02  0.1138172E+00
          2   -1    0    0  503    0 -0.00000000000E+00  0.00000000000E+00  0.67165997245E+03  0.67165997245E+03  0.00000000000E+00 0. -1.
         21   -1    0    0  501  502  0.00000000000E+00 -0.00000000000E+00 -0.40060760394E+03  0.40060760394E+03  0.00000000000E+00 0. -1.
         23    2    1    2    0    0 -0.10379350638E+03 -0.20253059543E+03  0.27994438421E+03  0.37210179857E+03  0.91099704696E+02 0.  0.
         23    2    1    2    0    0  0.22751451870E+03  0.86098926392E+00  0.23606846068E+03  0.33920337662E+03  0.86988591535E+02 0.  0.
        -13    1    4    4    0    0  0.26023040091E+02 -0.10608733922E+02  0.77827067777E+02  0.82745370443E+02  0.00000000000E+00 0.  1.
         13    1    4    4    0    0  0.20149147861E+03  0.11469723186E+02  0.15824139291E+03  0.25645800617E+03  0.00000000000E+00 0. -1.
        -13    1    3    3    0    0 -0.10636006280E+03 -0.13642487266E+03  0.16268123960E+03  0.23746451221E+03  0.00000000000E+00 0. -1.
         13    1    3    3    0    0  0.25665564263E+01 -0.66105722771E+02  0.11726314461E+03  0.13463728636E+03  0.00000000000E+00 0.  1.
         21    1    1    2  503  502 -0.52784313471E+02  0.47852056563E+01 -0.29759095502E+02  0.60783926386E+02  0.00000000000E+00 0. -1.
          2    1    1    2  501    0 -0.70936698850E+02  0.19688440051E+03 -0.21520138089E+03  0.30017847482E+03  0.00000000000E+00 0. -1.
<scales pt_clust_5="13000.00000" pt_clust_6="13000.00000" pt_clust_7="13000.00000" pt_clust_8="13000.00000" pt_clust_9="53.00077" pt_clust_10="228.18873"></scales>
<clustering>
<clus scale="   53.001">  2  9  1 -1</clus>
<clus scale="   86.989">  5  6 -1 -1</clus>
<clus scale="   91.100">  7  8 -1 -1</clus>
<clus scale="  228.189">  2 10  1 -1</clus>
<clus scale="  213.062">  2  5  1 -1</clus>
<clus scale="   53.001">  2  5  1 -1</clus>
</clustering>
</event>
<event>
10    2  0.1671105E-006  0.9507606E+02  0.7546771E-02  0.1292156E+00
         -2   -1    0    0    0  501 -0.00000000000E+00  0.00000000000E+00  0.68258756168E+03  0.68258756168E+03  0.00000000000E+00 0.  1.
         21   -1    0    0  503  502  0.00000000000E+00 -0.00000000000E+00 -0.78284177856E+02  0.78284177856E+02  0.00000000000E+00 0.  1.
         23    2    1    2    0    0  0.23891371397E+02  0.24683342938E+02  0.44969654236E+03  0.46027929479E+03  0.91923794276E+02 0.  0.
         23    2    1    2    0    0  0.35788748177E+02  0.36092496110E+02  0.28053568762E+02  0.10695691269E+03  0.89829147170E+02 0.  0.
        -13    1    4    4    0    0  0.36862703604E+02  0.16470426804E+01 -0.24369779594E+02  0.44220558839E+02  0.00000000000E+00 0.  1.
         13    1    4    4    0    0 -0.10739554264E+01  0.34445453430E+02  0.52423348356E+02  0.62736353855E+02  0.00000000000E+00 0. -1.
        -13    1    3    3    0    0 -0.62321245001E+01 -0.31956923848E+02  0.11655767678E+03  0.12101973547E+03  0.00000000000E+00 0. -1.
         13    1    3    3    0    0  0.30123495897E+02  0.56640266786E+02  0.33313886558E+03  0.33925955931E+03  0.00000000000E+00 0.  1.
         21    1    1    2  503  501 -0.43896197380E+02 -0.94053511780E+02  0.66760847698E+02  0.12340968361E+03  0.00000000000E+00 0. -1.
         -2    1    1    2    0  502 -0.15783922195E+02  0.33277672732E+02  0.59792425004E+02  0.70225848448E+02  0.00000000000E+00 0.  1.
<scales pt_clust_5="13000.00000" pt_clust_6="13000.00000" pt_clust_7="13000.00000" pt_clust_8="13000.00000" pt_clust_9="95.32770" pt_clust_10="36.83120"></scales>
<clustering>
<clus scale="   36.831">  2 10  1 -1</clus>
<clus scale="   89.829">  5  6 -1 -1</clus>
<clus scale="   91.924">  7  8 -1 -1</clus>
<clus scale="   95.328">  2  9  1 -1</clus>
<clus scale="   93.052">  2  5  1 -1</clus>
<clus scale="   36.831">  2  5  1 -1</clus>
</clustering>
</event>
<event>
10    2  0.1671105E-006  0.1003049E+03  0.7546771E-02  0.1280235E+00
          2   -1    0    0  503    0 -0.00000000000E+00  0.00000000000E+00  0.55505708251E+03  0.55505708251E+03  0.00000000000E+00 0. -1.
         21   -1    0    0  501  502  0.00000000000E+00 -0.00000000000E+00 -0.52506158113E+02  0.52506158113E+02  0.00000000000E+00 0.  1.
         23    2    1    2    0    0 -0.53954471915E+02 -0.22713141983E+02  0.31961553983E+03  0.33717698478E+03  0.90040290493E+02 0.  0.
         23    2    1    2    0    0 -0.22634533168E+02  0.29484135082E+02  0.44312692818E+02  0.10598757301E+03  0.88815058268E+02 0.  0.
        -13    1    4    4    0    0 -0.52754782157E+02  0.37928287562E+02  0.28799044655E+02  0.71070436968E+02  0.00000000000E+00 0.  1.
         13    1    4    4    0    0  0.30120248989E+02 -0.84441524804E+01  0.15513648162E+02  0.34917136045E+02  0.00000000000E+00 0. -1.
        -13    1    3    3    0    0 -0.30502168204E+02  0.33165795908E+02  0.10717393130E+03  0.11626092995E+03  0.00000000000E+00 0. -1.
         13    1    3    3    0    0 -0.23452303711E+02 -0.55878937891E+02  0.21244160853E+03  0.22091605483E+03  0.00000000000E+00 0.  1.
         21    1    1    2  503  502  0.52316492550E+02  0.25541419280E+01  0.51412678879E+02  0.73394840304E+02  0.00000000000E+00 0. -1.
          2    1    1    2  501    0  0.24272512533E+02 -0.93251350267E+01  0.87210012874E+02  0.91003842520E+02  0.00000000000E+00 0. -1.
<scales pt_clust_5="13000.00000" pt_clust_6="13000.00000" pt_clust_7="13000.00000" pt_clust_8="13000.00000" pt_clust_9="57.59031" pt_clust_10="26.00219"></scales>
<clustering>
<clus scale="   26.002">  2 10  1 -1</clus>
<clus scale="   57.590">  2  9  1 -1</clus>
<clus scale="   88.815">  5  6 -1 -1</clus>
<clus scale="   90.040">  7  8 -1 -1</clus>
<clus scale="   99.206">  2  5  1 -1</clus>
<clus scale="   26.002">  2  5  1 -1</clus>
</clustering>
</event>
<event>
10    2  0.1671105E-006  0.2208606E+03  0.7546771E-02  0.1142895E+00
         21   -1    0    0  501  502  0.00000000000E+00  0.00000000000E+00  0.22030767052E+03  0.22030767052E+03  0.00000000000E+00 0. -1.
          1   -1    0    0  503    0 -0.00000000000E+00 -0.00000000000E+00 -0.91747430484E+03  0.91747430484E+03  0.00000000000E+00 0. -1.
         23    2    1    2    0    0 -0.35132912722E+02  0.18103825560E+03 -0.21515624373E+03  0.29743227780E+03  0.90358060570E+02 0.  0.
         23    2    1    2    0    0  0.14696576925E+03 -0.10811427852E+03 -0.17669969155E+03  0.27036529541E+03  0.92665945296E+02 0.  0.
        -13    1    3    3    0    0 -0.49139808281E+02  0.13265402830E+03 -0.10457673013E+03  0.17592073347E+03  0.00000000000E+00 0.  1.
         13    1    3    3    0    0  0.14006895559E+02  0.48384227306E+02 -0.11057951360E+03  0.12151154432E+03  0.00000000000E+00 0. -1.
        -13    1    4    4    0    0  0.67207432931E+02 -0.10499319443E+03 -0.10260779599E+03  0.16145825998E+03  0.00000000000E+00 0. -1.
         13    1    4    4    0    0  0.79758336316E+02 -0.31210840856E+01 -0.74091895556E+02  0.10890703542E+03  0.00000000000E+00 0.  1.
         21    1    1    2  503  502 -0.27105346131E+03  0.54852886571E+02 -0.16130991962E+03  0.32015575619E+03  0.00000000000E+00 0. -1.
          1    1    1    2  501    0  0.15922060479E+03 -0.12777686365E+03 -0.14400077942E+03  0.24982864597E+03  0.00000000000E+00 0. -1.
<scales pt_clust_5="13000.00000" pt_clust_6="13000.00000" pt_clust_7="13000.00000" pt_clust_8="13000.00000" pt_clust_9="200.48047" pt_clust_10="204.15222"></scales>
<clustering>
<clus scale="   90.358">  5  6 -1 -1</clus>
<clus scale="   92.666">  7  8 -1 -1</clus>
<clus scale="  204.152">  1 10  2 -1</clus>
<clus scale="  174.847">  2  5  1 -1</clus>
<clus scale="  200.480">  1  9  2 -1</clus>
<clus scale="  204.152">  1  5  2 -1</clus>
</clustering>
</event>
<event>
10    2  0.1671105E-006  0.2107708E+03  0.7546771E-02  0.1161401E+00
         21   -1    0    0  501  502  0.00000000000E+00  0.00000000000E+00  0.19683573089E+03  0.19683573089E+03  0.00000000000E+00 0.  1.
          1   -1    0    0  503    0 -0.00000000000E+00 -0.00000000000E+00 -0.58430580620E+03  0.58430580620E+03  0.00000000000E+00 0. -1.
         23    2    1    2    0    0 -0.77173836167E+02  0.84918914918E+02 -0.26283380417E+03  0.29888234406E+03  0.84154761461E+02 0.  0.
         23    2    1    2    0    0  0.17297110739E+03 -0.15864647175E+03 -0.54110175887E+02  0.25788576245E+03  0.92138202461E+02 0.  0.
        -11    1    4    4    0    0  0.14629222492E+03 -0.11176699080E+03 -0.38225043268E+01  0.18414094287E+03  0.00000000000E+00 0.  1.
         11    1    4    4    0    0  0.26678882473E+02 -0.46879480949E+02 -0.50287671560E+02  0.73744819581E+02  0.00000000000E+00 0. -1.
        -11    1    3    3    0    0  0.19254100423E+01  0.52783968060E+02 -0.67535450126E+02  0.85737340242E+02  0.00000000000E+00 0.  1.
         11    1    3    3    0    0 -0.79099246209E+02  0.32134946858E+02 -0.19529835404E+03  0.21314500381E+03  0.00000000000E+00 0. -1.
         21    1    1    2  503  502  0.48172945399E+02 -0.13348297589E+01 -0.30892242443E+02  0.57242860534E+02  0.00000000000E+00 0.  1.
          1    1    1    2  501    0 -0.14397021662E+03  0.75062386589E+02 -0.39633852819E+02  0.16713057005E+03  0.00000000000E+00 0. -1.
<scales pt_clust_5="13000.00000" pt_clust_6="13000.00000" pt_clust_7="13000.00000" pt_clust_8="13000.00000" pt_clust_9="48.19144" pt_clust_10="189.56497"></scales>
<clustering>
<clus scale="   48.191">  2  9  1 -1</clus>
<clus scale="   84.155">  7  8 -1 -1</clus>
<clus scale="   92.138">  5  6 -1 -1</clus>
<clus scale="  129.975">  2  7  1 -1</clus>
<clus scale="  189.565">  1 10  2 -1</clus>
<clus scale="  189.565">  1  5  2 -1</clus>
</clustering>
</event>
<event>
10    2  0.1671105E-006  0.9811573E+02  0.7546771E-02  0.1285661E+00
          2   -1    0    0  503    0 -0.00000000000E+00  0.00000000000E+00  0.57467781846E+03  0.57467781846E+03  0.00000000000E+00 0. -1.
         21   -1    0    0  501  502  0.00000000000E+00 -0.00000000000E+00 -0.90850457373E+02  0.90850457373E+02  0.00000000000E+00 0.  1.
         23    2    1    2    0    0 -0.11212128517E+02 -0.19371310023E+02  0.30009398648E+03  0.31452830151E+03  0.91491487343E+02 0.  0.
         23    2    1    2    0    0  0.28411092934E+02  0.57075036451E+02  0.17574433596E+03  0.20698395247E+03  0.88834311883E+02 0.  0.
        -11    1    4    4    0    0  0.42218619455E+02  0.22293203481E+02  0.29713167375E+02  0.56234073884E+02  0.00000000000E+00 0. -1.
         11    1    4    4    0    0 -0.13807526520E+02  0.34781832971E+02  0.14603116859E+03  0.15074987858E+03  0.00000000000E+00 0.  1.
        -13    1    3    3    0    0  0.37549056048E+02 -0.24935286782E+02  0.14810317273E+03  0.15481036757E+03  0.00000000000E+00 0.  1.
         13    1    3    3    0    0 -0.48761184565E+02  0.55639767591E+01  0.15199081375E+03  0.15971793394E+03  0.00000000000E+00 0. -1.
         21    1    1    2  503  502  0.33213720733E+02 -0.71478828525E+02 -0.12844094758E+02  0.79858280362E+02  0.00000000000E+00 0.  1.
          2    1    1    2  501    0 -0.50412685151E+02  0.33775102097E+02  0.20833133405E+02  0.64157741491E+02  0.00000000000E+00 0. -1.
<scales pt_clust_5="13000.00000" pt_clust_6="13000.00000" pt_clust_7="13000.00000" pt_clust_8="13000.00000" pt_clust_9="48.85509" pt_clust_10="60.68110"></scales>
<clustering>
<clus scale="   60.681">  2 10  1 -1</clus>
<clus scale="   48.855">  2  9  1 -1</clus>
<clus scale="   88.834">  5  6 -1 -1</clus>
<clus scale="   91.491">  7  8 -1 -1</clus>
<clus scale="   95.643">  2  5  1 -1</clus>
<clus scale="   60.681">  2  5  1 -1</clus>
</clustering>
</event>
<event>
10    2  0.1671105E-006  0.1074331E+03  0.7546771E-02  0.1265788E+00
         21   -1    0    0  501  502  0.00000000000E+00  0.00000000000E+00  0.48330475772E+02  0.48330475772E+02  0.00000000000E+00 0.  1.
          2   -1    0    0  503    0 -0.00000000000E+00 -0.00000000000E+00 -0.57969882187E+03  0.57969882187E+03  0.00000000000E+00 0. -1.
         23    2    1    2    0    0 -0.72110292761E+02  0.45197293004E+02 -0.24302436894E+03  0.27430775089E+03  0.94557964667E+02 0.  0.
         23    2    1    2    0    0  0.14638150909E+02 -0.16109692543E+02 -0.16691966131E+03  0.19262289783E+03  0.93635515595E+02 0.  0.
        -13    1    4    4    0    0 -0.10631069892E+02  0.20463513679E+02 -0.13725841562E+03  0.13918206673E+03  0.00000000000E+00 0. -1.
         13    1    4    4    0    0  0.25269220801E+02 -0.36573206222E+02 -0.29661245688E+02  0.53440831103E+02  0.00000000000E+00 0.  1.
        -13    1    3    3    0    0  0.16727016672E+02  0.33686570562E+02 -0.74371724845E+02  0.83341055785E+02  0.00000000000E+00 0.  1.
         13    1    3    3    0    0 -0.88837309433E+02  0.11510722442E+02 -0.16865264410E+03  0.19096669511E+03  0.00000000000E+00 0. -1.
         21    1    1    2  503  502  0.36178861960E+02  0.16324537400E+02 -0.98018380137E+02  0.10574972066E+03  0.00000000000E+00 0.  1.
          2    1    1    2  501    0  0.21293279893E+02 -0.45412137861E+02 -0.23405935707E+02  0.55348928265E+02  0.00000000000E+00 0. -1.
<scales pt_clust_5="13000.00000" pt_clust_6="13000.00000" pt_clust_7="13000.00000" pt_clust_8="13000.00000" pt_clust_9="39.69132" pt_clust_10="50.31055"></scales>
<clustering>
<clus scale="   39.691">  2  9  1 -1</clus>
<clus scale="   50.311">  1 10  2 -1</clus>
<clus scale="   93.636">  5  6 -1 -1</clus>
<clus scale="   94.558">  7  8 -1 -1</clus>
<clus scale="  106.622">  1  5  2 -1</clus>
<clus scale="   50.311">  1  5  2 -1</clus>
</clustering>
</event>
<event>
10    2  0.1671105E-006  0.1523010E+03  0.7546771E-02  0.1212378E+00
         21   -1    0    0  503  502  0.00000000000E+00  0.00000000000E+00  0.91827413045E+02  0.91827413045E+02  0.00000000000E+00 0.  1.
          1   -1    0    0  502    0 -0.00000000000E+00 -0.00000000000E+00 -0.83764387432E+03  0.83764387432E+03  0.00000000000E+00 0. -1.
         23    2    1    2    0    0  0.12132491595E+01 -0.61278685657E+02 -0.53978233346E+03  0.55106983130E+03  0.92501038721E+02 0.  0.
         23    2    1    2    0    0  0.71475746666E+02  0.14519079049E+03 -0.17716741423E+03  0.25609013849E+03  0.89469091648E+02 0.  0.
        -11    1    3    3    0    0  0.23774836876E+01 -0.86003560510E+02 -0.40580971911E+03  0.41482983617E+03  0.00000000000E+00 0. -1.
         11    1    3    3    0    0 -0.11642345281E+01  0.24724874853E+02 -0.13397261435E+03  0.13623999513E+03  0.00000000000E+00 0.  1.
        -11    1    4    4    0    0  0.50287985870E+02  0.91934207857E+02 -0.16806240967E+03  0.19805492582E+03  0.00000000000E+00 0. -1.
         11    1    4    4    0    0  0.21187760796E+02  0.53256582636E+02 -0.91050045633E+01  0.58035212671E+02  0.00000000000E+00 0.  1.
         21    1    1    2  503  501 -0.45494088735E+02 -0.70342899423E+02 -0.54597678771E+01  0.83950251187E+02  0.00000000000E+00 0. -1.
          1    1    1    2  501    0 -0.27194907091E+02 -0.13569205413E+02 -0.23406945705E+02  0.38361066388E+02  0.00000000000E+00 0. -1.
<scales pt_clust_5="13000.00000" pt_clust_6="13000.00000" pt_clust_7="13000.00000" pt_clust_8="13000.00000" pt_clust_9="25.56751" pt_clust_10="130.35611"></scales>
<clustering>
<clus scale="   25.568">  9 10 -1 -1</clus>
<clus scale="   89.469">  7  8 -1 -1</clus>
<clus scale="   92.501">  5  6 -1 -1</clus>
<clus scale="  110.964">  2  5  1 -1</clus>
<clus scale="  130.356">  1  9  2 -1</clus>
<clus scale="  130.356">  1  5  2 -1</clus>
</clustering>
</event>
<event>
10    2  0.1671105E-006  0.8955714E+02  0.7546771E-02  0.1303967E+00
          1   -1    0    0  503    0 -0.00000000000E+00  0.00000000000E+00  0.34830170196E+03  0.34830170196E+03  0.00000000000E+00 0. -1.
         21   -1    0    0  501  502  0.00000000000E+00 -0.00000000000E+00 -0.62442200213E+02  0.62442200213E+02  0.00000000000E+00 0.  1.
         23    2    1    2    0    0  0.19876448693E+02  0.82032092167E+01  0.99334793981E+02  0.13527731046E+03  0.89275884621E+02 0.  0.
         23    2    1    2    0    0  0.22809693242E+02 -0.12429046852E+02  0.19025044887E+02  0.94965218616E+02  0.89340232272E+02 0.  0.
        -11    1    4    4    0    0  0.54534145058E+02 -0.15620143457E+02 -0.20175203578E+01  0.56762947837E+02  0.00000000000E+00 0.  1.
         11    1    4    4    0    0 -0.31724451816E+02  0.31910966050E+01  0.21042565245E+02  0.38202270779E+02  0.00000000000E+00 0. -1.
        -13    1    3    3    0    0  0.46638506656E+02  0.28807991684E+02  0.77970407127E+02  0.95312302855E+02  0.00000000000E+00 0. -1.
         13    1    3    3    0    0 -0.26762057963E+02 -0.20604782468E+02  0.21364386855E+02  0.39965007602E+02  0.00000000000E+00 0.  1.
         21    1    1    2  503  502 -0.22521832132E+02 -0.18091335694E+02  0.39030700957E+02  0.48558469570E+02  0.00000000000E+00 0.  1.
          1    1    1    2  501    0 -0.20164309803E+02  0.22317173329E+02  0.12846896192E+03  0.13194290353E+03  0.00000000000E+00 0. -1.
<scales pt_clust_5="13000.00000" pt_clust_6="13000.00000" pt_clust_7="13000.00000" pt_clust_8="13000.00000" pt_clust_9="28.88822" pt_clust_10="33.17127"></scales>
<clustering>
<clus scale="   28.888">  1  9  2 -1</clus>
<clus scale="   33.171">  2 10  1 -1</clus>
<clus scale="   89.276">  7  8 -1 -1</clus>
<clus scale="   89.340">  5  6 -1 -1</clus>
<clus scale="   89.493">  1  7  2 -1</clus>
<clus scale="   33.171">  2  5  1 -1</clus>
</clustering>
</event>
<event>
10    2  0.1671105E-006  0.3055629E+03  0.7546771E-02  0.1122670E+00
         21   -1    0    0  501  502  0.00000000000E+00  0.00000000000E+00  0.43573496470E+03  0.43573496470E+03  0.00000000000E+00 0.  1.
          2   -1    0    0  503    0 -0.00000000000E+00 -0.00000000000E+00 -0.44036528901E+03  0.44036528901E+03  0.00000000000E+00 0.  1.
         23    2    1    2    0    0 -0.42561079740E+02  0.20790889562E+02 -0.17961979113E+03  0.20820585673E+03  0.94035646517E+02 0.  0.
         23    2    1    2    0    0  0.32131880537E+02  0.28750050437E+03  0.16347853940E+03  0.34492660544E+03  0.92520984292E+02 0.  0.
        -13    1    3    3    0    0  0.18651552125E+02 -0.18464117424E+02 -0.20654948107E+02  0.33398067462E+02  0.00000000000E+00 0.  1.
         13    1    3    3    0    0 -0.61212631865E+02  0.39255006985E+02 -0.15896484302E+03  0.17480778927E+03  0.00000000000E+00 0. -1.
        -13    1    4    4    0    0  0.54935928713E+02  0.26766331029E+03  0.14282341449E+03  0.30831823116E+03  0.00000000000E+00 0.  1.
         13    1    4    4    0    0 -0.22804048176E+02  0.19837194079E+02  0.20655124908E+02  0.36608374275E+02  0.00000000000E+00 0. -1.
         21    1    1    2  503  502 -0.19123087608E+02 -0.11632627943E+02 -0.90250419896E+01  0.24134247356E+02  0.00000000000E+00 0.  1.
          2    1    1    2  501    0  0.29552286811E+02 -0.29665876599E+03  0.20535969403E+02  0.29883354419E+03  0.00000000000E+00 0.  1.
<scales pt_clust_5="13000.00000" pt_clust_6="13000.00000" pt_clust_7="13000.00000" pt_clust_8="13000.00000" pt_clust_9="22.38326" pt_clust_10="291.21927"></scales>
<clustering>
<clus scale="   22.383">  2  9  1 -1</clus>
<clus scale="   92.521">  7  8 -1 -1</clus>
<clus scale="   94.036">  5  6 -1 -1</clus>
<clus scale="  108.235">  2  5  1 -1</clus>
<clus scale="  291.219">  1 10  2 -1</clus>
<clus scale="  291.219">  1  5  2 -1</clus>
</clustering>
</event>
<event>
10    2  0.1671105E-006  0.2015627E+03  0.7546771E-02  0.1182772E+00
          2   -1    0    0  502    0 -0.00000000000E+00  0.00000000000E+00  0.82113420938E+03  0.82113420938E+03  0.00000000000E+00 0. -1.
         21   -1    0    0  503  502  0.00000000000E+00 -0.00000000000E+00 -0.78535858619E+02  0.78535858619E+02  0.00000000000E+00 0.  1.
         23    2    1    2    0    0  0.92747923267E+01  0.61263406733E+01  0.50884519846E+02  0.10453196748E+03  0.90631915140E+02 0.  0.
         23    2    1    2    0    0  0.12183656854E+02  0.17372998194E+03  0.43321306542E+03  0.47625053760E+03  0.93864084698E+02 0.  0.
        -11    1    3    3    0    0  0.46690738012E+02  0.12240621360E+02  0.11004892308E+02  0.49507226565E+02  0.00000000000E+00 0.  1.
         11    1    3    3    0    0 -0.37415945686E+02 -0.61142806863E+01  0.39879627538E+02  0.55024740912E+02  0.00000000000E+00 0. -1.
        -11    1    4    4    0    0 -0.39594584047E+02  0.97550147728E+02  0.21495986310E+03  0.23935643955E+03  0.00000000000E+00 0. -1.
         11    1    4    4    0    0  0.51778240901E+02  0.76179834212E+02  0.21825320232E+03  0.23689409805E+03  0.00000000000E+00 0.  1.
         21    1    1    2  503  501 -0.12072289965E+02 -0.30210503045E+02  0.23522821163E+02  0.40146454323E+02  0.00000000000E+00 0. -1.
          2    1    1    2  501    0 -0.93861592152E+01 -0.14964581957E+03  0.23497794433E+03  0.27874110860E+03  0.00000000000E+00 0. -1.
<scales pt_clust_5="13000.00000" pt_clust_6="13000.00000" pt_clust_7="13000.00000" pt_clust_8="13000.00000" pt_clust_9="21.13072" pt_clust_10="184.05141"></scales>
<clustering>
<clus scale="   21.131">  9 10 -1 -1</clus>
<clus scale="   90.632">  5  6 -1 -1</clus>
<clus scale="   91.311">  1  5  2 -1</clus>
<clus scale="   93.864">  7  8 -1 -1</clus>
<clus scale="  184.051">  2  9  1 -1</clus>
<clus scale="  184.051">  2  5  1 -1</clus>
</clustering>
</event>
<event>
10    2  0.1671105E-006  0.1329178E+03  0.7546771E-02  0.1242787E+00
         21   -1    0    0  503  502  0.00000000000E+00  0.00000000000E+00  0.17724336849E+03  0.17724336849E+03  0.00000000000E+00 0.  1.
         -3   -1    0    0    0  501 -0.00000000000E+00 -0.00000000000E+00 -0.46948293692E+03  0.46948293692E+03  0.00000000000E+00 0.  1.
         23    2    1    2    0    0  0.14357638605E+02  0.40075880053E+02 -0.24528831897E+03  0.26071205950E+03  0.77409305628E+02 0.  0.
         23    2    1    2    0    0  0.90394190494E+02 -0.17258133423E+02 -0.15799460148E+03  0.20419698077E+03  0.90912925451E+02 0.  0.
        -11    1    4    4    0    0  0.61036729216E+02 -0.30647322886E+02 -0.15778177125E+03  0.17192971835E+03  0.00000000000E+00 0.  1.
         11    1    4    4    0    0  0.29357461278E+02  0.13389189463E+02 -0.21283022779E+00  0.32267262417E+02  0.00000000000E+00 0. -1.
        -11    1    3    3    0    0  0.39381923917E+02  0.45116074032E+02 -0.13809464953E+03  0.15052085668E+03  0.00000000000E+00 0.  1.
         11    1    3    3    0    0 -0.25024285312E+02 -0.50401939795E+01 -0.10719366943E+03  0.11019120281E+03  0.00000000000E+00 0. -1.
         21    1    1    2  503  501 -0.37331360059E+02  0.32946251573E+02  0.15233245972E+02  0.52068586686E+02  0.00000000000E+00 0.  1.
         -3    1    1    2    0  502 -0.67420469040E+02 -0.55763998203E+02  0.95810106040E+02  0.12974867845E+03  0.00000000000E+00 0.  1.
<scales pt_clust_5="13000.00000" pt_clust_6="13000.00000" pt_clust_7="13000.00000" pt_clust_8="13000.00000" pt_clust_9="49.79042" pt_clust_10="96.96382"></scales>
<clustering>
<clus scale="   49.790">  1  9  2 -1</clus>
<clus scale="   77.409">  7  8 -1 -1</clus>
<clus scale="   88.858">  2  7  1 -1</clus>
<clus scale="   90.913">  5  6 -1 -1</clus>
<clus scale="   96.964">  1 10  2 -1</clus>
<clus scale="   49.790">  1  5  2 -1</clus>
</clustering>
</event>
<event>
10    2  0.1671105E-006  0.1117232E+03  0.7546771E-02  0.1259745E+00
         21   -1    0    0  503  502  0.00000000000E+00  0.00000000000E+00  0.29796241115E+03  0.29796241115E+03  0.00000000000E+00 0.  1.
         -1   -1    0    0    0  501 -0.00000000000E+00 -0.00000000000E+00 -0.10605725270E+03  0.10605725270E+03  0.00000000000E+00 0.  1.
         23    2    1    2    0    0  0.58796600646E+02  0.51727260946E+02  0.74652757607E+02  0.13906671593E+03  0.87371434048E+02 0.  0.
         23    2    1    2    0    0 -0.57997722173E+02  0.14337048726E+02  0.63474135261E+02  0.12778255038E+03  0.93435151791E+02 0.  0.
        -11    1    4    4    0    0 -0.25244293761E+02 -0.34537522915E+02  0.22015589436E+01  0.42836453149E+02  0.00000000000E+00 0. -1.
         11    1    4    4    0    0 -0.32753428412E+02  0.48874571640E+02  0.61272576317E+02  0.84946097228E+02  0.00000000000E+00 0.  1.
        -13    1    3    3    0    0  0.58072546189E+02  0.95733105455E+01  0.68889822543E+01  0.59258138447E+02  0.00000000000E+00 0.  1.
         13    1    3    3    0    0  0.72405445685E+00  0.42153950401E+02  0.67763775353E+02  0.79808577480E+02  0.00000000000E+00 0. -1.
         21    1    1    2  503  501 -0.39534766501E+02  0.99502955232E+01  0.14776640511E+02  0.43363063177E+02  0.00000000000E+00 0.  1.
         -1    1    1    2    0  502  0.38735888028E+02 -0.76014605195E+02  0.39001625073E+02  0.93807334375E+02  0.00000000000E+00 0.  1.
<scales pt_clust_5="13000.00000" pt_clust_6="13000.00000" pt_clust_7="13000.00000" pt_clust_8="13000.00000" pt_clust_9="40.76771" pt_clust_10="77.84945"></scales>
<clustering>
<clus scale="   40.768">  2  9  1 -1</clus>
<clus scale="   77.849">  1 10  2 -1</clus>
<clus scale="   87.371">  7  8 -1 -1</clus>
<clus scale="   93.435">  5  6 -1 -1</clus>
<clus scale="  106.704">  2  7  1 -1</clus>
<clus scale="   77.849">  1  5  2 -1</clus>
</clustering>
</event>
<event>
10    2  0.1671105E-006  0.9312209E+02  0.7546771E-02  0.1295626E+00
          1   -1    0    0  503    0 -0.00000000000E+00  0.00000000000E+00  0.65728175205E+03  0.65728175205E+03  0.00000000000E+00 0. -1.
         21   -1    0    0  501  502  0.00000000000E+00 -0.00000000000E+00 -0.32880189623E+02  0.32880189623E+02  0.00000000000E+00 0.  1.
         23    2    1    2    0    0 -0.19682606124E+02 -0.21382843529E+02  0.35664548542E+03  0.36921674777E+03  0.90996558073E+02 0.  0.
         23    2    1    2    0    0  0.15689043481E+02 -0.39599888685E+02  0.18616994814E+03  0.21167538902E+03  0.91284847911E+02 0.  0.
        -11    1    4    4    0    0  0.50868561040E+02 -0.39743132515E+02  0.10572684375E+03  0.12387611785E+03  0.00000000000E+00 0.  1.
         11    1    4    4    0    0 -0.35179517559E+02  0.14324382946E+00  0.80443104389E+02  0.87799271171E+02  0.00000000000E+00 0. -1.
        -11    1    3    3    0    0 -0.11788003091E+02  0.32697310338E+02  0.20711900990E+03  0.21001513132E+03  0.00000000000E+00 0. -1.
         11    1    3    3    0    0 -0.78946030325E+01 -0.54080153867E+02  0.14952647552E+03  0.15920161645E+03  0.00000000000E+00 0.  1.
         21    1    1    2  503  502  0.16350137155E+02  0.27980281804E+02  0.59290676127E+02  0.67569278747E+02  0.00000000000E+00 0. -1.
          1    1    1    2  501    0 -0.12356574512E+02  0.33002450410E+02  0.22295452732E+02  0.41700526127E+02  0.00000000000E+00 0. -1.
<scales pt_clust_5="13000.00000" pt_clust_6="13000.00000" pt_clust_7="13000.00000" pt_clust_8="13000.00000" pt_clust_9="32.40715" pt_clust_10="42.99530"></scales>
<clustering>
<clus scale="   32.407">  2  9  1 -1</clus>
<clus scale="   42.995">  2 10  1 -1</clus>
<clus scale="   90.997">  7  8 -1 -1</clus>
<clus scale="   91.285">  5  6 -1 -1</clus>
<clus scale="   92.840">  1  7  2 -1</clus>
<clus scale="   32.407">  2  5  1 -1</clus>
</clustering>
</event>
<event>
10    2  0.1671105E-006  0.1656291E+03  0.7546771E-02  0.1182529E+00
          2   -1    0    0  503    0 -0.00000000000E+00  0.00000000000E+00  0.11903862158E+04  0.11903862158E+04  0.00000000000E+00 0. -1.
         21   -1    0    0  501  502  0.00000000000E+00 -0.00000000000E+00 -0.39441490621E+02  0.39441490621E+02  0.00000000000E+00 0. -1.
         23    2    1    2    0    0 -0.53897215012E+02  0.10236015908E+03  0.38969667674E+03  0.41646667678E+03  0.90545464004E+02 0.  0.
         23    2    1    2    0    0  0.22569496103E+02 -0.17170489761E+03  0.53828644012E+03  0.57261462535E+03  0.90240032849E+02 0.  0.
        -11    1    4    4    0    0 -0.12133847119E+01 -0.88898240815E+02  0.39940679984E+03  0.40918230813E+03  0.00000000000E+00 0. -1.
         11    1    4    4    0    0  0.23782880815E+02 -0.82806656795E+02  0.13887964028E+03  0.16343231723E+03  0.00000000000E+00 0.  1.
        -13    1    3    3    0    0 -0.73924969864E+02  0.84596019365E+02  0.35671344040E+03  0.37398645192E+03  0.00000000000E+00 0. -1.
         13    1    3    3    0    0  0.20027754852E+02  0.17764139711E+02  0.32983236344E+02  0.42480224856E+02  0.00000000000E+00 0.  1.
         21    1    1    2  503  502  0.82978735345E+01  0.40237220913E+02  0.54534495643E+02  0.68278106791E+02  0.00000000000E+00 0.  1.
          2    1    1    2  501    0  0.23029845375E+02  0.29107517622E+02  0.16842711272E+03  0.17246829755E+03  0.00000000000E+00 0. -1.
<scales pt_clust_5="13000.00000" pt_clust_6="13000.00000" pt_clust_7="13000.00000" pt_clust_8="13000.00000" pt_clust_9="47.27240" pt_clust_10="37.11634"></scales>
<clustering>
<clus scale="   37.116">  2 10  1 -1</clus>
<clus scale="   47.272">  2  9  1 -1</clus>
<clus scale="   90.240">  5  6 -1 -1</clus>
<clus scale="   90.545">  7  8 -1 -1</clus>
<clus scale="  165.462">  2  5  1 -1</clus>
<clus scale="   37.116">  2  5  1 -1</clus>
</clustering>
</event>
<event>
10    2  0.1671105E-006  0.1460901E+03  0.7546771E-02  0.1205404E+00
          1   -1    0    0  503    0 -0.00000000000E+00  0.00000000000E+00  0.47542436918E+02  0.47542436918E+02  0.00000000000E+00 0. -1.
         21   -1    0    0  501  502  0.00000000000E+00 -0.00000000000E+00 -0.10364688346E+04  0.10364688346E+04  0.00000000000E+00 0.  1.
         23    2    1    2    0    0  0.97201738029E+02  0.68780474795E+02 -0.14729499732E+03  0.21044392895E+03  0.91716407529E+02 0.  0.
         23    2    1    2    0    0 -0.10531923534E+03 -0.22319865664E+02 -0.40260796601E+03  0.42668105483E+03  0.91505357855E+02 0.  0.
        -13    1    4    4    0    0 -0.43372122896E+02  0.19139833950E+02 -0.62197441136E+02  0.78204833431E+02  0.00000000000E+00 0. -1.
         13    1    4    4    0    0 -0.61947112448E+02 -0.41459699614E+02 -0.34041052488E+03  0.34847622140E+03  0.00000000000E+00 0.  1.
        -13    1    3    3    0    0  0.54405711583E+02  0.82708202992E+02 -0.12712519207E+03  0.16112554966E+03  0.00000000000E+00 0. -1.
         13    1    3    3    0    0  0.42796026446E+02 -0.13927728197E+02 -0.20169805246E+02  0.49318379292E+02  0.00000000000E+00 0.  1.
         21    1    1    2  503  502 -0.20617377365E+02 -0.47353601472E+02 -0.21982836928E+03  0.22581397601E+03  0.00000000000E+00 0. -1.
          1    1    1    2  501    0  0.28734874681E+02  0.89299234139E+00 -0.21919506506E+03  0.22107231171E+03  0.00000000000E+00 0. -1.
<scales pt_clust_5="13000.00000" pt_clust_6="13000.00000" pt_clust_7="13000.00000" pt_clust_8="13000.00000" pt_clust_9="48.81103" pt_clust_10="28.74875"></scales>
<clustering>
<clus scale="   28.749">  2 10  1 -1</clus>
<clus scale="   48.811">  2  9  1 -1</clus>
<clus scale="   91.505">  5  6 -1 -1</clus>
<clus scale="   91.716">  7  8 -1 -1</clus>
<clus scale="  145.958">  2  5  1 -1</clus>
<clus scale="   28.749">  2  5  1 -1</clus>
</clustering>
</event>
<event>
10    2  0.1671105E-006  0.1859645E+03  0.7546771E-02  0.1162381E+00
         -1   -1    0    0    0  501 -0.00000000000E+00  0.00000000000E+00  0.68874279479E+03  0.68874279479E+03  0.00000000000E+00 0.  1.
         21   -1    0    0  501  502  0.00000000000E+00 -0.00000000000E+00 -0.16668029114E+03  0.16668029114E+03  0.00000000000E+00 0.  1.
         23    2    1    2    0    0  0.87988359937E+02 -0.15175986401E+03  0.37262686093E+03  0.42220441404E+03  0.92912765205E+02 0.  0.
         23    2    1    2    0    0 -0.21653177830E+02  0.14710173098E+03  0.19976610887E+03  0.26510786744E+03  0.90928014154E+02 0.  0.
        -11    1    3    3    0    0  0.22325420825E+02 -0.12021351336E+03  0.19427035664E+03  0.22954451568E+03  0.00000000000E+00 0.  1.
         11    1    3    3    0    0  0.65662939112E+02 -0.31546350642E+02  0.17835650430E+03  0.19265989836E+03  0.00000000000E+00 0. -1.
        -13    1    4    4    0    0  0.53060039455E+01  0.12840693216E+03  0.10873083789E+03  0.16834158433E+03  0.00000000000E+00 0.  1.
         13    1    4    4    0    0 -0.26959181776E+02  0.18694798817E+02  0.91035270985E+02  0.96766283116E+02  0.00000000000E+00 0. -1.
         21    1    1    2  503  502 -0.18242181926E+02 -0.68370379487E+02 -0.87992328589E+01  0.71307169986E+02  0.00000000000E+00 0.  1.
         -1    1    1    2    0  503 -0.48093000181E+02  0.73028512512E+02 -0.41531233294E+02  0.96803634462E+02  0.00000000000E+00 0.  1.
<scales pt_clust_5="13000.00000" pt_clust_6="13000.00000" pt_clust_7="13000.00000" pt_clust_8="13000.00000" pt_clust_9="70.76218" pt_clust_10="68.14625"></scales>
<clustering>
<clus scale="   70.762">  2  9  1 -1</clus>
<clus scale="   68.146">  2 10  1 -1</clus>
<clus scale="   90.928">  7  8 -1 -1</clus>
<clus scale="   92.913">  5  6 -1 -1</clus>
<clus scale="  184.981">  2  7  1 -1</clus>
<clus scale="   70.762">  2  5  1 -1</clus>
</clustering>
</event>
<event>
10    2  0.1671105E-006  0.9882690E+02  0.7546771E-02  0.1283987E+00
          1   -1    0    0  502    0 -0.00000000000E+00  0.00000000000E+00  0.66634757675E+03  0.66634757675E+03  0.00000000000E+00 0. -1.
         21   -1    0    0  503  502  0.00000000000E+00 -0.00000000000E+00 -0.69086789850E+02  0.69086789850E+02  0.00000000000E+00 0. -1.
         23    2    1    2    0    0  0.13433629034E+02 -0.53403842800E+02  0.35127157451E+03  0.36684968384E+03  0.90302484221E+02 0.  0.
         23    2    1    2    0    0 -0.50190418242E+02 -0.32840791922E+02  0.22680755518E+03  0.25224832518E+03  0.92682008880E+02 0.  0.
        -11    1    3    3    0    0 -0.38794256239E+02 -0.26568391723E+02  0.16054061933E+03  0.16728468014E+03  0.00000000000E+00 0.  1.
         11    1    3    3    0    0  0.52227885273E+02 -0.26835451078E+02  0.19073095518E+03  0.19956500370E+03  0.00000000000E+00 0. -1.
        -11    1    4    4    0    0  0.19325262621E+02 -0.29899037529E+02  0.43692217481E+02  0.56359809163E+02  0.00000000000E+00 0.  1.
         11    1    4    4    0    0 -0.69515680863E+02 -0.29417543924E+01  0.18311533770E+03  0.19588851602E+03  0.00000000000E+00 0. -1.
         21    1    1    2  503  501 -0.16302379107E+02  0.36985922312E+02 -0.32275723942E+01  0.40548036172E+02  0.00000000000E+00 0. -1.
          1    1    1    2  501    0  0.53059168315E+02  0.49258712410E+02  0.22409229593E+02  0.75788321406E+02  0.00000000000E+00 0. -1.
<scales pt_clust_5="13000.00000" pt_clust_6="13000.00000" pt_clust_7="13000.00000" pt_clust_8="13000.00000" pt_clust_9="40.41938" pt_clust_10="82.74218"></scales>
<clustering>
<clus scale="   40.419">  2  9  1 -1</clus>
<clus scale="   82.742">  2 10  1 -1</clus>
<clus scale="   90.302">  5  6 -1 -1</clus>
<clus scale="   92.682">  7  8 -1 -1</clus>
<clus scale="   96.599">  1  5  2 -1</clus>
<clus scale="   40.419">  2  5  1 -1</clus>
</clustering>
</event>
<event>
10    2  0.1671105E-006  0.3839555E+03  0.7546771E-02  0.1061527E+00
          2   -1    0    0  502    0 -0.00000000000E+00  0.00000000000E+00  0.28390914834E+04  0.28390914834E+04  0.00000000000E+00 0. -1.
         21   -1    0    0  503  502  0.00000000000E+00 -0.00000000000E+00 -0.77656147166E+03  0.77656147166E+03  0.00000000000E+00 0. -1.
         23    2    1    2    0    0 -0.17236684087E+03 -0.19301283561E+03  0.17820195610E+03  0.32624618688E+03  0.87842784303E+02 0.  0.
         23    2    1    2    0    0  0.16104343625E+03  0.47305720056E+03  0.22365691171E+04  0.22936227012E+04  0.93517787218E+02 0.  0.
        -11    1    4    4    0    0 -0.30008017075E+01  0.94473983670E+02  0.48371427020E+03  0.49286289534E+03  0.00000000000E+00 0.  1.
         11    1    4    4    0    0  0.16404423795E+03  0.37858321689E+03  0.17528548469E+04  0.18007598058E+04  0.00000000000E+00 0. -1.
        -13    1    3    3    0    0 -0.71896702349E+02 -0.22941504468E+02  0.55929143904E+02  0.93933580650E+02  0.00000000000E+00 0.  1.
         13    1    3    3    0    0 -0.10047013852E+03 -0.17007133114E+03  0.12227281220E+03  0.23231260623E+03  0.00000000000E+00 0. -1.
         21    1    1    2  503  501  0.32435566800E+03 -0.27949487217E+03 -0.49264608718E+03  0.65270525519E+03  0.00000000000E+00 0. -1.
          2    1    1    2  501    0 -0.31303226338E+03 -0.54949277494E+00  0.14040502572E+03  0.34307881180E+03  0.00000000000E+00 0. -1.
<scales pt_clust_5="13000.00000" pt_clust_6="13000.00000" pt_clust_7="13000.00000" pt_clust_8="13000.00000" pt_clust_9="383.95553" pt_clust_10="13000.00000"></scales>
<clustering>
<clus scale="   87.843">  7  8 -1 -1</clus>
<clus scale="   93.518">  5  6 -1 -1</clus>
<clus scale="  273.278">  1  7  2 -1</clus>
<clus scale="  318.270">  1  5  2 -1</clus>
<clus scale="  383.956">  2  9  1 -1</clus>
<clus scale="  383.956">  2  5  1 -1</clus>
</clustering>
</event>
<event>
10    2  0.1671105E-006  0.2007267E+03  0.7546771E-02  0.1149408E+00
         21   -1    0    0  503  502  0.00000000000E+00  0.00000000000E+00  0.40975429058E+03  0.40975429058E+03  0.00000000000E+00 0.  1.
          2   -1    0    0  502    0 -0.00000000000E+00 -0.00000000000E+00 -0.20902082026E+03  0.20902082026E+03  0.00000000000E+00 0. -1.
         23    2    1    2    0    0  0.21960760810E+02  0.19628420709E+03 -0.66162090513E+02  0.22664297676E+03  0.89330015824E+02 0.  0.
         23    2    1    2    0    0  0.21781857138E+02 -0.11642581705E+03  0.24663667376E+03  0.28874313328E+03  0.92268781293E+02 0.  0.
        -11    1    3    3    0    0 -0.23620163945E+02  0.11814783962E+03 -0.63383850172E+02  0.13614087048E+03  0.00000000000E+00 0.  1.
         11    1    3    3    0    0  0.45580924755E+02  0.78136367464E+02 -0.27782403407E+01  0.90502106281E+02  0.00000000000E+00 0. -1.
        -13    1    4    4    0    0 -0.17959253656E+02 -0.10071616732E+03  0.13632093317E+03  0.17043966079E+03  0.00000000000E+00 0. -1.
         13    1    4    4    0    0  0.39741110793E+02 -0.15709649728E+02  0.11031574059E+03  0.11830347249E+03  0.00000000000E+00 0.  1.
         21    1    1    2  503  501 -0.43354986153E+01 -0.45243563528E+02  0.22855299166E+02  0.50873778009E+02  0.00000000000E+00 0. -1.
          2    1    1    2  501    0 -0.39407119332E+02 -0.34614826508E+02 -0.25964120825E+01  0.52515222783E+02  0.00000000000E+00 0. -1.
<scales pt_clust_5="13000.00000" pt_clust_6="13000.00000" pt_clust_7="13000.00000" pt_clust_8="13000.00000" pt_clust_9="41.50604" pt_clust_10="101.38478"></scales>
<clustering>
<clus scale="   41.506">  9 10 -1 -1</clus>
<clus scale="   89.330">  5  6 -1 -1</clus>
<clus scale="   92.269">  7  8 -1 -1</clus>
<clus scale="  101.385">  1  9  2 -1</clus>
<clus scale="  199.393">  2  5  1 -1</clus>
<clus scale="  101.385">  1  5  2 -1</clus>
</clustering>
</event>
<event>
10    2  0.1671105E-006  0.1195462E+03  0.7546771E-02  0.1243862E+00
         21   -1    0    0  501  502  0.00000000000E+00  0.00000000000E+00  0.10305926728E+03  0.10305926728E+03  0.00000000000E+00 0. -1.
          1   -1    0    0  503    0 -0.00000000000E+00 -0.00000000000E+00 -0.60319592670E+03  0.60319592670E+03  0.00000000000E+00 0. -1.
         23    2    1    2    0    0  0.85945288832E+02 -0.67252919625E+01 -0.47352959211E+03  0.48996171582E+03  0.91653620452E+02 0.  0.
         23    2    1    2    0    0 -0.42293377730E+02 -0.34133167150E+02 -0.62758380640E+02  0.12369689847E+03  0.91697903203E+02 0.  0.
        -11    1    3    3    0    0  0.21192856940E+02 -0.45403212760E+02 -0.20567984827E+03  0.21169503750E+03  0.00000000000E+00 0. -1.
         11    1    3    3    0    0  0.64752431892E+02  0.38677920798E+02 -0.26784974384E+03  0.27826667833E+03  0.00000000000E+00 0.  1.
        -13    1    4    4    0    0 -0.22472456695E+01 -0.30694931361E+02 -0.75500091593E+02  0.81532157796E+02  0.00000000000E+00 0. -1.
         13    1    4    4    0    0 -0.40046132061E+02 -0.34382357896E+01  0.12741710953E+02  0.42164740677E+02  0.00000000000E+00 0.  1.
         21    1    1    2  503  502 -0.86665914447E+01  0.21405807729E+02 -0.15079819435E+02  0.27581141492E+02  0.00000000000E+00 0. -1.
          1    1    1    2  501    0 -0.34985319657E+02  0.19452651384E+02  0.51231132770E+02  0.65015438184E+02  0.00000000000E+00 0. -1.
<scales pt_clust_5="13000.00000" pt_clust_6="13000.00000" pt_clust_7="13000.00000" pt_clust_8="13000.00000" pt_clust_9="23.09369" pt_clust_10="51.56273"></scales>
<clustering>
<clus scale="   23.094">  1  9  2 -1</clus>
<clus scale="   51.563">  1 10  2 -1</clus>
<clus scale="   91.654">  5  6 -1 -1</clus>
<clus scale="   91.698">  7  8 -1 -1</clus>
<clus scale="  119.512">  2  5  1 -1</clus>
<clus scale="   23.094">  1  5  2 -1</clus>
</clustering>
</event>
<event>
10    2  0.1671105E-006  0.1002641E+03  0.7546771E-02  0.1279874E+00
         21   -1    0    0  501  502  0.00000000000E+00  0.00000000000E+00  0.61880205952E+03  0.61880205952E+03  0.00000000000E+00 0.  1.
          2   -1    0    0  503    0 -0.00000000000E+00 -0.00000000000E+00 -0.63352472125E+02  0.63352472125E+02  0.00000000000E+00 0. -1.
         23    2    1    2    0    0 -0.48433124689E+01 -0.38994080228E+02  0.49327570729E+02  0.11107665794E+03  0.91437512742E+02 0.  0.
         23    2    1    2    0    0 -0.59422326132E+02  0.32601830656E+02  0.11583253964E+03  0.16223835479E+03  0.91160376929E+02 0.  0.
        -13    1    4    4    0    0 -0.75168061758E+00  0.50014686026E+02  0.68759070357E+02  0.85028486982E+02  0.00000000000E+00 0.  1.
         13    1    4    4    0    0 -0.58670645515E+02 -0.17412855370E+02  0.47073469280E+02  0.77209867810E+02  0.00000000000E+00 0. -1.
        -13    1    3    3    0    0 -0.44051877514E+02 -0.40493013706E+02  0.34909502267E+02  0.69274276755E+02  0.00000000000E+00 0. -1.
         13    1    3    3    0    0  0.39208565045E+02  0.14989334780E+01  0.14418068462E+02  0.41802381184E+02  0.00000000000E+00 0.  1.
         21    1    1    2  503  502  0.45476377914E+02  0.52918466158E+02  0.26067349088E+03  0.26985020633E+03  0.00000000000E+00 0.  1.
          2    1    1    2  501    0  0.18789260688E+02 -0.46526216586E+02  0.12961598615E+03  0.13898931258E+03  0.00000000000E+00 0. -1.
<scales pt_clust_5="13000.00000" pt_clust_6="13000.00000" pt_clust_7="13000.00000" pt_clust_8="13000.00000" pt_clust_9="62.15157" pt_clust_10="50.17694"></scales>
<clustering>
<clus scale="   50.177">  1 10  2 -1</clus>
<clus scale="   62.152">  1  9  2 -1</clus>
<clus scale="   91.160">  5  6 -1 -1</clus>
<clus scale="   91.438">  7  8 -1 -1</clus>
<clus scale="  100.011">  1  5  2 -1</clus>
<clus scale="   50.177">  1  5  2 -1</clus>
</clustering>
</event>
<event>
10    2  0.1671105E-006  0.2926635E+03  0.7546771E-02  0.1128618E+00
          1   -1    0    0  503    0 -0.00000000000E+00  0.00000000000E+00  0.12454570586E+04  0.12454570586E+04  0.00000000000E+00 0. -1.
         21   -1    0    0  501  502  0.00000000000E+00 -0.00000000000E+00 -0.12625104020E+03  0.12625104020E+03  0.00000000000E+00 0. -1.
         23    2    1    2    0    0 -0.34347020969E+02 -0.11893327936E+02  0.43692700185E+03  0.44823973550E+03  0.93233504936E+02 0.  0.
         23    2    1    2    0    0  0.24076333162E+03 -0.17354499523E+03  0.25692249297E+03  0.40278034223E+03  0.90210805762E+02 0.  0.
        -11    1    3    3    0    0  0.85795583449E+00 -0.47238874073E+02  0.15900782030E+03  0.16587867321E+03  0.00000000000E+00 0.  1.
         11    1    3    3    0    0 -0.35204976803E+02  0.35345546137E+02  0.27791918155E+03  0.28236106229E+03  0.00000000000E+00 0. -1.
        -13    1    4    4    0    0  0.16433257354E+03 -0.15547793818E+03  0.15554812265E+03  0.27454289728E+03  0.00000000000E+00 0. -1.
         13    1    4    4    0    0  0.76430758075E+02 -0.18067057049E+02  0.10137437032E+03  0.12823744495E+03  0.00000000000E+00 0.  1.
         21    1    1    2  503  502 -0.37017221590E+02 -0.12421272164E+02  0.69093936535E+02  0.79363308665E+02  0.00000000000E+00 0. -1.
          1    1    1    2  501    0 -0.16939908906E+03  0.19785959533E+03  0.35626258703E+03  0.44132471238E+03  0.00000000000E+00 0. -1.
<scales pt_clust_5="13000.00000" pt_clust_6="13000.00000" pt_clust_7="13000.00000" pt_clust_8="13000.00000" pt_clust_9="39.04565" pt_clust_10="278.41334"></scales>
<clustering>
<clus scale="   39.046">  1  9  2 -1</clus>
<clus scale="   90.211">  7  8 -1 -1</clus>
<clus scale="   93.234">  5  6 -1 -1</clus>
<clus scale="  106.320">  1  5  2 -1</clus>
<clus scale="  278.413">  2 10  1 -1</clus>
<clus scale="  278.413">  2  5  1 -1</clus>
</clustering>
</event>
<event>
10    2  0.1671105E-006  0.1120110E+03  0.7546771E-02  0.1260850E+00
         21   -1    0    0  503  502  0.00000000000E+00  0.00000000000E+00  0.21787748812E+03  0.21787748812E+03  0.00000000000E+00 0. -1.
          2   -1    0    0  502    0 -0.00000000000E+00 -0.00000000000E+00 -0.40712709697E+03  0.40712709697E+03  0.00000000000E+00 0. -1.
         23    2    1    2    0    0  0.62656673844E+02  0.51823062053E+01 -0.32159342048E+03  0.34239908515E+03  0.99308057790E+02 0.  0.
         23    2    1    2    0    0 -0.80974712121E+01  0.47941247498E+02 -0.23884730001E+02  0.10480972833E+03  0.89725506819E+02 0.  0.
        -11    1    4    4    0    0 -0.36230517706E+02 -0.80235289447E+00 -0.31501325696E+02  0.48016952257E+02  0.00000000000E+00 0.  1.
         11    1    4    4    0    0  0.28133046494E+02  0.48743600393E+02  0.76165956951E+01  0.56792776075E+02  0.00000000000E+00 0. -1.
        -13    1    3    3    0    0  0.87314224471E+02 -0.58046509763E+01 -0.27457997614E+03  0.28818679891E+03  0.00000000000E+00 0. -1.
         13    1    3    3    0    0 -0.24657550627E+02  0.10986957182E+02 -0.47013444337E+02  0.54212286241E+02  0.00000000000E+00 0.  1.
         21    1    1    2  503  501 -0.30226119767E+02 -0.19855342894E+02  0.37414750773E+02  0.52035723623E+02  0.00000000000E+00 0.  1.
          2    1    1    2  501    0 -0.24333082866E+02 -0.33268210810E+02  0.11881379085E+03  0.12576004798E+03  0.00000000000E+00 0. -1.
<scales pt_clust_5="13000.00000" pt_clust_6="13000.00000" pt_clust_7="13000.00000" pt_clust_8="13000.00000" pt_clust_9="35.11256" pt_clust_10="84.87626"></scales>
<clustering>
<clus scale="   35.113">  9 10 -1 -1</clus>
<clus scale="   84.876">  1  9  2 -1</clus>
<clus scale="   89.726">  5  6 -1 -1</clus>
<clus scale="   99.308">  7  8 -1 -1</clus>
<clus scale="  103.610">  1  5  2 -1</clus>
<clus scale="   84.876">  1  5  2 -1</clus>
</clustering>
</event>
<event>
10    2  0.1671105E-006  0.2115959E+03  0.7546771E-02  0.1140388E+00
         21   -1    0    0  501  502  0.00000000000E+00  0.00000000000E+00  0.24996025303E+03  0.24996025303E+03  0.00000000000E+00 0.  1.
          1   -1    0    0  503    0 -0.00000000000E+00 -0.00000000000E+00 -0.82089630589E+03  0.82089630589E+03  0.00000000000E+00 0. -1.
         23    2    1    2    0    0  0.17058297766E+03  0.94445438698E+02 -0.72523111294E+03  0.75644436684E+03  0.90716149570E+02 0.  0.
         23    2    1    2    0    0 -0.13017470764E+03 -0.77296849341E+02  0.89493517488E+02  0.19832032096E+03  0.91660256411E+02 0.  0.
        -13    1    4    4    0    0 -0.73512244221E+02  0.37046297092E+01  0.60569684908E+02  0.95322930408E+02  0.00000000000E+00 0. -1.
         13    1    4    4    0    0 -0.56662463419E+02 -0.81001479050E+02  0.28923832580E+02  0.10299739055E+03  0.00000000000E+00 0.  1.
        -13    1    3    3    0    0  0.33540077479E+02  0.62081898547E+02 -0.31201971610E+03  0.31989904995E+03  0.00000000000E+00 0.  1.
         13    1    3    3    0    0  0.13704290018E+03  0.32363540151E+02 -0.41321139684E+03  0.43654531689E+03  0.00000000000E+00 0. -1.
         21    1    1    2  503  502  0.20634422777E+02 -0.34306529479E+01 -0.58497995736E+01  0.21720242587E+02  0.00000000000E+00 0.  1.
          1    1    1    2  501    0 -0.61042692795E+02 -0.13717936409E+02  0.70651342166E+02  0.94371628538E+02  0.00000000000E+00 0. -1.
<scales pt_clust_5="13000.00000" pt_clust_6="13000.00000" pt_clust_7="13000.00000" pt_clust_8="13000.00000" pt_clust_9="20.91767" pt_clust_10="56.02232"></scales>
<clustering>
<clus scale="   20.918">  1  9  2 -1</clus>
<clus scale="   56.022">  1 10  2 -1</clus>
<clus scale="   90.716">  7  8 -1 -1</clus>
<clus scale="   91.660">  5  6 -1 -1</clus>
<clus scale="  211.189">  2  7  1 -1</clus>
<clus scale="   20.918">  1  5  2 -1</clus>
</clustering>
</event>
<event>
10    2  0.1671105E-006  0.3983727E+03  0.7546771E-02  0.1044402E+00
         21   -1    0    0  503  502  0.00000000000E+00  0.00000000000E+00  0.38397949964E+03  0.38397949964E+03  0.00000000000E+00 0.  1.
          2   -1    0    0  502    0 -0.00000000000E+00 -0.00000000000E+00 -0.75723697279E+03  0.75723697279E+03  0.00000000000E+00 0. -1.
         23    2    1    2    0    0  0.34606537467E+03  0.34762777359E+03 -0.36535807206E+03  0.61834567941E+03  0.90876542096E+02 0.  0.
         23    2    1    2    0    0 -0.22269016764E+03 -0.15652081400E+03  0.51858760953E+00  0.28788361223E+03  0.93739155504E+02 0.  0.
        -11    1    4    4    0    0 -0.10285610017E+03 -0.47703562322E+02 -0.41355314931E+02  0.12068665740E+03  0.00000000000E+00 0.  1.
         11    1    4    4    0    0 -0.11983406747E+03 -0.10881725168E+03  0.41873902541E+02  0.16719695483E+03  0.00000000000E+00 0. -1.
        -13    1    3    3    0    0  0.26402336051E+03  0.27293662751E+03 -0.32645175845E+03  0.50077289077E+03  0.00000000000E+00 0. -1.
         13    1    3    3    0    0  0.82042014156E+02  0.74691146076E+02 -0.38906313615E+02  0.11757278864E+03  0.00000000000E+00 0.  1.
         21    1    1    2  503  501 -0.96424445566E+02 -0.13851652224E+03  0.19005176541E+02  0.16984021129E+03  0.00000000000E+00 0.  1.
          2    1    1    2  501    0 -0.26950761464E+02 -0.52590437347E+02 -0.27423165231E+02  0.65146969501E+02  0.00000000000E+00 0. -1.
<scales pt_clust_5="13000.00000" pt_clust_6="13000.00000" pt_clust_7="13000.00000" pt_clust_8="13000.00000" pt_clust_9="34.52751" pt_clust_10="234.83635"></scales>
<clustering>
<clus scale="   34.528">  9 10 -1 -1</clus>
<clus scale="   90.877">  7  8 -1 -1</clus>
<clus scale="   93.739">  5  6 -1 -1</clus>
<clus scale="  234.836">  1  9  2 -1</clus>
<clus scale="  397.709">  2  7  1 -1</clus>
<clus scale="  234.836">  1  5  2 -1</clus>
</clustering>
</event>
<event>
10    2  0.1671105E-006  0.1353083E+03  0.7546771E-02  0.1220356E+00
         21   -1    0    0  501  502  0.00000000000E+00  0.00000000000E+00  0.10947623735E+03  0.10947623735E+03  0.00000000000E+00 0.  1.
          2   -1    0    0  503    0 -0.00000000000E+00 -0.00000000000E+00 -0.36474653201E+03  0.36474653201E+03  0.00000000000E+00 0. -1.
         23    2    1    2    0    0  0.63252723758E+02  0.30713642551E+02 -0.19742239872E+03  0.22831442184E+03  0.90596008740E+02 0.  0.
         23    2    1    2    0    0 -0.11727834297E+03 -0.11850340030E+02 -0.29333673962E+00  0.14720224660E+03  0.88169014221E+02 0.  0.
        -11    1    4    4    0    0 -0.95949452023E+02  0.21698156136E+02  0.23137303442E+02  0.10105662835E+03  0.00000000000E+00 0.  1.
         11    1    4    4    0    0 -0.21328890943E+02 -0.33548496166E+02 -0.23430640182E+02  0.46145618245E+02  0.00000000000E+00 0. -1.
        -13    1    3    3    0    0  0.74110116572E+02  0.52141645456E+02 -0.15340479843E+03  0.17816871990E+03  0.00000000000E+00 0. -1.
         13    1    3    3    0    0 -0.10857392814E+02 -0.21428002906E+02 -0.44017600297E+02  0.50145701941E+02  0.00000000000E+00 0.  1.
         21    1    1    2  503  502  0.40391929451E+02  0.11058374218E+02 -0.49526577100E+02  0.64858904126E+02  0.00000000000E+00 0.  1.
          2    1    1    2  501    0  0.13633689757E+02 -0.29921676738E+02 -0.80279820928E+01  0.33847196807E+02  0.00000000000E+00 0. -1.
<scales pt_clust_5="13000.00000" pt_clust_6="13000.00000" pt_clust_7="13000.00000" pt_clust_8="13000.00000" pt_clust_9="42.37345" pt_clust_10="32.88137"></scales>
<clustering>
<clus scale="   32.881">  1 10  2 -1</clus>
<clus scale="   42.373">  2  9  1 -1</clus>
<clus scale="   88.169">  5  6 -1 -1</clus>
<clus scale="   90.596">  7  8 -1 -1</clus>
<clus scale="  133.695">  1  5  2 -1</clus>
<clus scale="   32.881">  1  5  2 -1</clus>
</clustering>
</event>
<event>
10    2  0.1671105E-006  0.1052291E+03  0.7546771E-02  0.1275880E+00
         21   -1    0    0  503  502  0.00000000000E+00  0.00000000000E+00  0.29159664672E+03  0.29159664672E+03  0.00000000000E+00 0.  1.
         -1   -1    0    0    0  501 -0.00000000000E+00 -0.00000000000E+00 -0.31077686033E+03  0.31077686033E+03  0.00000000000E+00 0.  1.
         23    2    1    2    0    0 -0.20581649212E+02 -0.62402126506E+01 -0.26270896447E+03  0.27888434172E+03  0.91092982728E+02 0.  0.
         23    2    1    2    0    0  0.16552756273E+02 -0.28627995282E+02  0.51432090177E+02  0.11996704445E+03  0.10321470825E+03 0.  0.
        -11    1    4    4    0    0  0.46191488433E+02 -0.45537784201E+02  0.89518817283E+01  0.65478848341E+02  0.00000000000E+00 0.  1.
         11    1    4    4    0    0 -0.29638732160E+02  0.16909788919E+02  0.42480208449E+02  0.54488196109E+02  0.00000000000E+00 0. -1.
        -11    1    3    3    0    0  0.89314647853E+01 -0.40338266777E+02 -0.17999227613E+03  0.18467313366E+03  0.00000000000E+00 0.  1.
         11    1    3    3    0    0 -0.29513113997E+02  0.34098054126E+02 -0.82716688347E+02  0.94211208060E+02  0.00000000000E+00 0. -1.
         21    1    1    2  503  501 -0.25082699288E+02  0.82889393843E+01  0.57624554599E+02  0.63391147745E+02  0.00000000000E+00 0.  1.
         -1    1    1    2    0  502  0.29111592226E+02  0.26579268548E+02  0.13447210609E+03  0.14013097314E+03  0.00000000000E+00 0.  1.
<scales pt_clust_5="13000.00000" pt_clust_6="13000.00000" pt_clust_7="13000.00000" pt_clust_8="13000.00000" pt_clust_9="26.41682" pt_clust_10="34.56007"></scales>
<clustering>
<clus scale="   26.417">  1  9  2 -1</clus>
<clus scale="   34.560">  1 10  2 -1</clus>
<clus scale="   91.093">  7  8 -1 -1</clus>
<clus scale="   93.369">  2  7  1 -1</clus>
<clus scale="  103.215">  5  6 -1 -1</clus>
<clus scale="   26.417">  1  5  2 -1</clus>
</clustering>
</event>
<event>
10    2  0.1671105E-006  0.1020084E+03  0.7546771E-02  0.1281201E+00
         21   -1    0    0  501  502  0.00000000000E+00  0.00000000000E+00  0.10121693626E+03  0.10121693626E+03  0.00000000000E+00 0. -1.
          2   -1    0    0  503    0 -0.00000000000E+00 -0.00000000000E+00 -0.53656899264E+03  0.53656899264E+03  0.00000000000E+00 0. -1.
         23    2    1    2    0    0  0.17413215526E+02 -0.40728105061E+01 -0.39379446441E+03  0.40483876549E+03  0.92198362156E+02 0.  0.
         23    2    1    2    0    0  0.48613526060E+02  0.13576838756E+02 -0.86799755715E+02  0.14287359023E+03  0.10164182075E+03 0.  0.
        -13    1    3    3    0    0  0.42967226542E+02  0.29208962464E+02 -0.21694045552E+03  0.22307511579E+03  0.00000000000E+00 0. -1.
         13    1    3    3    0    0 -0.25554011016E+02 -0.33281772970E+02 -0.17685400889E+03  0.18176364970E+03  0.00000000000E+00 0.  1.
        -13    1    4    4    0    0  0.31091143211E+02  0.56439799253E+02 -0.34760503317E+02  0.73214771165E+02  0.00000000000E+00 0.  1.
         13    1    4    4    0    0  0.17522382849E+02 -0.42862960497E+02 -0.52039252398E+02  0.69658819064E+02  0.00000000000E+00 0. -1.
         21    1    1    2  503  502 -0.39564814079E+02 -0.16856148966E+02  0.79099316275E+01  0.43727237387E+02  0.00000000000E+00 0.  1.
          2    1    1    2  501    0 -0.26461927506E+02  0.73521207165E+01  0.37332232115E+02  0.46346335789E+02  0.00000000000E+00 0. -1.
<scales pt_clust_5="13000.00000" pt_clust_6="13000.00000" pt_clust_7="13000.00000" pt_clust_8="13000.00000" pt_clust_9="52.86608" pt_clust_10="27.46429"></scales>
<clustering>
<clus scale="   27.464">  1 10  2 -1</clus>
<clus scale="   52.866">  1  9  2 -1</clus>
<clus scale="   92.198">  5  6 -1 -1</clus>
<clus scale="   92.602">  2  5  1 -1</clus>
<clus scale="  101.642">  7  8 -1 -1</clus>
<clus scale="   27.464">  1  5  2 -1</clus>
</clustering>
</event>
<event>
10    2  0.1671105E-006  0.3243492E+03  0.7546771E-02  0.1115835E+00
         21   -1    0    0  503  502  0.00000000000E+00  0.00000000000E+00  0.30468503296E+03  0.30468503296E+03  0.00000000000E+00 0. -1.
          1   -1    0    0  502    0 -0.00000000000E+00 -0.00000000000E+00 -0.75602257048E+03  0.75602257048E+03  0.00000000000E+00 0. -1.
         23    2    1    2    0    0 -0.10236274090E+02  0.66161664503E+01 -0.27053628627E+03  0.29110410380E+03  0.10678558936E+03 0.  0.
         23    2    1    2    0    0 -0.32503088461E+03 -0.57492157912E+02  0.52733117284E+02  0.34654667385E+03  0.91451579141E+02 0.  0.
        -11    1    3    3    0    0 -0.14983311547E+02  0.55557999597E+02 -0.16300550793E+03  0.17286406960E+03  0.00000000000E+00 0. -1.
         11    1    3    3    0    0  0.47470374567E+01 -0.48941833147E+02 -0.10753077834E+03  0.11824003420E+03  0.00000000000E+00 0.  1.
        -13    1    4    4    0    0 -0.13071911546E+03 -0.50574328857E+02 -0.14281093575E+02  0.14088718720E+03  0.00000000000E+00 0.  1.
         13    1    4    4    0    0 -0.19431176916E+03 -0.69178290552E+01  0.67014210859E+02  0.20565948665E+03  0.00000000000E+00 0. -1.
         21    1    1    2  503  501  0.30016211017E+02  0.40613293111E+01  0.76204944879E+01  0.31233623802E+02  0.00000000000E+00 0. -1.
          1    1    1    2  501    0  0.30525094768E+03  0.46814662150E+02 -0.24115486302E+03  0.39182320198E+03  0.00000000000E+00 0. -1.
<scales pt_clust_5="13000.00000" pt_clust_6="13000.00000" pt_clust_7="13000.00000" pt_clust_8="13000.00000" pt_clust_9="30.28972" pt_clust_10="311.18987"></scales>
<clustering>
<clus scale="   30.290">  1  9  2 -1</clus>
<clus scale="   91.452">  7  8 -1 -1</clus>
<clus scale="  106.786">  5  6 -1 -1</clus>
<clus scale="  107.390">  2  5  1 -1</clus>
<clus scale="  311.190">  1 10  2 -1</clus>
<clus scale="   30.290">  1  5  2 -1</clus>
</clustering>
</event>
<event>
10    2  0.1671105E-006  0.9684756E+02  0.7546771E-02  0.1287798E+00
         21   -1    0    0  503  502  0.00000000000E+00  0.00000000000E+00  0.41391705107E+03  0.41391705107E+03  0.00000000000E+00 0.  1.
         -3   -1    0    0    0  501 -0.00000000000E+00 -0.00000000000E+00 -0.26691159539E+03  0.26691159539E+03  0.00000000000E+00 0.  1.
         23    2    1    2    0    0  0.34665343731E+02  0.26123547627E+02 -0.13729017161E+03  0.16954544105E+03  0.89515024231E+02 0.  0.
         23    2    1    2    0    0  0.52156212314E+01 -0.31531753937E+02 -0.89070874766E+02  0.13123289656E+03  0.90923034468E+02 0.  0.
        -11    1    3    3    0    0  0.26612727299E+02  0.47659414030E+02 -0.35323068312E+02  0.65018275546E+02  0.00000000000E+00 0. -1.
         11    1    3    3    0    0  0.80526164318E+01 -0.21535866403E+02 -0.10196710329E+03  0.10452716550E+03  0.00000000000E+00 0.  1.
        -13    1    4    4    0    0  0.24717328128E+02 -0.54648780453E+02 -0.79343845164E+02  0.99462964365E+02  0.00000000000E+00 0.  1.
         13    1    4    4    0    0 -0.19501706897E+02  0.23117026516E+02 -0.97270296026E+01  0.31769932196E+02  0.00000000000E+00 0. -1.
         21    1    1    2  503  501 -0.57121308904E+01 -0.20579987458E+02  0.58618873476E+02  0.62388593915E+02  0.00000000000E+00 0.  1.
         -3    1    1    2    0  502 -0.34168834072E+02  0.25988193768E+02  0.31474762858E+03  0.31766171494E+03  0.00000000000E+00 0.  1.
<scales pt_clust_5="13000.00000" pt_clust_6="13000.00000" pt_clust_7="13000.00000" pt_clust_8="13000.00000" pt_clust_9="21.35800" pt_clust_10="40.00331"></scales>
<clustering>
<clus scale="   21.358">  1  9  2 -1</clus>
<clus scale="   40.003">  1 10  2 -1</clus>
<clus scale="   89.515">  5  6 -1 -1</clus>
<clus scale="   90.923">  7  8 -1 -1</clus>
<clus scale="   95.527">  2  5  1 -1</clus>
<clus scale="   21.358">  1  5  2 -1</clus>
</clustering>
</event>
<event>
10    2  0.1671105E-006  0.9215948E+02  0.7546771E-02  0.1300426E+00
         21   -1    0    0  503  502  0.00000000000E+00  0.00000000000E+00  0.14137250659E+03  0.14137250659E+03  0.00000000000E+00 0.  1.
          2   -1    0    0  502    0 -0.00000000000E+00 -0.00000000000E+00 -0.27479138662E+03  0.27479138662E+03  0.00000000000E+00 0. -1.
         23    2    1    2    0    0  0.20670181922E+01 -0.43588402166E+01 -0.19595817888E+03  0.21617606841E+03  0.91154882645E+02 0.  0.
         23    2    1    2    0    0 -0.35107695904E+02  0.41739664233E+02 -0.92434764110E+01  0.10274893078E+03  0.86586090324E+02 0.  0.
        -11    1    4    4    0    0 -0.46227497565E+01  0.51102776972E+02 -0.34700801630E+02  0.61943597436E+02  0.00000000000E+00 0. -1.
         11    1    4    4    0    0 -0.30484946147E+02 -0.93631127385E+01  0.25457325219E+02  0.40805333341E+02  0.00000000000E+00 0.  1.
        -11    1    3    3    0    0 -0.33855562189E+02 -0.31455882263E+02 -0.10359552084E+03  0.11343590066E+03  0.00000000000E+00 0.  1.
         11    1    3    3    0    0  0.35922580381E+02  0.27097042047E+02 -0.92362658041E+02  0.10274016775E+03  0.00000000000E+00 0. -1.
         21    1    1    2  503  501  0.10920793913E+02 -0.17280486335E+02  0.10711798508E+01  0.20470133705E+02  0.00000000000E+00 0. -1.
          2    1    1    2  501    0  0.22119883799E+02 -0.20100337682E+02  0.70711595411E+02  0.76768760312E+02  0.00000000000E+00 0. -1.
<scales pt_clust_5="13000.00000" pt_clust_6="13000.00000" pt_clust_7="13000.00000" pt_clust_8="13000.00000" pt_clust_9="20.44209" pt_clust_10="41.12844"></scales>
<clustering>
<clus scale="   20.442">  1  9  2 -1</clus>
<clus scale="   41.128">  1 10  2 -1</clus>
<clus scale="   86.586">  5  6 -1 -1</clus>
<clus scale="   87.643">  1  5  2 -1</clus>
<clus scale="   91.155">  7  8 -1 -1</clus>
<clus scale="   20.442">  1  5  2 -1</clus>
</clustering>
</event>
<event>
10    2  0.1671105E-006  0.2485040E+03  0.7546771E-02  0.1114320E+00
         21   -1    0    0  503  502  0.00000000000E+00  0.00000000000E+00  0.40871324244E+03  0.40871324244E+03  0.00000000000E+00 0.  1.
          1   -1    0    0  502    0 -0.00000000000E+00 -0.00000000000E+00 -0.25365144305E+03  0.25365144305E+03  0.00000000000E+00 0. -1.
         23    2    1    2    0    0  0.18103364729E+03  0.12618979462E+03  0.64946659110E+01  0.23896152207E+03  0.91451531573E+02 0.  0.
         23    2    1    2    0    0 -0.23411792730E+03 -0.77999888635E+02  0.99063089807E+01  0.26374991687E+03  0.92578059915E+02 0.  0.
        -11    1    3    3    0    0  0.55887605664E+02 -0.81489020888E+00  0.21820246022E+02  0.60001763719E+02  0.00000000000E+00 0.  1.
         11    1    3    3    0    0  0.12514604163E+03  0.12700468483E+03 -0.15325580111E+02  0.17895975835E+03  0.00000000000E+00 0. -1.
        -11    1    4    4    0    0 -0.13499608316E+03 -0.72755386668E+02  0.42743380351E+02  0.15919888606E+03  0.00000000000E+00 0.  1.
         11    1    4    4    0    0 -0.99121844143E+02 -0.52445019666E+01 -0.32837071371E+02  0.10455103081E+03  0.00000000000E+00 0. -1.
         21    1    1    2  503  501  0.24398891629E+02 -0.50323722501E+01  0.28118034318E+02  0.37566667900E+02  0.00000000000E+00 0.  1.
          1    1    1    2  501    0  0.28685388384E+02 -0.43157533736E+02  0.11054279018E+03  0.12208657865E+03  0.00000000000E+00 0. -1.
<scales pt_clust_5="13000.00000" pt_clust_6="13000.00000" pt_clust_7="13000.00000" pt_clust_8="13000.00000" pt_clust_9="23.22609" pt_clust_10="79.13492"></scales>
<clustering>
<clus scale="   23.226">  9 10 -1 -1</clus>
<clus scale="   79.135">  1  9  2 -1</clus>
<clus scale="   91.452">  5  6 -1 -1</clus>
<clus scale="   92.578">  7  8 -1 -1</clus>
<clus scale="  248.087">  2  5  1 -1</clus>
<clus scale="   79.135">  1  5  2 -1</clus>
</clustering>
</event>
<event>
10    2  0.1671105E-006  0.1065096E+03  0.7546771E-02  0.1275408E+00
         21   -1    0    0  501  502  0.00000000000E+00  0.00000000000E+00  0.20742033973E+02  0.20742033973E+02  0.00000000000E+00 0.  1.
          2   -1    0    0  503    0 -0.00000000000E+00 -0.00000000000E+00 -0.95523919807E+03  0.95523919807E+03  0.00000000000E+00 0. -1.
         23    2    1    2    0    0  0.23691234240E+02  0.34134726022E+02 -0.38148822988E+03  0.39081064576E+03  0.73981330075E+02 0.  0.
         23    2    1    2    0    0 -0.35449227627E+02 -0.50344721626E+02 -0.30869544638E+03  0.32809453544E+03  0.92530572430E+02 0.  0.
        -11    1    3    3    0    0  0.42803081150E+02  0.45570142983E+02 -0.28758858608E+03  0.29430585541E+03  0.00000000000E+00 0.  1.
         11    1    3    3    0    0 -0.19111846910E+02 -0.11435416961E+02 -0.93899643804E+02  0.96504790347E+02  0.00000000000E+00 0. -1.
        -13    1    4    4    0    0 -0.11327291536E+02  0.26606441957E+02 -0.10796582550E+03  0.11177132800E+03  0.00000000000E+00 0.  1.
         13    1    4    4    0    0 -0.24121936091E+02 -0.76951163584E+02 -0.20072962087E+03  0.21632320743E+03  0.00000000000E+00 0. -1.
         21    1    1    2  503  502  0.31785265728E+02  0.39867300439E+01 -0.22327788085E+03  0.22556420197E+03  0.00000000000E+00 0. -1.
          2    1    1    2  501    0 -0.20027272340E+02  0.12223265561E+02 -0.21035606993E+02  0.31511848881E+02  0.00000000000E+00 0. -1.
<scales pt_clust_5="13000.00000" pt_clust_6="13000.00000" pt_clust_7="13000.00000" pt_clust_8="13000.00000" pt_clust_9="30.70021" pt_clust_10="23.46273"></scales>
<clustering>
<clus scale="   23.463">  1 10  2 -1</clus>
<clus scale="   30.700">  2  9  1 -1</clus>
<clus scale="   73.981">  5  6 -1 -1</clus>
<clus scale="   90.860">  2  5  1 -1</clus>
<clus scale="   92.531">  7  8 -1 -1</clus>
<clus scale="   23.463">  1  5  2 -1</clus>
</clustering>
</event>
<event>
10    2  0.1671105E-006  0.1634691E+03  0.7546771E-02  0.1206963E+00
          1   -1    0    0  502    0 -0.00000000000E+00  0.00000000000E+00  0.54706531493E+03  0.54706531493E+03  0.00000000000E+00 0. -1.
         21   -1    0    0  503  502  0.00000000000E+00 -0.00000000000E+00 -0.79109760149E+02  0.79109760149E+02  0.00000000000E+00 0.  1.
         23    2    1    2    0    0  0.36786193767E+01  0.94840937628E+01  0.18012457410E+03  0.20638483047E+03  0.10023151090E+03 0.  0.
         23    2    1    2    0    0  0.12579959580E+03 -0.32899106042E+02  0.19418037100E+03  0.25336944120E+03  0.97888547694E+02 0.  0.
        -13    1    3    3    0    0 -0.85173439357E-01  0.49446032839E+02  0.14446894315E+03  0.15269640779E+03  0.00000000000E+00 0. -1.
         13    1    3    3    0    0  0.37637928161E+01 -0.39961939077E+02  0.35655630955E+02  0.53688422680E+02  0.00000000000E+00 0.  1.
        -13    1    4    4    0    0 -0.96783731689E+01 -0.22461463691E+02  0.15745866828E+02  0.29088151892E+02  0.00000000000E+00 0. -1.
         13    1    4    4    0    0  0.13547796897E+03 -0.10437642351E+02  0.17843450417E+03  0.22428128930E+03  0.00000000000E+00 0.  1.
         21    1    1    2  503  501 -0.59577646332E+02  0.28069261241E+02  0.58278915542E+02  0.87942090979E+02  0.00000000000E+00 0. -1.
          1    1    1    2  501    0 -0.69900568847E+02 -0.46542489612E+01  0.35371694138E+02  0.78478712430E+02  0.00000000000E+00 0. -1.
<scales pt_clust_5="13000.00000" pt_clust_6="13000.00000" pt_clust_7="13000.00000" pt_clust_8="13000.00000" pt_clust_9="38.93555" pt_clust_10="136.93995"></scales>
<clustering>
<clus scale="   38.936">  9 10 -1 -1</clus>
<clus scale="   97.889">  7  8 -1 -1</clus>
<clus scale="  100.232">  5  6 -1 -1</clus>
<clus scale="  100.746">  1  5  2 -1</clus>
<clus scale="  136.940">  2  9  1 -1</clus>
<clus scale="  136.940">  2  5  1 -1</clus>
</clustering>
</event>
<event>
10    2  0.1671105E-006  0.2764893E+03  0.7546771E-02  0.1142026E+00
          2   -1    0    0  502    0 -0.00000000000E+00  0.00000000000E+00  0.10854040186E+04  0.10854040186E+04  0.00000000000E+00 0. -1.
         21   -1    0    0  503  502  0.00000000000E+00 -0.00000000000E+00 -0.11125606675E+03  0.11125606675E+03  0.00000000000E+00 0. -1.
         23    2    1    2    0    0  0.23026354725E+01  0.20332453492E+02  0.15947533837E+03  0.18361161944E+03  0.88668666664E+02 0.  0.
         23    2    1    2    0    0 -0.20690783250E+03  0.14638674240E+03  0.60980966771E+03  0.66679652691E+03  0.92248837199E+02 0.  0.
        -11    1    3    3    0    0  0.32172518773E+02 -0.43392947679E+01  0.13246200908E+03  0.13638212600E+03  0.00000000000E+00 0.  1.
         11    1    3    3    0    0 -0.29869883301E+02  0.24671748260E+02  0.27013329291E+02  0.47229493434E+02  0.00000000000E+00 0. -1.
        -13    1    4    4    0    0 -0.50188284656E+02  0.62349705323E+02  0.10812032699E+03  0.13452269244E+03  0.00000000000E+00 0.  1.
         13    1    4    4    0    0 -0.15671954784E+03  0.84037037073E+02  0.50168934072E+03  0.53227383447E+03  0.00000000000E+00 0. -1.
         21    1    1    2  503  501  0.36380084457E+02 -0.78981440787E+02  0.43742649621E+02  0.97339601035E+02  0.00000000000E+00 0. -1.
          2    1    1    2  501    0  0.16822511257E+03 -0.87737755101E+02  0.16112029615E+03  0.24891233798E+03  0.00000000000E+00 0. -1.
<scales pt_clust_5="13000.00000" pt_clust_6="13000.00000" pt_clust_7="13000.00000" pt_clust_8="13000.00000" pt_clust_9="61.53946" pt_clust_10="276.04257"></scales>
<clustering>
<clus scale="   61.539">  9 10 -1 -1</clus>
<clus scale="   88.669">  5  6 -1 -1</clus>
<clus scale="   90.999">  1  5  2 -1</clus>
<clus scale="   92.249">  7  8 -1 -1</clus>
<clus scale="  276.043">  2  9  1 -1</clus>
<clus scale="  276.043">  2  5  1 -1</clus>
</clustering>
</event>
<event>
10    2  0.1671105E-006  0.1885988E+03  0.7546771E-02  0.1159798E+00
         21   -1    0    0  503  502  0.00000000000E+00  0.00000000000E+00  0.15021318973E+03  0.15021318973E+03  0.00000000000E+00 0.  1.
         -1   -1    0    0    0  501 -0.00000000000E+00 -0.00000000000E+00 -0.10290396069E+04  0.10290396069E+04  0.00000000000E+00 0.  1.
         23    2    1    2    0    0  0.80978568625E+02  0.18045419543E+03 -0.83822826590E+03  0.86618366720E+03  0.92337827233E+02 0.  0.
         23    2    1    2    0    0 -0.15401164182E+02 -0.85752005265E+02 -0.86721263352E+02  0.15338358776E+03  0.91735190700E+02 0.  0.
        -11    1    4    4    0    0 -0.21955560896E+02  0.12201715601E+02 -0.49162384125E+01  0.25594880699E+02  0.00000000000E+00 0.  1.
         11    1    4    4    0    0  0.65543967142E+01 -0.97953720867E+02 -0.81805024939E+02  0.12778870706E+03  0.00000000000E+00 0. -1.
        -11    1    3    3    0    0  0.10091571872E+03  0.16064034073E+03 -0.70971077936E+03  0.73462826769E+03  0.00000000000E+00 0.  1.
         11    1    3    3    0    0 -0.19937150091E+02  0.19813854704E+02 -0.12851748654E+03  0.13155539951E+03  0.00000000000E+00 0. -1.
         21    1    1    2  503  501 -0.33358000071E+02 -0.13446630256E+01 -0.21754763375E+02  0.39847635022E+02  0.00000000000E+00 0. -1.
         -1    1    1    2    0  502 -0.32219404371E+02 -0.93357527140E+02  0.67877875456E+02  0.11983790664E+03  0.00000000000E+00 0.  1.
<scales pt_clust_5="13000.00000" pt_clust_6="13000.00000" pt_clust_7="13000.00000" pt_clust_8="13000.00000" pt_clust_9="33.38509" pt_clust_10="108.82335"></scales>
<clustering>
<clus scale="   33.385">  1  9  2 -1</clus>
<clus scale="   91.735">  5  6 -1 -1</clus>
<clus scale="   92.338">  7  8 -1 -1</clus>
<clus scale="  108.823">  1 10  2 -1</clus>
<clus scale="  188.305">  1  5  2 -1</clus>
<clus scale="   33.385">  1  5  2 -1</clus>
</clustering>
</event>
<event>
10    2  0.1671105E-006  0.2238395E+03  0.7546771E-02  0.1167040E+00
          2   -1    0    0  502    0 -0.00000000000E+00  0.00000000000E+00  0.31535134104E+03  0.31535134104E+03  0.00000000000E+00 0. -1.
         21   -1    0    0  503  502  0.00000000000E+00 -0.00000000000E+00 -0.40703198660E+03  0.40703198660E+03  0.00000000000E+00 0. -1.
         23    2    1    2    0    0 -0.24334756799E+02  0.77341568101E+00  0.15399285116E+03  0.18107305811E+03  0.92091669571E+02 0.  0.
         23    2    1    2    0    0 -0.68422584190E+00  0.19556011732E+03 -0.22928200102E+03  0.31513805023E+03  0.92182032218E+02 0.  0.
        -11    1    3    3    0    0 -0.48461767363E+02  0.35260758744E+01  0.14840207763E+03  0.15615425947E+03  0.00000000000E+00 0. -1.
         11    1    3    3    0    0  0.24127010563E+02 -0.27526601934E+01  0.55907735338E+01  0.24918798638E+02  0.00000000000E+00 0.  1.
        -13    1    4    4    0    0  0.73297999598E+01  0.14925464235E+03 -0.10602575133E+03  0.18322700176E+03  0.00000000000E+00 0. -1.
         13    1    4    4    0    0 -0.80140258017E+01  0.46305474972E+02 -0.12325624969E+03  0.13191104847E+03  0.00000000000E+00 0.  1.
         21    1    1    2  503  501 -0.39805048985E+02 -0.10276487327E+03 -0.21267174074E+02  0.11223793385E+03  0.00000000000E+00 0. -1.
          2    1    1    2  501    0  0.64824031626E+02 -0.93568659732E+02  0.48756783740E+01  0.11393428545E+03  0.00000000000E+00 0. -1.
<scales pt_clust_5="13000.00000" pt_clust_6="13000.00000" pt_clust_7="13000.00000" pt_clust_8="13000.00000" pt_clust_9="105.98751" pt_clust_10="105.98751"></scales>
<clustering>
<clus scale="   92.092">  5  6 -1 -1</clus>
<clus scale="   92.182">  7  8 -1 -1</clus>
<clus scale="   95.256">  1  5  2 -1</clus>
<clus scale="  105.988">  9 10 -1 -1</clus>
<clus scale="  216.539">  1  7  2 -1</clus>
<clus scale="  223.840">  2  5  1 -1</clus>
</clustering>
</event>
<event>
10    2  0.1671105E-006  0.9816438E+02  0.7546771E-02  0.1291792E+00
          3   -1    0    0  502    0 -0.00000000000E+00  0.00000000000E+00  0.33057753249E+03  0.33057753249E+03  0.00000000000E+00 0. -1.
         21   -1    0    0  503  502  0.00000000000E+00 -0.00000000000E+00 -0.51811115898E+02  0.51811115898E+02  0.00000000000E+00 0.  1.
         23    2    1    2    0    0  0.19575831636E+02 -0.23521030192E+02  0.16860887091E+03  0.19462863987E+03  0.92276237802E+02 0.  0.
         23    2    1    2    0    0 -0.51035603494E+02 -0.10821160379E+02  0.90258184136E+02  0.13035522109E+03  0.78257354453E+02 0.  0.
        -11    1    3    3    0    0 -0.11740455105E+02 -0.22070967622E+02  0.19814352426E+01  0.25077718865E+02  0.00000000000E+00 0.  1.
         11    1    3    3    0    0  0.31316286741E+02 -0.14500625693E+01  0.16662743567E+03  0.16955092100E+03  0.00000000000E+00 0. -1.
        -11    1    4    4    0    0  0.13029619259E+02 -0.25014501260E+02  0.31397491465E+02  0.42205434740E+02  0.00000000000E+00 0. -1.
         11    1    4    4    0    0 -0.64065222753E+02  0.14193340881E+02  0.58860692672E+02  0.88149786350E+02  0.00000000000E+00 0.  1.
         21    1    1    2  503  501  0.21551960585E+02  0.41670222296E+01  0.10132585635E+02  0.24176856101E+02  0.00000000000E+00 0. -1.
          3    1    1    2  501    0  0.99078112737E+01  0.30175168341E+02  0.97667759139E+01  0.33227931329E+02  0.00000000000E+00 0. -1.
<scales pt_clust_5="13000.00000" pt_clust_6="13000.00000" pt_clust_7="13000.00000" pt_clust_8="13000.00000" pt_clust_9="21.95111" pt_clust_10="34.92098"></scales>
<clustering>
<clus scale="   21.951">  2  9  1 -1</clus>
<clus scale="   34.921">  2 10  1 -1</clus>
<clus scale="   78.257">  7  8 -1 -1</clus>
<clus scale="   85.121">  2  7  1 -1</clus>
<clus scale="   92.276">  5  6 -1 -1</clus>
<clus scale="   21.951">  2  5  1 -1</clus>
</clustering>
</event>
<event>
10    2  0.1671105E-006  0.9971171E+02  0.7546771E-02  0.1281110E+00
         21   -1    0    0  503  502  0.00000000000E+00  0.00000000000E+00  0.87517964992E+02  0.87517964992E+02  0.00000000000E+00 0. -1.
         -2   -1    0    0    0  501 -0.00000000000E+00 -0.00000000000E+00 -0.30846316853E+03  0.30846316853E+03  0.00000000000E+00 0.  1.
         23    2    1    2    0    0  0.24404375438E+02 -0.35393706103E+01 -0.94127589602E+02  0.13257709232E+03  0.90047662934E+02 0.  0.
         23    2    1    2    0    0 -0.51795785726E+02  0.25365893813E+02 -0.38808764934E+02  0.11409896675E+03  0.90477743060E+02 0.  0.
        -11    1    4    4    0    0 -0.52731593280E+02  0.52799428098E+02 -0.11724973368E+02  0.75537246030E+02  0.00000000000E+00 0.  1.
         11    1    4    4    0    0  0.93580755329E+00 -0.27433534285E+02 -0.27083791565E+02  0.38561720718E+02  0.00000000000E+00 0. -1.
        -13    1    3    3    0    0  0.15951136166E+02  0.37764188099E+02 -0.16403229671E+02  0.44154711995E+02  0.00000000000E+00 0.  1.
         13    1    3    3    0    0  0.84532392717E+01 -0.41303558709E+02 -0.77724359931E+02  0.88422380328E+02  0.00000000000E+00 0. -1.
         21    1    1    2  503  501 -0.86928273488E+00 -0.58485887707E+02 -0.84653151615E+02  0.10289563058E+03  0.00000000000E+00 0. -1.
         -2    1    1    2    0  502  0.28260693024E+02  0.36659364504E+02 -0.33556973905E+01  0.46409443878E+02  0.00000000000E+00 0.  1.
<scales pt_clust_5="13000.00000" pt_clust_6="13000.00000" pt_clust_7="13000.00000" pt_clust_8="13000.00000" pt_clust_9="53.50511" pt_clust_10="46.28797"></scales>
<clustering>
<clus scale="   46.288">  1 10  2 -1</clus>
<clus scale="   53.505">  2  9  1 -1</clus>
<clus scale="   90.048">  7  8 -1 -1</clus>
<clus scale="   90.478">  5  6 -1 -1</clus>
<clus scale="   99.322">  2  7  1 -1</clus>
<clus scale="   46.288">  1  5  2 -1</clus>
</clustering>
</event>
<event>
10    2  0.1671105E-006  0.1351358E+03  0.7546771E-02  0.1238203E+00
         21   -1    0    0  501  502  0.00000000000E+00  0.00000000000E+00  0.10912223706E+03  0.10912223706E+03  0.00000000000E+00 0. -1.
          2   -1    0    0  503    0 -0.00000000000E+00 -0.00000000000E+00 -0.39040323257E+03  0.39040323257E+03  0.00000000000E+00 0. -1.
         23    2    1    2    0    0  0.18833138591E+02  0.10859638570E+02 -0.15133447377E+03  0.17732168733E+03  0.89823376622E+02 0.  0.
         23    2    1    2    0    0 -0.12129601216E+03 -0.17769013582E+02 -0.14264643762E+03  0.20912132607E+03  0.91407124668E+02 0.  0.
        -11    1    3    3    0    0  0.48938610654E+02  0.13827050787E+02 -0.13190391012E+03  0.14136766409E+03  0.00000000000E+00 0.  1.
         11    1    3    3    0    0 -0.30105472063E+02 -0.29674122166E+01 -0.19430563654E+02  0.35954023242E+02  0.00000000000E+00 0. -1.
        -11    1    4    4    0    0 -0.34547847731E+02  0.18839044283E+02 -0.14084179833E+01  0.39375716038E+02  0.00000000000E+00 0.  1.
         11    1    4    4    0    0 -0.86748164434E+02 -0.36608057865E+02 -0.14123801964E+03  0.16974561003E+03  0.00000000000E+00 0. -1.
         21    1    1    2  503  502  0.19607445402E+02 -0.11614433730E+02 -0.10466402274E+02  0.25077730412E+02  0.00000000000E+00 0. -1.
          2    1    1    2  501    0  0.82855428171E+02  0.18523808742E+02  0.23166318165E+02  0.88004725811E+02  0.00000000000E+00 0. -1.
<scales pt_clust_5="13000.00000" pt_clust_6="13000.00000" pt_clust_7="13000.00000" pt_clust_8="13000.00000" pt_clust_9="22.78919" pt_clust_10="99.53103"></scales>
<clustering>
<clus scale="   22.789">  1  9  2 -1</clus>
<clus scale="   89.823">  5  6 -1 -1</clus>
<clus scale="   91.407">  7  8 -1 -1</clus>
<clus scale="   92.797">  2  5  1 -1</clus>
<clus scale="   99.531">  1 10  2 -1</clus>
<clus scale="   22.789">  1  5  2 -1</clus>
</clustering>
</event>
<event>
10    2  0.1671105E-006  0.9045864E+02  0.7546771E-02  0.1313230E+00
          1   -1    0    0  503    0 -0.00000000000E+00  0.00000000000E+00  0.73194455505E+03  0.73194455505E+03  0.00000000000E+00 0. -1.
         21   -1    0    0  501  502  0.00000000000E+00 -0.00000000000E+00 -0.49368154687E+02  0.49368154687E+02  0.00000000000E+00 0.  1.
         23    2    1    2    0    0  0.22332924791E+02 -0.86222154881E+01  0.36181615510E+03  0.37325833270E+03  0.88531071982E+02 0.  0.
         23    2    1    2    0    0 -0.64976963716E+01 -0.32781373875E+02  0.24514291436E+03  0.25739334247E+03  0.70989053763E+02 0.  0.
        -11    1    3    3    0    0  0.47537800200E+02 -0.23125945357E+02  0.30376631821E+03  0.30833200916E+03  0.00000000000E+00 0.  1.
         11    1    3    3    0    0 -0.25204875409E+02  0.14503729869E+02  0.58049836897E+02  0.64926323539E+02  0.00000000000E+00 0. -1.
        -11    1    4    4    0    0  0.52248237989E+01  0.20432162656E+02  0.10358968886E+03  0.10571469005E+03  0.00000000000E+00 0. -1.
         11    1    4    4    0    0 -0.11722520170E+02 -0.53213536531E+02  0.14155322550E+03  0.15167865242E+03  0.00000000000E+00 0.  1.
         21    1    1    2  503  502  0.86645838898E+01  0.46698299431E+02  0.10307006003E+03  0.11348675455E+03  0.00000000000E+00 0. -1.
          1    1    1    2  501    0 -0.24499812309E+02 -0.52947100679E+01 -0.27452729134E+02  0.37174280017E+02  0.00000000000E+00 0. -1.
<scales pt_clust_5="13000.00000" pt_clust_6="13000.00000" pt_clust_7="13000.00000" pt_clust_8="13000.00000" pt_clust_9="45.09685" pt_clust_10="25.06541"></scales>
<clustering>
<clus scale="   25.065">  2 10  1 -1</clus>
<clus scale="   45.097">  2  9  1 -1</clus>
<clus scale="   70.989">  7  8 -1 -1</clus>
<clus scale="   73.379">  2  7  1 -1</clus>
<clus scale="   88.531">  5  6 -1 -1</clus>
<clus scale="   25.065">  2  5  1 -1</clus>
</clustering>
</event>
<event>
10    2  0.1671105E-006  0.2693379E+03  0.7546771E-02  0.1101778E+00
         21   -1    0    0  503  502  0.00000000000E+00  0.00000000000E+00  0.15527383123E+03  0.15527383123E+03  0.00000000000E+00 0. -1.
          2   -1    0    0  502    0 -0.00000000000E+00 -0.00000000000E+00 -0.15104507720E+04  0.15104507720E+04  0.00000000000E+00 0. -1.
         23    2    1    2    0    0  0.62925865099E+02 -0.21754752621E+03 -0.72922594566E+03  0.76886653287E+03  0.89992637898E+02 0.  0.
         23    2    1    2    0    0 -0.25501130771E+03  0.26302116063E+03 -0.50139508554E+03  0.62781375533E+03  0.92423923183E+02 0.  0.
        -11    1    3    3    0    0 -0.17637177071E+02 -0.25190069553E+02 -0.53692165291E+02  0.61874536222E+02  0.00000000000E+00 0.  1.
         11    1    3    3    0    0  0.80563042170E+02 -0.19235745666E+03 -0.67553378037E+03  0.70699199664E+03  0.00000000000E+00 0. -1.
        -13    1    4    4    0    0 -0.23535598968E+03  0.21042326574E+03 -0.46058920433E+03  0.55840201270E+03  0.00000000000E+00 0. -1.
         13    1    4    4    0    0 -0.19655318030E+02  0.52597894884E+02 -0.40805881215E+02  0.69411742630E+02  0.00000000000E+00 0.  1.
         21    1    1    2  503  501  0.57387624494E+02 -0.79653636157E+02 -0.65691012954E+02  0.11812430055E+03  0.00000000000E+00 0.  1.
          2    1    1    2  501    0  0.13469781811E+03  0.34180001738E+02 -0.58864896634E+02  0.15092001451E+03  0.00000000000E+00 0. -1.
<scales pt_clust_5="13000.00000" pt_clust_6="13000.00000" pt_clust_7="13000.00000" pt_clust_8="13000.00000" pt_clust_9="98.17353" pt_clust_10="155.27213"></scales>
<clustering>
<clus scale="   89.993">  5  6 -1 -1</clus>
<clus scale="   92.424">  7  8 -1 -1</clus>
<clus scale="   98.174">  1  9  2 -1</clus>
<clus scale="  155.272">  1 10  2 -1</clus>
<clus scale="  268.513">  2  5  1 -1</clus>
<clus scale="   98.174">  1  5  2 -1</clus>
</clustering>
</event>
<event>
10    2  0.1671105E-006  0.1561465E+03  0.7546771E-02  0.1203816E+00
         -4   -1    0    0    0  501 -0.00000000000E+00  0.00000000000E+00  0.20623954116E+03  0.20623954116E+03  0.00000000000E+00 0.  1.
         21   -1    0    0  501  502  0.00000000000E+00 -0.00000000000E+00 -0.22486712559E+03  0.22486712559E+03  0.00000000000E+00 0.  1.
         23    2    1    2    0    0 -0.76069025223E+02 -0.33901323300E+02  0.96470974176E+01  0.12407086728E+03  0.91458828442E+02 0.  0.
         23    2    1    2    0    0  0.27922694499E+02 -0.10164497283E+03  0.33879439500E+02  0.14485550541E+03  0.93401946759E+02 0.  0.
        -13    1    3    3    0    0  0.11136313332E+01 -0.43705551130E+02 -0.76100474109E+01  0.44377113425E+02  0.00000000000E+00 0. -1.
         13    1    3    3    0    0 -0.77182656556E+02  0.98042278302E+01  0.17257144829E+02  0.79693753858E+02  0.00000000000E+00 0.  1.
        -13    1    4    4    0    0 -0.44117763240E+01 -0.10773860669E+03  0.28315972150E+02  0.11148482148E+03  0.00000000000E+00 0.  1.
         13    1    4    4    0    0  0.32334470823E+02  0.60936338638E+01  0.55634673506E+01  0.33370683932E+02  0.00000000000E+00 0. -1.
         21    1    1    2  503  502  0.49024116335E+02  0.96784567521E+02 -0.32152802475E+02  0.11315661359E+03  0.00000000000E+00 0.  1.
         -4    1    1    2    0  503 -0.87778561167E+00  0.38761728605E+02 -0.30001318878E+02  0.49023680466E+02  0.00000000000E+00 0.  1.
<scales pt_clust_5="13000.00000" pt_clust_6="13000.00000" pt_clust_7="13000.00000" pt_clust_8="13000.00000" pt_clust_9="24.99675" pt_clust_10="131.93274"></scales>
<clustering>
<clus scale="   24.997">  9 10 -1 -1</clus>
<clus scale="   91.459">  5  6 -1 -1</clus>
<clus scale="   93.402">  7  8 -1 -1</clus>
<clus scale="  123.695">  1  5  2 -1</clus>
<clus scale="  131.933">  2  9  1 -1</clus>
<clus scale="  131.933">  2  5  1 -1</clus>
</clustering>
</event>
<event>
10    2  0.1671105E-006  0.1257108E+03  0.7546771E-02  0.1233966E+00
          3   -1    0    0  503    0 -0.00000000000E+00  0.00000000000E+00  0.60174487371E+03  0.60174487371E+03  0.00000000000E+00 0. -1.
         21   -1    0    0  501  502  0.00000000000E+00 -0.00000000000E+00 -0.10768233048E+03  0.10768233048E+03  0.00000000000E+00 0. -1.
         23    2    1    2    0    0 -0.92501833704E+01 -0.76777712493E+02  0.23689636309E+03  0.26532705545E+03  0.91094327363E+02 0.  0.
         23    2    1    2    0    0  0.12111874800E+03  0.57212128960E+02  0.22520906016E+03  0.27741350911E+03  0.91083233579E+02 0.  0.
        -11    1    4    4    0    0  0.86645946587E+02  0.66773024041E+02  0.21329084782E+03  0.23970636738E+03  0.00000000000E+00 0. -1.
         11    1    4    4    0    0  0.34472801409E+02 -0.95608950805E+01  0.11918212345E+02  0.37707141727E+02  0.00000000000E+00 0.  1.
        -13    1    3    3    0    0  0.37478675367E+02 -0.42107904270E+02  0.15445456943E+03  0.16442001316E+03  0.00000000000E+00 0.  1.
         13    1    3    3    0    0 -0.46728858737E+02 -0.34669808223E+02  0.82441793662E+02  0.10090704229E+03  0.00000000000E+00 0. -1.
         21    1    1    2  503  502 -0.34960659583E+02  0.35764242154E+02  0.64501642698E+02  0.81619793225E+02  0.00000000000E+00 0.  1.
          3    1    1    2  501    0 -0.76907905043E+02 -0.16198658621E+02 -0.32544522722E+02  0.85066846412E+02  0.00000000000E+00 0. -1.
<scales pt_clust_5="13000.00000" pt_clust_6="13000.00000" pt_clust_7="13000.00000" pt_clust_8="13000.00000" pt_clust_9="50.01329" pt_clust_10="79.95596"></scales>
<clustering>
<clus scale="   50.013">  1  9  2 -1</clus>
<clus scale="   79.956">  2 10  1 -1</clus>
<clus scale="   91.083">  5  6 -1 -1</clus>
<clus scale="   91.094">  7  8 -1 -1</clus>
<clus scale="  125.703">  2  5  1 -1</clus>
<clus scale="   79.956">  2  5  1 -1</clus>
</clustering>
</event>
<event>
10    2  0.1671105E-006  0.1363306E+03  0.7546771E-02  0.1220172E+00
         21   -1    0    0  501  502  0.00000000000E+00  0.00000000000E+00  0.27999051255E+02  0.27999051255E+02  0.00000000000E+00 0. -1.
         -1   -1    0    0    0  501 -0.00000000000E+00 -0.00000000000E+00 -0.11064299125E+04  0.11064299125E+04  0.00000000000E+00 0.  1.
         23    2    1    2    0    0  0.79210153649E+02 -0.71009189162E+02 -0.49658397958E+03  0.51487269761E+03  0.84744867589E+02 0.  0.
         23    2    1    2    0    0 -0.10180372574E+03  0.11580804792E+02 -0.31836856466E+03  0.34699660344E+03  0.92466135536E+02 0.  0.
        -11    1    3    3    0    0  0.68377174733E+02 -0.59208867334E+01 -0.21635439811E+03  0.22697955966E+03  0.00000000000E+00 0.  1.
         11    1    3    3    0    0  0.10832978916E+02 -0.65088302429E+02 -0.28022958148E+03  0.28789313795E+03  0.00000000000E+00 0. -1.
        -11    1    4    4    0    0 -0.20663259488E+02  0.42190462136E+02 -0.73561553504E+02  0.87282916667E+02  0.00000000000E+00 0. -1.
         11    1    4    4    0    0 -0.81140466253E+02 -0.30609657343E+02 -0.24480701116E+03  0.25971368677E+03  0.00000000000E+00 0.  1.
         21    1    1    2  503  502  0.48873583384E+01  0.32888940874E+02 -0.18285383448E+03  0.18585234324E+03  0.00000000000E+00 0.  1.
         -1    1    1    2    0  503  0.17706213753E+02  0.26539443496E+02 -0.80624482523E+02  0.86707319464E+02  0.00000000000E+00 0.  1.
<scales pt_clust_5="13000.00000" pt_clust_6="13000.00000" pt_clust_7="13000.00000" pt_clust_8="13000.00000" pt_clust_9="28.14799" pt_clust_10="69.77070"></scales>
<clustering>
<clus scale="   28.148">  9 10 -1 -1</clus>
<clus scale="   69.771">  1  9  2 -1</clus>
<clus scale="   84.745">  5  6 -1 -1</clus>
<clus scale="   92.466">  7  8 -1 -1</clus>
<clus scale="  131.216">  2  5  1 -1</clus>
<clus scale="   69.771">  1  5  2 -1</clus>
</clustering>
</event>
<event>
10    2  0.1671105E-006  0.9411850E+02  0.7546771E-02  0.1293505E+00
          1   -1    0    0  503    0 -0.00000000000E+00  0.00000000000E+00  0.33900634666E+03  0.33900634666E+03  0.00000000000E+00 0. -1.
         21   -1    0    0  501  502  0.00000000000E+00 -0.00000000000E+00 -0.48283009258E+02  0.48283009258E+02  0.00000000000E+00 0.  1.
         23    2    1    2    0    0 -0.11155996988E+02  0.28921030042E+02  0.18383971881E+03  0.20749796272E+03  0.91090504856E+02 0.  0.
         23    2    1    2    0    0  0.12067651629E+02  0.73589799138E+01  0.51780439575E+02  0.10624022084E+03  0.91684174206E+02 0.  0.
        -11    1    3    3    0    0 -0.10519392088E+02  0.54629064296E+02  0.63419252850E+02  0.84362277754E+02  0.00000000000E+00 0. -1.
         11    1    3    3    0    0 -0.63660489955E+00 -0.25708034254E+02  0.12042046596E+03  0.12313568497E+03  0.00000000000E+00 0.  1.
        -13    1    4    4    0    0  0.42676213549E+02 -0.18250248822E+02  0.46984068643E+02  0.66044178329E+02  0.00000000000E+00 0. -1.
         13    1    4    4    0    0 -0.30608561920E+02  0.25609228736E+02  0.47963709319E+01  0.40196042509E+02  0.00000000000E+00 0.  1.
         21    1    1    2  503  502  0.14647833754E+02 -0.22351145027E+02  0.23025653868E+02  0.35274827480E+02  0.00000000000E+00 0.  1.
          1    1    1    2  501    0 -0.15559488396E+02 -0.13928864929E+02  0.32077525151E+02  0.38276344877E+02  0.00000000000E+00 0. -1.
<scales pt_clust_5="13000.00000" pt_clust_6="13000.00000" pt_clust_7="13000.00000" pt_clust_8="13000.00000" pt_clust_9="27.29027" pt_clust_10="20.88328"></scales>
<clustering>
<clus scale="   20.883">  2 10  1 -1</clus>
<clus scale="   27.290">  2  9  1 -1</clus>
<clus scale="   91.091">  5  6 -1 -1</clus>
<clus scale="   91.684">  7  8 -1 -1</clus>
<clus scale="   93.540">  1  5  2 -1</clus>
<clus scale="   20.883">  2  5  1 -1</clus>
</clustering>
</event>
<event>
10    2  0.1671105E-006  0.1914556E+03  0.7546771E-02  0.1182058E+00
          2   -1    0    0  502    0 -0.00000000000E+00  0.00000000000E+00  0.50008594093E+03  0.50008594093E+03  0.00000000000E+00 0. -1.
         21   -1    0    0  503  502  0.00000000000E+00 -0.00000000000E+00 -0.11775809572E+03  0.11775809572E+03  0.00000000000E+00 0.  1.
         23    2    1    2    0    0  0.60247416821E+02  0.36149712970E+01  0.83516999864E+02  0.13673505705E+03  0.89880850627E+02 0.  0.
         23    2    1    2    0    0  0.56673110401E+02  0.14220337615E+03  0.16790927827E+03  0.24429218553E+03  0.89730176366E+02 0.  0.
        -11    1    3    3    0    0 -0.29411864885E+01  0.26360330642E+02 -0.35677346180E+01  0.26762779000E+02  0.00000000000E+00 0.  1.
         11    1    3    3    0    0  0.63188603310E+02 -0.22745359345E+02  0.87084734482E+02  0.10997227805E+03  0.00000000000E+00 0. -1.
        -13    1    4    4    0    0  0.17486318044E+02  0.32970402032E+02  0.10680765754E+03  0.11314015396E+03  0.00000000000E+00 0. -1.
         13    1    4    4    0    0  0.39186792357E+02  0.10923297412E+03  0.61101620739E+02  0.13115203158E+03  0.00000000000E+00 0.  1.
         21    1    1    2  503  501 -0.20594216301E+01 -0.34159033330E+02  0.86242103170E+01  0.35291043893E+02  0.00000000000E+00 0.  1.
          2    1    1    2  501    0 -0.11486110559E+03 -0.11165931412E+03  0.12227735676E+03  0.20152575017E+03  0.00000000000E+00 0. -1.
<scales pt_clust_5="13000.00000" pt_clust_6="13000.00000" pt_clust_7="13000.00000" pt_clust_8="13000.00000" pt_clust_9="29.28158" pt_clust_10="180.60260"></scales>
<clustering>
<clus scale="   29.282">  9 10 -1 -1</clus>
<clus scale="   89.730">  7  8 -1 -1</clus>
<clus scale="   89.881">  5  6 -1 -1</clus>
<clus scale="  108.265">  1  5  2 -1</clus>
<clus scale="  180.603">  2  9  1 -1</clus>
<clus scale="  180.603">  2  5  1 -1</clus>
</clustering>
</event>
<event>
10    2  0.1671105E-006  0.9656266E+02  0.7546771E-02  0.1287728E+00
          2   -1    0    0  502    0 -0.00000000000E+00  0.00000000000E+00  0.49622786288E+03  0.49622786288E+03  0.00000000000E+00 0. -1.
         21   -1    0    0  503  502  0.00000000000E+00 -0.00000000000E+00 -0.44692600255E+02  0.44692600255E+02  0.00000000000E+00 0.  1.
         23    2    1    2    0    0  0.14812980088E+02 -0.84489011969E+01  0.19011358541E+03  0.21231479314E+03  0.92970897150E+02 0.  0.
         23    2    1    2    0    0 -0.29809036152E+02 -0.64253771844E+02  0.14207193113E+03  0.18393847851E+03  0.92907504700E+02 0.  0.
        -11    1    3    3    0    0 -0.12932018552E+02  0.29829689253E+02  0.13874084085E+03  0.14249936275E+03  0.00000000000E+00 0. -1.
         11    1    3    3    0    0  0.27744998640E+02 -0.38278590450E+02  0.51372744562E+02  0.69815430388E+02  0.00000000000E+00 0.  1.
        -11    1    4    4    0    0  0.19251820958E+01 -0.50465941022E+02  0.15657002523E+02  0.52873994149E+02  0.00000000000E+00 0.  1.
         11    1    4    4    0    0 -0.31734218248E+02 -0.13787830823E+02  0.12641492860E+03  0.13106448436E+03  0.00000000000E+00 0. -1.
         21    1    1    2  503  501 -0.62565516796E+01  0.20796001661E+02  0.55955767846E+02  0.60022213215E+02  0.00000000000E+00 0. -1.
          2    1    1    2  501    0  0.21252607743E+02  0.51906671380E+02  0.63393978246E+02  0.84644978277E+02  0.00000000000E+00 0. -1.
<scales pt_clust_5="13000.00000" pt_clust_6="13000.00000" pt_clust_7="13000.00000" pt_clust_8="13000.00000" pt_clust_9="21.31732" pt_clust_10="81.75717"></scales>
<clustering>
<clus scale="   21.317">  9 10 -1 -1</clus>
<clus scale="   81.757">  2  9  1 -1</clus>
<clus scale="   92.908">  7  8 -1 -1</clus>
<clus scale="   92.971">  5  6 -1 -1</clus>
<clus scale="   96.502">  2  7  1 -1</clus>
<clus scale="   81.757">  2  5  1 -1</clus>
</clustering>
</event>
<event>
10    2  0.1671105E-006  0.1262000E+03  0.7546771E-02  0.1235000E+00
         21   -1    0    0  501  502  0.00000000000E+00  0.00000000000E+00  0.34695630032E+03  0.34695630032E+03  0.00000000000E+00 0. -1.
         -3   -1    0    0    0  501 -0.00000000000E+00 -0.00000000000E+00 -0.23132489972E+03  0.23132489972E+03  0.00000000000E+00 0.  1.
         23    2    1    2    0    0  0.84765603153E+02  0.38445158139E+02 -0.18800770514E+03  0.22928913048E+03  0.92538481195E+02 0.  0.
         23    2    1    2    0    0 -0.35811565337E+02  0.12309967932E+02  0.15076085437E+03  0.17775268645E+03  0.86215884898E+02 0.  0.
        -11    1    4    4    0    0  0.25408989764E+02  0.18854751204E+01  0.78194922997E+02  0.82241216916E+02  0.00000000000E+00 0. -1.
         11    1    4    4    0    0 -0.61220555101E+02  0.10424492812E+02  0.72565931371E+02  0.95511469537E+02  0.00000000000E+00 0.  1.
        -11    1    3    3    0    0  0.12191960907E+02 -0.16956348797E+02 -0.10110750266E+03  0.10324189445E+03  0.00000000000E+00 0.  1.
         11    1    3    3    0    0  0.72573642246E+02  0.55401506936E+02 -0.86900202479E+02  0.12604723603E+03  0.00000000000E+00 0. -1.
         21    1    1    2  503  502 -0.35882192060E+02 -0.15056762186E+02  0.70949734315E+02  0.80920347218E+02  0.00000000000E+00 0.  1.
         -3    1    1    2    0  503 -0.13071845755E+02 -0.35698363885E+02  0.81928517062E+02  0.90319035887E+02  0.00000000000E+00 0.  1.
<scales pt_clust_5="13000.00000" pt_clust_6="13000.00000" pt_clust_7="13000.00000" pt_clust_8="13000.00000" pt_clust_9="30.91978" pt_clust_10="77.14380"></scales>
<clustering>
<clus scale="   30.920">  9 10 -1 -1</clus>
<clus scale="   77.144">  1  9  2 -1</clus>
<clus scale="   86.216">  5  6 -1 -1</clus>
<clus scale="   92.538">  7  8 -1 -1</clus>
<clus scale="  121.640">  1  5  2 -1</clus>
<clus scale="   77.144">  1  5  2 -1</clus>
</clustering>
</event>
<event>
10    2  0.1671105E-006  0.2971115E+03  0.7546771E-02  0.1086999E+00
         21   -1    0    0  503  502  0.00000000000E+00  0.00000000000E+00  0.20996277877E+03  0.20996277877E+03  0.00000000000E+00 0.  1.
          1   -1    0    0  502    0 -0.00000000000E+00 -0.00000000000E+00 -0.75376277308E+03  0.75376277308E+03  0.00000000000E+00 0. -1.
         23    2    1    2    0    0 -0.29658682029E+03 -0.40846774525E+02 -0.52848708784E+03  0.61405650015E+03  0.90191919861E+02 0.  0.
         23    2    1    2    0    0  0.23170538692E+03  0.80427784830E+02 -0.44914954476E+02  0.26245654058E+03  0.81915002655E+02 0.  0.
        -11    1    3    3    0    0 -0.11185144428E+03 -0.46466911780E+02 -0.27362843094E+03  0.29923642441E+03  0.00000000000E+00 0. -1.
         11    1    3    3    0    0 -0.18473537600E+03  0.56201372547E+01 -0.25485865691E+03  0.31482007574E+03  0.00000000000E+00 0.  1.
        -11    1    4    4    0    0  0.26134369583E+02 -0.16909384337E+02 -0.59925932178E+01  0.31699270112E+02  0.00000000000E+00 0. -1.
         11    1    4    4    0    0  0.20557101733E+03  0.97337169167E+02 -0.38922361258E+02  0.23075727047E+03  0.00000000000E+00 0.  1.
         21    1    1    2  503  501  0.21136158615E+02 -0.13874771088E+02 -0.50327915322E+01  0.25779361209E+02  0.00000000000E+00 0. -1.
          1    1    1    2  501    0  0.43745274754E+02 -0.25706239217E+02  0.34634839539E+02  0.61433149910E+02  0.00000000000E+00 0. -1.
<scales pt_clust_5="13000.00000" pt_clust_6="13000.00000" pt_clust_7="13000.00000" pt_clust_8="13000.00000" pt_clust_9="21.79728" pt_clust_10="82.03500"></scales>
<clustering>
<clus scale="   21.797">  9 10 -1 -1</clus>
<clus scale="   81.915">  7  8 -1 -1</clus>
<clus scale="   82.035">  1  9  2 -1</clus>
<clus scale="   90.192">  5  6 -1 -1</clus>
<clus scale="  294.704">  1  7  2 -1</clus>
<clus scale="   82.035">  1  5  2 -1</clus>
</clustering>
</event>
<event>
10    2  0.1671105E-006  0.9380132E+02  0.7546771E-02  0.1294041E+00
         21   -1    0    0  503  502  0.00000000000E+00  0.00000000000E+00  0.21627868153E+03  0.21627868153E+03  0.00000000000E+00 0. -1.
          1   -1    0    0  502    0 -0.00000000000E+00 -0.00000000000E+00 -0.28548208073E+03  0.28548208073E+03  0.00000000000E+00 0. -1.
         23    2    1    2    0    0 -0.69685379117E+01  0.21997294293E+01 -0.16462756255E+03  0.18858446271E+03  0.91697687498E+02 0.  0.
         23    2    1    2    0    0 -0.25200462132E+02 -0.74032119670E+02 -0.60485887765E+02  0.13467162645E+03  0.91444443881E+02 0.  0.
        -11    1    4    4    0    0 -0.26163511991E+02 -0.42060578917E+02  0.15766105909E+02  0.51982610112E+02  0.00000000000E+00 0.  1.
         11    1    4    4    0    0  0.96304985920E+00 -0.31971540753E+02 -0.76251993674E+02  0.82689016335E+02  0.00000000000E+00 0. -1.
        -11    1    3    3    0    0  0.18824543734E+02  0.37465999264E+02 -0.11530972009E+03  0.12269635730E+03  0.00000000000E+00 0.  1.
         11    1    3    3    0    0 -0.25793081646E+02 -0.35266269835E+02 -0.49317842460E+02  0.65888105405E+02  0.00000000000E+00 0. -1.
         21    1    1    2  503  501  0.22800071333E+02  0.11664061108E+02  0.38445206736E+02  0.46194453079E+02  0.00000000000E+00 0.  1.
          1    1    1    2  501    0  0.93689287104E+01  0.60168329132E+02  0.11746484438E+03  0.13231022002E+03  0.00000000000E+00 0. -1.
<scales pt_clust_5="13000.00000" pt_clust_6="13000.00000" pt_clust_7="13000.00000" pt_clust_8="13000.00000" pt_clust_9="23.92711" pt_clust_10="86.92511"></scales>
<clustering>
<clus scale="   23.927">  9 10 -1 -1</clus>
<clus scale="   86.925">  1  9  2 -1</clus>
<clus scale="   91.444">  5  6 -1 -1</clus>
<clus scale="   91.698">  7  8 -1 -1</clus>
<clus scale="   93.554">  1  5  2 -1</clus>
<clus scale="   86.925">  1  5  2 -1</clus>
</clustering>
</event>
<event>
10    2  0.1671105E-006  0.1825556E+03  0.7546771E-02  0.1165535E+00
         -3   -1    0    0    0  501 -0.00000000000E+00  0.00000000000E+00  0.44745424900E+03  0.44745424900E+03  0.00000000000E+00 0.  1.
         21   -1    0    0  503  502  0.00000000000E+00 -0.00000000000E+00 -0.23556346089E+03  0.23556346089E+03  0.00000000000E+00 0.  1.
         23    2    1    2    0    0  0.70216345585E+02  0.16032731747E+03  0.25181260077E+03  0.31986324229E+03  0.90927025381E+02 0.  0.
         23    2    1    2    0    0 -0.13337869910E+02 -0.12925346437E+03  0.41648488661E+02  0.16482322064E+03  0.92453991956E+02 0.  0.
        -11    1    4    4    0    0 -0.31336896324E+02 -0.10984660921E+03 -0.14587670418E+01  0.11423837633E+03  0.00000000000E+00 0. -1.
         11    1    4    4    0    0  0.17999026414E+02 -0.19406855159E+02  0.43107255702E+02  0.50584844303E+02  0.00000000000E+00 0.  1.
        -13    1    3    3    0    0  0.20004276923E+02  0.61488949169E+02  0.28737900472E+02  0.70759655798E+02  0.00000000000E+00 0. -1.
         13    1    3    3    0    0  0.50212068661E+02  0.98838368299E+02  0.22307470030E+03  0.24910358649E+03  0.00000000000E+00 0.  1.
         21    1    1    2  503  501 -0.69841346377E+02  0.57582994249E+02 -0.49472575522E+02  0.10315595290E+03  0.00000000000E+00 0.  1.
         -3    1    1    2    0  502  0.12962870702E+02 -0.88656847347E+02 -0.32097725799E+02  0.95175294062E+02  0.00000000000E+00 0.  1.
<scales pt_clust_5="13000.00000" pt_clust_6="13000.00000" pt_clust_7="13000.00000" pt_clust_8="13000.00000" pt_clust_9="66.62991" pt_clust_10="89.59951"></scales>
<clustering>
<clus scale="   89.600">  2 10  1 -1</clus>
<clus scale="   66.630">  2  9  1 -1</clus>
<clus scale="   90.927">  7  8 -1 -1</clus>
<clus scale="   92.454">  5  6 -1 -1</clus>
<clus scale="  181.787">  1  7  2 -1</clus>
<clus scale="   89.600">  2  5  1 -1</clus>
</clustering>
</event>
<event>
10    2  0.1671105E-006  0.4306821E+03  0.7546771E-02  0.1033691E+00
         21   -1    0    0  503  502  0.00000000000E+00  0.00000000000E+00  0.11014248099E+04  0.11014248099E+04  0.00000000000E+00 0. -1.
          2   -1    0    0  502    0 -0.00000000000E+00 -0.00000000000E+00 -0.29226877045E+03  0.29226877045E+03  0.00000000000E+00 0. -1.
         23    2    1    2    0    0  0.21752864173E+03 -0.36229869706E+03  0.50727932461E+02  0.43491032955E+03  0.89412615174E+02 0.  0.
         23    2    1    2    0    0 -0.32506101520E+03  0.28294116012E+03  0.59766359212E+03  0.74257507756E+03  0.92171648397E+02 0.  0.
        -11    1    4    4    0    0 -0.28128575527E+03  0.25932577323E+03  0.56745739557E+03  0.68438251627E+03  0.00000000000E+00 0. -1.
         11    1    4    4    0    0 -0.43775259925E+02  0.23615386892E+02  0.30206196547E+02  0.58192561289E+02  0.00000000000E+00 0.  1.
        -11    1    3    3    0    0  0.15935428867E+03 -0.31900150224E+03  0.23199821297E+02  0.35734294376E+03  0.00000000000E+00 0. -1.
         11    1    3    3    0    0  0.58174353066E+02 -0.43297194822E+02  0.27528111164E+02  0.77567385790E+02  0.00000000000E+00 0.  1.
         21    1    1    2  503  501  0.13085206850E+02  0.20813950441E+02  0.65078721616E+02  0.69567831492E+02  0.00000000000E+00 0. -1.
          2    1    1    2  501    0  0.94447166618E+02  0.58543586501E+02  0.95685793296E+02  0.14664034179E+03  0.00000000000E+00 0. -1.
<scales pt_clust_5="13000.00000" pt_clust_6="13000.00000" pt_clust_7="13000.00000" pt_clust_8="13000.00000" pt_clust_9="24.58543" pt_clust_10="113.71484"></scales>
<clustering>
<clus scale="   24.585">  1  9  2 -1</clus>
<clus scale="   89.413">  7  8 -1 -1</clus>
<clus scale="   92.172">  5  6 -1 -1</clus>
<clus scale="  113.715">  1 10  2 -1</clus>
<clus scale="  430.100">  2  7  1 -1</clus>
<clus scale="   24.585">  1  5  2 -1</clus>
</clustering>
</event>
<event>
10    2  0.1671105E-006  0.1035513E+03  0.7546771E-02  0.1276446E+00
          2   -1    0    0  503    0 -0.00000000000E+00  0.00000000000E+00  0.22731392937E+03  0.22731392937E+03  0.00000000000E+00 0. -1.
         21   -1    0    0  501  502  0.00000000000E+00 -0.00000000000E+00 -0.13133262133E+03  0.13133262133E+03  0.00000000000E+00 0. -1.
         23    2    1    2    0    0 -0.23929874073E+02 -0.17099502191E+02  0.72125668925E+02  0.12055611159E+03  0.92014303642E+02 0.  0.
         23    2    1    2    0    0  0.35711926798E+02 -0.38293388525E+02  0.80476719674E+02  0.13788896409E+03  0.98970392986E+02 0.  0.
        -13    1    4    4    0    0  0.48593061954E+02 -0.34814807181E+01 -0.59782705662E+00  0.48721286674E+02  0.00000000000E+00 0.  1.
         13    1    4    4    0    0 -0.12881135156E+02 -0.34811907807E+02  0.81074546730E+02  0.89167677415E+02  0.00000000000E+00 0. -1.
        -13    1    3    3    0    0 -0.41499382673E+01 -0.53877763652E+02  0.32913509295E+02  0.63271909232E+02  0.00000000000E+00 0.  1.
         13    1    3    3    0    0 -0.19779935806E+02  0.36778261461E+02  0.39212159630E+02  0.57284202355E+02  0.00000000000E+00 0. -1.
         21    1    1    2  503  502 -0.33452692278E+02  0.25949801696E+02 -0.45128265174E+02  0.61879198010E+02  0.00000000000E+00 0. -1.
          2    1    1    2  501    0  0.21670639553E+02  0.29443089020E+02 -0.11492815384E+02  0.38322277008E+02  0.00000000000E+00 0. -1.
<scales pt_clust_5="13000.00000" pt_clust_6="13000.00000" pt_clust_7="13000.00000" pt_clust_8="13000.00000" pt_clust_9="46.57880" pt_clust_10="36.55834"></scales>
<clustering>
<clus scale="   36.558">  2 10  1 -1</clus>
<clus scale="   46.579">  2  9  1 -1</clus>
<clus scale="   92.014">  7  8 -1 -1</clus>
<clus scale="   96.925">  1  7  2 -1</clus>
<clus scale="   98.970">  5  6 -1 -1</clus>
<clus scale="   36.558">  2  5  1 -1</clus>
</clustering>
</event>
<event>
10    2  0.1671105E-006  0.1949657E+03  0.7546771E-02  0.1157684E+00
         21   -1    0    0  501  502  0.00000000000E+00  0.00000000000E+00  0.48207571108E+03  0.48207571108E+03  0.00000000000E+00 0.  1.
          1   -1    0    0  503    0 -0.00000000000E+00 -0.00000000000E+00 -0.15937525410E+03  0.15937525410E+03  0.00000000000E+00 0. -1.
         23    2    1    2    0    0  0.84695310047E+02  0.10946196686E+03 -0.32948209644E+02  0.16766537147E+03  0.88717949362E+02 0.  0.
         23    2    1    2    0    0 -0.49837302799E+02 -0.17956141034E+03  0.26784014272E+03  0.34681563130E+03  0.11754438831E+03 0.  0.
        -11    1    3    3    0    0  0.97748686674E+02  0.65729733533E+02 -0.15515479400E+02  0.11881049498E+03  0.00000000000E+00 0. -1.
         11    1    3    3    0    0 -0.13053376627E+02  0.43732233322E+02 -0.17432730244E+02  0.48854876486E+02  0.00000000000E+00 0.  1.
        -13    1    4    4    0    0 -0.38451315208E+02 -0.31318236661E+02  0.12179090601E+02  0.51065309523E+02  0.00000000000E+00 0. -1.
         13    1    4    4    0    0 -0.11385987591E+02 -0.14824317368E+03  0.25566105212E+03  0.29575032177E+03  0.00000000000E+00 0.  1.
         21    1    1    2  503  502  0.25125180297E+01  0.20565344571E+02  0.16370449667E+01  0.20782830905E+02  0.00000000000E+00 0. -1.
          1    1    1    2  501    0 -0.37370525278E+02  0.49534098917E+02  0.86171478936E+02  0.10618713150E+03  0.00000000000E+00 0. -1.
<scales pt_clust_5="13000.00000" pt_clust_6="13000.00000" pt_clust_7="13000.00000" pt_clust_8="13000.00000" pt_clust_9="20.71826" pt_clust_10="63.05286"></scales>
<clustering>
<clus scale="   20.718">  2  9  1 -1</clus>
<clus scale="   63.053">  1 10  2 -1</clus>
<clus scale="   88.718">  5  6 -1 -1</clus>
<clus scale="  117.544">  7  8 -1 -1</clus>
<clus scale="  179.069">  2  5  1 -1</clus>
<clus scale="   63.053">  1  5  2 -1</clus>
</clustering>
</event>
<event>
10    2  0.1671105E-006  0.9298431E+02  0.7546771E-02  0.1295797E+00
         -3   -1    0    0    0  501 -0.00000000000E+00  0.00000000000E+00  0.16444539904E+03  0.16444539904E+03  0.00000000000E+00 0.  1.
         21   -1    0    0  501  502  0.00000000000E+00 -0.00000000000E+00 -0.18171290962E+03  0.18171290962E+03  0.00000000000E+00 0.  1.
         23    2    1    2    0    0  0.14155486773E+02 -0.19755327680E+02  0.65533208825E+02  0.11459981462E+03  0.90817758580E+02 0.  0.
         23    2    1    2    0    0 -0.29548765385E+02 -0.41909373155E+02  0.18337852838E+02  0.10591870621E+03  0.90845860583E+02 0.  0.
        -11    1    3    3    0    0  0.23219363325E+02 -0.49853273010E+02  0.62144619905E+02  0.82984585593E+02  0.00000000000E+00 0.  1.
         11    1    3    3    0    0 -0.90638765520E+01  0.30097945330E+02  0.33885889203E+01  0.31615229022E+02  0.00000000000E+00 0. -1.
        -11    1    4    4    0    0 -0.52083587381E+02 -0.47956334890E+02  0.33260620329E+02  0.78222624574E+02  0.00000000000E+00 0.  1.
         11    1    4    4    0    0  0.22534821996E+02  0.60469617347E+01 -0.14922767491E+02  0.27696081640E+02  0.00000000000E+00 0. -1.
         21    1    1    2  503  502  0.14743095809E+02  0.19908257131E+02 -0.12703786265E+02  0.27840326175E+02  0.00000000000E+00 0. -1.
         -3    1    1    2    0  503  0.65018280292E+00  0.41756443704E+02 -0.88434785985E+02  0.97799461658E+02  0.00000000000E+00 0.  1.
<scales pt_clust_5="13000.00000" pt_clust_6="13000.00000" pt_clust_7="13000.00000" pt_clust_8="13000.00000" pt_clust_9="24.77292" pt_clust_10="54.02049"></scales>
<clustering>
<clus scale="   24.773">  2  9  1 -1</clus>
<clus scale="   54.020">  2 10  1 -1</clus>
<clus scale="   90.818">  5  6 -1 -1</clus>
<clus scale="   90.846">  7  8 -1 -1</clus>
<clus scale="   92.957">  1  5  2 -1</clus>
<clus scale="   24.773">  2  5  1 -1</clus>
</clustering>
</event>
<event>
10    2  0.1671105E-006  0.9906220E+02  0.7546771E-02  0.1283485E+00
         21   -1    0    0  501  502  0.00000000000E+00  0.00000000000E+00  0.85093452436E+02  0.85093452436E+02  0.00000000000E+00 0.  1.
         -3   -1    0    0    0  501 -0.00000000000E+00 -0.00000000000E+00 -0.73267176227E+03  0.73267176227E+03  0.00000000000E+00 0.  1.
         23    2    1    2    0    0 -0.54673812288E+02  0.15333025531E+01 -0.54595672855E+03  0.55627095245E+03  0.91526205633E+02 0.  0.
         23    2    1    2    0    0 -0.92278502892E+01 -0.25588010606E+02 -0.14731455189E+03  0.17430060104E+03  0.89102316559E+02 0.  0.
        -11    1    4    4    0    0  0.82921000568E+01 -0.56648003957E+02 -0.84480496604E+02  0.10205248445E+03  0.00000000000E+00 0. -1.
         11    1    4    4    0    0 -0.17519950346E+02  0.31059993351E+02 -0.62834055288E+02  0.72248116592E+02  0.00000000000E+00 0.  1.
        -11    1    3    3    0    0 -0.11811052428E+02 -0.43101006823E+02 -0.22047149263E+03  0.22495527736E+03  0.00000000000E+00 0. -1.
         11    1    3    3    0    0 -0.42862759860E+02  0.44634309376E+02 -0.32548523592E+03  0.33131567508E+03  0.00000000000E+00 0.  1.
         21    1    1    2  503  502  0.28706073675E+02  0.21592803982E+02  0.10649334038E+02  0.37465933395E+02  0.00000000000E+00 0.  1.
         -3    1    1    2    0  503  0.35195588902E+02  0.24619040711E+01  0.35043636575E+02  0.49727727821E+02  0.00000000000E+00 0.  1.
<scales pt_clust_5="13000.00000" pt_clust_6="13000.00000" pt_clust_7="13000.00000" pt_clust_8="13000.00000" pt_clust_9="28.94243" pt_clust_10="74.26229"></scales>
<clustering>
<clus scale="   28.942">  9 10 -1 -1</clus>
<clus scale="   74.262">  1  9  2 -1</clus>
<clus scale="   89.102">  5  6 -1 -1</clus>
<clus scale="   91.526">  7  8 -1 -1</clus>
<clus scale="   96.827">  1  5  2 -1</clus>
<clus scale="   74.262">  1  5  2 -1</clus>
</clustering>
</event>
<event>
10    2  0.1671105E-006  0.1440799E+03  0.7546771E-02  0.1216910E+00
          3   -1    0    0  503    0 -0.00000000000E+00  0.00000000000E+00  0.47811913721E+03  0.47811913721E+03  0.00000000000E+00 0. -1.
         21   -1    0    0  501  502  0.00000000000E+00 -0.00000000000E+00 -0.12101946660E+03  0.12101946660E+03  0.00000000000E+00 0. -1.
         23    2    1    2    0    0  0.13344003206E+02 -0.71280175632E+02  0.20266911235E+03  0.23304795460E+03  0.89317714832E+02 0.  0.
         23    2    1    2    0    0 -0.11920603137E+03  0.11611299715E+02  0.85313636653E+02  0.17358862090E+03  0.92247994620E+02 0.  0.
        -11    1    3    3    0    0  0.15887733641E+02  0.15943771231E+02  0.18073189139E+02  0.28866314052E+02  0.00000000000E+00 0.  1.
         11    1    3    3    0    0 -0.25437304343E+01 -0.87223946863E+02  0.18459592321E+03  0.20418164055E+03  0.00000000000E+00 0. -1.
        -11    1    4    4    0    0 -0.95992315568E+02 -0.20651134329E+02  0.24940065579E+02  0.10130647002E+03  0.00000000000E+00 0. -1.
         11    1    4    4    0    0 -0.23213715805E+02  0.32262434044E+02  0.60373571074E+02  0.72282150882E+02  0.00000000000E+00 0.  1.
         21    1    1    2  503  502  0.20448247810E+02 -0.35503526638E+02 -0.99379834796E+01  0.42159159834E+02  0.00000000000E+00 0. -1.
          3    1    1    2  501    0  0.85413780357E+02  0.95172402555E+02  0.79054905093E+02  0.15034286848E+03  0.00000000000E+00 0. -1.
<scales pt_clust_5="13000.00000" pt_clust_6="13000.00000" pt_clust_7="13000.00000" pt_clust_8="13000.00000" pt_clust_9="40.97110" pt_clust_10="110.67673"></scales>
<clustering>
<clus scale="   40.971">  2  9  1 -1</clus>
<clus scale="   89.318">  5  6 -1 -1</clus>
<clus scale="   92.248">  7  8 -1 -1</clus>
<clus scale="  119.064">  1  5  2 -1</clus>
<clus scale="  110.677">  2 10  1 -1</clus>
<clus scale="   40.971">  2  5  1 -1</clus>
</clustering>
</event>
<event>
10    2  0.1671105E-006  0.4303155E+03  0.7546771E-02  0.1079164E+00
          2   -1    0    0  503    0 -0.00000000000E+00  0.00000000000E+00  0.79152953132E+03  0.79152953132E+03  0.00000000000E+00 0. -1.
         21   -1    0    0  501  502  0.00000000000E+00 -0.00000000000E+00 -0.79587187839E+03  0.79587187839E+03  0.00000000000E+00 0.  1.
         23    2    1    2    0    0 -0.39685825097E+03  0.15567233449E+03  0.59255143692E+03  0.73549607361E+03  0.90038446296E+02 0.  0.
         23    2    1    2    0    0  0.29632158564E+02  0.59502124246E+02 -0.11662191813E+03  0.16174261418E+03  0.90229894388E+02 0.  0.
        -11    1    3    3    0    0 -0.16070837733E+03  0.10108132572E+03  0.21485379032E+03  0.28671722684E+03  0.00000000000E+00 0. -1.
         11    1    3    3    0    0 -0.23614987364E+03  0.54591008770E+02  0.37769764661E+03  0.44877884677E+03  0.00000000000E+00 0.  1.
        -13    1    4    4    0    0 -0.25378391278E+02 -0.74984110814E+00 -0.51257120726E+02  0.57200676837E+02  0.00000000000E+00 0. -1.
         13    1    4    4    0    0  0.55010549842E+02  0.60251965354E+02 -0.65364797408E+02  0.10454193734E+03  0.00000000000E+00 0.  1.
         21    1    1    2  503  502  0.31778346246E+03 -0.24939467451E+03 -0.30884792063E+03  0.50849884047E+03  0.00000000000E+00 0.  1.
          2    1    1    2  501    0  0.49442629944E+02  0.34220215772E+02 -0.17142394523E+03  0.18166388145E+03  0.00000000000E+00 0. -1.
<scales pt_clust_5="13000.00000" pt_clust_6="13000.00000" pt_clust_7="13000.00000" pt_clust_8="13000.00000" pt_clust_9="420.79034" pt_clust_10="60.12983"></scales>
<clustering>
<clus scale="   60.130">  2 10  1 -1</clus>
<clus scale="   90.038">  5  6 -1 -1</clus>
<clus scale="   90.230">  7  8 -1 -1</clus>
<clus scale="  119.651">  2  7  1 -1</clus>
<clus scale="  420.790">  2  9  1 -1</clus>
<clus scale="   60.130">  2  5  1 -1</clus>
</clustering>
</event>
<event>
10    2  0.1671105E-006  0.9548070E+02  0.7546771E-02  0.1292517E+00
         -1   -1    0    0    0  501 -0.00000000000E+00  0.00000000000E+00  0.60529512605E+02  0.60529512605E+02  0.00000000000E+00 0.  1.
         21   -1    0    0  503  502  0.00000000000E+00 -0.00000000000E+00 -0.30832188302E+03  0.30832188302E+03  0.00000000000E+00 0. -1.
         23    2    1    2    0    0  0.21963147524E+02  0.20820288284E+02 -0.81828686321E+02  0.12336464003E+03  0.87218325200E+02 0.  0.
         23    2    1    2    0    0 -0.12231365194E+02 -0.28978809605E+02 -0.14940195478E+03  0.17806121540E+03  0.91626822697E+02 0.  0.
        -11    1    4    4    0    0 -0.45202663095E+02 -0.29061267344E+02 -0.12781289533E+03  0.13865054714E+03  0.00000000000E+00 0. -1.
         11    1    4    4    0    0  0.32971297900E+02  0.82457739114E-01 -0.21589059445E+02  0.39410668254E+02  0.00000000000E+00 0.  1.
        -13    1    3    3    0    0 -0.24941288259E+02  0.20737206763E+01 -0.65755016684E+02  0.70356878815E+02  0.00000000000E+00 0.  1.
         13    1    3    3    0    0  0.46904435783E+02  0.18746567608E+02 -0.16073669636E+02  0.53007761212E+02  0.00000000000E+00 0. -1.
         21    1    1    2  503  501 -0.33824199869E+02 -0.45588109825E+01 -0.20630054453E+02  0.39880551665E+02  0.00000000000E+00 0.  1.
         -1    1    1    2    0  502  0.24092417540E+02  0.12717332303E+02  0.40683251377E+01  0.27544988532E+02  0.00000000000E+00 0.  1.
<scales pt_clust_5="13000.00000" pt_clust_6="13000.00000" pt_clust_7="13000.00000" pt_clust_8="13000.00000" pt_clust_9="31.53557" pt_clust_10="27.24290"></scales>
<clustering>
<clus scale="   27.243">  2 10  1 -1</clus>
<clus scale="   31.536">  1  9  2 -1</clus>
<clus scale="   87.218">  7  8 -1 -1</clus>
<clus scale="   91.259">  1  7  2 -1</clus>
<clus scale="   91.627">  5  6 -1 -1</clus>
<clus scale="   27.243">  2  5  1 -1</clus>
</clustering>
</event>
<event>
10    2  0.1671105E-006  0.1077049E+03  0.7546771E-02  0.1265035E+00
         21   -1    0    0  503  502  0.00000000000E+00  0.00000000000E+00  0.21318040832E+03  0.21318040832E+03  0.00000000000E+00 0. -1.
         -1   -1    0    0    0  501 -0.00000000000E+00 -0.00000000000E+00 -0.10259527658E+03  0.10259527658E+03  0.00000000000E+00 0.  1.
         23    2    1    2    0    0 -0.46453895647E+02 -0.68219053117E+02  0.12276646844E+01  0.12072033230E+03  0.88091360758E+02 0.  0.
         23    2    1    2    0    0  0.29050037280E+02  0.23141145631E+02  0.47933606250E+02  0.10661647684E+03  0.87692788979E+02 0.  0.
        -11    1    4    4    0    0  0.17279621163E+02 -0.16846628166E+02  0.58782677735E+02  0.63543665221E+02  0.00000000000E+00 0. -1.
         11    1    4    4    0    0  0.11770416117E+02  0.39987773797E+02 -0.10849071485E+02  0.43072811621E+02  0.00000000000E+00 0.  1.
        -11    1    3    3    0    0 -0.43280986304E+02  0.52219079699E+01 -0.13727309223E+02  0.45705044763E+02  0.00000000000E+00 0.  1.
         11    1    3    3    0    0 -0.31729093426E+01 -0.73440961086E+02  0.14954973908E+02  0.75015287532E+02  0.00000000000E+00 0. -1.
         21    1    1    2  503  501  0.19671948701E+02  0.14785991362E+02  0.50465421411E+02  0.56145969262E+02  0.00000000000E+00 0.  1.
         -1    1    1    2    0  502 -0.22680903344E+01  0.30291916123E+02  0.10958439402E+02  0.32292906501E+02  0.00000000000E+00 0.  1.
<scales pt_clust_5="13000.00000" pt_clust_6="13000.00000" pt_clust_7="13000.00000" pt_clust_8="13000.00000" pt_clust_9="24.60917" pt_clust_10="32.29435"></scales>
<clustering>
<clus scale="   24.609">  1  9  2 -1</clus>
<clus scale="   32.294">  1 10  2 -1</clus>
<clus scale="   87.693">  5  6 -1 -1</clus>
<clus scale="   88.091">  7  8 -1 -1</clus>
<clus scale="  107.379">  1  5  2 -1</clus>
<clus scale="   24.609">  1  5  2 -1</clus>
</clustering>
</event>
<event>
10    2  0.1671105E-006  0.1662069E+03  0.7546771E-02  0.1182504E+00
          1   -1    0    0  503    0 -0.00000000000E+00  0.00000000000E+00  0.20764433959E+03  0.20764433959E+03  0.00000000000E+00 0. -1.
         21   -1    0    0  501  502  0.00000000000E+00 -0.00000000000E+00 -0.23906038384E+03  0.23906038384E+03  0.00000000000E+00 0. -1.
         23    2    1    2    0    0 -0.38919422559E+02 -0.12610463035E+03  0.48488028112E+02  0.16887016256E+03  0.93535788259E+02 0.  0.
         23    2    1    2    0    0  0.82420738449E+02  0.13699244395E+03 -0.10884560152E+03  0.21301216824E+03  0.89256434075E+02 0.  0.
        -11    1    4    4    0    0  0.10117656424E+03  0.11965759972E+03 -0.10043526025E+03  0.18612329199E+03  0.00000000000E+00 0. -1.
         11    1    4    4    0    0 -0.18755825790E+02  0.17334844235E+02 -0.84103412658E+01  0.26888876248E+02  0.00000000000E+00 0.  1.
        -13    1    3    3    0    0  0.15488110348E+02 -0.98573500724E+02  0.39123672504E+02  0.10717872157E+03  0.00000000000E+00 0. -1.
         13    1    3    3    0    0 -0.54407532907E+02 -0.27531129622E+02  0.93643556078E+01  0.61691440989E+02  0.00000000000E+00 0.  1.
         21    1    1    2  503  502 -0.20250932633E+02  0.13470004647E+02  0.12670538991E+02  0.27424147316E+02  0.00000000000E+00 0. -1.
          1    1    1    2  501    0 -0.23250383257E+02 -0.24357818252E+02  0.16270990161E+02  0.37398245312E+02  0.00000000000E+00 0. -1.
<scales pt_clust_5="13000.00000" pt_clust_6="13000.00000" pt_clust_7="13000.00000" pt_clust_8="13000.00000" pt_clust_9="24.32162" pt_clust_10="34.45033"></scales>
<clustering>
<clus scale="   24.322">  1  9  2 -1</clus>
<clus scale="   34.450">  2 10  1 -1</clus>
<clus scale="   89.256">  5  6 -1 -1</clus>
<clus scale="   93.536">  7  8 -1 -1</clus>
<clus scale="  163.837">  2  5  1 -1</clus>
<clus scale="   34.450">  2  5  1 -1</clus>
</clustering>
</event>
<event>
10    2  0.1671105E-006  0.3557794E+03  0.7546771E-02  0.1107680E+00
          1   -1    0    0  502    0 -0.00000000000E+00  0.00000000000E+00  0.16744881061E+03  0.16744881061E+03  0.00000000000E+00 0. -1.
         21   -1    0    0  503  502  0.00000000000E+00 -0.00000000000E+00 -0.95583606464E+03  0.95583606464E+03  0.00000000000E+00 0. -1.
         23    2    1    2    0    0 -0.87087147698E+01  0.39835152443E+02 -0.12929561999E+03  0.16350842527E+03  0.91405506957E+02 0.  0.
         23    2    1    2    0    0 -0.30472162663E+03  0.87377822466E+02 -0.27220515546E+03  0.42740820593E+03  0.89955401403E+02 0.  0.
        -13    1    4    4    0    0 -0.15120541223E+03  0.37698529474E+02 -0.19181052100E+03  0.24713464302E+03  0.00000000000E+00 0.  1.
         13    1    4    4    0    0 -0.15351621440E+03  0.49679292992E+02 -0.80394634461E+02  0.18027356291E+03  0.00000000000E+00 0. -1.
        -13    1    3    3    0    0  0.92520412391E+01 -0.26984174663E+02 -0.55167217212E+02  0.62106101184E+02  0.00000000000E+00 0. -1.
         13    1    3    3    0    0 -0.17960756009E+02  0.66819327106E+02 -0.74128402774E+02  0.10140232408E+03  0.00000000000E+00 0.  1.
         21    1    1    2  503  501  0.10318912051E+03 -0.91803392231E+01 -0.42513802219E+02  0.11198078674E+03  0.00000000000E+00 0. -1.
          1    1    1    2  501    0  0.21024122089E+03 -0.11803263569E+03 -0.34437267636E+03  0.42038745732E+03  0.00000000000E+00 0. -1.
<scales pt_clust_5="13000.00000" pt_clust_6="13000.00000" pt_clust_7="13000.00000" pt_clust_8="13000.00000" pt_clust_9="91.09465" pt_clust_10="91.09465"></scales>
<clustering>
<clus scale="   89.955">  5  6 -1 -1</clus>
<clus scale="   91.095">  9 10 -1 -1</clus>
<clus scale="   91.406">  7  8 -1 -1</clus>
<clus scale="  100.088">  1  7  2 -1</clus>
<clus scale="  339.644">  1  5  2 -1</clus>
<clus scale="  355.779">  2  5  1 -1</clus>
</clustering>
</event>
<event>
10    2  0.1671105E-006  0.2134991E+03  0.7546771E-02  0.1159730E+00
          1   -1    0    0  502    0 -0.00000000000E+00  0.00000000000E+00  0.46445210345E+03  0.46445210345E+03  0.00000000000E+00 0. -1.
         21   -1    0    0  503  502  0.00000000000E+00 -0.00000000000E+00 -0.24110570499E+03  0.24110570499E+03  0.00000000000E+00 0. -1.
         23    2    1    2    0    0 -0.85858693994E+02 -0.31528508307E+02  0.24897444333E+03  0.28087531094E+03  0.92395371587E+02 0.  0.
         23    2    1    2    0    0  0.20771042205E+03  0.10878227934E+03 -0.81289394482E+02  0.26447932934E+03  0.91455706592E+02 0.  0.
        -13    1    4    4    0    0  0.11703682399E+03  0.37494967123E+02  0.81672465155E+00  0.12289897383E+03  0.00000000000E+00 0. -1.
         13    1    4    4    0    0  0.90673598060E+02  0.71287312218E+02 -0.82106119134E+02  0.14158035551E+03  0.00000000000E+00 0.  1.
        -13    1    3    3    0    0  0.38376731829E+01 -0.21666566937E+02  0.77554446620E+01  0.23330554648E+02  0.00000000000E+00 0. -1.
         13    1    3    3    0    0 -0.89696367177E+02 -0.98619413706E+01  0.24121899867E+03  0.25754475629E+03  0.00000000000E+00 0.  1.
         21    1    1    2  503  501 -0.27868687046E+02 -0.30348623557E+02  0.32902160849E+02  0.52728122079E+02  0.00000000000E+00 0. -1.
          1    1    1    2  501    0 -0.93983041010E+02 -0.46905147477E+02  0.22759188766E+02  0.10747504608E+03  0.00000000000E+00 0. -1.
<scales pt_clust_5="13000.00000" pt_clust_6="13000.00000" pt_clust_7="13000.00000" pt_clust_8="13000.00000" pt_clust_9="26.20723" pt_clust_10="197.40481"></scales>
<clustering>
<clus scale="   26.207">  9 10 -1 -1</clus>
<clus scale="   91.456">  5  6 -1 -1</clus>
<clus scale="   92.395">  7  8 -1 -1</clus>
<clus scale="  130.010">  1  7  2 -1</clus>
<clus scale="  197.405">  2  9  1 -1</clus>
<clus scale="  197.405">  2  5  1 -1</clus>
</clustering>
</event>
<event>
10    2  0.1671105E-006  0.1670942E+03  0.7546771E-02  0.1204923E+00
         21   -1    0    0  501  502  0.00000000000E+00  0.00000000000E+00  0.77204791283E+03  0.77204791283E+03  0.00000000000E+00 0.  1.
          2   -1    0    0  503    0 -0.00000000000E+00 -0.00000000000E+00 -0.28881052617E+03  0.28881052617E+03  0.00000000000E+00 0. -1.
         23    2    1    2    0    0  0.28100641826E+02  0.31823078984E+02  0.10120665490E+03  0.14126885210E+03  0.88948002505E+02 0.  0.
         23    2    1    2    0    0  0.54052448387E+02  0.30788320012E+02 -0.20207789668E+03  0.24233286159E+03  0.11840672132E+03 0.  0.
        -11    1    3    3    0    0 -0.29936339712E+02  0.24862000517E+02  0.51432910110E+02  0.64495331206E+02  0.00000000000E+00 0.  1.
         11    1    3    3    0    0  0.58036981538E+02  0.69610784669E+01  0.49773744789E+02  0.76773520890E+02  0.00000000000E+00 0. -1.
        -13    1    4    4    0    0  0.75813690172E+01 -0.32149062117E+02 -0.13591809822E+03  0.13987411760E+03  0.00000000000E+00 0.  1.
         13    1    4    4    0    0  0.46471079370E+02  0.62937382129E+02 -0.66159798462E+02  0.10245874399E+03  0.00000000000E+00 0. -1.
         21    1    1    2  503  502 -0.37230986786E+02 -0.17943423174E+03  0.19096503735E+03  0.26467042787E+03  0.00000000000E+00 0.  1.
          2    1    1    2  501    0 -0.44922103428E+02  0.11682283275E+03  0.39314359109E+03  0.41258629745E+03  0.00000000000E+00 0. -1.
<scales pt_clust_5="13000.00000" pt_clust_6="13000.00000" pt_clust_7="13000.00000" pt_clust_8="13000.00000" pt_clust_9="117.89959" pt_clust_10="125.87906"></scales>
<clustering>
<clus scale="   88.948">  5  6 -1 -1</clus>
<clus scale="   98.560">  2  5  1 -1</clus>
<clus scale="  118.407">  7  8 -1 -1</clus>
<clus scale="  125.879">  1 10  2 -1</clus>
<clus scale="  117.900">  1  9  2 -1</clus>
<clus scale="  125.879">  1  5  2 -1</clus>
</clustering>
</event>
<event>
10    2  0.1671105E-006  0.3513668E+03  0.7546771E-02  0.1084513E+00
          2   -1    0    0  502    0 -0.00000000000E+00  0.00000000000E+00  0.38279730695E+03  0.38279730695E+03  0.00000000000E+00 0. -1.
         21   -1    0    0  503  502  0.00000000000E+00 -0.00000000000E+00 -0.56440681451E+03  0.56440681451E+03  0.00000000000E+00 0. -1.
         23    2    1    2    0    0  0.13839116172E+03 -0.93237917957E+02 -0.10442225014E+03  0.21714148764E+03  0.91656949237E+02 0.  0.
         23    2    1    2    0    0  0.22699715204E+03  0.18636243230E+03  0.62155377779E+02  0.31856011148E+03  0.10657668804E+03 0.  0.
        -13    1    4    4    0    0  0.55236807198E+02  0.83516189112E+02  0.63112210281E+02  0.11836050777E+03  0.00000000000E+00 0.  1.
         13    1    4    4    0    0  0.17176034484E+03  0.10284624319E+03 -0.95683250275E+00  0.20019960371E+03  0.00000000000E+00 0. -1.
        -13    1    3    3    0    0  0.14423641928E+03 -0.60458143042E+02 -0.78784875238E+02  0.17511821229E+03  0.00000000000E+00 0. -1.
         13    1    3    3    0    0 -0.58452575671E+01 -0.32779774916E+02 -0.25637374902E+02  0.42023275353E+02  0.00000000000E+00 0.  1.
         21    1    1    2  503  501 -0.64515451305E+02  0.14645918612E+02 -0.10818593728E+02  0.67035724501E+02  0.00000000000E+00 0.  1.
          2    1    1    2  501    0 -0.30087286245E+03 -0.10777043295E+03 -0.12852404147E+03  0.34446679784E+03  0.00000000000E+00 0. -1.
<scales pt_clust_5="13000.00000" pt_clust_6="13000.00000" pt_clust_7="13000.00000" pt_clust_8="13000.00000" pt_clust_9="40.02034" pt_clust_10="346.17505"></scales>
<clustering>
<clus scale="   40.020">  9 10 -1 -1</clus>
<clus scale="   91.657">  7  8 -1 -1</clus>
<clus scale="  106.577">  5  6 -1 -1</clus>
<clus scale="  190.385">  1  7  2 -1</clus>
<clus scale="  346.175">  2  9  1 -1</clus>
<clus scale="  346.175">  2  5  1 -1</clus>
</clustering>
</event>
<event>
10    2  0.1671105E-006  0.1042123E+03  0.7546771E-02  0.1272085E+00
         21   -1    0    0  501  502  0.00000000000E+00  0.00000000000E+00  0.60584943769E+02  0.60584943769E+02  0.00000000000E+00 0. -1.
         -2   -1    0    0    0  501 -0.00000000000E+00 -0.00000000000E+00 -0.46358013900E+03  0.46358013900E+03  0.00000000000E+00 0.  1.
         23    2    1    2    0    0  0.59151347565E+02  0.48209628916E+02 -0.28319277748E+03  0.30688965796E+03  0.90333065425E+02 0.  0.
         23    2    1    2    0    0 -0.49589322791E+01 -0.17001656096E+02 -0.11814412088E+03  0.15033313863E+03  0.91259914276E+02 0.  0.
        -11    1    4    4    0    0 -0.47762671540E+02 -0.72432904055E+01 -0.71378380065E+02  0.86189391397E+02  0.00000000000E+00 0.  1.
         11    1    4    4    0    0  0.42803739261E+02 -0.97583656904E+01 -0.46765740812E+02  0.64143747235E+02  0.00000000000E+00 0. -1.
        -11    1    3    3    0    0 -0.16657627843E+02  0.35451206337E+02 -0.69331461455E+02  0.79631125470E+02  0.00000000000E+00 0.  1.
         11    1    3    3    0    0  0.75808975408E+02  0.12758422580E+02 -0.21386131602E+03  0.22725853249E+03  0.00000000000E+00 0. -1.
         21    1    1    2  503  502 -0.31605958518E+02 -0.57858620506E+01 -0.59132651214E+01  0.32670774676E+02  0.00000000000E+00 0.  1.
         -2    1    1    2    0  503 -0.22586456768E+02 -0.25422110770E+02  0.42549682509E+01  0.34271511495E+02  0.00000000000E+00 0.  1.
<scales pt_clust_5="13000.00000" pt_clust_6="13000.00000" pt_clust_7="13000.00000" pt_clust_8="13000.00000" pt_clust_9="23.16154" pt_clust_10="66.92174"></scales>
<clustering>
<clus scale="   23.162">  9 10 -1 -1</clus>
<clus scale="   66.922">  1  9  2 -1</clus>
<clus scale="   90.333">  7  8 -1 -1</clus>
<clus scale="   91.260">  5  6 -1 -1</clus>
<clus scale="  103.402">  2  7  1 -1</clus>
<clus scale="   66.922">  1  5  2 -1</clus>
</clustering>
</event>
<event>
10    2  0.1671105E-006  0.1777446E+03  0.7546771E-02  0.1170540E+00
         21   -1    0    0  501  502  0.00000000000E+00  0.00000000000E+00  0.10370459621E+03  0.10370459621E+03  0.00000000000E+00 0. -1.
         -1   -1    0    0    0  501 -0.00000000000E+00 -0.00000000000E+00 -0.79985691234E+03  0.79985691234E+03  0.00000000000E+00 0.  1.
         23    2    1    2    0    0 -0.14691871962E+03  0.91826274311E+02 -0.32726700902E+03  0.38043585391E+03  0.87238574732E+02 0.  0.
         23    2    1    2    0    0  0.13313826244E+03  0.22210911394E+02 -0.26510988139E+02  0.16052104880E+03  0.82734836100E+02 0.  0.
        -11    1    4    4    0    0  0.19536322181E+02 -0.18408638578E+02 -0.29439376777E+02  0.39839964403E+02  0.00000000000E+00 0.  1.
         11    1    4    4    0    0  0.11360194026E+03  0.40619549972E+02  0.29283886382E+01  0.12068108439E+03  0.00000000000E+00 0. -1.
        -13    1    3    3    0    0 -0.85576770485E+02  0.86911053080E+02 -0.15328258466E+03  0.19588891126E+03  0.00000000000E+00 0.  1.
         13    1    3    3    0    0 -0.61341949137E+02  0.49152212305E+01 -0.17398442436E+03  0.18454694265E+03  0.00000000000E+00 0. -1.
         21    1    1    2  503  502 -0.91116551363E+01 -0.41084455615E+02 -0.10122733130E+03  0.10962630777E+03  0.00000000000E+00 0.  1.
         -1    1    1    2    0  503  0.22892112320E+02 -0.72952730090E+02 -0.24114698768E+03  0.25297829808E+03  0.00000000000E+00 0.  1.
<scales pt_clust_5="13000.00000" pt_clust_6="13000.00000" pt_clust_7="13000.00000" pt_clust_8="13000.00000" pt_clust_9="24.23972" pt_clust_10="119.42337"></scales>
<clustering>
<clus scale="   24.240">  9 10 -1 -1</clus>
<clus scale="   82.735">  5  6 -1 -1</clus>
<clus scale="   87.239">  7  8 -1 -1</clus>
<clus scale="  119.423">  1  9  2 -1</clus>
<clus scale="  175.578">  1  5  2 -1</clus>
<clus scale="  119.423">  1  5  2 -1</clus>
</clustering>
</event>
<event>
10    2  0.1671105E-006  0.1683740E+03  0.7546771E-02  0.1196199E+00
          2   -1    0    0  502    0 -0.00000000000E+00  0.00000000000E+00  0.61519154602E+03  0.61519154602E+03  0.00000000000E+00 0. -1.
         21   -1    0    0  503  502  0.00000000000E+00 -0.00000000000E+00 -0.20941841220E+03  0.20941841220E+03  0.00000000000E+00 0. -1.
         23    2    1    2    0    0 -0.49198177119E+02  0.54086916780E+02  0.46226107257E+03  0.47669206258E+03  0.90576863037E+02 0.  0.
         23    2    1    2    0    0 -0.34668441019E+02  0.93388799814E+02  0.40556390611E+02  0.13991499898E+03  0.89487526434E+02 0.  0.
        -13    1    3    3    0    0 -0.30021743405E+02  0.67619216805E+02  0.43253742335E+03  0.43881919529E+03  0.00000000000E+00 0. -1.
         13    1    3    3    0    0 -0.19176433715E+02 -0.13532300024E+02  0.29723649222E+02  0.37872867294E+02  0.00000000000E+00 0.  1.
        -13    1    4    4    0    0 -0.20258742600E+02  0.10997568800E+03  0.35977510462E+02  0.11747105968E+03  0.00000000000E+00 0. -1.
         13    1    4    4    0    0 -0.14409698419E+02 -0.16586888184E+02  0.45788801488E+01  0.22443939306E+02  0.00000000000E+00 0.  1.
         21    1    1    2  503  501  0.28618125431E+02 -0.75314802481E+02 -0.83646967212E+02  0.11613841612E+03  0.00000000000E+00 0. -1.
          2    1    1    2  501    0  0.55248492707E+02 -0.72160914113E+02 -0.13397362149E+02  0.91864480539E+02  0.00000000000E+00 0. -1.
<scales pt_clust_5="13000.00000" pt_clust_6="13000.00000" pt_clust_7="13000.00000" pt_clust_8="13000.00000" pt_clust_9="67.00840" pt_clust_10="159.39481"></scales>
<clustering>
<clus scale="   67.008">  9 10 -1 -1</clus>
<clus scale="   89.488">  7  8 -1 -1</clus>
<clus scale="   90.577">  5  6 -1 -1</clus>
<clus scale="  116.405">  1  5  2 -1</clus>
<clus scale="  159.395">  2  9  1 -1</clus>
<clus scale="  159.395">  2  5  1 -1</clus>
</clustering>
</event>
<event>
10    2  0.1671105E-006  0.1485353E+03  0.7546771E-02  0.1203336E+00
         21   -1    0    0  501  502  0.00000000000E+00  0.00000000000E+00  0.24413560461E+03  0.24413560461E+03  0.00000000000E+00 0. -1.
          1   -1    0    0  503    0 -0.00000000000E+00 -0.00000000000E+00 -0.49426222179E+03  0.49426222179E+03  0.00000000000E+00 0. -1.
         23    2    1    2    0    0  0.11183452802E+03 -0.36579786851E+02 -0.44186089450E+03  0.46634658697E+03  0.91613572302E+02 0.  0.
         23    2    1    2    0    0 -0.11292804406E+03 -0.28446541554E+01  0.13389195386E+03  0.19519332490E+03  0.86096129891E+02 0.  0.
        -11    1    4    4    0    0  0.38337086025E+01 -0.20986787196E+02  0.86886624806E+01  0.23035525046E+02  0.00000000000E+00 0. -1.
         11    1    4    4    0    0 -0.11676175267E+03  0.18142133040E+02  0.12520329138E+03  0.17215779985E+03  0.00000000000E+00 0.  1.
        -11    1    3    3    0    0  0.50499335531E+02  0.26194061357E+02 -0.12111514178E+03  0.13381027355E+03  0.00000000000E+00 0.  1.
         11    1    3    3    0    0  0.61335192485E+02 -0.62773848209E+02 -0.32074575272E+03  0.33253631342E+03  0.00000000000E+00 0. -1.
         21    1    1    2  503  502  0.16299335990E+02  0.17813127720E+02  0.29158862702E+02  0.37857828080E+02  0.00000000000E+00 0.  1.
          1    1    1    2  501    0 -0.15205819942E+02  0.21611313287E+02  0.28683460765E+02  0.39000086455E+02  0.00000000000E+00 0. -1.
<scales pt_clust_5="13000.00000" pt_clust_6="13000.00000" pt_clust_7="13000.00000" pt_clust_8="13000.00000" pt_clust_9="24.14489" pt_clust_10="27.52050"></scales>
<clustering>
<clus scale="   24.145">  1  9  2 -1</clus>
<clus scale="   27.521">  1 10  2 -1</clus>
<clus scale="   86.096">  5  6 -1 -1</clus>
<clus scale="   91.614">  7  8 -1 -1</clus>
<clus scale="  145.197">  1  5  2 -1</clus>
<clus scale="   24.145">  1  5  2 -1</clus>
</clustering>
</event>
<event>
10    2  0.1671105E-006  0.1075724E+03  0.7546771E-02  0.1265544E+00
         21   -1    0    0  503  502  0.00000000000E+00  0.00000000000E+00  0.12935473846E+03  0.12935473846E+03  0.00000000000E+00 0. -1.
          2   -1    0    0  502    0 -0.00000000000E+00 -0.00000000000E+00 -0.27053470832E+03  0.27053470832E+03  0.00000000000E+00 0. -1.
         23    2    1    2    0    0 -0.15304075580E+02  0.39003319918E+02 -0.11641075233E+03  0.15350071163E+03  0.90859955528E+02 0.  0.
         23    2    1    2    0    0  0.90809611300E+02 -0.76790442021E+02 -0.64702820992E+01  0.15041523188E+03  0.91867948385E+02 0.  0.
        -11    1    3    3    0    0  0.19007147348E+02 -0.16740757909E+02 -0.74694408065E+01  0.26406763748E+02  0.00000000000E+00 0.  1.
         11    1    3    3    0    0 -0.34311222927E+02  0.55744077828E+02 -0.10894131152E+03  0.12709394788E+03  0.00000000000E+00 0. -1.
        -11    1    4    4    0    0  0.56793127795E+02 -0.15592909355E+02  0.35516235492E+02  0.68775003965E+02  0.00000000000E+00 0. -1.
         11    1    4    4    0    0  0.34016483505E+02 -0.61197532666E+02 -0.41986517591E+02  0.81640227914E+02  0.00000000000E+00 0.  1.
         21    1    1    2  503  501 -0.37533519702E+02 -0.22577966436E+01  0.70290569482E+00  0.37607935642E+02  0.00000000000E+00 0. -1.
          2    1    1    2  501    0 -0.37972016019E+02  0.40044918746E+02 -0.19001841129E+02  0.58365567625E+02  0.00000000000E+00 0. -1.
<scales pt_clust_5="13000.00000" pt_clust_6="13000.00000" pt_clust_7="13000.00000" pt_clust_8="13000.00000" pt_clust_9="34.50232" pt_clust_10="94.21286"></scales>
<clustering>
<clus scale="   34.502">  9 10 -1 -1</clus>
<clus scale="   90.860">  5  6 -1 -1</clus>
<clus scale="   91.868">  7  8 -1 -1</clus>
<clus scale="   94.213">  1  9  2 -1</clus>
<clus scale="  106.713">  2  5  1 -1</clus>
<clus scale="   94.213">  1  5  2 -1</clus>
</clustering>
</event>
<event>
10    2  0.1671105E-006  0.2155804E+03  0.7546771E-02  0.1137255E+00
         -1   -1    0    0    0  501 -0.00000000000E+00  0.00000000000E+00  0.92838003098E+03  0.92838003098E+03  0.00000000000E+00 0.  1.
         21   -1    0    0  503  502  0.00000000000E+00 -0.00000000000E+00 -0.15322924290E+03  0.15322924290E+03  0.00000000000E+00 0. -1.
         23    2    1    2    0    0 -0.33345324092E+01  0.16001657788E+03  0.33540032077E+03  0.38276257300E+03  0.91637262143E+02 0.  0.
         23    2    1    2    0    0 -0.13798573695E+03 -0.25870860957E+03  0.39959863218E+03  0.50395487949E+03  0.91220860877E+02 0.  0.
        -13    1    4    4    0    0 -0.66941301758E+02 -0.95890804721E+02  0.23161720943E+03  0.25946621363E+03  0.00000000000E+00 0.  1.
         13    1    4    4    0    0 -0.71044435192E+02 -0.16281780485E+03  0.16798142275E+03  0.24448866586E+03  0.00000000000E+00 0. -1.
        -13    1    3    3    0    0  0.30329203505E+02  0.13545223355E+03  0.22064626288E+03  0.26067593192E+03  0.00000000000E+00 0.  1.
         13    1    3    3    0    0 -0.33663735914E+02  0.24564344331E+02  0.11475405789E+03  0.12208664108E+03  0.00000000000E+00 0. -1.
         21    1    1    2  503  501  0.35874604642E+02  0.49101305351E+00  0.35875464129E+02  0.50737336139E+02  0.00000000000E+00 0.  1.
         -1    1    1    2    0  502  0.10544566472E+03  0.98201018636E+02  0.42763710015E+01  0.14415448525E+03  0.00000000000E+00 0.  1.
<scales pt_clust_5="13000.00000" pt_clust_6="13000.00000" pt_clust_7="13000.00000" pt_clust_8="13000.00000" pt_clust_9="35.87796" pt_clust_10="157.27018"></scales>
<clustering>
<clus scale="   35.878">  2  9  1 -1</clus>
<clus scale="   91.221">  5  6 -1 -1</clus>
<clus scale="   91.637">  7  8 -1 -1</clus>
<clus scale="  157.270">  2 10  1 -1</clus>
<clus scale="  215.404">  2  5  1 -1</clus>
<clus scale="   35.878">  2  5  1 -1</clus>
</clustering>
</event>
<event>
10    2  0.1671105E-006  0.1014819E+03  0.7546771E-02  0.1278191E+00
         -1   -1    0    0    0  501 -0.00000000000E+00  0.00000000000E+00  0.40877214735E+03  0.40877214735E+03  0.00000000000E+00 0.  1.
         21   -1    0    0  503  502  0.00000000000E+00 -0.00000000000E+00 -0.12949565307E+03  0.12949565307E+03  0.00000000000E+00 0.  1.
         23    2    1    2    0    0  0.62710362618E+02 -0.12961070558E+02  0.26655916608E+03  0.28907584957E+03  0.91708662903E+02 0.  0.
         23    2    1    2    0    0  0.16533666038E+02 -0.25538981297E+02  0.66982144191E+02  0.11917014585E+03  0.93751343153E+02 0.  0.
        -13    1    3    3    0    0 -0.10971091661E+02 -0.33495651546E+02  0.78048065368E+02  0.85637748875E+02  0.00000000000E+00 0. -1.
         13    1    3    3    0    0  0.73681454279E+02  0.20534580989E+02  0.18851110072E+03  0.20343810070E+03  0.00000000000E+00 0.  1.
        -13    1    4    4    0    0  0.22732129404E+02  0.25844859851E+02  0.56810215660E+02  0.66423693749E+02  0.00000000000E+00 0.  1.
         13    1    4    4    0    0 -0.61984633662E+01 -0.51383841147E+02  0.10171928531E+02  0.52746452100E+02  0.00000000000E+00 0. -1.
         21    1    1    2  503  501 -0.49601531242E+02 -0.18975318333E+02 -0.19298888006E+02  0.56505058938E+02  0.00000000000E+00 0.  1.
         -1    1    1    2    0  502 -0.29642497414E+02  0.57475370187E+02 -0.34965927992E+02  0.73516746061E+02  0.00000000000E+00 0.  1.
<scales pt_clust_5="13000.00000" pt_clust_6="13000.00000" pt_clust_7="13000.00000" pt_clust_8="13000.00000" pt_clust_9="53.10720" pt_clust_10="74.97266"></scales>
<clustering>
<clus scale="   53.107">  2  9  1 -1</clus>
<clus scale="   74.973">  2 10  1 -1</clus>
<clus scale="   91.709">  5  6 -1 -1</clus>
<clus scale="   93.751">  7  8 -1 -1</clus>
<clus scale="   99.598">  1  5  2 -1</clus>
<clus scale="   53.107">  2  5  1 -1</clus>
</clustering>
</event>
<event>
10    2  0.1671105E-006  0.1426025E+03  0.7546771E-02  0.1221243E+00
         21   -1    0    0  503  502  0.00000000000E+00  0.00000000000E+00  0.23205064810E+03  0.23205064810E+03  0.00000000000E+00 0.  1.
         -1   -1    0    0    0  501 -0.00000000000E+00 -0.00000000000E+00 -0.34422217992E+03  0.34422217992E+03  0.00000000000E+00 0.  1.
         23    2    1    2    0    0  0.13322825055E+02 -0.53701448697E+02 -0.16738514583E+03  0.19882511333E+03  0.91936365974E+02 0.  0.
         23    2    1    2    0    0 -0.22850464601E+02  0.86303715819E+02 -0.90419587369E+02  0.17990529111E+03  0.12735673084E+03 0.  0.
        -11    1    3    3    0    0 -0.77978033645E+01 -0.64844832419E+02 -0.59573890700E+02  0.88400828514E+02  0.00000000000E+00 0. -1.
         11    1    3    3    0    0  0.21120628420E+02  0.11143383722E+02 -0.10781125513E+03  0.11042428482E+03  0.00000000000E+00 0.  1.
        -11    1    4    4    0    0 -0.19539388601E+02  0.11930556241E+03 -0.80655664501E+02  0.14533045498E+03  0.00000000000E+00 0.  1.
         11    1    4    4    0    0 -0.33110759994E+01 -0.33001846596E+02 -0.97639228681E+01  0.34574836121E+02  0.00000000000E+00 0. -1.
         21    1    1    2  503  501 -0.44661491913E+01  0.33728635168E+02 -0.30245045380E+01  0.34157209292E+02  0.00000000000E+00 0.  1.
         -1    1    1    2    0  502  0.13993788737E+02 -0.66330902290E+02  0.14865770591E+03  0.16338521429E+03  0.00000000000E+00 0.  1.
<scales pt_clust_5="13000.00000" pt_clust_6="13000.00000" pt_clust_7="13000.00000" pt_clust_8="13000.00000" pt_clust_9="34.02304" pt_clust_10="43.38191"></scales>
<clustering>
<clus scale="   34.023">  1  9  2 -1</clus>
<clus scale="   43.382">  1 10  2 -1</clus>
<clus scale="   91.936">  5  6 -1 -1</clus>
<clus scale="  112.107">  2  5  1 -1</clus>
<clus scale="  127.357">  7  8 -1 -1</clus>
<clus scale="   34.023">  1  5  2 -1</clus>
</clustering>
</event>
<event>
10    2  0.1671105E-006  0.2609491E+03  0.7546771E-02  0.1126578E+00
          2   -1    0    0  503    0 -0.00000000000E+00  0.00000000000E+00  0.41276753262E+03  0.41276753262E+03  0.00000000000E+00 0. -1.
         21   -1    0    0  501  502  0.00000000000E+00 -0.00000000000E+00 -0.61637026849E+03  0.61637026849E+03  0.00000000000E+00 0.  1.
         23    2    1    2    0    0  0.46944330792E+02 -0.29138914517E+03  0.91442624004E+02  0.32234882317E+03  0.91845556222E+02 0.  0.
         23    2    1    2    0    0 -0.21562362849E+02  0.13789412152E+03  0.12187206145E+02  0.16810421145E+03  0.92901957314E+02 0.  0.
        -11    1    3    3    0    0  0.37339738959E+02 -0.38258972134E+02  0.31465382833E+02  0.62032857190E+02  0.00000000000E+00 0.  1.
         11    1    3    3    0    0  0.96045918333E+01 -0.25313017304E+03  0.59977241171E+02  0.26031596598E+03  0.00000000000E+00 0. -1.
        -13    1    4    4    0    0  0.24714278446E+01  0.13004231690E+03 -0.15058139483E+02  0.13093456269E+03  0.00000000000E+00 0.  1.
         13    1    4    4    0    0 -0.24033790694E+02  0.78518046152E+01  0.27245345628E+02  0.37169648764E+02  0.00000000000E+00 0. -1.
         21    1    1    2  503  502 -0.68939898127E+02  0.19316952728E+03  0.20106087615E+02  0.20608597862E+03  0.00000000000E+00 0.  1.
          2    1    1    2  501    0  0.43557930184E+02 -0.39674503629E+02 -0.32733865364E+03  0.33259878787E+03  0.00000000000E+00 0. -1.
<scales pt_clust_5="13000.00000" pt_clust_6="13000.00000" pt_clust_7="13000.00000" pt_clust_8="13000.00000" pt_clust_9="244.25162" pt_clust_10="58.91824"></scales>
<clustering>
<clus scale="   58.918">  2 10  1 -1</clus>
<clus scale="   91.846">  5  6 -1 -1</clus>
<clus scale="   92.902">  7  8 -1 -1</clus>
<clus scale="  157.728">  2  7  1 -1</clus>
<clus scale="  244.252">  1  9  2 -1</clus>
<clus scale="   58.918">  2  5  1 -1</clus>
</clustering>
</event>
<event>
10    2  0.1671105E-006  0.1003033E+03  0.7546771E-02  0.1281273E+00
         21   -1    0    0  501  502  0.00000000000E+00  0.00000000000E+00  0.10994839679E+03  0.10994839679E+03  0.00000000000E+00 0.  1.
          2   -1    0    0  503    0 -0.00000000000E+00 -0.00000000000E+00 -0.57960234770E+03  0.57960234770E+03  0.00000000000E+00 0. -1.
         23    2    1    2    0    0  0.44751682922E+02 -0.85390272075E+01 -0.37726599761E+03  0.39179023198E+03  0.95364169421E+02 0.  0.
         23    2    1    2    0    0 -0.66229951123E+01 -0.18592098516E+01 -0.15861393562E+03  0.18357900675E+03  0.92171310194E+02 0.  0.
        -13    1    3    3    0    0  0.69245666627E+02  0.15734698299E+02 -0.24260854825E+03  0.25278736274E+03  0.00000000000E+00 0.  1.
         13    1    3    3    0    0 -0.24493983705E+02 -0.24273725506E+02 -0.13465744937E+03  0.13900286924E+03  0.00000000000E+00 0. -1.
        -13    1    4    4    0    0 -0.14613598337E+02  0.43301644516E+02 -0.91692862664E+02  0.10245082107E+03  0.00000000000E+00 0.  1.
         13    1    4    4    0    0  0.79906032251E+01 -0.45160854368E+02 -0.66921072954E+02  0.81128185685E+02  0.00000000000E+00 0. -1.
         21    1    1    2  503  502 -0.23784126568E+02  0.35377493142E+02  0.73050463433E+02  0.84579086690E+02  0.00000000000E+00 0.  1.
          2    1    1    2  501    0 -0.14344561241E+02 -0.24979256083E+02 -0.68244811081E+01  0.29602419058E+02  0.00000000000E+00 0. -1.
<scales pt_clust_5="13000.00000" pt_clust_6="13000.00000" pt_clust_7="13000.00000" pt_clust_8="13000.00000" pt_clust_9="38.47271" pt_clust_10="28.80503"></scales>
<clustering>
<clus scale="   28.805">  1 10  2 -1</clus>
<clus scale="   38.473">  1  9  2 -1</clus>
<clus scale="   92.171">  7  8 -1 -1</clus>
<clus scale="   95.364">  5  6 -1 -1</clus>
<clus scale="   97.273">  1  7  2 -1</clus>
<clus scale="   28.805">  1  5  2 -1</clus>
</clustering>
</event>
<event>
10    2  0.1671105E-006  0.1316441E+03  0.7546771E-02  0.1243199E+00
          1   -1    0    0  503    0 -0.00000000000E+00  0.00000000000E+00  0.28303645510E+03  0.28303645510E+03  0.00000000000E+00 0. -1.
         21   -1    0    0  501  502  0.00000000000E+00 -0.00000000000E+00 -0.23158151816E+03  0.23158151816E+03  0.00000000000E+00 0. -1.
         23    2    1    2    0    0 -0.85408647584E+01 -0.35160418425E-01  0.19367301679E+03  0.21389738279E+03  0.90387528582E+02 0.  0.
         23    2    1    2    0    0 -0.29740226146E+02 -0.88309359285E+02 -0.57871138379E+02  0.14082007987E+03  0.88307430322E+02 0.  0.
        -13    1    3    3    0    0  0.19847841076E+02 -0.37049576890E+02  0.11492956869E+03  0.12237407283E+03  0.00000000000E+00 0. -1.
         13    1    3    3    0    0 -0.28388705835E+02  0.37014416472E+02  0.78743448105E+02  0.91523309955E+02  0.00000000000E+00 0.  1.
        -13    1    4    4    0    0 -0.43712701703E+02 -0.34604926831E+02 -0.64129659903E+02  0.84975964428E+02  0.00000000000E+00 0.  1.
         13    1    4    4    0    0  0.13972475557E+02 -0.53704432454E+02  0.62585215240E+01  0.55844115447E+02  0.00000000000E+00 0. -1.
         21    1    1    2  503  502  0.17704400146E+02 -0.10773344748E+02 -0.48101473746E+02  0.52376163644E+02  0.00000000000E+00 0. -1.
          1    1    1    2  501    0  0.20576690758E+02  0.99117864451E+02 -0.36245467734E+02  0.10752434695E+03  0.00000000000E+00 0. -1.
<scales pt_clust_5="13000.00000" pt_clust_6="13000.00000" pt_clust_7="13000.00000" pt_clust_8="13000.00000" pt_clust_9="20.72464" pt_clust_10="97.63184"></scales>
<clustering>
<clus scale="   20.725">  2  9  1 -1</clus>
<clus scale="   88.307">  7  8 -1 -1</clus>
<clus scale="   90.388">  5  6 -1 -1</clus>
<clus scale="   90.705">  1  5  2 -1</clus>
<clus scale="   97.632">  2 10  1 -1</clus>
<clus scale="   20.725">  2  5  1 -1</clus>
</clustering>
</event>
<event>
10    2  0.1671105E-006  0.1255216E+03  0.7546771E-02  0.1250422E+00
         21   -1    0    0  501  502  0.00000000000E+00  0.00000000000E+00  0.99401739642E+03  0.99401739642E+03  0.00000000000E+00 0. -1.
         -1   -1    0    0    0  501 -0.00000000000E+00 -0.00000000000E+00 -0.41184350509E+02  0.41184350509E+02  0.00000000000E+00 0.  1.
         23    2    1    2    0    0  0.11878026677E+02 -0.35074212559E+02  0.81192738854E+02  0.12147121427E+03  0.82411814379E+02 0.  0.
         23    2    1    2    0    0  0.97107844326E+02  0.22412155798E+02  0.62603012786E+03  0.64055763506E+03  0.92022414018E+02 0.  0.
        -13    1    4    4    0    0 -0.15815231898E+02  0.16037836158E+02  0.99834642260E+02  0.10234397659E+03  0.00000000000E+00 0.  1.
         13    1    4    4    0    0  0.11292307622E+03  0.63743196399E+01  0.52619548560E+03  0.53821365847E+03  0.00000000000E+00 0. -1.
        -13    1    3    3    0    0  0.99602428926E+01  0.23898383981E+02  0.45953634318E+02  0.52745385604E+02  0.00000000000E+00 0.  1.
         13    1    3    3    0    0  0.19177837841E+01 -0.58972596541E+02  0.35239104535E+02  0.68725828666E+02  0.00000000000E+00 0. -1.
         21    1    1    2  503  502 -0.21486077526E+02 -0.99500909122E+01  0.91540123750E+02  0.94552895739E+02  0.00000000000E+00 0. -1.
         -1    1    1    2    0  503 -0.87499793477E+02  0.22612147674E+02  0.15407005545E+03  0.17862000187E+03  0.00000000000E+00 0.  1.
<scales pt_clust_5="13000.00000" pt_clust_6="13000.00000" pt_clust_7="13000.00000" pt_clust_8="13000.00000" pt_clust_9="23.67817" pt_clust_10="85.36716"></scales>
<clustering>
<clus scale="   23.678">  1  9  2 -1</clus>
<clus scale="   82.412">  7  8 -1 -1</clus>
<clus scale="   90.505">  2  7  1 -1</clus>
<clus scale="   85.367">  1 10  2 -1</clus>
<clus scale="   92.022">  5  6 -1 -1</clus>
<clus scale="   23.678">  1  5  2 -1</clus>
</clustering>
</event>
<event>
10    2  0.1671105E-006  0.1329075E+03  0.7546771E-02  0.1224015E+00
          1   -1    0    0  502    0 -0.00000000000E+00  0.00000000000E+00  0.40647727273E+03  0.40647727273E+03  0.00000000000E+00 0. -1.
         21   -1    0    0  503  502  0.00000000000E+00 -0.00000000000E+00 -0.90499477416E+02  0.90499477416E+02  0.00000000000E+00 0.  1.
         23    2    1    2    0    0 -0.89500138869E+02  0.37879990167E+01  0.26555734589E+03  0.29552734086E+03  0.93760767094E+02 0.  0.
         23    2    1    2    0    0  0.95900540558E+02  0.32638943660E+02  0.41204193562E+02  0.14607842368E+03  0.96844751930E+02 0.  0.
        -11    1    4    4    0    0  0.41594460619E+02 -0.26746504862E+02  0.43079351773E+02  0.65584336741E+02  0.00000000000E+00 0. -1.
         11    1    4    4    0    0  0.54306079939E+02  0.59385448522E+02 -0.18751582111E+01  0.80494086943E+02  0.00000000000E+00 0.  1.
        -13    1    3    3    0    0 -0.20640496678E+02  0.25411361085E+02  0.18284346039E+03  0.18575117330E+03  0.00000000000E+00 0.  1.
         13    1    3    3    0    0 -0.68859642191E+02 -0.21623362068E+02  0.82713885503E+02  0.10977616756E+03  0.00000000000E+00 0. -1.
         21    1    1    2  503  501  0.16292814305E+02 -0.19972648297E+02  0.91166601047E+01  0.27340006756E+02  0.00000000000E+00 0. -1.
          1    1    1    2  501    0 -0.22693215994E+02 -0.16454294379E+02  0.99595758311E-01  0.28030978845E+02  0.00000000000E+00 0. -1.
<scales pt_clust_5="13000.00000" pt_clust_6="13000.00000" pt_clust_7="13000.00000" pt_clust_8="13000.00000" pt_clust_9="25.77523" pt_clust_10="28.12797"></scales>
<clustering>
<clus scale="   25.775">  2  9  1 -1</clus>
<clus scale="   28.128">  2 10  1 -1</clus>
<clus scale="   93.761">  7  8 -1 -1</clus>
<clus scale="   96.845">  5  6 -1 -1</clus>
<clus scale="  130.677">  1  7  2 -1</clus>
<clus scale="   25.775">  2  5  1 -1</clus>
</clustering>
</event>
<event>
10    2  0.1671105E-006  0.1675354E+03  0.7546771E-02  0.1202511E+00
         -3   -1    0    0    0  501 -0.00000000000E+00  0.00000000000E+00  0.75372220749E+03  0.75372220749E+03  0.00000000000E+00 0.  1.
         21   -1    0    0  501  502  0.00000000000E+00 -0.00000000000E+00 -0.77766346390E+02  0.77766346390E+02  0.00000000000E+00 0.  1.
         23    2    1    2    0    0  0.30234563078E+02  0.37721207607E+02  0.13244948106E+03  0.16779052072E+03  0.90960296294E+02 0.  0.
         23    2    1    2    0    0  0.49888719620E+02 -0.14724513193E+03  0.45226857264E+03  0.48733697570E+03  0.93704070715E+02 0.  0.
        -11    1    4    4    0    0  0.22105252839E+02 -0.91938793930E+02  0.38275604085E+03  0.39426332678E+03  0.00000000000E+00 0.  1.
         11    1    4    4    0    0  0.27783466781E+02 -0.55306337997E+02  0.69512531789E+02  0.93073648928E+02  0.00000000000E+00 0. -1.
        -11    1    3    3    0    0  0.57742848646E+01  0.55105369809E+02  0.12520938202E+03  0.13692090232E+03  0.00000000000E+00 0. -1.
         11    1    3    3    0    0  0.24460278213E+02 -0.17384162202E+02  0.72400990423E+01  0.30869618396E+02  0.00000000000E+00 0.  1.
         21    1    1    2  503  502 -0.18991788015E+00  0.44577688947E+02  0.11302881403E+02  0.45988711100E+02  0.00000000000E+00 0.  1.
         -3    1    1    2    0  503 -0.79933364818E+02  0.64946235373E+02  0.79934925991E+02  0.13037234635E+03  0.00000000000E+00 0.  1.
<scales pt_clust_5="13000.00000" pt_clust_6="13000.00000" pt_clust_7="13000.00000" pt_clust_8="13000.00000" pt_clust_9="43.45944" pt_clust_10="153.78988"></scales>
<clustering>
<clus scale="   43.459">  9 10 -1 -1</clus>
<clus scale="   90.960">  7  8 -1 -1</clus>
<clus scale="   93.704">  5  6 -1 -1</clus>
<clus scale="  103.009">  1  7  2 -1</clus>
<clus scale="  153.790">  2  9  1 -1</clus>
<clus scale="  153.790">  2  5  1 -1</clus>
</clustering>
</event>
<event>
10    2  0.1671105E-006  0.1356916E+03  0.7546771E-02  0.1219825E+00
          3   -1    0    0  502    0 -0.00000000000E+00  0.00000000000E+00  0.53773082507E+03  0.53773082507E+03  0.00000000000E+00 0. -1.
         21   -1    0    0  503  502  0.00000000000E+00 -0.00000000000E+00 -0.83615858667E+02  0.83615858667E+02  0.00000000000E+00 0. -1.
         23    2    1    2    0    0  0.66276086128E+02  0.48350653082E+02  0.23278887977E+03  0.26350275036E+03  0.92264465836E+02 0.  0.
         23    2    1    2    0    0 -0.15478287492E+03 -0.19898331542E+02  0.12937808204E+03  0.22371217062E+03  0.94629621180E+02 0.  0.
        -11    1    3    3    0    0  0.64845322797E+02 -0.58802403294E+01  0.92747237954E+02  0.11332053328E+03  0.00000000000E+00 0.  1.
         11    1    3    3    0    0  0.14307633314E+01  0.54230893411E+02  0.14004164181E+03  0.15018221707E+03  0.00000000000E+00 0. -1.
        -11    1    4    4    0    0 -0.13382016490E+02 -0.36957826071E+02  0.19803509943E+02  0.44012933091E+02  0.00000000000E+00 0.  1.
         11    1    4    4    0    0 -0.14140085843E+03  0.17059494529E+02  0.10957457210E+03  0.17969923753E+03  0.00000000000E+00 0. -1.
         21    1    1    2  503  501  0.47898520774E+02 -0.13350615051E+01  0.54681109557E+02  0.72705394737E+02  0.00000000000E+00 0. -1.
          3    1    1    2  501    0  0.40608268015E+02 -0.27117260035E+02  0.37266895037E+02  0.61426368024E+02  0.00000000000E+00 0. -1.
<scales pt_clust_5="13000.00000" pt_clust_6="13000.00000" pt_clust_7="13000.00000" pt_clust_8="13000.00000" pt_clust_9="29.61748" pt_clust_10="97.65702"></scales>
<clustering>
<clus scale="   29.617">  9 10 -1 -1</clus>
<clus scale="   92.264">  5  6 -1 -1</clus>
<clus scale="   94.630">  7  8 -1 -1</clus>
<clus scale="   97.657">  2  9  1 -1</clus>
<clus scale="  134.053">  1  5  2 -1</clus>
<clus scale="   97.657">  2  5  1 -1</clus>
</clustering>
</event>
<event>
10    2  0.1671105E-006  0.1448718E+03  0.7546771E-02  0.1230191E+00
          1   -1    0    0  502    0 -0.00000000000E+00  0.00000000000E+00  0.54293514417E+03  0.54293514417E+03  0.00000000000E+00 0. -1.
         21   -1    0    0  503  502  0.00000000000E+00 -0.00000000000E+00 -0.18132758640E+03  0.18132758640E+03  0.00000000000E+00 0. -1.
         23    2    1    2    0    0  0.77545135317E+01 -0.77583619058E+00  0.35833850163E+03  0.36916935841E+03  0.88423973183E+02 0.  0.
         23    2    1    2    0    0  0.69600957261E+02  0.99558681581E+02  0.96749919801E+02  0.17968180394E+03  0.90381299809E+02 0.  0.
        -11    1    4    4    0    0  0.90891019390E+02  0.88166454300E+02  0.74923322480E+02  0.14713261134E+03  0.00000000000E+00 0. -1.
         11    1    4    4    0    0 -0.21290062129E+02  0.11392227281E+02  0.21826597322E+02  0.32549192594E+02  0.00000000000E+00 0.  1.
        -13    1    3    3    0    0 -0.11740446760E+02  0.39140881100E+02  0.12113064492E+03  0.12783770884E+03  0.00000000000E+00 0. -1.
         13    1    3    3    0    0  0.19494960292E+02 -0.39916717290E+02  0.23720785671E+03  0.24133164957E+03  0.00000000000E+00 0.  1.
         21    1    1    2  503  501 -0.90480179094E+01 -0.43289030862E+02  0.36070569533E+01  0.44371361044E+02  0.00000000000E+00 0.  1.
          1    1    1    2  501    0 -0.68307452883E+02 -0.55493814529E+02 -0.97087920607E+02  0.13104020718E+03  0.00000000000E+00 0. -1.
<scales pt_clust_5="13000.00000" pt_clust_6="13000.00000" pt_clust_7="13000.00000" pt_clust_8="13000.00000" pt_clust_9="44.22450" pt_clust_10="113.22131"></scales>
<clustering>
<clus scale="   44.225">  2  9  1 -1</clus>
<clus scale="   88.424">  7  8 -1 -1</clus>
<clus scale="   88.765">  1  7  2 -1</clus>
<clus scale="   90.381">  5  6 -1 -1</clus>
<clus scale="  113.221">  2 10  1 -1</clus>
<clus scale="   44.225">  2  5  1 -1</clus>
</clustering>
</event>
<event>
10    2  0.1671105E-006  0.1152053E+03  0.7546771E-02  0.1253092E+00
         21   -1    0    0  503  502  0.00000000000E+00  0.00000000000E+00  0.45385913213E+02  0.45385913213E+02  0.00000000000E+00 0.  1.
         -1   -1    0    0    0  501 -0.00000000000E+00 -0.00000000000E+00 -0.68744278049E+03  0.68744278049E+03  0.00000000000E+00 0.  1.
         23    2    1    2    0    0  0.91944637476E+02 -0.72724011283E+01 -0.42550016123E+03  0.44536774038E+03  0.93783435579E+02 0.  0.
         23    2    1    2    0    0 -0.15422581875E+02  0.26883805138E+02 -0.98875311178E+02  0.13631035731E+03  0.88564052179E+02 0.  0.
        -11    1    3    3    0    0  0.15288721884E+02  0.38613420275E+02 -0.15668193674E+03  0.16209247528E+03  0.00000000000E+00 0.  1.
         11    1    3    3    0    0  0.76655915591E+02 -0.45885821403E+02 -0.26881822449E+03  0.28327526510E+03  0.00000000000E+00 0. -1.
        -13    1    4    4    0    0 -0.28707461821E+02 -0.22172183668E+02 -0.17273347337E+02  0.40175771567E+02  0.00000000000E+00 0. -1.
         13    1    4    4    0    0  0.13284879946E+02  0.49055988805E+02 -0.81601963840E+02  0.96134585740E+02  0.00000000000E+00 0.  1.
         21    1    1    2  503  501 -0.47335749770E+02  0.11663453137E+02 -0.42617876901E+02  0.64753322516E+02  0.00000000000E+00 0.  1.
         -1    1    1    2    0  502 -0.29186305831E+02 -0.31274857146E+02 -0.75063517965E+02  0.86397273492E+02  0.00000000000E+00 0.  1.
<scales pt_clust_5="13000.00000" pt_clust_6="13000.00000" pt_clust_7="13000.00000" pt_clust_8="13000.00000" pt_clust_9="55.54685" pt_clust_10="42.77800"></scales>
<clustering>
<clus scale="   42.778">  1 10  2 -1</clus>
<clus scale="   55.547">  1  9  2 -1</clus>
<clus scale="   88.564">  7  8 -1 -1</clus>
<clus scale="   93.783">  5  6 -1 -1</clus>
<clus scale="  110.998">  1  7  2 -1</clus>
<clus scale="   42.778">  1  5  2 -1</clus>
</clustering>
</event>
<event>
10    2  0.1671105E-006  0.3686574E+03  0.7546771E-02  0.1055223E+00
          2   -1    0    0  503    0 -0.00000000000E+00  0.00000000000E+00  0.11427631252E+04  0.11427631252E+04  0.00000000000E+00 0. -1.
         21   -1    0    0  501  502  0.00000000000E+00 -0.00000000000E+00 -0.23291510682E+03  0.23291510682E+03  0.00000000000E+00 0. -1.
         23    2    1    2    0    0  0.14583723393E+03 -0.32579626640E+03  0.81787646930E+03  0.89697342992E+03  0.90706719471E+02 0.  0.
         23    2    1    2    0    0 -0.19801111372E+03  0.30260686548E+03  0.52991732248E+02  0.37674553724E+03  0.91377020908E+02 0.  0.
        -11    1    3    3    0    0  0.24517993193E+02 -0.22635395795E+02  0.14844161733E+03  0.15214600517E+03  0.00000000000E+00 0.  1.
         11    1    3    3    0    0  0.12131924074E+03 -0.30316087061E+03  0.66943485197E+03  0.74482742476E+03  0.00000000000E+00 0. -1.
        -13    1    4    4    0    0 -0.13954182278E+02  0.36556426482E+02 -0.21671781282E+02  0.44729829243E+02  0.00000000000E+00 0.  1.
         13    1    4    4    0    0 -0.18405693145E+03  0.26605043900E+03  0.74663513530E+02  0.33201570799E+03  0.00000000000E+00 0. -1.
         21    1    1    2  503  502  0.35455658348E+02  0.50590589765E+02  0.21516793484E+02  0.65417764280E+02  0.00000000000E+00 0. -1.
          2    1    1    2  501    0  0.16718221444E+02 -0.27401188840E+02  0.17463023306E+02  0.36541500531E+02  0.00000000000E+00 0. -1.
<scales pt_clust_5="13000.00000" pt_clust_6="13000.00000" pt_clust_7="13000.00000" pt_clust_8="13000.00000" pt_clust_9="60.58476" pt_clust_10="32.09866"></scales>
<clustering>
<clus scale="   32.099">  2 10  1 -1</clus>
<clus scale="   60.585">  2  9  1 -1</clus>
<clus scale="   90.707">  5  6 -1 -1</clus>
<clus scale="   91.377">  7  8 -1 -1</clus>
<clus scale="  368.492">  1  5  2 -1</clus>
<clus scale="   32.099">  2  5  1 -1</clus>
</clustering>
</event>
<event>
10    2  0.1671105E-006  0.1928924E+03  0.7546771E-02  0.1168150E+00
          2   -1    0    0  503    0 -0.00000000000E+00  0.00000000000E+00  0.79056761062E+03  0.79056761062E+03  0.00000000000E+00 0. -1.
         21   -1    0    0  501  502  0.00000000000E+00 -0.00000000000E+00 -0.31376738686E+03  0.31376738686E+03  0.00000000000E+00 0. -1.
         23    2    1    2    0    0 -0.70199566510E+02  0.13235038590E+03  0.18087977042E+03  0.25239701486E+03  0.92423795521E+02 0.  0.
         23    2    1    2    0    0  0.21377000169E+02 -0.19868209434E+03  0.41574745229E+03  0.47011170586E+03  0.90705684247E+02 0.  0.
        -13    1    4    4    0    0  0.27747863780E+02 -0.83110897498E+01  0.53499455444E+02  0.60837569725E+02  0.00000000000E+00 0. -1.
         13    1    4    4    0    0 -0.63708636107E+01 -0.19037100459E+03  0.36224799684E+03  0.40927413613E+03  0.00000000000E+00 0.  1.
        -13    1    3    3    0    0 -0.13555205626E+01  0.99273194056E+02  0.94073320352E+02  0.13677278273E+03  0.00000000000E+00 0.  1.
         13    1    3    3    0    0 -0.68844045947E+02  0.33077191845E+02  0.86806450066E+02  0.11562423213E+03  0.00000000000E+00 0. -1.
         21    1    1    2  503  502  0.70702412750E+02 -0.10025572219E+03  0.59276706164E+02  0.13624892254E+03  0.00000000000E+00 0. -1.
          2    1    1    2  501    0 -0.21879846410E+02  0.16658743063E+03 -0.17910370511E+03  0.24557735422E+03  0.00000000000E+00 0. -1.
<scales pt_clust_5="13000.00000" pt_clust_6="13000.00000" pt_clust_7="13000.00000" pt_clust_8="13000.00000" pt_clust_9="122.67861" pt_clust_10="170.23505"></scales>
<clustering>
<clus scale="   90.706">  5  6 -1 -1</clus>
<clus scale="   92.424">  7  8 -1 -1</clus>
<clus scale="  122.679">  1  9  2 -1</clus>
<clus scale="  145.107">  1  7  2 -1</clus>
<clus scale="  170.235">  2 10  1 -1</clus>
<clus scale="  170.235">  2  5  1 -1</clus>
</clustering>
</event>
<event>
10    2  0.1671105E-006  0.2730297E+03  0.7546771E-02  0.1112118E+00
         21   -1    0    0  503  502  0.00000000000E+00  0.00000000000E+00  0.80110547264E+02  0.80110547264E+02  0.00000000000E+00 0. -1.
          2   -1    0    0  502    0 -0.00000000000E+00 -0.00000000000E+00 -0.20059505922E+04  0.20059505922E+04  0.00000000000E+00 0. -1.
         23    2    1    2    0    0 -0.55189069255E+02  0.16722105402E+03 -0.78503682884E+03  0.80956946984E+03  0.90062142853E+02 0.  0.
         23    2    1    2    0    0  0.27815717148E+03 -0.28637688880E+02 -0.59114888119E+03  0.66071623005E+03  0.94326070894E+02 0.  0.
        -11    1    4    4    0    0  0.21200879142E+03 -0.53357933162E+02 -0.38413360401E+03  0.44198803423E+03  0.00000000000E+00 0. -1.
         11    1    4    4    0    0  0.66148380058E+02  0.24720244282E+02 -0.20701527718E+03  0.21872819583E+03  0.00000000000E+00 0.  1.
        -11    1    3    3    0    0 -0.34564566310E+02  0.16415688179E+03 -0.75214199359E+03  0.77062297501E+03  0.00000000000E+00 0. -1.
         11    1    3    3    0    0 -0.20624502945E+02  0.30641722295E+01 -0.32894835250E+02  0.38946494827E+02  0.00000000000E+00 0.  1.
         21    1    1    2  503  501 -0.36052612856E+02 -0.61973961768E+01 -0.28055257004E+02  0.46100933382E+02  0.00000000000E+00 0. -1.
          2    1    1    2  501    0 -0.18691548937E+03 -0.13238596897E+03 -0.52159907792E+03  0.56967450621E+03  0.00000000000E+00 0. -1.
<scales pt_clust_5="13000.00000" pt_clust_6="13000.00000" pt_clust_7="13000.00000" pt_clust_8="13000.00000" pt_clust_9="36.05468" pt_clust_10="271.63796"></scales>
<clustering>
<clus scale="   36.055">  9 10 -1 -1</clus>
<clus scale="   90.062">  7  8 -1 -1</clus>
<clus scale="   94.326">  5  6 -1 -1</clus>
<clus scale="  197.788">  2  7  1 -1</clus>
<clus scale="  271.638">  1  9  2 -1</clus>
<clus scale="  271.638">  1  5  2 -1</clus>
</clustering>
</event>
<event>
10    2  0.1671105E-006  0.1029683E+03  0.7546771E-02  0.1277111E+00
         -3   -1    0    0    0  501 -0.00000000000E+00  0.00000000000E+00  0.30876113360E+03  0.30876113360E+03  0.00000000000E+00 0.  1.
         21   -1    0    0  501  502  0.00000000000E+00 -0.00000000000E+00 -0.10805403868E+03  0.10805403868E+03  0.00000000000E+00 0. -1.
         23    2    1    2    0    0 -0.57999538790E+02 -0.27887894232E+02  0.12194448133E+03  0.16559127678E+03  0.91696964364E+02 0.  0.
         23    2    1    2    0    0 -0.40686480274E+02  0.50293045744E+02  0.94023447399E+02  0.14422342846E+03  0.88177142894E+02 0.  0.
        -13    1    3    3    0    0 -0.60456079416E+02  0.18088099050E+02  0.88459214488E+02  0.10866070814E+03  0.00000000000E+00 0. -1.
         13    1    3    3    0    0  0.24565406253E+01 -0.45975993282E+02  0.33485266845E+02  0.56930568641E+02  0.00000000000E+00 0.  1.
        -13    1    4    4    0    0 -0.27616060691E+02  0.71494000410E+02  0.91245507054E+02  0.11916283590E+03  0.00000000000E+00 0.  1.
         13    1    4    4    0    0 -0.13070419583E+02 -0.21200954666E+02  0.27779403446E+01  0.25060592558E+02  0.00000000000E+00 0. -1.
         21    1    1    2  503  502  0.24180807958E+02 -0.19970675222E+02 -0.46117162796E+01  0.31698695074E+02  0.00000000000E+00 0. -1.
         -3    1    1    2    0  503  0.74505211107E+02 -0.24344762894E+01 -0.10649117540E+02  0.75301771966E+02  0.00000000000E+00 0.  1.
<scales pt_clust_5="13000.00000" pt_clust_6="13000.00000" pt_clust_7="13000.00000" pt_clust_8="13000.00000" pt_clust_9="20.25605" pt_clust_10="105.90660"></scales>
<clustering>
<clus scale="   20.256">  9 10 -1 -1</clus>
<clus scale="   88.177">  7  8 -1 -1</clus>
<clus scale="   91.697">  5  6 -1 -1</clus>
<clus scale="  105.907">  2  9  1 -1</clus>
<clus scale="  105.907">  2  7  1 -1</clus>
<clus scale="  102.968">  2  5  1 -1</clus>
</clustering>
</event>
<event>
10    2  0.1671105E-006  0.1319564E+03  0.7546771E-02  0.1225063E+00
          2   -1    0    0  503    0 -0.00000000000E+00  0.00000000000E+00  0.28549841869E+03  0.28549841869E+03  0.00000000000E+00 0. -1.
         21   -1    0    0  501  502  0.00000000000E+00 -0.00000000000E+00 -0.43983448835E+03  0.43983448835E+03  0.00000000000E+00 0. -1.
         23    2    1    2    0    0 -0.89554577117E+01 -0.10786674350E+03  0.20005263484E+03  0.24442143756E+03  0.89472609523E+02 0.  0.
         23    2    1    2    0    0  0.11151196494E+03  0.27046112147E+01 -0.83288378419E+02  0.16652347243E+03  0.91383147491E+02 0.  0.
        -13    1    3    3    0    0 -0.45663441478E+02 -0.78780272901E+02  0.10900184860E+03  0.14203127924E+03  0.00000000000E+00 0. -1.
         13    1    3    3    0    0  0.36707983766E+02 -0.29086470600E+02  0.91050786241E+02  0.10239015831E+03  0.00000000000E+00 0.  1.
        -13    1    4    4    0    0  0.18513546054E+02 -0.34527127915E+02 -0.52251903788E+01  0.39524379364E+02  0.00000000000E+00 0.  1.
         13    1    4    4    0    0  0.92998418881E+02  0.37231739130E+02 -0.78063188041E+02  0.12699909307E+03  0.00000000000E+00 0. -1.
         21    1    1    2  503  502 -0.77506422308E+02  0.89490931983E+02 -0.25403197809E+03  0.28026437215E+03  0.00000000000E+00 0. -1.
          2    1    1    2  501    0 -0.25050084916E+02  0.15671200304E+02 -0.17068347990E+02  0.34123624901E+02  0.00000000000E+00 0. -1.
<scales pt_clust_5="13000.00000" pt_clust_6="13000.00000" pt_clust_7="13000.00000" pt_clust_8="13000.00000" pt_clust_9="136.71925" pt_clust_10="29.54815"></scales>
<clustering>
<clus scale="   29.548">  2 10  1 -1</clus>
<clus scale="   89.473">  5  6 -1 -1</clus>
<clus scale="   91.383">  7  8 -1 -1</clus>
<clus scale="  136.719">  2  9  1 -1</clus>
<clus scale="  130.641">  1  5  2 -1</clus>
<clus scale="   29.548">  2  5  1 -1</clus>
</clustering>
</event>
<event>
10    2  0.1671105E-006  0.2161707E+03  0.7546771E-02  0.1167149E+00
         -3   -1    0    0    0  501 -0.00000000000E+00  0.00000000000E+00  0.40360875335E+03  0.40360875335E+03  0.00000000000E+00 0.  1.
         21   -1    0    0  501  502  0.00000000000E+00 -0.00000000000E+00 -0.82775948807E+03  0.82775948807E+03  0.00000000000E+00 0.  1.
         23    2    1    2    0    0  0.88791120077E+01  0.50560832797E+02 -0.33621648112E+02  0.11072083488E+03  0.92159924113E+02 0.  0.
         23    2    1    2    0    0  0.13591916241E+03 -0.18135563904E+03  0.30873432396E+03  0.39360840148E+03  0.90811917715E+02 0.  0.
        -11    1    3    3    0    0  0.47698427903E+02  0.25403704226E+02 -0.35098516097E+02  0.64439072347E+02  0.00000000000E+00 0.  1.
         11    1    3    3    0    0 -0.38819315895E+02  0.25157128571E+02  0.14768679843E+01  0.46281762537E+02  0.00000000000E+00 0. -1.
        -11    1    4    4    0    0  0.88474420319E+02 -0.85304959521E+02  0.97936705251E+02  0.15715042922E+03  0.00000000000E+00 0.  1.
         11    1    4    4    0    0  0.47444742093E+02 -0.96050679520E+02  0.21079761871E+03  0.23645797226E+03  0.00000000000E+00 0. -1.
         21    1    1    2  503  502 -0.50515811008E+02  0.35008636243E+02 -0.28371367642E+03  0.29029450901E+03  0.00000000000E+00 0.  1.
         -3    1    1    2    0  503 -0.94282463412E+02  0.95786170002E+02 -0.41554973416E+03  0.43674449605E+03  0.00000000000E+00 0.  1.
<scales pt_clust_5="13000.00000" pt_clust_6="13000.00000" pt_clust_7="13000.00000" pt_clust_8="13000.00000" pt_clust_9="26.55941" pt_clust_10="200.06386"></scales>
<clustering>
<clus scale="   26.559">  9 10 -1 -1</clus>
<clus scale="   90.812">  7  8 -1 -1</clus>
<clus scale="   92.160">  5  6 -1 -1</clus>
<clus scale="  105.493">  1  5  2 -1</clus>
<clus scale="  200.064">  2  9  1 -1</clus>
<clus scale="  200.064">  2  5  1 -1</clus>
</clustering>
</event>
<event>
10    2  0.1671105E-006  0.1812700E+03  0.7546771E-02  0.1189316E+00
         21   -1    0    0  503  502  0.00000000000E+00  0.00000000000E+00  0.53645182654E+03  0.53645182654E+03  0.00000000000E+00 0.  1.
         -2   -1    0    0    0  501 -0.00000000000E+00 -0.00000000000E+00 -0.28851660437E+03  0.28851660437E+03  0.00000000000E+00 0.  1.
         23    2    1    2    0    0 -0.41018011341E+02 -0.32013635011E+02  0.31359944587E+02  0.11240811014E+03  0.94576884176E+02 0.  0.
         23    2    1    2    0    0 -0.69851442722E+02 -0.71030624077E+02 -0.17050812050E+03  0.21669725133E+03  0.89219425987E+02 0.  0.
        -11    1    3    3    0    0  0.27088033630E+02 -0.11728742282E+02  0.28888864723E+02  0.41302438989E+02  0.00000000000E+00 0. -1.
         11    1    3    3    0    0 -0.68106044971E+02 -0.20284892730E+02  0.24710798642E+01  0.71105671154E+02  0.00000000000E+00 0.  1.
        -11    1    4    4    0    0 -0.65727676093E+02 -0.18351147130E+02 -0.13983814943E+03  0.15560077134E+03  0.00000000000E+00 0.  1.
         11    1    4    4    0    0 -0.41237666293E+01 -0.52679476946E+02 -0.30669971068E+02  0.61096479996E+02  0.00000000000E+00 0. -1.
         21    1    1    2  503  501 -0.50891616911E+02  0.72764169760E+02  0.16409833041E+02  0.90298746908E+02  0.00000000000E+00 0.  1.
         -2    1    1    2    0  502  0.16176107097E+03  0.30280089328E+02  0.37067356504E+03  0.40556432253E+03  0.00000000000E+00 0.  1.
<scales pt_clust_5="13000.00000" pt_clust_6="13000.00000" pt_clust_7="13000.00000" pt_clust_8="13000.00000" pt_clust_9="88.79516" pt_clust_10="157.79319"></scales>
<clustering>
<clus scale="   88.795">  2  9  1 -1</clus>
<clus scale="   89.219">  7  8 -1 -1</clus>
<clus scale="   94.577">  5  6 -1 -1</clus>
<clus scale="  108.530">  2  5  1 -1</clus>
<clus scale="  157.793">  1 10  2 -1</clus>
<clus scale="  157.793">  1  5  2 -1</clus>
</clustering>
</event>
<event>
10    2  0.1671105E-006  0.3374311E+03  0.7546771E-02  0.1067902E+00
         21   -1    0    0  501  502  0.00000000000E+00  0.00000000000E+00  0.14552920988E+03  0.14552920988E+03  0.00000000000E+00 0. -1.
          1   -1    0    0  503    0 -0.00000000000E+00 -0.00000000000E+00 -0.22258953340E+04  0.22258953340E+04  0.00000000000E+00 0. -1.
         23    2    1    2    0    0  0.14913271953E+03  0.40320872407E+03 -0.13286980526E+04  0.13994550235E+04  0.90653210817E+02 0.  0.
         23    2    1    2    0    0 -0.21455617920E+03 -0.18183648859E+03 -0.29924337699E+03  0.42050240526E+03  0.90425723874E+02 0.  0.
        -11    1    4    4    0    0 -0.13120270925E+03 -0.16419269235E+03 -0.20941792022E+03  0.29669724711E+03  0.00000000000E+00 0. -1.
         11    1    4    4    0    0 -0.83353469954E+02 -0.17643796241E+02 -0.89825456771E+02  0.12380515815E+03  0.00000000000E+00 0.  1.
        -13    1    3    3    0    0  0.12708298233E+03  0.30661698694E+03 -0.89441514051E+03  0.95401389123E+03  0.00000000000E+00 0. -1.
         13    1    3    3    0    0  0.22049737197E+02  0.96591737131E+02 -0.43428291213E+03  0.44544113231E+03  0.00000000000E+00 0.  1.
         21    1    1    2  503  502  0.81291627634E+02 -0.17140708785E+03 -0.46085115319E+03  0.49836984649E+03  0.00000000000E+00 0. -1.
          1    1    1    2  501    0 -0.15868167963E+02 -0.49965147626E+02  0.84264586561E+01  0.53097268642E+02  0.00000000000E+00 0. -1.
<scales pt_clust_5="13000.00000" pt_clust_6="13000.00000" pt_clust_7="13000.00000" pt_clust_8="13000.00000" pt_clust_9="196.06182" pt_clust_10="52.42437"></scales>
<clustering>
<clus scale="   52.424">  1 10  2 -1</clus>
<clus scale="   90.426">  5  6 -1 -1</clus>
<clus scale="   90.653">  7  8 -1 -1</clus>
<clus scale="  196.062">  2  9  1 -1</clus>
<clus scale="  337.370">  1  5  2 -1</clus>
<clus scale="   52.424">  1  5  2 -1</clus>
</clustering>
</event>
<event>
10    2  0.1671105E-006  0.1878447E+03  0.7546771E-02  0.1160805E+00
         21   -1    0    0  501  502  0.00000000000E+00  0.00000000000E+00  0.90832398646E+02  0.90832398646E+02  0.00000000000E+00 0. -1.
          1   -1    0    0  503    0 -0.00000000000E+00 -0.00000000000E+00 -0.58833797017E+03  0.58833797017E+03  0.00000000000E+00 0. -1.
         23    2    1    2    0    0 -0.15702526569E+03  0.22541806672E+02 -0.24661586863E+03  0.30756312842E+03  0.92793449087E+02 0.  0.
         23    2    1    2    0    0  0.17091647570E+03  0.28545464800E+02 -0.22194463683E+03  0.29541668570E+03  0.89354972708E+02 0.  0.
        -13    1    3    3    0    0 -0.85641546451E+02 -0.33891933656E+02 -0.11082225295E+03  0.14409965092E+03  0.00000000000E+00 0. -1.
         13    1    3    3    0    0 -0.71383719239E+02  0.56433740328E+02 -0.13579361567E+03  0.16346347750E+03  0.00000000000E+00 0.  1.
        -13    1    4    4    0    0  0.13451812707E+03 -0.18038111798E+02 -0.14966291513E+03  0.20203833338E+03  0.00000000000E+00 0.  1.
         13    1    4    4    0    0  0.36398348632E+02  0.46583576598E+02 -0.72281721694E+02  0.93378352324E+02  0.00000000000E+00 0. -1.
         21    1    1    2  503  502 -0.30038546062E+02 -0.32130938885E+02 -0.10553590158E+02  0.45233723574E+02  0.00000000000E+00 0. -1.
          1    1    1    2  501    0  0.16147336050E+02 -0.18956332587E+02 -0.18391475914E+02  0.30956831119E+02  0.00000000000E+00 0. -1.
<scales pt_clust_5="13000.00000" pt_clust_6="13000.00000" pt_clust_7="13000.00000" pt_clust_8="13000.00000" pt_clust_9="44.85166" pt_clust_10="24.90139"></scales>
<clustering>
<clus scale="   24.901">  1 10  2 -1</clus>
<clus scale="   44.852">  1  9  2 -1</clus>
<clus scale="   89.355">  7  8 -1 -1</clus>
<clus scale="   92.793">  5  6 -1 -1</clus>
<clus scale="  186.170">  1  7  2 -1</clus>
<clus scale="   24.901">  1  5  2 -1</clus>
</clustering>
</event>
<event>
10    2  0.1671105E-006  0.2652981E+03  0.7546771E-02  0.1135022E+00
          2   -1    0    0  502    0 -0.00000000000E+00  0.00000000000E+00  0.69408264663E+03  0.69408264663E+03  0.00000000000E+00 0. -1.
         21   -1    0    0  503  502  0.00000000000E+00 -0.00000000000E+00 -0.49670388650E+03  0.49670388650E+03  0.00000000000E+00 0.  1.
         23    2    1    2    0    0 -0.79734751617E+02  0.26278456310E+02  0.54462606326E+03  0.55812813619E+03  0.88551000812E+02 0.  0.
         23    2    1    2    0    0  0.20867036736E+03  0.16933844654E+03 -0.24407844976E+03  0.37358714431E+03  0.88171611456E+02 0.  0.
        -13    1    4    4    0    0  0.42561935544E+02  0.53341957518E+02 -0.11386887568E+03  0.13275166153E+03  0.00000000000E+00 0. -1.
         13    1    4    4    0    0  0.16610843182E+03  0.11599648902E+03 -0.13020957408E+03  0.24083548278E+03  0.00000000000E+00 0.  1.
        -13    1    3    3    0    0 -0.72141022298E+02 -0.18403123015E+02  0.38790854400E+03  0.39498865875E+03  0.00000000000E+00 0.  1.
         13    1    3    3    0    0 -0.75937293188E+01  0.44681579325E+02  0.15671751926E+03  0.16313947744E+03  0.00000000000E+00 0. -1.
         21    1    1    2  503  501 -0.44286585993E+02 -0.70495759828E+02 -0.57765730800E+02  0.10133031880E+03  0.00000000000E+00 0. -1.
          2    1    1    2  501    0 -0.84649029755E+02 -0.12512114302E+03 -0.45403122568E+02  0.15774093384E+03  0.00000000000E+00 0. -1.
<scales pt_clust_5="13000.00000" pt_clust_6="13000.00000" pt_clust_7="13000.00000" pt_clust_8="13000.00000" pt_clust_9="29.54317" pt_clust_10="253.36269"></scales>
<clustering>
<clus scale="   29.543">  9 10 -1 -1</clus>
<clus scale="   88.172">  5  6 -1 -1</clus>
<clus scale="   88.551">  7  8 -1 -1</clus>
<clus scale="  122.022">  1  7  2 -1</clus>
<clus scale="  253.363">  2  9  1 -1</clus>
<clus scale="  253.363">  2  5  1 -1</clus>
</clustering>
</event>
<event>
10    2  0.1671105E-006  0.1398625E+03  0.7546771E-02  0.1214545E+00
          1   -1    0    0  502    0 -0.00000000000E+00  0.00000000000E+00  0.18502852339E+03  0.18502852339E+03  0.00000000000E+00 0. -1.
         21   -1    0    0  503  502  0.00000000000E+00 -0.00000000000E+00 -0.98341179807E+03  0.98341179807E+03  0.00000000000E+00 0. -1.
         23    2    1    2    0    0  0.86735479277E+02  0.51946848529E+02  0.11246397319E+03  0.17765252897E+03  0.93224231535E+02 0.  0.
         23    2    1    2    0    0 -0.48849690313E+02 -0.15335619509E+03 -0.20186668712E+03  0.27296272620E+03  0.88623223303E+02 0.  0.
        -11    1    3    3    0    0  0.10513521141E+02 -0.25892495920E+02  0.30141620865E+02  0.41103196714E+02  0.00000000000E+00 0.  1.
         11    1    3    3    0    0  0.76221958137E+02  0.77839344449E+02  0.82322352329E+02  0.13654933226E+03  0.00000000000E+00 0. -1.
        -11    1    4    4    0    0 -0.27790619058E+02 -0.36534110715E+01 -0.57299734440E+02  0.63788129671E+02  0.00000000000E+00 0. -1.
         11    1    4    4    0    0 -0.21059071255E+02 -0.14970278402E+03 -0.14456695268E+03  0.20917459653E+03  0.00000000000E+00 0.  1.
         21    1    1    2  503  501 -0.34954948887E+01  0.37566085614E+02 -0.18121464663E+03  0.18510045226E+03  0.00000000000E+00 0. -1.
          1    1    1    2  501    0 -0.34390294076E+02  0.63843260946E+02 -0.52776591413E+03  0.53272461404E+03  0.00000000000E+00 0. -1.
<scales pt_clust_5="13000.00000" pt_clust_6="13000.00000" pt_clust_7="13000.00000" pt_clust_8="13000.00000" pt_clust_9="21.64139" pt_clust_10="112.33606"></scales>
<clustering>
<clus scale="   21.641">  9 10 -1 -1</clus>
<clus scale="   88.623">  7  8 -1 -1</clus>
<clus scale="   93.224">  5  6 -1 -1</clus>
<clus scale="  112.336">  2  9  1 -1</clus>
<clus scale="  136.839">  2  7  1 -1</clus>
<clus scale="  112.336">  2  5  1 -1</clus>
</clustering>
</event>
<event>
10    2  0.1671105E-006  0.1139515E+03  0.7546771E-02  0.1253524E+00
         21   -1    0    0  503  502  0.00000000000E+00  0.00000000000E+00  0.17310271435E+03  0.17310271435E+03  0.00000000000E+00 0. -1.
         -1   -1    0    0    0  501 -0.00000000000E+00 -0.00000000000E+00 -0.54917601024E+03  0.54917601024E+03  0.00000000000E+00 0.  1.
         23    2    1    2    0    0 -0.66016027573E+02  0.22450256668E+02 -0.49497412674E+03  0.50803513368E+03  0.90764425804E+02 0.  0.
         23    2    1    2    0    0  0.50410493328E+02 -0.34731065401E+02  0.38472840896E+02  0.11581628621E+03  0.90475344290E+02 0.  0.
        -11    1    3    3    0    0  0.33375174085E+01 -0.28313580930E+02 -0.12338611843E+03  0.12663700924E+03  0.00000000000E+00 0. -1.
         11    1    3    3    0    0 -0.69353544982E+02  0.50763837597E+02 -0.37158800831E+03  0.38139812444E+03  0.00000000000E+00 0.  1.
        -13    1    4    4    0    0  0.36569151705E+02 -0.51515031936E+02  0.58607282894E+02  0.86173748787E+02  0.00000000000E+00 0. -1.
         13    1    4    4    0    0  0.13841341623E+02  0.16783966535E+02 -0.20134441998E+02  0.29642537427E+02  0.00000000000E+00 0.  1.
         21    1    1    2  503  501 -0.12790954611E+02  0.22212014428E+02  0.27837267798E+02  0.37840396183E+02  0.00000000000E+00 0. -1.
         -1    1    1    2    0  502  0.28396488857E+02 -0.99312056947E+01  0.52590722161E+02  0.60586908515E+02  0.00000000000E+00 0.  1.
<scales pt_clust_5="13000.00000" pt_clust_6="13000.00000" pt_clust_7="13000.00000" pt_clust_8="13000.00000" pt_clust_9="25.63166" pt_clust_10="23.25627"></scales>
<clustering>
<clus scale="   25.632">  1  9  2 -1</clus>
<clus scale="   23.256">  1 10  2 -1</clus>
<clus scale="   90.475">  7  8 -1 -1</clus>
<clus scale="   90.764">  5  6 -1 -1</clus>
<clus scale="  113.721">  1  7  2 -1</clus>
<clus scale="   25.632">  1  5  2 -1</clus>
</clustering>
</event>
<event>
10    2  0.1671105E-006  0.1469290E+03  0.7546771E-02  0.1213022E+00
          2   -1    0    0  502    0 -0.00000000000E+00  0.00000000000E+00  0.15061040664E+03  0.15061040664E+03  0.00000000000E+00 0. -1.
         21   -1    0    0  503  502  0.00000000000E+00 -0.00000000000E+00 -0.51223146783E+03  0.51223146783E+03  0.00000000000E+00 0. -1.
         23    2    1    2    0    0  0.52010830075E+02 -0.63038035656E+02  0.68014344077E+02  0.13959416604E+03  0.90452527921E+02 0.  0.
         23    2    1    2    0    0  0.46098050952E+02 -0.68942250799E+02 -0.19051279062E+03  0.22712646406E+03  0.91723732154E+02 0.  0.
        -11    1    4    4    0    0 -0.17953582134E+02 -0.52558994362E+02 -0.10752902562E+03  0.12102590777E+03  0.00000000000E+00 0.  1.
         11    1    4    4    0    0  0.64051633087E+02 -0.16383256437E+02 -0.82983765001E+02  0.10610055630E+03  0.00000000000E+00 0. -1.
        -11    1    3    3    0    0 -0.23029066006E+02 -0.34747310742E+02  0.24535173600E+02  0.48370323841E+02  0.00000000000E+00 0. -1.
         11    1    3    3    0    0  0.75039896080E+02 -0.28290724915E+02  0.43479170477E+02  0.91223842198E+02  0.00000000000E+00 0.  1.
         21    1    1    2  503  501 -0.42664421593E+02  0.15804573669E+02 -0.53496166557E+02  0.70227325558E+02  0.00000000000E+00 0.  1.
          2    1    1    2  501    0 -0.55444459435E+02  0.11617571279E+03 -0.18562644809E+03  0.22589391881E+03  0.00000000000E+00 0. -1.
<scales pt_clust_5="13000.00000" pt_clust_6="13000.00000" pt_clust_7="13000.00000" pt_clust_8="13000.00000" pt_clust_9="34.99034" pt_clust_10="128.99190"></scales>
<clustering>
<clus scale="   34.990">  9 10 -1 -1</clus>
<clus scale="   90.453">  7  8 -1 -1</clus>
<clus scale="   91.724">  5  6 -1 -1</clus>
<clus scale="  121.904">  1  7  2 -1</clus>
<clus scale="  128.992">  2  9  1 -1</clus>
<clus scale="  128.992">  2  5  1 -1</clus>
</clustering>
</event>
<event>
10    2  0.1671105E-006  0.1448216E+03  0.7546771E-02  0.1222477E+00
         21   -1    0    0  503  502  0.00000000000E+00  0.00000000000E+00  0.89355319566E+03  0.89355319566E+03  0.00000000000E+00 0.  1.
         -2   -1    0    0    0  501 -0.00000000000E+00 -0.00000000000E+00 -0.62348515237E+02  0.62348515237E+02  0.00000000000E+00 0.  1.
         23    2    1    2    0    0  0.53615099270E+02  0.33008191720E+00  0.11339329686E+03  0.15449908163E+03  0.90206644025E+02 0.  0.
         23    2    1    2    0    0 -0.13169299163E+02 -0.11639631494E+03  0.12693057306E+03  0.19576106664E+03  0.92138440748E+02 0.  0.
        -11    1    4    4    0    0  0.25819324317E+02 -0.33451645412E+00  0.30135599076E+02  0.39685056900E+02  0.00000000000E+00 0. -1.
         11    1    4    4    0    0 -0.38988623480E+02 -0.11606179849E+03  0.96794973986E+02  0.15607600975E+03  0.00000000000E+00 0.  1.
        -13    1    3    3    0    0  0.55330162014E+02  0.35308447399E+02  0.51673566376E+02  0.83536044605E+02  0.00000000000E+00 0.  1.
         13    1    3    3    0    0 -0.17150627443E+01 -0.34978365482E+02  0.61719730487E+02  0.70963037022E+02  0.00000000000E+00 0. -1.
         21    1    1    2  503  501 -0.88859377532E+01  0.24197999422E+02  0.51584542801E+02  0.57666871961E+02  0.00000000000E+00 0.  1.
         -2    1    1    2    0  502 -0.31559862353E+02  0.91868233602E+02  0.53929626770E+03  0.54797469067E+03  0.00000000000E+00 0.  1.
<scales pt_clust_5="13000.00000" pt_clust_6="13000.00000" pt_clust_7="13000.00000" pt_clust_8="13000.00000" pt_clust_9="25.77796" pt_clust_10="111.73088"></scales>
<clustering>
<clus scale="   25.778">  1  9  2 -1</clus>
<clus scale="   90.207">  7  8 -1 -1</clus>
<clus scale="   92.138">  5  6 -1 -1</clus>
<clus scale="  104.304">  2  7  1 -1</clus>
<clus scale="  111.731">  1 10  2 -1</clus>
<clus scale="   25.778">  1  5  2 -1</clus>
</clustering>
</event>
<event>
10    2  0.1671105E-006  0.1640915E+03  0.7546771E-02  0.1193844E+00
          2   -1    0    0  503    0 -0.00000000000E+00  0.00000000000E+00  0.59674864509E+03  0.59674864509E+03  0.00000000000E+00 0. -1.
         21   -1    0    0  501  502  0.00000000000E+00 -0.00000000000E+00 -0.13468696164E+03  0.13468696164E+03  0.00000000000E+00 0.  1.
         23    2    1    2    0    0 -0.39505118401E+02  0.45195413785E+02  0.21828536515E+03  0.24394531676E+03  0.90870991644E+02 0.  0.
         23    2    1    2    0    0 -0.51395640592E+02 -0.76398755900E+02  0.16783024325E+03  0.21671048563E+03  0.10157835526E+03 0.  0.
        -11    1    3    3    0    0  0.28976604856E+02  0.12315062629E+02  0.47015796981E+02  0.56584357930E+02  0.00000000000E+00 0. -1.
         11    1    3    3    0    0 -0.68481723257E+02  0.32880351157E+02  0.17126956817E+03  0.18736095883E+03  0.00000000000E+00 0.  1.
        -13    1    4    4    0    0  0.25670032801E+02 -0.41191508073E+02  0.37828764663E+02  0.61536219881E+02  0.00000000000E+00 0. -1.
         13    1    4    4    0    0 -0.77065673393E+02 -0.35207247827E+02  0.13000147859E+03  0.15517426575E+03  0.00000000000E+00 0.  1.
         21    1    1    2  503  502 -0.69719874205E+02  0.42516464498E+02  0.73309506624E+02  0.10973966637E+03  0.00000000000E+00 0.  1.
          2    1    1    2  501    0  0.16062063320E+03 -0.11313122383E+02  0.26365684280E+01  0.16104013798E+03  0.00000000000E+00 0. -1.
<scales pt_clust_5="13000.00000" pt_clust_6="13000.00000" pt_clust_7="13000.00000" pt_clust_8="13000.00000" pt_clust_9="81.66095" pt_clust_10="128.87151"></scales>
<clustering>
<clus scale="   81.661">  1  9  2 -1</clus>
<clus scale="   90.871">  5  6 -1 -1</clus>
<clus scale="  101.578">  7  8 -1 -1</clus>
<clus scale="  132.417">  1  5  2 -1</clus>
<clus scale="  128.872">  2 10  1 -1</clus>
<clus scale="  128.872">  2  5  1 -1</clus>
</clustering>
</event>
<event>
10    2  0.1671105E-006  0.2100771E+03  0.7546771E-02  0.1142017E+00
          2   -1    0    0  503    0 -0.00000000000E+00  0.00000000000E+00  0.13815477816E+03  0.13815477816E+03  0.00000000000E+00 0. -1.
         21   -1    0    0  501  502  0.00000000000E+00 -0.00000000000E+00 -0.45515779857E+03  0.45515779857E+03  0.00000000000E+00 0.  1.
         23    2    1    2    0    0 -0.16239338437E+03  0.42255894019E+02 -0.53943692164E+02  0.19852954185E+03  0.91361289362E+02 0.  0.
         23    2    1    2    0    0  0.20448334850E+03 -0.63197675509E+02 -0.23823920815E+03  0.33141998272E+03  0.85287154040E+02 0.  0.
        -11    1    4    4    0    0  0.16124317127E+03 -0.72596504066E+02 -0.22303699825E+03  0.28463154300E+03  0.00000000000E+00 0.  1.
         11    1    4    4    0    0  0.43240177234E+02  0.93988285573E+01 -0.15202209893E+02  0.46788439717E+02  0.00000000000E+00 0. -1.
        -11    1    3    3    0    0 -0.11068362255E+02  0.37260172028E+02 -0.18407378174E+02  0.43007681102E+02  0.00000000000E+00 0.  1.
         11    1    3    3    0    0 -0.15132502212E+03  0.49957219917E+01 -0.35536313990E+02  0.15552186074E+03  0.00000000000E+00 0. -1.
         21    1    1    2  503  502 -0.23364635693E+02 -0.51378858360E+01 -0.20666598047E+01  0.24011979399E+02  0.00000000000E+00 0. -1.
          2    1    1    2  501    0 -0.18725328434E+02  0.26079667326E+02 -0.22753460288E+02  0.39351072767E+02  0.00000000000E+00 0. -1.
<scales pt_clust_5="13000.00000" pt_clust_6="13000.00000" pt_clust_7="13000.00000" pt_clust_8="13000.00000" pt_clust_9="23.92288" pt_clust_10="32.75414"></scales>
<clustering>
<clus scale="   23.923">  1  9  2 -1</clus>
<clus scale="   32.754">  2 10  1 -1</clus>
<clus scale="   85.287">  5  6 -1 -1</clus>
<clus scale="   91.361">  7  8 -1 -1</clus>
<clus scale="  207.508">  2  5  1 -1</clus>
<clus scale="   32.754">  2  5  1 -1</clus>
</clustering>
</event>
<event>
10    2  0.1671105E-006  0.1382225E+03  0.7546771E-02  0.1215768E+00
         21   -1    0    0  501  502  0.00000000000E+00  0.00000000000E+00  0.43453137102E+03  0.43453137102E+03  0.00000000000E+00 0. -1.
          1   -1    0    0  503    0 -0.00000000000E+00 -0.00000000000E+00 -0.72899882134E+03  0.72899882134E+03  0.00000000000E+00 0. -1.
         23    2    1    2    0    0 -0.88734337720E+02 -0.51971291961E+02 -0.58740418412E+03  0.60314194296E+03  0.90342293247E+02 0.  0.
         23    2    1    2    0    0  0.12144350256E+03  0.14544568640E+02 -0.87406778517E+02  0.17545235832E+03  0.90462789693E+02 0.  0.
        -11    1    4    4    0    0  0.88747639627E+02 -0.25299496573E+01 -0.10249364128E+03  0.13560048188E+03  0.00000000000E+00 0. -1.
         11    1    4    4    0    0  0.32695862928E+02  0.17074518297E+02  0.15086862758E+02  0.39851876437E+02  0.00000000000E+00 0.  1.
        -13    1    3    3    0    0 -0.99507125793E+01 -0.57062571376E+02 -0.24503095882E+03  0.25178428170E+03  0.00000000000E+00 0. -1.
         13    1    3    3    0    0 -0.78783625141E+02  0.50912794152E+01 -0.34237322530E+03  0.35135766125E+03  0.00000000000E+00 0.  1.
         21    1    1    2  503  502 -0.22765624856E+02  0.42488599210E+01  0.11223481550E+03  0.11459921595E+03  0.00000000000E+00 0.  1.
          1    1    1    2  501    0 -0.99435399797E+01  0.33177863400E+02  0.26810869683E+03  0.27033667513E+03  0.00000000000E+00 0. -1.
<scales pt_clust_5="13000.00000" pt_clust_6="13000.00000" pt_clust_7="13000.00000" pt_clust_8="13000.00000" pt_clust_9="23.15872" pt_clust_10="46.82513"></scales>
<clustering>
<clus scale="   23.159">  1  9  2 -1</clus>
<clus scale="   46.825">  1 10  2 -1</clus>
<clus scale="   90.342">  7  8 -1 -1</clus>
<clus scale="   90.463">  5  6 -1 -1</clus>
<clus scale="  138.144">  2  7  1 -1</clus>
<clus scale="   23.159">  1  5  2 -1</clus>
</clustering>
</event>
<event>
10    2  0.1671105E-006  0.2396146E+03  0.7546771E-02  0.1120117E+00
          2   -1    0    0  503    0 -0.00000000000E+00  0.00000000000E+00  0.38596627850E+03  0.38596627850E+03  0.00000000000E+00 0. -1.
         21   -1    0    0  501  502  0.00000000000E+00 -0.00000000000E+00 -0.49615487653E+03  0.49615487653E+03  0.00000000000E+00 0. -1.
         23    2    1    2    0    0 -0.17968756141E+03  0.13041598516E+03  0.23484499835E+03  0.33619514872E+03  0.92623192885E+02 0.  0.
         23    2    1    2    0    0  0.10895332071E+03 -0.21030934200E+03 -0.10533574129E+03  0.27492260783E+03  0.91574977346E+02 0.  0.
        -11    1    4    4    0    0  0.53015265560E+02 -0.46804654245E+02  0.33117641550E+01  0.70797329210E+02  0.00000000000E+00 0.  1.
         11    1    4    4    0    0  0.55938055154E+02 -0.16350468776E+03 -0.10864750545E+03  0.20412527862E+03  0.00000000000E+00 0. -1.
        -13    1    3    3    0    0 -0.10505894453E+03  0.56772636715E+02  0.18477828444E+03  0.22000801919E+03  0.00000000000E+00 0. -1.
         13    1    3    3    0    0 -0.74628616877E+02  0.73643348442E+02  0.50066713914E+02  0.11618712953E+03  0.00000000000E+00 0.  1.
         21    1    1    2  503  502  0.22462872821E+02  0.18049586612E+01 -0.12078576704E+02  0.25568154926E+02  0.00000000000E+00 0. -1.
          2    1    1    2  501    0  0.48271367875E+02  0.78088398181E+02 -0.22761927839E+03  0.24543524356E+03  0.00000000000E+00 0. -1.
<scales pt_clust_5="13000.00000" pt_clust_6="13000.00000" pt_clust_7="13000.00000" pt_clust_8="13000.00000" pt_clust_9="22.53527" pt_clust_10="98.82762"></scales>
<clustering>
<clus scale="   22.535">  2  9  1 -1</clus>
<clus scale="   91.575">  5  6 -1 -1</clus>
<clus scale="   92.623">  7  8 -1 -1</clus>
<clus scale="   98.828">  2 10  1 -1</clus>
<clus scale="  239.211">  2  5  1 -1</clus>
<clus scale="   22.535">  2  5  1 -1</clus>
</clustering>
</event>
<event>
10    2  0.1671105E-006  0.9778209E+02  0.7546771E-02  0.1285430E+00
         21   -1    0    0  503  502  0.00000000000E+00  0.00000000000E+00  0.26837159214E+03  0.26837159214E+03  0.00000000000E+00 0.  1.
         -1   -1    0    0    0  501 -0.00000000000E+00 -0.00000000000E+00 -0.19059456317E+03  0.19059456317E+03  0.00000000000E+00 0.  1.
         23    2    1    2    0    0  0.35624611877E+02 -0.49605995490E+02 -0.65552941285E+02  0.12787798141E+03  0.91245395819E+02 0.  0.
         23    2    1    2    0    0  0.45860186600E+02  0.36979230763E+01 -0.10502451096E+02  0.10342136985E+03  0.92026338145E+02 0.  0.
        -11    1    4    4    0    0  0.45626493808E+02 -0.22177246847E+02 -0.39692257974E+02  0.64413372509E+02  0.00000000000E+00 0. -1.
         11    1    4    4    0    0  0.23369279216E+00  0.25875169923E+02  0.29189806878E+02  0.39007997340E+02  0.00000000000E+00 0.  1.
        -13    1    3    3    0    0  0.49286354143E+02 -0.22197195801E+02 -0.77934046128E+02  0.94845009105E+02  0.00000000000E+00 0.  1.
         13    1    3    3    0    0 -0.13661742266E+02 -0.27408799689E+02  0.12381104843E+02  0.33032972304E+02  0.00000000000E+00 0. -1.
         21    1    1    2  503  501 -0.29616118474E+02 -0.21365380865E+02 -0.14359510187E+02  0.39240151704E+02  0.00000000000E+00 0. -1.
         -1    1    1    2    0  502 -0.51868680002E+02  0.67273453279E+02  0.16819193153E+03  0.18842665234E+03  0.00000000000E+00 0.  1.
<scales pt_clust_5="13000.00000" pt_clust_6="13000.00000" pt_clust_7="13000.00000" pt_clust_8="13000.00000" pt_clust_9="36.51841" pt_clust_10="85.04925"></scales>
<clustering>
<clus scale="   36.518">  2  9  1 -1</clus>
<clus scale="   85.049">  1 10  2 -1</clus>
<clus scale="   91.245">  7  8 -1 -1</clus>
<clus scale="   92.026">  5  6 -1 -1</clus>
<clus scale="   97.047">  2  7  1 -1</clus>
<clus scale="   85.049">  1  5  2 -1</clus>
</clustering>
</event>
<event>
10    2  0.1671105E-006  0.1042717E+03  0.7546771E-02  0.1272665E+00
         21   -1    0    0  501  502  0.00000000000E+00  0.00000000000E+00  0.25022953091E+03  0.25022953091E+03  0.00000000000E+00 0. -1.
          2   -1    0    0  503    0 -0.00000000000E+00 -0.00000000000E+00 -0.17573850586E+03  0.17573850586E+03  0.00000000000E+00 0. -1.
         23    2    1    2    0    0 -0.12254823648E+02 -0.29674770852E+02 -0.58704058626E+02  0.11070167700E+03  0.88192528391E+02 0.  0.
         23    2    1    2    0    0  0.44705953604E+02  0.75975767614E+02 -0.32484816632E+02  0.13060289650E+03  0.90724383222E+02 0.  0.
        -13    1    4    4    0    0  0.67827507418E+02  0.74762325245E+02 -0.16059113985E+02  0.10221482858E+03  0.00000000000E+00 0.  1.
         13    1    4    4    0    0 -0.23121553814E+02  0.12134423684E+01 -0.16425702647E+02  0.28388067927E+02  0.00000000000E+00 0. -1.
        -13    1    3    3    0    0 -0.24840343961E+02 -0.53910798772E+02 -0.18641492627E+02  0.62216735367E+02  0.00000000000E+00 0. -1.
         13    1    3    3    0    0  0.12585520313E+02  0.24236027920E+02 -0.40062565999E+02  0.48484941635E+02  0.00000000000E+00 0.  1.
         21    1    1    2  503  502 -0.34854384972E+02 -0.19795191742E+02  0.41629179868E+02  0.57789846724E+02  0.00000000000E+00 0. -1.
          2    1    1    2  501    0  0.24032550165E+01 -0.26505805020E+02  0.12405072043E+03  0.12687361654E+03  0.00000000000E+00 0. -1.
<scales pt_clust_5="13000.00000" pt_clust_6="13000.00000" pt_clust_7="13000.00000" pt_clust_8="13000.00000" pt_clust_9="45.50230" pt_clust_10="26.61453"></scales>
<clustering>
<clus scale="   26.615">  1 10  2 -1</clus>
<clus scale="   45.502">  1  9  2 -1</clus>
<clus scale="   88.193">  7  8 -1 -1</clus>
<clus scale="   90.724">  5  6 -1 -1</clus>
<clus scale="  102.076">  2  7  1 -1</clus>
<clus scale="   26.615">  1  5  2 -1</clus>
</clustering>
</event>
<event>
10    2  0.1671105E-006  0.3111082E+03  0.7546771E-02  0.1117964E+00
          1   -1    0    0  503    0 -0.00000000000E+00  0.00000000000E+00  0.47354988856E+03  0.47354988856E+03  0.00000000000E+00 0. -1.
         21   -1    0    0  501  502  0.00000000000E+00 -0.00000000000E+00 -0.37815656778E+03  0.37815656778E+03  0.00000000000E+00 0. -1.
         23    2    1    2    0    0 -0.63020200487E+02 -0.26303206993E+02  0.78933764647E+02  0.13785981384E+03  0.90063226135E+02 0.  0.
         23    2    1    2    0    0 -0.23917883422E+03 -0.77499362137E+01 -0.48125554325E+02  0.26104117858E+03  0.92519466515E+02 0.  0.
        -13    1    4    4    0    0 -0.19986249535E+03  0.29613391363E+02 -0.42926783378E+02  0.20655429971E+03  0.00000000000E+00 0. -1.
         13    1    4    4    0    0 -0.39316338862E+02 -0.37363327577E+02 -0.51987709468E+01  0.54486878865E+02  0.00000000000E+00 0.  1.
        -13    1    3    3    0    0  0.14539726035E+02 -0.30541141992E+02  0.13962313544E+02  0.36593868159E+02  0.00000000000E+00 0. -1.
         13    1    3    3    0    0 -0.77559926522E+02  0.42379349989E+01  0.64971451103E+02  0.10126594568E+03  0.00000000000E+00 0.  1.
         21    1    1    2  503  502  0.36277523302E+03  0.65629045842E+01  0.40415809682E+01  0.36285710105E+03  0.00000000000E+00 0. -1.
          1    1    1    2  501    0 -0.60576198316E+02  0.27490238623E+02  0.60543529488E+02  0.89948362880E+02  0.00000000000E+00 0. -1.
<scales pt_clust_5="13000.00000" pt_clust_6="13000.00000" pt_clust_7="13000.00000" pt_clust_8="13000.00000" pt_clust_9="297.03280" pt_clust_10="66.52213"></scales>
<clustering>
<clus scale="   66.522">  2 10  1 -1</clus>
<clus scale="   90.063">  7  8 -1 -1</clus>
<clus scale="   92.519">  5  6 -1 -1</clus>
<clus scale="  115.350">  1  7  2 -1</clus>
<clus scale="  297.033">  1  9  2 -1</clus>
<clus scale="   66.522">  2  5  1 -1</clus>
</clustering>
</event>
<event>
10    2  0.1671105E-006  0.9418234E+02  0.7546771E-02  0.1296308E+00
         21   -1    0    0  501  502  0.00000000000E+00  0.00000000000E+00  0.52293396358E+02  0.52293396358E+02  0.00000000000E+00 0.  1.
          1   -1    0    0  503    0 -0.00000000000E+00 -0.00000000000E+00 -0.58597937018E+03  0.58597937018E+03  0.00000000000E+00 0. -1.
         23    2    1    2    0    0  0.82039041533E+01  0.19081512822E+02 -0.27156051776E+03  0.28704808551E+03  0.90664659128E+02 0.  0.
         23    2    1    2    0    0  0.39723873914E+02 -0.22295666526E+02 -0.27232934323E+03  0.28886001259E+03  0.84863141483E+02 0.  0.
        -13    1    4    4    0    0  0.62769189740E+02 -0.31169525873E+02 -0.17661999428E+03  0.19001613853E+03  0.00000000000E+00 0. -1.
         13    1    4    4    0    0 -0.23045315826E+02  0.88738593466E+01 -0.95709348955E+02  0.98843874057E+02  0.00000000000E+00 0.  1.
        -13    1    3    3    0    0  0.47995654360E+02 -0.20946928061E+00 -0.15996409420E+03  0.16700939539E+03  0.00000000000E+00 0.  1.
         13    1    3    3    0    0 -0.39791750207E+02  0.19290982102E+02 -0.11159642356E+03  0.12003869012E+03  0.00000000000E+00 0. -1.
         21    1    1    2  503  502 -0.33260924858E+02  0.17434000360E+02  0.16456745327E+02  0.41000706796E+02  0.00000000000E+00 0.  1.
          1    1    1    2  501    0 -0.14666853209E+02 -0.14219846656E+02 -0.62528581570E+01  0.21363961644E+02  0.00000000000E+00 0. -1.
<scales pt_clust_5="13000.00000" pt_clust_6="13000.00000" pt_clust_7="13000.00000" pt_clust_8="13000.00000" pt_clust_9="43.47943" pt_clust_10="20.42843"></scales>
<clustering>
<clus scale="   20.428">  1 10  2 -1</clus>
<clus scale="   43.479">  1  9  2 -1</clus>
<clus scale="   84.863">  5  6 -1 -1</clus>
<clus scale="   88.611">  1  5  2 -1</clus>
<clus scale="   90.665">  7  8 -1 -1</clus>
<clus scale="   20.428">  1  5  2 -1</clus>
</clustering>
</event>
<event>
10    2  0.1671105E-006  0.9589475E+02  0.7546771E-02  0.1291263E+00
          3   -1    0    0  503    0 -0.00000000000E+00  0.00000000000E+00  0.13269686396E+03  0.13269686396E+03  0.00000000000E+00 0. -1.
         21   -1    0    0  501  502  0.00000000000E+00 -0.00000000000E+00 -0.11095919655E+03  0.11095919655E+03  0.00000000000E+00 0.  1.
         23    2    1    2    0    0  0.93097243120E+01 -0.12239722242E+02  0.12571163996E+02  0.95061343335E+02  0.92963127449E+02 0.  0.
         23    2    1    2    0    0  0.18351255944E+02  0.34158013752E+02  0.14507103195E+02  0.98305439277E+02  0.89162575389E+02 0.  0.
        -13    1    4    4    0    0 -0.32659879591E+02  0.63360473325E+01 -0.10729982859E+02  0.34956340810E+02  0.00000000000E+00 0. -1.
         13    1    4    4    0    0  0.51011135535E+02  0.27821966420E+02  0.25237086054E+02  0.63349098466E+02  0.00000000000E+00 0.  1.
        -13    1    3    3    0    0  0.47782614184E+02 -0.40117692676E+01 -0.11002115890E+02  0.49196738357E+02  0.00000000000E+00 0.  1.
         13    1    3    3    0    0 -0.38472889872E+02 -0.82279529744E+01  0.23573279886E+02  0.45864604978E+02  0.00000000000E+00 0. -1.
         21    1    1    2  503  502 -0.26955066532E+02  0.10363176704E+01 -0.41562769416E+01  0.27293299618E+02  0.00000000000E+00 0.  1.
          3    1    1    2  501    0 -0.70591372397E+00 -0.22954609181E+02 -0.11843228401E+01  0.22995978288E+02  0.00000000000E+00 0. -1.
<scales pt_clust_5="13000.00000" pt_clust_6="13000.00000" pt_clust_7="13000.00000" pt_clust_8="13000.00000" pt_clust_9="27.19332" pt_clust_10="22.96546"></scales>
<clustering>
<clus scale="   22.965">  2 10  1 -1</clus>
<clus scale="   27.193">  2  9  1 -1</clus>
<clus scale="   89.163">  5  6 -1 -1</clus>
<clus scale="   92.215">  2  5  1 -1</clus>
<clus scale="   92.963">  7  8 -1 -1</clus>
<clus scale="   22.965">  2  5  1 -1</clus>
</clustering>
</event>
<event>
10    2  0.1671105E-006  0.1820805E+03  0.7546771E-02  0.1166640E+00
          3   -1    0    0  502    0 -0.00000000000E+00  0.00000000000E+00  0.42627488064E+03  0.42627488064E+03  0.00000000000E+00 0. -1.
         21   -1    0    0  503  502  0.00000000000E+00 -0.00000000000E+00 -0.54754554453E+03  0.54754554453E+03  0.00000000000E+00 0. -1.
         23    2    1    2    0    0  0.10980277875E+03 -0.13184005512E+03  0.32799265242E+03  0.37957776926E+03  0.84033639186E+02 0.  0.
         23    2    1    2    0    0  0.63730756816E+01  0.13180165123E+03 -0.39148678637E+02  0.16509809862E+03  0.91172757822E+02 0.  0.
        -11    1    4    4    0    0 -0.39295731407E+02  0.32241545231E+02 -0.11058424121E+02  0.52018847447E+02  0.00000000000E+00 0.  1.
         11    1    4    4    0    0  0.45668807088E+02  0.99560106003E+02 -0.28090254517E+02  0.11307925118E+03  0.00000000000E+00 0. -1.
        -13    1    3    3    0    0  0.10280648216E+03 -0.10664921094E+03  0.31936405567E+03  0.35204634215E+03  0.00000000000E+00 0. -1.
         13    1    3    3    0    0  0.69962965867E+01 -0.25190844178E+02  0.86285967500E+01  0.27531427100E+02  0.00000000000E+00 0.  1.
         21    1    1    2  503  501 -0.32849937645E+02  0.74629300737E+01 -0.20294906275E+03  0.20572587538E+03  0.00000000000E+00 0. -1.
          3    1    1    2  501    0 -0.83325916788E+02 -0.74245261895E+01 -0.20716557492E+03  0.22341868192E+03  0.00000000000E+00 0. -1.
<scales pt_clust_5="13000.00000" pt_clust_6="13000.00000" pt_clust_7="13000.00000" pt_clust_8="13000.00000" pt_clust_9="31.56460" pt_clust_10="126.37656"></scales>
<clustering>
<clus scale="   31.565">  9 10 -1 -1</clus>
<clus scale="   84.034">  7  8 -1 -1</clus>
<clus scale="   91.173">  5  6 -1 -1</clus>
<clus scale="  126.377">  2  9  1 -1</clus>
<clus scale="  178.613">  1  7  2 -1</clus>
<clus scale="  126.377">  2  5  1 -1</clus>
</clustering>
</event>
<event>
10    2  0.1671105E-006  0.9613051E+02  0.7546771E-02  0.1289958E+00
         21   -1    0    0  503  502  0.00000000000E+00  0.00000000000E+00  0.38452275515E+03  0.38452275515E+03  0.00000000000E+00 0. -1.
         -2   -1    0    0    0  501 -0.00000000000E+00 -0.00000000000E+00 -0.25909006034E+03  0.25909006034E+03  0.00000000000E+00 0.  1.
         23    2    1    2    0    0  0.10961689398E+02  0.27615772148E+02 -0.23305906354E+03  0.25198477910E+03  0.91087937133E+02 0.  0.
         23    2    1    2    0    0 -0.10009888626E+02 -0.54713358634E+02  0.21079891212E+03  0.23533959237E+03  0.88627269520E+02 0.  0.
        -11    1    4    4    0    0 -0.24245921919E+02  0.15489385725E+00  0.92167265115E+01  0.25939097313E+02  0.00000000000E+00 0.  1.
         11    1    4    4    0    0  0.14236033293E+02 -0.54868252491E+02  0.20158218561E+03  0.20940049506E+03  0.00000000000E+00 0. -1.
        -13    1    3    3    0    0 -0.29515146439E+02  0.43161901115E+02 -0.13468731679E+03  0.14448102603E+03  0.00000000000E+00 0.  1.
         13    1    3    3    0    0  0.40476835837E+02 -0.15546128967E+02 -0.98371746753E+02  0.10750375307E+03  0.00000000000E+00 0. -1.
         21    1    1    2  503  501  0.18740867570E+02  0.76829574930E+01  0.36866618878E+02  0.42064183584E+02  0.00000000000E+00 0. -1.
         -2    1    1    2    0  502 -0.19692668342E+02  0.19414628993E+02  0.11082622735E+03  0.11422426044E+03  0.00000000000E+00 0.  1.
<scales pt_clust_5="13000.00000" pt_clust_6="13000.00000" pt_clust_7="13000.00000" pt_clust_8="13000.00000" pt_clust_9="20.25458" pt_clust_10="25.78639"></scales>
<clustering>
<clus scale="   20.255">  1  9  2 -1</clus>
<clus scale="   25.786">  1 10  2 -1</clus>
<clus scale="   88.627">  5  6 -1 -1</clus>
<clus scale="   91.088">  7  8 -1 -1</clus>
<clus scale="   93.802">  1  5  2 -1</clus>
<clus scale="   20.255">  1  5  2 -1</clus>
</clustering>
</event>
<event>
10    2  0.1671105E-006  0.1207741E+03  0.7546771E-02  0.1241915E+00
         21   -1    0    0  501  502  0.00000000000E+00  0.00000000000E+00  0.66663798270E+02  0.66663798270E+02  0.00000000000E+00 0. -1.
          1   -1    0    0  503    0 -0.00000000000E+00 -0.00000000000E+00 -0.42845279135E+03  0.42845279135E+03  0.00000000000E+00 0. -1.
         23    2    1    2    0    0 -0.73101287262E+02  0.12595831366E+02 -0.21007722484E+03  0.24057192304E+03  0.90774206641E+02 0.  0.
         23    2    1    2    0    0  0.85963730337E+02 -0.13121683875E+02 -0.15330160758E+03  0.19838383728E+03  0.91064935552E+02 0.  0.
        -11    1    4    4    0    0  0.10027366525E+03 -0.27630134569E+02 -0.13845703707E+03  0.17317212072E+03  0.00000000000E+00 0. -1.
         11    1    4    4    0    0 -0.14309934910E+02  0.14508450695E+02 -0.14844570507E+02  0.25211716566E+02  0.00000000000E+00 0.  1.
        -13    1    3    3    0    0  0.15328052392E+02  0.23349508580E+02 -0.56576403283E+02  0.63095468533E+02  0.00000000000E+00 0. -1.
         13    1    3    3    0    0 -0.88429339654E+02 -0.10753677214E+02 -0.15350082156E+03  0.17747645451E+03  0.00000000000E+00 0.  1.
         21    1    1    2  503  502 -0.15916782267E+02  0.25980370386E+02 -0.93011642976E-01  0.30468545326E+02  0.00000000000E+00 0. -1.
          1    1    1    2  501    0  0.30543391918E+01 -0.25454517877E+02  0.16828509839E+01  0.25692283971E+02  0.00000000000E+00 0. -1.
<scales pt_clust_5="13000.00000" pt_clust_6="13000.00000" pt_clust_7="13000.00000" pt_clust_8="13000.00000" pt_clust_9="23.98506" pt_clust_10="25.63711"></scales>
<clustering>
<clus scale="   25.637">  1 10  2 -1</clus>
<clus scale="   23.985">  1  9  2 -1</clus>
<clus scale="   90.774">  7  8 -1 -1</clus>
<clus scale="   91.065">  5  6 -1 -1</clus>
<clus scale="  120.555">  2  7  1 -1</clus>
<clus scale="   25.637">  1  5  2 -1</clus>
</clustering>
</event>
<event>
10    2  0.1671105E-006  0.5582716E+03  0.7546771E-02  0.1050588E+00
         -1   -1    0    0    0  501 -0.00000000000E+00  0.00000000000E+00  0.49455792303E+03  0.49455792303E+03  0.00000000000E+00 0.  1.
         21   -1    0    0  501  502  0.00000000000E+00 -0.00000000000E+00 -0.10186695629E+04  0.10186695629E+04  0.00000000000E+00 0.  1.
         23    2    1    2    0    0 -0.73334889253E+02  0.18970977007E+02  0.40414795685E+02  0.12759449256E+03  0.94388001726E+02 0.  0.
         23    2    1    2    0    0 -0.34845385493E+03  0.29189070928E+03  0.13265328175E+03  0.48238850605E+03  0.92095072804E+02 0.  0.
        -11    1    3    3    0    0 -0.88473089138E+01  0.35257321276E+02 -0.16626637832E+02  0.39972473831E+02  0.00000000000E+00 0. -1.
         11    1    3    3    0    0 -0.64487580339E+02 -0.16286344268E+02  0.57041433517E+02  0.87622018724E+02  0.00000000000E+00 0.  1.
        -11    1    4    4    0    0 -0.27932293161E+03  0.20288579120E+03  0.66086114876E+02  0.35149867563E+03  0.00000000000E+00 0.  1.
         11    1    4    4    0    0 -0.69130923321E+02  0.89004918082E+02  0.66567166875E+02  0.13088983042E+03  0.00000000000E+00 0. -1.
         21    1    1    2  503  502  0.23781818819E+03 -0.56980316645E+02 -0.41362642784E+03  0.48051125786E+03  0.00000000000E+00 0.  1.
         -1    1    1    2    0  503  0.18397055599E+03 -0.25388136964E+03 -0.28355328941E+03  0.42273322942E+03  0.00000000000E+00 0.  1.
<scales pt_clust_5="13000.00000" pt_clust_6="13000.00000" pt_clust_7="13000.00000" pt_clust_8="13000.00000" pt_clust_9="208.23300" pt_clust_10="208.23300"></scales>
<clustering>
<clus scale="   92.095">  7  8 -1 -1</clus>
<clus scale="   94.388">  5  6 -1 -1</clus>
<clus scale="  121.025">  1  5  2 -1</clus>
<clus scale="  208.233">  9 10 -1 -1</clus>
<clus scale="  514.683">  1  7  2 -1</clus>
<clus scale="  558.272">  2  5  1 -1</clus>
</clustering>
</event>
<event>
10    2  0.1671105E-006  0.1232764E+03  0.7546771E-02  0.1239565E+00
         -2   -1    0    0    0  501 -0.00000000000E+00  0.00000000000E+00  0.32811363087E+03  0.32811363087E+03  0.00000000000E+00 0.  1.
         21   -1    0    0  503  502  0.00000000000E+00 -0.00000000000E+00 -0.22183660985E+03  0.22183660985E+03  0.00000000000E+00 0.  1.
         23    2    1    2    0    0 -0.53232195747E+02 -0.41030773004E+02  0.17200850090E+03  0.20612293904E+03  0.91556270239E+02 0.  0.
         23    2    1    2    0    0  0.83112548122E+02  0.89168699163E+02  0.87177077227E+02  0.17256962851E+03  0.85566823731E+02 0.  0.
        -13    1    4    4    0    0  0.16297779442E+02 -0.16623400417E+02  0.19174790039E+02  0.30160033640E+02  0.00000000000E+00 0. -1.
         13    1    4    4    0    0  0.66814768680E+02  0.10579209958E+03  0.68002287189E+02  0.14240959487E+03  0.00000000000E+00 0.  1.
        -13    1    3    3    0    0 -0.71104360085E+02 -0.51190070689E+02  0.15972012958E+03  0.18217237209E+03  0.00000000000E+00 0.  1.
         13    1    3    3    0    0  0.17872164338E+02  0.10159297684E+02  0.12288371320E+02  0.23950566951E+02  0.00000000000E+00 0. -1.
         21    1    1    2  503  501 -0.19630460028E+02 -0.76979391099E+01 -0.11910551038E+02  0.24217234638E+02  0.00000000000E+00 0.  1.
         -2    1    1    2    0  502 -0.10249892347E+02 -0.40439987048E+02 -0.14099800607E+03  0.14704043853E+03  0.00000000000E+00 0.  1.
<scales pt_clust_5="13000.00000" pt_clust_6="13000.00000" pt_clust_7="13000.00000" pt_clust_8="13000.00000" pt_clust_9="21.08585" pt_clust_10="51.83626"></scales>
<clustering>
<clus scale="   21.086">  2  9  1 -1</clus>
<clus scale="   51.836">  2 10  1 -1</clus>
<clus scale="   85.567">  5  6 -1 -1</clus>
<clus scale="   91.556">  7  8 -1 -1</clus>
<clus scale="  118.896">  2  5  1 -1</clus>
<clus scale="   21.086">  2  5  1 -1</clus>
</clustering>
</event>
<event>
10    2  0.1671105E-006  0.1019531E+03  0.7546771E-02  0.1277299E+00
         21   -1    0    0  501  502  0.00000000000E+00  0.00000000000E+00  0.26026513557E+03  0.26026513557E+03  0.00000000000E+00 0. -1.
          3   -1    0    0  503    0 -0.00000000000E+00 -0.00000000000E+00 -0.92132893112E+02  0.92132893112E+02  0.00000000000E+00 0. -1.
         23    2    1    2    0    0  0.35673385796E+01  0.76114449624E+02  0.13558415303E+02  0.11828894917E+03  0.89455628803E+02 0.  0.
         23    2    1    2    0    0 -0.12173761212E+02 -0.10255728513E+02  0.10035673489E+03  0.13689088990E+03  0.91729281426E+02 0.  0.
        -11    1    3    3    0    0 -0.26793519613E+02  0.45773014721E+02 -0.26753694642E+02  0.59403886631E+02  0.00000000000E+00 0. -1.
         11    1    3    3    0    0  0.30360858193E+02  0.30341434903E+02  0.40312109945E+02  0.58885062541E+02  0.00000000000E+00 0.  1.
        -11    1    4    4    0    0 -0.50312289166E+02 -0.19224276859E+02  0.55633097454E+02  0.77433460430E+02  0.00000000000E+00 0.  1.
         11    1    4    4    0    0  0.38138527954E+02  0.89685483460E+01  0.44723637433E+02  0.59457429470E+02  0.00000000000E+00 0. -1.
         21    1    1    2  503  502 -0.14270491708E+02 -0.25510861543E+02  0.51184112870E+01  0.29675732921E+02  0.00000000000E+00 0. -1.
          3    1    1    2  501    0  0.22876914341E+02 -0.40347859568E+02  0.49098680981E+02  0.67542456689E+02  0.00000000000E+00 0. -1.
<scales pt_clust_5="13000.00000" pt_clust_6="13000.00000" pt_clust_7="13000.00000" pt_clust_8="13000.00000" pt_clust_9="29.23099" pt_clust_10="48.21859"></scales>
<clustering>
<clus scale="   29.231">  2  9  1 -1</clus>
<clus scale="   48.219">  1 10  2 -1</clus>
<clus scale="   89.456">  5  6 -1 -1</clus>
<clus scale="   91.729">  7  8 -1 -1</clus>
<clus scale="   99.912">  2  5  1 -1</clus>
<clus scale="   48.219">  1  5  2 -1</clus>
</clustering>
</event>
<event>
10    2  0.1671105E-006  0.9217780E+02  0.7546771E-02  0.1298183E+00
          3   -1    0    0  503    0 -0.00000000000E+00  0.00000000000E+00  0.43855022033E+02  0.43855022033E+02  0.00000000000E+00 0. -1.
         21   -1    0    0  501  502  0.00000000000E+00 -0.00000000000E+00 -0.50465663331E+03  0.50465663331E+03  0.00000000000E+00 0.  1.
         23    2    1    2    0    0  0.32517995096E+02 -0.12961667958E+02 -0.78658598439E+02  0.12401853932E+03  0.89263644027E+02 0.  0.
         23    2    1    2    0    0 -0.50148956040E+01 -0.41754968944E+02 -0.29009784111E+03  0.30668484921E+03  0.90167692159E+02 0.  0.
        -11    1    4    4    0    0 -0.40906612205E+01  0.28125064014E+02 -0.10677441262E+03  0.11049220753E+03  0.00000000000E+00 0. -1.
         11    1    4    4    0    0 -0.92423438349E+00 -0.69880032958E+02 -0.18332342849E+03  0.19619264168E+03  0.00000000000E+00 0.  1.
        -13    1    3    3    0    0  0.74823302035E+01 -0.19432802605E+02 -0.92412671212E+02  0.94729725445E+02  0.00000000000E+00 0.  1.
         13    1    3    3    0    0  0.25035664893E+02  0.64711346474E+01  0.13754072773E+02  0.29288813873E+02  0.00000000000E+00 0. -1.
         21    1    1    2  503  502 -0.30293347640E+02  0.28405445462E+02 -0.32784447669E+02  0.52909132030E+02  0.00000000000E+00 0. -1.
          3    1    1    2  501    0  0.27902481477E+01  0.26311191440E+02 -0.59260724060E+02  0.64899134785E+02  0.00000000000E+00 0. -1.
<scales pt_clust_5="13000.00000" pt_clust_6="13000.00000" pt_clust_7="13000.00000" pt_clust_8="13000.00000" pt_clust_9="43.12149" pt_clust_10="26.45873"></scales>
<clustering>
<clus scale="   26.459">  2 10  1 -1</clus>
<clus scale="   43.121">  1  9  2 -1</clus>
<clus scale="   89.264">  7  8 -1 -1</clus>
<clus scale="   90.168">  5  6 -1 -1</clus>
<clus scale="   91.294">  1  7  2 -1</clus>
<clus scale="   26.459">  2  5  1 -1</clus>
</clustering>
</event>
<event>
10    2  0.2362335E-006  0.2682311E+03  0.7546771E-02  0.1145026E+00
          3   -1    0    0  503    0 -0.00000000000E+00  0.00000000000E+00  0.53275604403E+03  0.53275604403E+03  0.00000000000E+00 0. -1.
         21   -1    0    0  501  502  0.00000000000E+00 -0.00000000000E+00 -0.27487249231E+03  0.27487249231E+03  0.00000000000E+00 0. -1.
         23    2    1    2    0    0 -0.38443042856E+01  0.23448833866E+02  0.23002378104E+02  0.96709343581E+02  0.90878827305E+02 0.  0.
         23    2    1    2    0    0  0.14002556310E+03  0.19948419419E+03  0.32043665675E+03  0.41279126731E+03  0.91191432287E+02 0.  0.
        -11    1    4    4    0    0  0.51087867772E+02  0.81620015467E+02  0.60128951326E+02  0.11352219143E+03  0.00000000000E+00 0.  1.
         11    1    4    4    0    0  0.88937695329E+02  0.11786417872E+03  0.26030770542E+03  0.29926907588E+03  0.00000000000E+00 0. -1.
        -13    1    3    3    0    0  0.23843717620E+02  0.45017365424E+02 -0.58474973462E+01  0.51276498368E+02  0.00000000000E+00 0.  1.
         13    1    3    3    0    0 -0.27688021905E+02 -0.21568531559E+02  0.28849875450E+02  0.45432845213E+02  0.00000000000E+00 0. -1.
         21    1    1    2  503  502  0.20889494985E+02 -0.32995292080E+02 -0.13915377295E+02  0.41457183038E+02  0.00000000000E+00 0. -1.
          3    1    1    2  501    0 -0.15707075380E+03 -0.18993773598E+03 -0.71640105835E+02  0.25667074241E+03  0.00000000000E+00 0. -1.
<scales pt_clust_5="13000.00000" pt_clust_6="13000.00000" pt_clust_7="13000.00000" pt_clust_8="13000.00000" pt_clust_9="39.05202" pt_clust_10="252.25393"></scales>
<clustering>
<clus scale="   39.052">  2  9  1 -1</clus>
<clus scale="   90.879">  7  8 -1 -1</clus>
<clus scale="   91.191">  5  6 -1 -1</clus>
<clus scale="   92.752">  1  7  2 -1</clus>
<clus scale="  252.254">  2 10  1 -1</clus>
<clus scale="   39.052">  2  5  1 -1</clus>
</clustering>
</event>
<event>
10    2  0.1671105E-006  0.3214755E+03  0.7546771E-02  0.1099510E+00
          2   -1    0    0  502    0 -0.00000000000E+00  0.00000000000E+00  0.65189027275E+03  0.65189027275E+03  0.00000000000E+00 0. -1.
         21   -1    0    0  503  502  0.00000000000E+00 -0.00000000000E+00 -0.98855163328E+03  0.98855163328E+03  0.00000000000E+00 0. -1.
         23    2    1    2    0    0  0.71986003845E+02 -0.11997029373E+03 -0.84459123179E+02  0.18756265706E+03  0.92041027312E+02 0.  0.
         23    2    1    2    0    0  0.23584392701E+03  0.16650480808E+03  0.52941241098E+03  0.60966778957E+03  0.89839321646E+02 0.  0.
        -11    1    3    3    0    0  0.87558612361E+02 -0.98479215279E+02 -0.91106059876E+02  0.16020293564E+03  0.00000000000E+00 0. -1.
         11    1    3    3    0    0 -0.15572608516E+02 -0.21491078455E+02  0.66469366971E+01  0.27359721428E+02  0.00000000000E+00 0.  1.
        -11    1    4    4    0    0  0.23185106347E+03  0.13253475588E+03  0.45133438778E+03  0.52442645503E+03  0.00000000000E+00 0. -1.
         11    1    4    4    0    0  0.39928635392E+01  0.33970052200E+02  0.78078023204E+02  0.85241334534E+02  0.00000000000E+00 0.  1.
         21    1    1    2  503  501 -0.19852413384E+03 -0.74939903178E+01 -0.45109910040E+03  0.49290809487E+03  0.00000000000E+00 0. -1.
          2    1    1    2  501    0 -0.10930579702E+03 -0.39040524027E+02 -0.33051554793E+03  0.35030336453E+03  0.00000000000E+00 0. -1.
<scales pt_clust_5="13000.00000" pt_clust_6="13000.00000" pt_clust_7="13000.00000" pt_clust_8="13000.00000" pt_clust_9="42.96324" pt_clust_10="313.74321"></scales>
<clustering>
<clus scale="   42.963">  9 10 -1 -1</clus>
<clus scale="   89.839">  7  8 -1 -1</clus>
<clus scale="   92.041">  5  6 -1 -1</clus>
<clus scale="  167.471">  1  5  2 -1</clus>
<clus scale="  313.743">  2  9  1 -1</clus>
<clus scale="  313.743">  2  5  1 -1</clus>
</clustering>
</event>
<event>
10    2  0.1671105E-006  0.1386293E+03  0.7546771E-02  0.1215224E+00
         21   -1    0    0  501  502  0.00000000000E+00  0.00000000000E+00  0.19892143938E+03  0.19892143938E+03  0.00000000000E+00 0. -1.
          1   -1    0    0  503    0 -0.00000000000E+00 -0.00000000000E+00 -0.40472418693E+03  0.40472418693E+03  0.00000000000E+00 0. -1.
         23    2    1    2    0    0  0.39355181484E+02 -0.96359170521E+02 -0.28388047067E+03  0.31574477681E+03  0.90954507319E+02 0.  0.
         23    2    1    2    0    0 -0.22303491681E+01  0.11273150420E+03 -0.17400983780E+02  0.14580035710E+03  0.90783166935E+02 0.  0.
        -11    1    4    4    0    0  0.16706644882E+02  0.15584511377E+02 -0.38342812790E+02  0.44633622649E+02  0.00000000000E+00 0.  1.
         11    1    4    4    0    0 -0.18936994050E+02  0.97146992821E+02  0.20941829011E+02  0.10116673445E+03  0.00000000000E+00 0. -1.
        -13    1    3    3    0    0  0.55790425543E+02 -0.27575404520E+02 -0.17666738985E+03  0.18730814492E+03  0.00000000000E+00 0.  1.
         13    1    3    3    0    0 -0.16435244059E+02 -0.68783766001E+02 -0.10721308082E+03  0.12843663189E+03  0.00000000000E+00 0. -1.
         21    1    1    2  503  502  0.26788899152E+02  0.92242175627E+00  0.11196063134E+01  0.26828147494E+02  0.00000000000E+00 0.  1.
          1    1    1    2  501    0 -0.63913731468E+02 -0.17294755433E+02  0.94359100590E+02  0.11527234490E+03  0.00000000000E+00 0. -1.
<scales pt_clust_5="13000.00000" pt_clust_6="13000.00000" pt_clust_7="13000.00000" pt_clust_8="13000.00000" pt_clust_9="26.80478" pt_clust_10="51.53706"></scales>
<clustering>
<clus scale="   26.805">  1  9  2 -1</clus>
<clus scale="   51.537">  1 10  2 -1</clus>
<clus scale="   90.783">  5  6 -1 -1</clus>
<clus scale="   90.955">  7  8 -1 -1</clus>
<clus scale="  138.517">  1  5  2 -1</clus>
<clus scale="   26.805">  1  5  2 -1</clus>
</clustering>
</event>
<event>
10    2  0.1671105E-006  0.2219801E+03  0.7546771E-02  0.1166511E+00
         21   -1    0    0  503  502  0.00000000000E+00  0.00000000000E+00  0.25147990006E+03  0.25147990006E+03  0.00000000000E+00 0. -1.
          1   -1    0    0  502    0 -0.00000000000E+00 -0.00000000000E+00 -0.12354005332E+04  0.12354005332E+04  0.00000000000E+00 0. -1.
         23    2    1    2    0    0  0.40188760058E+02 -0.23742810353E+01 -0.28330056165E+02  0.10284395920E+03  0.90296811769E+02 0.  0.
         23    2    1    2    0    0 -0.59774693452E+02 -0.19924512806E+03 -0.11063005749E+04  0.11293286282E+04  0.90612104982E+02 0.  0.
        -11    1    4    4    0    0 -0.37123342526E+01 -0.38703551656E+02 -0.79006509259E+02  0.88055521358E+02  0.00000000000E+00 0.  1.
         11    1    4    4    0    0 -0.56062359199E+02 -0.16054157640E+03 -0.10272940656E+04  0.10412731069E+04  0.00000000000E+00 0. -1.
        -13    1    3    3    0    0  0.62866796641E+02  0.13472921582E+02 -0.36582305401E+02  0.73973095138E+02  0.00000000000E+00 0.  1.
         13    1    3    3    0    0 -0.22678036583E+02 -0.15847202618E+02  0.82522492363E+01  0.28870864059E+02  0.00000000000E+00 0. -1.
         21    1    1    2  503  501  0.18866439372E+01  0.66079846438E+02  0.31026105001E+02  0.73025507339E+02  0.00000000000E+00 0. -1.
          1    1    1    2  501    0  0.17699289457E+02  0.13553956266E+03  0.11968389291E+03  0.18168233848E+03  0.00000000000E+00 0. -1.
<scales pt_clust_5="13000.00000" pt_clust_6="13000.00000" pt_clust_7="13000.00000" pt_clust_8="13000.00000" pt_clust_9="23.36264" pt_clust_10="205.40985"></scales>
<clustering>
<clus scale="   23.363">  9 10 -1 -1</clus>
<clus scale="   90.297">  7  8 -1 -1</clus>
<clus scale="   90.612">  5  6 -1 -1</clus>
<clus scale="   98.865">  2  7  1 -1</clus>
<clus scale="  205.410">  1  9  2 -1</clus>
<clus scale="  205.410">  1  5  2 -1</clus>
</clustering>
</event>
<event>
10    2  0.1671105E-006  0.1335916E+03  0.7546771E-02  0.1236733E+00
         -3   -1    0    0    0  501 -0.00000000000E+00  0.00000000000E+00  0.11425688716E+03  0.11425688716E+03  0.00000000000E+00 0.  1.
         21   -1    0    0  503  502  0.00000000000E+00 -0.00000000000E+00 -0.42142231040E+03  0.42142231040E+03  0.00000000000E+00 0. -1.
         23    2    1    2    0    0 -0.14044624849E+02 -0.43742327970E+02  0.37778447312E+02  0.10867254215E+03  0.90949808099E+02 0.  0.
         23    2    1    2    0    0  0.38661498780E+02 -0.28617819101E+02 -0.24597169530E+03  0.28131492465E+03  0.12775883878E+03 0.  0.
        -11    1    3    3    0    0  0.83406861283E+01 -0.42012054854E+02  0.62185666131E+02  0.75509184013E+02  0.00000000000E+00 0.  1.
         11    1    3    3    0    0 -0.22385310978E+02 -0.17302731160E+01 -0.24407218819E+02  0.33163358140E+02  0.00000000000E+00 0. -1.
        -13    1    4    4    0    0 -0.27481647447E+01 -0.74196292858E+02 -0.14836367966E+03  0.16590486348E+03  0.00000000000E+00 0.  1.
         13    1    4    4    0    0  0.41409663525E+02  0.45578473756E+02 -0.97608015634E+02  0.11541006117E+03  0.00000000000E+00 0. -1.
         21    1    1    2  503  501  0.20313961014E+02  0.55197194687E+02 -0.54552194704E+02  0.80220503990E+02  0.00000000000E+00 0. -1.
         -3    1    1    2    0  502 -0.44930834944E+02  0.17162952385E+02 -0.44419980550E+02  0.65471226775E+02  0.00000000000E+00 0.  1.
<scales pt_clust_5="13000.00000" pt_clust_6="13000.00000" pt_clust_7="13000.00000" pt_clust_8="13000.00000" pt_clust_9="59.58469" pt_clust_10="48.09726"></scales>
<clustering>
<clus scale="   48.097">  2 10  1 -1</clus>
<clus scale="   59.585">  2  9  1 -1</clus>
<clus scale="   90.950">  5  6 -1 -1</clus>
<clus scale="   98.976">  1  5  2 -1</clus>
<clus scale="  127.759">  7  8 -1 -1</clus>
<clus scale="   48.097">  2  5  1 -1</clus>
</clustering>
</event>
<event>
10    2  0.1671105E-006  0.1191833E+03  0.7546771E-02  0.1245809E+00
         -4   -1    0    0    0  501 -0.00000000000E+00  0.00000000000E+00  0.40123227233E+03  0.40123227233E+03  0.00000000000E+00 0.  1.
         21   -1    0    0  503  502  0.00000000000E+00 -0.00000000000E+00 -0.11221028922E+03  0.11221028922E+03  0.00000000000E+00 0.  1.
         23    2    1    2    0    0  0.76363624007E+01  0.64343993614E+02  0.18652633422E+03  0.21646911068E+03  0.88703658201E+02 0.  0.
         23    2    1    2    0    0  0.29264768726E+02 -0.92194388568E+02  0.14545875362E+03  0.19783647760E+03  0.92869752310E+02 0.  0.
        -11    1    4    4    0    0 -0.77554459431E+01 -0.24462342828E+02  0.10989009662E+03  0.11284673896E+03  0.00000000000E+00 0.  1.
         11    1    4    4    0    0  0.37020214669E+02 -0.67732045741E+02  0.35568656999E+02  0.84989738646E+02  0.00000000000E+00 0. -1.
        -13    1    3    3    0    0  0.30256096989E+02  0.27566886698E+02  0.22197600877E+02  0.46562840677E+02  0.00000000000E+00 0.  1.
         13    1    3    3    0    0 -0.22619734588E+02  0.36777106917E+02  0.16432873334E+03  0.16990627000E+03  0.00000000000E+00 0. -1.
         21    1    1    2  503  501 -0.53930868352E+02 -0.30021089229E+01 -0.23828747566E+02  0.59036941230E+02  0.00000000000E+00 0.  1.
         -4    1    1    2    0  502  0.17029737226E+02  0.30852503877E+02 -0.19134357159E+02  0.40100032037E+02  0.00000000000E+00 0.  1.
<scales pt_clust_5="13000.00000" pt_clust_6="13000.00000" pt_clust_7="13000.00000" pt_clust_8="13000.00000" pt_clust_9="47.07110" pt_clust_10="35.24044"></scales>
<clustering>
<clus scale="   35.240">  2 10  1 -1</clus>
<clus scale="   47.071">  2  9  1 -1</clus>
<clus scale="   88.704">  7  8 -1 -1</clus>
<clus scale="   92.870">  5  6 -1 -1</clus>
<clus scale="  115.966">  1  7  2 -1</clus>
<clus scale="   35.240">  2  5  1 -1</clus>
</clustering>
</event>
<event>
10    2  0.1671105E-006  0.3470639E+03  0.7546771E-02  0.1092555E+00
         21   -1    0    0  503  502  0.00000000000E+00  0.00000000000E+00  0.20626850038E+03  0.20626850038E+03  0.00000000000E+00 0. -1.
          1   -1    0    0  502    0 -0.00000000000E+00 -0.00000000000E+00 -0.17205011886E+04  0.17205011886E+04  0.00000000000E+00 0. -1.
         23    2    1    2    0    0  0.12937749711E+03  0.15724990778E+02 -0.53608800816E+03  0.55934888050E+03  0.92168354317E+02 0.  0.
         23    2    1    2    0    0 -0.14342838368E+03  0.15423124912E+03 -0.31706883865E+03  0.39125040080E+03  0.90472361716E+02 0.  0.
        -11    1    3    3    0    0  0.92788910447E+02 -0.32624861806E+02 -0.30689868695E+03  0.32227467720E+03  0.00000000000E+00 0. -1.
         11    1    3    3    0    0  0.36588586664E+02  0.48349852584E+02 -0.22918932120E+03  0.23707420331E+03  0.00000000000E+00 0.  1.
        -13    1    4    4    0    0 -0.85659487175E+02  0.79129182717E+02 -0.97117577655E+02  0.15175901683E+03  0.00000000000E+00 0.  1.
         13    1    4    4    0    0 -0.57768896501E+02  0.75102066403E+02 -0.21995126100E+03  0.23949138397E+03  0.00000000000E+00 0. -1.
         21    1    1    2  503  501  0.33495984599E+03 -0.18793154745E+03 -0.26761267818E+03  0.46811634289E+03  0.00000000000E+00 0. -1.
          1    1    1    2  501    0 -0.32090895942E+03  0.17975307557E+02 -0.39346316321E+03  0.50805406476E+03  0.00000000000E+00 0. -1.
<scales pt_clust_5="13000.00000" pt_clust_6="13000.00000" pt_clust_7="13000.00000" pt_clust_8="13000.00000" pt_clust_9="347.06387" pt_clust_10="13000.00000"></scales>
<clustering>
<clus scale="   90.472">  7  8 -1 -1</clus>
<clus scale="   92.168">  5  6 -1 -1</clus>
<clus scale="  159.627">  2  5  1 -1</clus>
<clus scale="  210.596">  2  7  1 -1</clus>
<clus scale="  347.064">  1  9  2 -1</clus>
<clus scale="  347.064">  1  5  2 -1</clus>
</clustering>
</event>
<event>
10    2  0.1671105E-006  0.1770090E+03  0.7546771E-02  0.1182424E+00
         21   -1    0    0  501  502  0.00000000000E+00  0.00000000000E+00  0.43695100698E+03  0.43695100698E+03  0.00000000000E+00 0. -1.
          3   -1    0    0  503    0 -0.00000000000E+00 -0.00000000000E+00 -0.54196997442E+03  0.54196997442E+03  0.00000000000E+00 0. -1.
         23    2    1    2    0    0 -0.30108069167E+02  0.92656719358E+02 -0.87309065085E+02  0.15924466445E+03  0.90797724863E+02 0.  0.
         23    2    1    2    0    0 -0.16500026898E+02 -0.24450572238E+03 -0.35169861470E+03  0.43838587670E+03  0.91842049964E+02 0.  0.
        -11    1    4    4    0    0 -0.47942683275E+02 -0.20764477889E+03 -0.28067399662E+03  0.35240991396E+03  0.00000000000E+00 0. -1.
         11    1    4    4    0    0  0.31442656377E+02 -0.36860943496E+02 -0.71024618080E+02  0.85975962739E+02  0.00000000000E+00 0.  1.
        -13    1    3    3    0    0  0.18828263083E+02  0.65703037887E+02 -0.18883506301E+02  0.70908246971E+02  0.00000000000E+00 0. -1.
         13    1    3    3    0    0 -0.48936332250E+02  0.26953681471E+02 -0.68425558784E+02  0.88336417484E+02  0.00000000000E+00 0.  1.
         21    1    1    2  503  502  0.55067527059E+02  0.50930359471E+02  0.90262022836E+02  0.11736084023E+03  0.00000000000E+00 0. -1.
          3    1    1    2  501    0 -0.84594309947E+01  0.10091864355E+03  0.24372668951E+03  0.26392960002E+03  0.00000000000E+00 0. -1.
<scales pt_clust_5="13000.00000" pt_clust_6="13000.00000" pt_clust_7="13000.00000" pt_clust_8="13000.00000" pt_clust_9="75.00889" pt_clust_10="151.31833"></scales>
<clustering>
<clus scale="   75.009">  1  9  2 -1</clus>
<clus scale="   90.798">  7  8 -1 -1</clus>
<clus scale="   91.842">  5  6 -1 -1</clus>
<clus scale="  135.877">  2  7  1 -1</clus>
<clus scale="  151.318">  1 10  2 -1</clus>
<clus scale="   75.009">  1  5  2 -1</clus>
</clustering>
</event>
<event>
10    2  0.1671105E-006  0.9362894E+02  0.7546771E-02  0.1295442E+00
         -1   -1    0    0    0  501 -0.00000000000E+00  0.00000000000E+00  0.16203953948E+03  0.16203953948E+03  0.00000000000E+00 0.  1.
         21   -1    0    0  503  502  0.00000000000E+00 -0.00000000000E+00 -0.23391291573E+03  0.23391291573E+03  0.00000000000E+00 0.  1.
         23    2    1    2    0    0  0.10173548675E+02  0.73194922437E+01  0.59502712848E+02  0.10794648553E+03  0.89189656594E+02 0.  0.
         23    2    1    2    0    0  0.18070109994E+02 -0.42902131318E+02  0.29988026078E+02  0.10671163818E+03  0.91219352489E+02 0.  0.
        -11    1    4    4    0    0 -0.30171503961E+02  0.23008544683E+01 -0.68583945440E+01  0.31026620156E+02  0.00000000000E+00 0. -1.
         11    1    4    4    0    0  0.48241613955E+02 -0.45202985786E+02  0.36846420622E+02  0.75685018026E+02  0.00000000000E+00 0.  1.
        -11    1    3    3    0    0  0.14992520658E+02  0.37100659352E+02  0.65908944577E+02  0.77105275923E+02  0.00000000000E+00 0. -1.
         11    1    3    3    0    0 -0.48189719826E+01 -0.29781167108E+02 -0.64062317283E+01  0.30841209610E+02  0.00000000000E+00 0.  1.
         21    1    1    2  503  501 -0.24321079566E+02 -0.17091685415E+02 -0.54031273946E+02  0.61668623998E+02  0.00000000000E+00 0.  1.
         -1    1    1    2    0  502 -0.39225791029E+01  0.52674324489E+02 -0.10733284123E+03  0.11962570749E+03  0.00000000000E+00 0.  1.
<scales pt_clust_5="13000.00000" pt_clust_6="13000.00000" pt_clust_7="13000.00000" pt_clust_8="13000.00000" pt_clust_9="29.72609" pt_clust_10="46.03797"></scales>
<clustering>
<clus scale="   29.726">  2  9  1 -1</clus>
<clus scale="   46.038">  2 10  1 -1</clus>
<clus scale="   89.190">  7  8 -1 -1</clus>
<clus scale="   91.219">  5  6 -1 -1</clus>
<clus scale="   91.653">  1  7  2 -1</clus>
<clus scale="   29.726">  2  5  1 -1</clus>
</clustering>
</event>
<event>
10    2  0.1671105E-006  0.1086125E+03  0.7546771E-02  0.1263511E+00
         21   -1    0    0  501  502  0.00000000000E+00  0.00000000000E+00  0.84120682675E+02  0.84120682675E+02  0.00000000000E+00 0.  1.
          2   -1    0    0  503    0 -0.00000000000E+00 -0.00000000000E+00 -0.62631743045E+03  0.62631743045E+03  0.00000000000E+00 0. -1.
         23    2    1    2    0    0 -0.41520891767E+02 -0.40068715785E+02 -0.52194631049E+03  0.53275036239E+03  0.89808190891E+02 0.  0.
         23    2    1    2    0    0  0.63653394315E+02  0.46062670268E+02 -0.27896030727E+02  0.12319655668E+03  0.90695528271E+02 0.  0.
        -11    1    4    4    0    0  0.71286212649E+02  0.41794680012E+01 -0.35825230290E+02  0.79891421266E+02  0.00000000000E+00 0. -1.
         11    1    4    4    0    0 -0.76328183339E+01  0.41883202267E+02  0.79291995625E+01  0.43305135418E+02  0.00000000000E+00 0.  1.
        -11    1    3    3    0    0  0.12723841243E+02  0.21118855257E+02 -0.10431583611E+03  0.10718999882E+03  0.00000000000E+00 0.  1.
         11    1    3    3    0    0 -0.54244733010E+02 -0.61187571042E+02 -0.41763047438E+03  0.42556036357E+03  0.00000000000E+00 0. -1.
         21    1    1    2  503  502 -0.77986040492E+01 -0.26322318584E+02  0.10629233393E+02  0.29439145424E+02  0.00000000000E+00 0.  1.
          2    1    1    2  501    0 -0.14333898499E+02  0.20328364101E+02 -0.29836399493E+01  0.25052048630E+02  0.00000000000E+00 0. -1.
<scales pt_clust_5="13000.00000" pt_clust_6="13000.00000" pt_clust_7="13000.00000" pt_clust_8="13000.00000" pt_clust_9="23.83489" pt_clust_10="24.87374"></scales>
<clustering>
<clus scale="   24.874">  1 10  2 -1</clus>
<clus scale="   23.835">  1  9  2 -1</clus>
<clus scale="   89.808">  7  8 -1 -1</clus>
<clus scale="   90.696">  5  6 -1 -1</clus>
<clus scale="  107.873">  2  7  1 -1</clus>
<clus scale="   24.874">  1  5  2 -1</clus>
</clustering>
</event>
<event>
10    2  0.1671105E-006  0.9847851E+02  0.7546771E-02  0.1283791E+00
          2   -1    0    0  502    0 -0.00000000000E+00  0.00000000000E+00  0.34745950044E+02  0.34745950044E+02  0.00000000000E+00 0. -1.
         21   -1    0    0  503  502  0.00000000000E+00 -0.00000000000E+00 -0.77033816401E+03  0.77033816401E+03  0.00000000000E+00 0. -1.
         23    2    1    2    0    0 -0.54033394339E+02  0.37103277307E+02 -0.12410203143E+03  0.16615968366E+03  0.88946418571E+02 0.  0.
         23    2    1    2    0    0 -0.48670843650E+01  0.17606219015E+02 -0.31778511650E+03  0.33064859446E+03  0.89484329877E+02 0.  0.
        -11    1    4    4    0    0  0.12901325772E+02 -0.33257416712E+02 -0.96009543791E+02  0.10242232409E+03  0.00000000000E+00 0.  1.
         11    1    4    4    0    0 -0.17768410137E+02  0.50863635727E+02 -0.22177557271E+03  0.22822627037E+03  0.00000000000E+00 0. -1.
        -11    1    3    3    0    0 -0.45792559091E+02  0.60552383732E+02 -0.57996944302E+02  0.95536355342E+02  0.00000000000E+00 0.  1.
         11    1    3    3    0    0 -0.82408352479E+01 -0.23449106425E+02 -0.66105087130E+02  0.70623328314E+02  0.00000000000E+00 0. -1.
         21    1    1    2  503  501  0.74552724331E+01 -0.21367724560E+02 -0.15477989306E+03  0.15642562461E+03  0.00000000000E+00 0. -1.
          2    1    1    2  501    0  0.51445206271E+02 -0.33341771762E+02 -0.13892517298E+03  0.15185021133E+03  0.00000000000E+00 0. -1.
<scales pt_clust_5="13000.00000" pt_clust_6="13000.00000" pt_clust_7="13000.00000" pt_clust_8="13000.00000" pt_clust_9="22.63097" pt_clust_10="65.61507"></scales>
<clustering>
<clus scale="   22.631">  2  9  1 -1</clus>
<clus scale="   65.615">  2 10  1 -1</clus>
<clus scale="   88.946">  7  8 -1 -1</clus>
<clus scale="   89.484">  5  6 -1 -1</clus>
<clus scale="   97.990">  1  7  2 -1</clus>
<clus scale="   22.631">  2  5  1 -1</clus>
</clustering>
</event>
<event>
10    2  0.1671105E-006  0.8478400E+02  0.7546771E-02  0.1316468E+00
         21   -1    0    0  503  502  0.00000000000E+00  0.00000000000E+00  0.13238876554E+03  0.13238876554E+03  0.00000000000E+00 0. -1.
         -2   -1    0    0    0  501 -0.00000000000E+00 -0.00000000000E+00 -0.21665046911E+03  0.21665046911E+03  0.00000000000E+00 0.  1.
         23    2    1    2    0    0 -0.42269077921E+01 -0.16156163332E+02 -0.12628147639E+03  0.15144039552E+03  0.81904174207E+02 0.  0.
         23    2    1    2    0    0  0.46317751051E+02  0.18552390590E+02  0.63085816520E+02  0.11531732681E+03  0.82636192786E+02 0.  0.
        -11    1    4    4    0    0 -0.22934681394E+02  0.97014875016E+01  0.72966833219E+01  0.25949182220E+02  0.00000000000E+00 0. -1.
         11    1    4    4    0    0  0.69252432445E+02  0.88509030884E+01  0.55789133198E+02  0.89368144593E+02  0.00000000000E+00 0.  1.
        -13    1    3    3    0    0 -0.40214537186E+02  0.14216834502E+00 -0.40883801403E+02  0.57347314062E+02  0.00000000000E+00 0.  1.
         13    1    3    3    0    0  0.35987629394E+02 -0.16298331677E+02 -0.85397674984E+02  0.94093081454E+02  0.00000000000E+00 0. -1.
         21    1    1    2  503  501  0.13009811981E+01  0.27017538083E+02 -0.55556864549E+01  0.27613503366E+02  0.00000000000E+00 0. -1.
         -2    1    1    2    0  502 -0.43391824457E+02 -0.29413765341E+02 -0.15510357246E+02  0.54668008956E+02  0.00000000000E+00 0.  1.
<scales pt_clust_5="13000.00000" pt_clust_6="13000.00000" pt_clust_7="13000.00000" pt_clust_8="13000.00000" pt_clust_9="27.04884" pt_clust_10="49.92430"></scales>
<clustering>
<clus scale="   27.049">  1  9  2 -1</clus>
<clus scale="   49.924">  1 10  2 -1</clus>
<clus scale="   81.904">  7  8 -1 -1</clus>
<clus scale="   82.636">  5  6 -1 -1</clus>
<clus scale="   84.071">  2  7  1 -1</clus>
<clus scale="   27.049">  1  5  2 -1</clus>
</clustering>
</event>
<event>
10    2  0.1671105E-006  0.1667201E+03  0.7546771E-02  0.1204787E+00
         21   -1    0    0  503  502  0.00000000000E+00  0.00000000000E+00  0.60043054144E+02  0.60043054144E+02  0.00000000000E+00 0. -1.
          2   -1    0    0  502    0 -0.00000000000E+00 -0.00000000000E+00 -0.70885705499E+03  0.70885705499E+03  0.00000000000E+00 0. -1.
         23    2    1    2    0    0  0.11677728407E+02  0.41061344831E+02 -0.18999253784E+03  0.21447686702E+03  0.89893040177E+02 0.  0.
         23    2    1    2    0    0 -0.14528739088E+03 -0.21465307607E+02 -0.24418536306E+03  0.29943916665E+03  0.92022484286E+02 0.  0.
        -11    1    4    4    0    0 -0.26823682204E+02  0.33228516835E+02 -0.55332910206E+02  0.69895459151E+02  0.00000000000E+00 0.  1.
         11    1    4    4    0    0 -0.11846370868E+03 -0.54693824442E+02 -0.18885245285E+03  0.22954370750E+03  0.00000000000E+00 0. -1.
        -11    1    3    3    0    0 -0.10001393292E+01  0.58792717851E+02 -0.65215744168E+02  0.87810462010E+02  0.00000000000E+00 0. -1.
         11    1    3    3    0    0  0.12677867736E+02 -0.17731373020E+02 -0.12477679367E+03  0.12666640501E+03  0.00000000000E+00 0.  1.
         21    1    1    2  503  501  0.56323712809E+02 -0.20685742631E+02 -0.10297218861E+03  0.11917857274E+03  0.00000000000E+00 0. -1.
          2    1    1    2  501    0  0.77285949668E+02  0.10897054064E+01 -0.11166391134E+03  0.13580550272E+03  0.00000000000E+00 0. -1.
<scales pt_clust_5="13000.00000" pt_clust_6="13000.00000" pt_clust_7="13000.00000" pt_clust_8="13000.00000" pt_clust_9="23.52112" pt_clust_10="141.56325"></scales>
<clustering>
<clus scale="   23.521">  9 10 -1 -1</clus>
<clus scale="   89.893">  7  8 -1 -1</clus>
<clus scale="   92.022">  5  6 -1 -1</clus>
<clus scale="   99.515">  2  7  1 -1</clus>
<clus scale="  141.563">  1  9  2 -1</clus>
<clus scale="  141.563">  1  5  2 -1</clus>
</clustering>
</event>
<event>
10    2  0.1671105E-006  0.1089545E+03  0.7546771E-02  0.1265605E+00
         21   -1    0    0  501  502  0.00000000000E+00  0.00000000000E+00  0.57910403451E+02  0.57910403451E+02  0.00000000000E+00 0.  1.
          3   -1    0    0  503    0 -0.00000000000E+00 -0.00000000000E+00 -0.52486893533E+03  0.52486893533E+03  0.00000000000E+00 0. -1.
         23    2    1    2    0    0  0.28034852497E+02 -0.26110197990E+02 -0.27357846532E+03  0.29140688631E+03  0.92763685291E+02 0.  0.
         23    2    1    2    0    0 -0.81236528344E+02  0.23287823466E+02 -0.40535527657E+02  0.12665742921E+03  0.85189665533E+02 0.  0.
        -11    1    4    4    0    0 -0.32903718019E+02  0.52767157965E+02 -0.12287308992E+02  0.63387739993E+02  0.00000000000E+00 0. -1.
         11    1    4    4    0    0 -0.48332810325E+02 -0.29479334499E+02 -0.28248218665E+02  0.63269689221E+02  0.00000000000E+00 0.  1.
        -13    1    3    3    0    0  0.23265843246E+01  0.28359540323E+02 -0.16321813260E+03  0.16567991831E+03  0.00000000000E+00 0. -1.
         13    1    3    3    0    0  0.25708268172E+02 -0.54469738313E+02 -0.11036033272E+03  0.12572696800E+03  0.00000000000E+00 0.  1.
         21    1    1    2  503  502  0.27689909121E+02  0.36721500308E+01 -0.38556647873E+02  0.47611247077E+02  0.00000000000E+00 0. -1.
          3    1    1    2  501    0  0.25511766726E+02 -0.84977550623E+00 -0.11428789103E+03  0.11710377618E+03  0.00000000000E+00 0. -1.
<scales pt_clust_5="13000.00000" pt_clust_6="13000.00000" pt_clust_7="13000.00000" pt_clust_8="13000.00000" pt_clust_9="29.95168" pt_clust_10="25.52593"></scales>
<clustering>
<clus scale="   25.526">  1 10  2 -1</clus>
<clus scale="   29.952">  2  9  1 -1</clus>
<clus scale="   85.190">  5  6 -1 -1</clus>
<clus scale="   92.764">  7  8 -1 -1</clus>
<clus scale="  102.583">  1  5  2 -1</clus>
<clus scale="   25.526">  1  5  2 -1</clus>
</clustering>
</event>
<event>
10    2  0.1671105E-006  0.1056374E+03  0.7546771E-02  0.1269831E+00
         21   -1    0    0  503  502  0.00000000000E+00  0.00000000000E+00  0.26113973612E+03  0.26113973612E+03  0.00000000000E+00 0. -1.
          3   -1    0    0  502    0 -0.00000000000E+00 -0.00000000000E+00 -0.14730699847E+03  0.14730699847E+03  0.00000000000E+00 0. -1.
         23    2    1    2    0    0  0.21591621343E+02 -0.41471822892E+01 -0.58491715455E+01  0.92065898366E+02  0.89210535257E+02 0.  0.
         23    2    1    2    0    0 -0.95450720671E+02  0.89453762738E+02  0.37652632696E+02  0.16400364797E+03  0.91469448751E+02 0.  0.
        -13    1    4    4    0    0 -0.99304285034E+01  0.66730514575E+02 -0.92645869725E+00  0.67471722309E+02  0.00000000000E+00 0. -1.
         13    1    4    4    0    0 -0.85520292168E+02  0.22723248163E+02  0.38579091393E+02  0.96531925663E+02  0.00000000000E+00 0.  1.
        -13    1    3    3    0    0 -0.24845591125E+02  0.25241640750E+02  0.57981589744E+01  0.35889587258E+02  0.00000000000E+00 0. -1.
         13    1    3    3    0    0  0.46437212468E+02 -0.29388823039E+02 -0.11647330520E+02  0.56176311107E+02  0.00000000000E+00 0.  1.
         21    1    1    2  503  501  0.18592002464E+02 -0.44142646141E+02  0.66130348949E+02  0.81654508854E+02  0.00000000000E+00 0. -1.
          3    1    1    2  501    0  0.55267096864E+02 -0.41163934308E+02  0.15898927546E+02  0.70722679394E+02  0.00000000000E+00 0. -1.
<scales pt_clust_5="13000.00000" pt_clust_6="13000.00000" pt_clust_7="13000.00000" pt_clust_8="13000.00000" pt_clust_9="47.89818" pt_clust_10="78.66132"></scales>
<clustering>
<clus scale="   47.898">  1  9  2 -1</clus>
<clus scale="   78.661">  1 10  2 -1</clus>
<clus scale="   89.211">  7  8 -1 -1</clus>
<clus scale="   91.469">  5  6 -1 -1</clus>
<clus scale="  103.688">  2  7  1 -1</clus>
<clus scale="   47.898">  1  5  2 -1</clus>
</clustering>
</event>
<event>
10    2  0.3487807E-006  0.1050837E+03  0.7546771E-02  0.1270162E+00
         -4   -1    0    0    0  501 -0.00000000000E+00  0.00000000000E+00  0.50326362896E+03  0.50326362896E+03  0.00000000000E+00 0.  1.
         21   -1    0    0  503  502  0.00000000000E+00 -0.00000000000E+00 -0.16302339703E+03  0.16302339703E+03  0.00000000000E+00 0.  1.
         23    2    1    2    0    0  0.12616456415E+02 -0.23871349920E+02  0.23787215901E+03  0.25620726972E+03  0.91268749905E+02 0.  0.
         23    2    1    2    0    0 -0.84590848419E+02  0.43859566080E+02  0.19864641863E+03  0.23865798336E+03  0.91749442581E+02 0.  0.
        -11    1    4    4    0    0 -0.99624882919E+02  0.24277399298E+02  0.18194881929E+03  0.20885373412E+03  0.00000000000E+00 0.  1.
         11    1    4    4    0    0  0.15034034499E+02  0.19582166782E+02  0.16697599336E+02  0.29804249240E+02  0.00000000000E+00 0. -1.
        -13    1    3    3    0    0 -0.21415199702E+02  0.22326159994E+02  0.42392866756E+02  0.52480695023E+02  0.00000000000E+00 0.  1.
         13    1    3    3    0    0  0.34031656117E+02 -0.46197509914E+02  0.19547929225E+03  0.20372657470E+03  0.00000000000E+00 0. -1.
         21    1    1    2  503  501  0.17776965919E+02  0.22708329520E+02  0.20778202223E+02  0.35544654092E+02  0.00000000000E+00 0.  1.
         -4    1    1    2    0  502  0.54197426085E+02 -0.42696545680E+02 -0.11705654792E+03  0.13587711882E+03  0.00000000000E+00 0.  1.
<scales pt_clust_5="13000.00000" pt_clust_6="13000.00000" pt_clust_7="13000.00000" pt_clust_8="13000.00000" pt_clust_9="28.83901" pt_clust_10="68.99595"></scales>
<clustering>
<clus scale="   28.839">  1  9  2 -1</clus>
<clus scale="   68.996">  2 10  1 -1</clus>
<clus scale="   91.269">  7  8 -1 -1</clus>
<clus scale="   91.749">  5  6 -1 -1</clus>
<clus scale="  104.664">  1  7  2 -1</clus>
<clus scale="   68.996">  2  5  1 -1</clus>
</clustering>
</event>
<event>
10    2  0.1671105E-006  0.1067026E+03  0.7546771E-02  0.1266870E+00
         -1   -1    0    0    0  501 -0.00000000000E+00  0.00000000000E+00  0.48148005212E+02  0.48148005212E+02  0.00000000000E+00 0.  1.
         21   -1    0    0  503  502  0.00000000000E+00 -0.00000000000E+00 -0.45124687754E+03  0.45124687754E+03  0.00000000000E+00 0. -1.
         23    2    1    2    0    0 -0.45524405397E+01 -0.69592696688E+02 -0.12961412207E+03  0.17275837253E+03  0.90453117649E+02 0.  0.
         23    2    1    2    0    0 -0.44715224445E+02  0.36194214581E+02 -0.13426133377E+03  0.17189526969E+03  0.90622323570E+02 0.  0.
        -11    1    4    4    0    0 -0.28489933546E+02  0.54987945769E+02 -0.38396381589E+02  0.72867225915E+02  0.00000000000E+00 0.  1.
         11    1    4    4    0    0 -0.16225290898E+02 -0.18793731189E+02 -0.95864952186E+02  0.99028043777E+02  0.00000000000E+00 0. -1.
        -11    1    3    3    0    0 -0.33960174610E+02 -0.79566205049E+00 -0.67305402084E+02  0.75391933835E+02  0.00000000000E+00 0. -1.
         11    1    3    3    0    0  0.29407734070E+02 -0.68797034637E+02 -0.62308719982E+02  0.97366438693E+02  0.00000000000E+00 0.  1.
         21    1    1    2  503  501  0.12056959847E+02  0.16033704494E+02 -0.18739882110E+02  0.27452379533E+02  0.00000000000E+00 0. -1.
         -1    1    1    2    0  502  0.37210705138E+02  0.17364777613E+02 -0.12048353438E+03  0.12728886100E+03  0.00000000000E+00 0.  1.
<scales pt_clust_5="13000.00000" pt_clust_6="13000.00000" pt_clust_7="13000.00000" pt_clust_8="13000.00000" pt_clust_9="20.06116" pt_clust_10="42.44514"></scales>
<clustering>
<clus scale="   20.061">  1  9  2 -1</clus>
<clus scale="   42.445">  2 10  1 -1</clus>
<clus scale="   90.453">  7  8 -1 -1</clus>
<clus scale="   90.622">  5  6 -1 -1</clus>
<clus scale="  106.559">  1  7  2 -1</clus>
<clus scale="   42.445">  2  5  1 -1</clus>
</clustering>
</event>
<event>
10    2  0.1671105E-006  0.2523849E+03  0.7546771E-02  0.1129236E+00
          1   -1    0    0  503    0 -0.00000000000E+00  0.00000000000E+00  0.72669266642E+03  0.72669266642E+03  0.00000000000E+00 0. -1.
         21   -1    0    0  501  502  0.00000000000E+00 -0.00000000000E+00 -0.17194285680E+03  0.17194285680E+03  0.00000000000E+00 0.  1.
         23    2    1    2    0    0  0.20945928035E+02 -0.14219296331E+03  0.17314476687E+03  0.24275880700E+03  0.91077754498E+02 0.  0.
         23    2    1    2    0    0 -0.22755735806E+03  0.15894249978E+03  0.15737810598E+03  0.33228981326E+03  0.92755497451E+02 0.  0.
        -13    1    4    4    0    0 -0.18198315605E+03  0.14372906777E+03  0.88285025310E+02  0.24813335065E+03  0.00000000000E+00 0.  1.
         13    1    4    4    0    0 -0.45574202015E+02  0.15213432006E+02  0.69093080671E+02  0.84156462612E+02  0.00000000000E+00 0. -1.
        -13    1    3    3    0    0 -0.23146595582E+02 -0.94860234807E+02  0.66875144729E+02  0.11834911921E+03  0.00000000000E+00 0.  1.
         13    1    3    3    0    0  0.44092523617E+02 -0.47332728508E+02  0.10626962214E+03  0.12440968779E+03  0.00000000000E+00 0. -1.
         21    1    1    2  503  502  0.93897857715E+01  0.28928739621E+02  0.36368689096E+02  0.47410142369E+02  0.00000000000E+00 0. -1.
          1    1    1    2  501    0  0.19722164426E+03 -0.45678276088E+02  0.18785824767E+03  0.27617676059E+03  0.00000000000E+00 0. -1.
<scales pt_clust_5="13000.00000" pt_clust_6="13000.00000" pt_clust_7="13000.00000" pt_clust_8="13000.00000" pt_clust_9="30.41447" pt_clust_10="234.72245"></scales>
<clustering>
<clus scale="   30.414">  1  9  2 -1</clus>
<clus scale="   91.078">  7  8 -1 -1</clus>
<clus scale="   92.755">  5  6 -1 -1</clus>
<clus scale="  163.277">  1  7  2 -1</clus>
<clus scale="  234.722">  2 10  1 -1</clus>
<clus scale="  234.722">  2  5  1 -1</clus>
</clustering>
</event>
<event>
10    2  0.1671105E-006  0.9148368E+02  0.7546771E-02  0.1299815E+00
          1   -1    0    0  502    0 -0.00000000000E+00  0.00000000000E+00  0.31623072016E+03  0.31623072016E+03  0.00000000000E+00 0. -1.
         21   -1    0    0  503  502  0.00000000000E+00 -0.00000000000E+00 -0.65670474959E+02  0.65670474959E+02  0.00000000000E+00 0.  1.
         23    2    1    2    0    0 -0.83567268491E+01  0.62779819530E+00  0.17288311087E+03  0.19559771264E+03  0.91102503545E+02 0.  0.
         23    2    1    2    0    0 -0.47775918770E+02  0.12401246681E+01  0.70361462976E+02  0.12400090525E+03  0.90229777270E+02 0.  0.
        -11    1    4    4    0    0  0.94302884003E+01  0.34353260716E+02  0.29837465103E+02  0.46468819492E+02  0.00000000000E+00 0. -1.
         11    1    4    4    0    0 -0.57206207171E+02 -0.33113136048E+02  0.40523997873E+02  0.77532085754E+02  0.00000000000E+00 0.  1.
        -13    1    3    3    0    0 -0.11685276235E+02  0.44250287606E+02  0.10849159473E+03  0.11774998837E+03  0.00000000000E+00 0. -1.
         13    1    3    3    0    0  0.33285493863E+01 -0.43622489411E+02  0.64391516133E+02  0.77847724266E+02  0.00000000000E+00 0.  1.
         21    1    1    2  503  501  0.30649350480E+02  0.63008095623E+01  0.14657440200E+02  0.34553197236E+02  0.00000000000E+00 0. -1.
          1    1    1    2  501    0  0.25483295139E+02 -0.81687324257E+01 -0.73417688421E+01  0.27749379999E+02  0.00000000000E+00 0. -1.
<scales pt_clust_5="13000.00000" pt_clust_6="13000.00000" pt_clust_7="13000.00000" pt_clust_8="13000.00000" pt_clust_9="24.00409" pt_clust_10="61.87158"></scales>
<clustering>
<clus scale="   24.004">  9 10 -1 -1</clus>
<clus scale="   61.872">  2  9  1 -1</clus>
<clus scale="   90.230">  5  6 -1 -1</clus>
<clus scale="   90.615">  2  5  1 -1</clus>
<clus scale="   91.103">  7  8 -1 -1</clus>
<clus scale="   61.872">  2  5  1 -1</clus>
</clustering>
</event>
<event>
10    2  0.1671105E-006  0.9762248E+02  0.7546771E-02  0.1294242E+00
          1   -1    0    0  503    0 -0.00000000000E+00  0.00000000000E+00  0.23665766781E+03  0.23665766781E+03  0.00000000000E+00 0. -1.
         21   -1    0    0  501  502  0.00000000000E+00 -0.00000000000E+00 -0.85111295505E+02  0.85111295505E+02  0.00000000000E+00 0. -1.
         23    2    1    2    0    0  0.21735671811E+02 -0.17829074281E+02  0.82999188969E+02  0.12686217015E+03  0.91732379930E+02 0.  0.
         23    2    1    2    0    0  0.26907369496E+02  0.44062840909E+02  0.33989008720E+02  0.97681944750E+02  0.75637088350E+02 0.  0.
        -13    1    3    3    0    0  0.27774059018E+02  0.32673641740E+02  0.51579724067E+02  0.67077814170E+02  0.00000000000E+00 0. -1.
         13    1    3    3    0    0 -0.60383872076E+01 -0.50502716021E+02  0.31419464902E+02  0.59784355983E+02  0.00000000000E+00 0.  1.
        -13    1    4    4    0    0  0.44440433012E+01  0.50239791438E+02  0.48715027978E+02  0.70120896425E+02  0.00000000000E+00 0. -1.
         13    1    4    4    0    0  0.22463326195E+02 -0.61769505290E+01 -0.14726019257E+02  0.27561048325E+02  0.00000000000E+00 0.  1.
         21    1    1    2  503  502 -0.10167951661E+02 -0.24003941945E+02  0.49456035198E+02  0.55905955741E+02  0.00000000000E+00 0.  1.
          1    1    1    2  501    0 -0.38475089646E+02 -0.22298246831E+01 -0.14897860584E+02  0.41318892669E+02  0.00000000000E+00 0. -1.
<scales pt_clust_5="13000.00000" pt_clust_6="13000.00000" pt_clust_7="13000.00000" pt_clust_8="13000.00000" pt_clust_9="26.06869" pt_clust_10="39.40403"></scales>
<clustering>
<clus scale="   26.069">  1  9  2 -1</clus>
<clus scale="   39.404">  2 10  1 -1</clus>
<clus scale="   75.637">  7  8 -1 -1</clus>
<clus scale="   82.682">  2  7  1 -1</clus>
<clus scale="   91.732">  5  6 -1 -1</clus>
<clus scale="   39.404">  2  5  1 -1</clus>
</clustering>
</event>
<event>
10    2  0.1671105E-006  0.1430645E+03  0.7546771E-02  0.1209513E+00
          2   -1    0    0  503    0 -0.00000000000E+00  0.00000000000E+00  0.65298819233E+03  0.65298819233E+03  0.00000000000E+00 0. -1.
         21   -1    0    0  501  502  0.00000000000E+00 -0.00000000000E+00 -0.24577405497E+03  0.24577405497E+03  0.00000000000E+00 0. -1.
         23    2    1    2    0    0 -0.40830668952E+02 -0.93621330295E+02  0.47153911142E+03  0.49102021467E+03  0.91211954264E+02 0.  0.
         23    2    1    2    0    0  0.15218792358E+03  0.12009127159E+03  0.67693695873E+02  0.22420568763E+03  0.90014867165E+02 0.  0.
        -11    1    4    4    0    0  0.66582492097E+02  0.95398054338E+02  0.68696186887E+02  0.13510434160E+03  0.00000000000E+00 0.  1.
         11    1    4    4    0    0  0.85605431482E+02  0.24693217254E+02 -0.10024910134E+01  0.89101346038E+02  0.00000000000E+00 0. -1.
        -11    1    3    3    0    0 -0.69833844993E+02 -0.62841637165E+02  0.34720250648E+03  0.35968794500E+03  0.00000000000E+00 0.  1.
         11    1    3    3    0    0  0.29003176042E+02 -0.30779693130E+02  0.12433660494E+03  0.13133226967E+03  0.00000000000E+00 0. -1.
         21    1    1    2  503  502 -0.21818571170E+02  0.11522843865E+02 -0.80285443467E+01  0.25947707085E+02  0.00000000000E+00 0.  1.
          2    1    1    2  501    0 -0.89538683458E+02 -0.37992785161E+02 -0.12399012558E+03  0.15758863792E+03  0.00000000000E+00 0. -1.
<scales pt_clust_5="13000.00000" pt_clust_6="13000.00000" pt_clust_7="13000.00000" pt_clust_8="13000.00000" pt_clust_9="24.67440" pt_clust_10="107.50248"></scales>
<clustering>
<clus scale="   24.674">  2  9  1 -1</clus>
<clus scale="   90.015">  5  6 -1 -1</clus>
<clus scale="   91.212">  7  8 -1 -1</clus>
<clus scale="  107.502">  2 10  1 -1</clus>
<clus scale="  142.304">  2  5  1 -1</clus>
<clus scale="   24.674">  2  5  1 -1</clus>
</clustering>
</event>
<event>
10    2  0.1671105E-006  0.1059734E+03  0.7546771E-02  0.1269432E+00
         21   -1    0    0  503  502  0.00000000000E+00  0.00000000000E+00  0.86247234001E+02  0.86247234001E+02  0.00000000000E+00 0.  1.
         -1   -1    0    0    0  501 -0.00000000000E+00 -0.00000000000E+00 -0.27274506104E+03  0.27274506104E+03  0.00000000000E+00 0.  1.
         23    2    1    2    0    0  0.28319628559E+02  0.60731108267E+02 -0.14614103228E+03  0.18565342529E+03  0.92842469447E+02 0.  0.
         23    2    1    2    0    0 -0.11426445350E+02 -0.26963328627E+02 -0.55588494010E+02  0.10977072702E+03  0.90010816577E+02 0.  0.
        -13    1    3    3    0    0  0.17135407231E+02  0.30083189149E+02 -0.14893793660E+03  0.15290889251E+03  0.00000000000E+00 0.  1.
         13    1    3    3    0    0  0.11184221328E+02  0.30647919117E+02  0.27969043223E+01  0.32744532776E+02  0.00000000000E+00 0. -1.
        -13    1    4    4    0    0  0.21782441645E+02  0.56973459489E+01  0.13644993713E+02  0.26327179270E+02  0.00000000000E+00 0. -1.
         13    1    4    4    0    0 -0.33208886995E+02 -0.32660674576E+02 -0.69233487724E+02  0.83443547753E+02  0.00000000000E+00 0.  1.
         21    1    1    2  503  501  0.95163749368E+01 -0.28013810616E+02 -0.47368387638E+01  0.29962853980E+02  0.00000000000E+00 0.  1.
         -1    1    1    2    0  502 -0.26409558146E+02 -0.57539690234E+01  0.19968538019E+02  0.33605288745E+02  0.00000000000E+00 0.  1.
<scales pt_clust_5="13000.00000" pt_clust_6="13000.00000" pt_clust_7="13000.00000" pt_clust_8="13000.00000" pt_clust_9="29.49525" pt_clust_10="27.02911"></scales>
<clustering>
<clus scale="   27.029">  1 10  2 -1</clus>
<clus scale="   29.495">  1  9  2 -1</clus>
<clus scale="   90.011">  7  8 -1 -1</clus>
<clus scale="   92.842">  5  6 -1 -1</clus>
<clus scale="  103.502">  1  7  2 -1</clus>
<clus scale="   27.029">  1  5  2 -1</clus>
</clustering>
</event>
<event>
10    2  0.1671105E-006  0.1714699E+03  0.7546771E-02  0.1177863E+00
         21   -1    0    0  501  502  0.00000000000E+00  0.00000000000E+00  0.34716901334E+03  0.34716901334E+03  0.00000000000E+00 0. -1.
          1   -1    0    0  503    0 -0.00000000000E+00 -0.00000000000E+00 -0.30047542712E+03  0.30047542712E+03  0.00000000000E+00 0. -1.
         23    2    1    2    0    0 -0.52359237605E+01  0.83879698280E+02 -0.10824827358E+03  0.15764581420E+03  0.77918517179E+02 0.  0.
         23    2    1    2    0    0 -0.40258119337E+02 -0.19664774681E+03  0.91250988401E+02  0.23804261511E+03  0.89702236455E+02 0.  0.
        -11    1    4    4    0    0 -0.55837375458E+02 -0.10584629323E+03  0.82808479147E+02  0.14552832888E+03  0.00000000000E+00 0.  1.
         11    1    4    4    0    0  0.15579256121E+02 -0.90801453575E+02  0.84425092541E+01  0.92514286222E+02  0.00000000000E+00 0. -1.
        -11    1    3    3    0    0  0.15727080304E+02  0.70299488192E+02 -0.11120010443E+03  0.13249461242E+03  0.00000000000E+00 0. -1.
         11    1    3    3    0    0 -0.20963004065E+02  0.13580210089E+02  0.29518308494E+01  0.25151201777E+02  0.00000000000E+00 0.  1.
         21    1    1    2  503  502  0.83939000462E+02  0.66035414588E+02 -0.53957174150E+02  0.11965704501E+03  0.00000000000E+00 0. -1.
          1    1    1    2  501    0 -0.38444957364E+02  0.46732633941E+02  0.11764804555E+03  0.13229896615E+03  0.00000000000E+00 0. -1.
<scales pt_clust_5="13000.00000" pt_clust_6="13000.00000" pt_clust_7="13000.00000" pt_clust_8="13000.00000" pt_clust_9="106.98025" pt_clust_10="60.51408"></scales>
<clustering>
<clus scale="   60.514">  1 10  2 -1</clus>
<clus scale="   77.919">  7  8 -1 -1</clus>
<clus scale="   89.702">  5  6 -1 -1</clus>
<clus scale="  106.980">  2  9  1 -1</clus>
<clus scale="  165.610">  2  7  1 -1</clus>
<clus scale="   60.514">  1  5  2 -1</clus>
</clustering>
</event>
<event>
10    2  0.1671105E-006  0.2888107E+03  0.7546771E-02  0.1092623E+00
         -1   -1    0    0    0  501 -0.00000000000E+00  0.00000000000E+00  0.88825162707E+02  0.88825162707E+02  0.00000000000E+00 0.  1.
         21   -1    0    0  503  502  0.00000000000E+00 -0.00000000000E+00 -0.17964225675E+04  0.17964225675E+04  0.00000000000E+00 0. -1.
         23    2    1    2    0    0  0.14051953062E+03 -0.17658703450E+03 -0.36828442562E+03  0.44070899946E+03  0.87534477840E+02 0.  0.
         23    2    1    2    0    0 -0.15367866123E+03  0.28897606235E+03 -0.64085806040E+03  0.72968236739E+03  0.12088427596E+03 0.  0.
        -11    1    4    4    0    0 -0.15592745901E+02  0.42580258405E+02 -0.24161988831E+02  0.51381064945E+02  0.00000000000E+00 0.  1.
         11    1    4    4    0    0 -0.13808591533E+03  0.24639580395E+03 -0.61669607157E+03  0.67830130245E+03  0.00000000000E+00 0. -1.
        -13    1    3    3    0    0  0.11222264960E+02 -0.70661057524E+02 -0.78800956124E+02  0.10643549675E+03  0.00000000000E+00 0. -1.
         13    1    3    3    0    0  0.12929726566E+03 -0.10592597697E+03 -0.28948346950E+03  0.33427350271E+03  0.00000000000E+00 0.  1.
         21    1    1    2  503  501  0.27733352463E+02  0.22390292728E+01 -0.61444551245E+02  0.67450611329E+02  0.00000000000E+00 0.  1.
         -1    1    1    2    0  502 -0.14574221852E+02 -0.11462805713E+03 -0.63701036751E+03  0.64740575201E+03  0.00000000000E+00 0.  1.
<scales pt_clust_5="13000.00000" pt_clust_6="13000.00000" pt_clust_7="13000.00000" pt_clust_8="13000.00000" pt_clust_9="27.82359" pt_clust_10="113.87870"></scales>
<clustering>
<clus scale="   27.824">  2  9  1 -1</clus>
<clus scale="   87.534">  7  8 -1 -1</clus>
<clus scale="  113.879">  2 10  1 -1</clus>
<clus scale="  120.884">  5  6 -1 -1</clus>
<clus scale="  276.516">  1  7  2 -1</clus>
<clus scale="   27.824">  2  5  1 -1</clus>
</clustering>
</event>
<event>
10    2  0.1671105E-006  0.1361021E+03  0.7546771E-02  0.1223068E+00
          2   -1    0    0  503    0 -0.00000000000E+00  0.00000000000E+00  0.64049227536E+03  0.64049227536E+03  0.00000000000E+00 0.  1.
         21   -1    0    0  501  502  0.00000000000E+00 -0.00000000000E+00 -0.11267079839E+03  0.11267079839E+03  0.00000000000E+00 0.  1.
         23    2    1    2    0    0 -0.70811503100E+02 -0.98051944291E+02  0.46447591541E+03  0.49167819830E+03  0.10668234130E+03 0.  0.
         23    2    1    2    0    0  0.48679880936E+01  0.34522382610E+02  0.99874682004E+02  0.13947446439E+03  0.90899295392E+02 0.  0.
        -11    1    3    3    0    0 -0.86806135036E+02 -0.45011276180E+02  0.36440223861E+03  0.37729340249E+03  0.00000000000E+00 0.  1.
         11    1    3    3    0    0  0.15994631936E+02 -0.53040668111E+02  0.10007367680E+03  0.11438479581E+03  0.00000000000E+00 0. -1.
        -13    1    4    4    0    0 -0.41360856050E+02  0.29066238953E+02  0.46959306384E+02  0.68998138498E+02  0.00000000000E+00 0. -1.
         13    1    4    4    0    0  0.46228844144E+02  0.54561436572E+01  0.52915375620E+02  0.70476325894E+02  0.00000000000E+00 0.  1.
         21    1    1    2  503  502  0.74021739602E+02  0.38303278471E+02 -0.90359283049E+01  0.83833209862E+02  0.00000000000E+00 0. -1.
          2    1    1    2  501    0 -0.80782245959E+01  0.25226283209E+02 -0.27493192131E+02  0.38177201191E+02  0.00000000000E+00 0.  1.
<scales pt_clust_5="13000.00000" pt_clust_6="13000.00000" pt_clust_7="13000.00000" pt_clust_8="13000.00000" pt_clust_9="87.24747" pt_clust_10="26.48817"></scales>
<clustering>
<clus scale="   26.488">  2 10  1 -1</clus>
<clus scale="   87.247">  2  9  1 -1</clus>
<clus scale="   90.899">  7  8 -1 -1</clus>
<clus scale="  106.682">  5  6 -1 -1</clus>
<clus scale="  124.118">  2  7  1 -1</clus>
<clus scale="   26.488">  2  5  1 -1</clus>
</clustering>
</event>
<event>
10    2  0.1671105E-006  0.9467327E+02  0.7546771E-02  0.1292528E+00
         21   -1    0    0  503  502  0.00000000000E+00  0.00000000000E+00  0.12607473600E+03  0.12607473600E+03  0.00000000000E+00 0. -1.
         -1   -1    0    0    0  501 -0.00000000000E+00 -0.00000000000E+00 -0.13807874608E+03  0.13807874608E+03  0.00000000000E+00 0.  1.
         23    2    1    2    0    0 -0.28284308119E+02  0.83203719526E+01 -0.36239067888E+02  0.10168236722E+03  0.90315021378E+02 0.  0.
         23    2    1    2    0    0  0.85973016410E+01 -0.20138377780E+02  0.16716238722E+02  0.95493219316E+02  0.91433333327E+02 0.  0.
        -13    1    4    4    0    0  0.17132744181E+02  0.29075564467E+02 -0.14349525509E+02  0.36671900068E+02  0.00000000000E+00 0.  1.
         13    1    4    4    0    0 -0.85354425397E+01 -0.49213942247E+02  0.31065764231E+02  0.58821319248E+02  0.00000000000E+00 0. -1.
        -13    1    3    3    0    0  0.26583516417E+02 -0.19138805267E+02 -0.19350860281E+02  0.38045144312E+02  0.00000000000E+00 0.  1.
         13    1    3    3    0    0 -0.54867824536E+02  0.27459177220E+02 -0.16888207607E+02  0.63637222905E+02  0.00000000000E+00 0. -1.
         21    1    1    2  503  501  0.30431198580E+02  0.31151855251E+02 -0.20552541077E+00  0.43549261455E+02  0.00000000000E+00 0.  1.
         -1    1    1    2    0  502 -0.10744192102E+02 -0.19333849424E+02  0.77243444955E+01  0.23428634091E+02  0.00000000000E+00 0.  1.
<scales pt_clust_5="13000.00000" pt_clust_6="13000.00000" pt_clust_7="13000.00000" pt_clust_8="13000.00000" pt_clust_9="39.38036" pt_clust_10="22.11867"></scales>
<clustering>
<clus scale="   22.119">  1 10  2 -1</clus>
<clus scale="   39.380">  1  9  2 -1</clus>
<clus scale="   90.315">  7  8 -1 -1</clus>
<clus scale="   91.433">  5  6 -1 -1</clus>
<clus scale="   93.594">  2  7  1 -1</clus>
<clus scale="   22.119">  1  5  2 -1</clus>
</clustering>
</event>
<event>
10    2  0.1671105E-006  0.5071461E+03  0.7546771E-02  0.1011973E+00
          2   -1    0    0  502    0 -0.00000000000E+00  0.00000000000E+00  0.15470430777E+04  0.15470430777E+04  0.00000000000E+00 0. -1.
         21   -1    0    0  503  502  0.00000000000E+00 -0.00000000000E+00 -0.22175485034E+03  0.22175485034E+03  0.00000000000E+00 0. -1.
         23    2    1    2    0    0 -0.39596559830E+03  0.28160377848E+03  0.75706447618E+03  0.90477433556E+03  0.96853157478E+02 0.  0.
         23    2    1    2    0    0  0.36555047235E+03 -0.36870930214E+03  0.55402331725E+03  0.76499913381E+03  0.93317422506E+02 0.  0.
        -11    1    3    3    0    0 -0.28309463687E+03  0.24720551370E+03  0.54370436849E+03  0.66095959010E+03  0.00000000000E+00 0. -1.
         11    1    3    3    0    0 -0.11287096143E+03  0.34398264783E+02  0.21336010769E+03  0.24381474547E+03  0.00000000000E+00 0.  1.
        -13    1    4    4    0    0  0.34841097991E+03 -0.31359407611E+03  0.47730233850E+03  0.66899101476E+03  0.00000000000E+00 0. -1.
         13    1    4    4    0    0  0.17139492437E+02 -0.55115226028E+02  0.76720978756E+02  0.96008119044E+02  0.00000000000E+00 0.  1.
         21    1    1    2  503  501 -0.52048698252E+01  0.31234565638E+02  0.64199706708E+01  0.32309515378E+02  0.00000000000E+00 0. -1.
          2    1    1    2  501    0  0.35619995780E+02  0.55870958022E+02  0.77804632570E+01  0.66714943290E+02  0.00000000000E+00 0. -1.
<scales pt_clust_5="13000.00000" pt_clust_6="13000.00000" pt_clust_7="13000.00000" pt_clust_8="13000.00000" pt_clust_9="22.84158" pt_clust_10="98.00097"></scales>
<clustering>
<clus scale="   22.842">  9 10 -1 -1</clus>
<clus scale="   93.317">  7  8 -1 -1</clus>
<clus scale="   96.853">  5  6 -1 -1</clus>
<clus scale="   98.001">  2  9  1 -1</clus>
<clus scale="  506.483">  2  7  1 -1</clus>
<clus scale="   98.001">  2  5  1 -1</clus>
</clustering>
</event>
<event>
10    2  0.1671105E-006  0.3608989E+03  0.7546771E-02  0.1058352E+00
          4   -1    0    0  502    0 -0.00000000000E+00  0.00000000000E+00  0.16963975771E+03  0.16963975771E+03  0.00000000000E+00 0. -1.
         21   -1    0    0  503  502  0.00000000000E+00 -0.00000000000E+00 -0.12166796968E+04  0.12166796968E+04  0.00000000000E+00 0. -1.
         23    2    1    2    0    0  0.32122192258E+03 -0.12183282617E+03 -0.40173521949E+03  0.53664350721E+03  0.92565145573E+02 0.  0.
         23    2    1    2    0    0 -0.36498626786E+03  0.18960656095E+01 -0.52013039137E+03  0.64282176600E+03  0.97291459144E+02 0.  0.
        -13    1    3    3    0    0  0.20364449858E+02 -0.32589735655E+02 -0.70922635690E+02  0.80664874272E+02  0.00000000000E+00 0.  1.
         13    1    3    3    0    0  0.30085747272E+03 -0.89243090517E+02 -0.33081258380E+03  0.45597863294E+03  0.00000000000E+00 0. -1.
        -13    1    4    4    0    0 -0.19411497768E+03 -0.42641773710E+00 -0.35810990139E+03  0.40733709365E+03  0.00000000000E+00 0.  1.
         13    1    4    4    0    0 -0.17087129018E+03  0.23224833466E+01 -0.16202048999E+03  0.23548467235E+03  0.00000000000E+00 0. -1.
         21    1    1    2  503  501 -0.49412328182E+01  0.37785809848E+02 -0.10156003037E+03  0.10847406591E+03  0.00000000000E+00 0. -1.
          4    1    1    2  501    0  0.48705578106E+02  0.82150950713E+02 -0.23614297862E+02  0.98380115396E+02  0.00000000000E+00 0. -1.
<scales pt_clust_5="13000.00000" pt_clust_6="13000.00000" pt_clust_7="13000.00000" pt_clust_8="13000.00000" pt_clust_9="38.10752" pt_clust_10="97.15777"></scales>
<clustering>
<clus scale="   38.108">  2  9  1 -1</clus>
<clus scale="   92.565">  5  6 -1 -1</clus>
<clus scale="   97.158">  2 10  1 -1</clus>
<clus scale="   97.291">  7  8 -1 -1</clus>
<clus scale="  359.654">  1  5  2 -1</clus>
<clus scale="   38.108">  2  5  1 -1</clus>
</clustering>
</event>
<event>
10    2  0.1671105E-006  0.1788340E+03  0.7546771E-02  0.1198195E+00
          1   -1    0    0  503    0 -0.00000000000E+00  0.00000000000E+00  0.44370891370E+03  0.44370891370E+03  0.00000000000E+00 0. -1.
         21   -1    0    0  501  502  0.00000000000E+00 -0.00000000000E+00 -0.36790132312E+03  0.36790132312E+03  0.00000000000E+00 0. -1.
         23    2    1    2    0    0 -0.45797339443E+01 -0.65725696701E+01  0.32284493598E+02  0.98354780445E+02  0.92559179309E+02 0.  0.
         23    2    1    2    0    0 -0.10661584204E+03 -0.99985604617E+02  0.31998740934E+03  0.36329207653E+03  0.90692512535E+02 0.  0.
        -13    1    3    3    0    0  0.39440179706E+02  0.14849591315E+02  0.53571048483E+01  0.42482192855E+02  0.00000000000E+00 0.  1.
         13    1    3    3    0    0 -0.44019913650E+02 -0.21422160985E+02  0.26927388750E+02  0.55872587589E+02  0.00000000000E+00 0. -1.
        -13    1    4    4    0    0 -0.10313508884E+03 -0.37977474905E+02  0.20567417907E+03  0.23319734794E+03  0.00000000000E+00 0. -1.
         13    1    4    4    0    0 -0.34807532072E+01 -0.62008129711E+02  0.11431323027E+03  0.13009472859E+03  0.00000000000E+00 0.  1.
         21    1    1    2  503  502  0.14781558243E+03  0.72947095081E+02 -0.20984851263E+03  0.26684662888E+03  0.00000000000E+00 0. -1.
          1    1    1    2  501    0 -0.36620006444E+02  0.33611079206E+02 -0.66615799724E+02  0.83116750960E+02  0.00000000000E+00 0. -1.
<scales pt_clust_5="13000.00000" pt_clust_6="13000.00000" pt_clust_7="13000.00000" pt_clust_8="13000.00000" pt_clust_9="154.13135" pt_clust_10="49.70643"></scales>
<clustering>
<clus scale="   49.706">  2 10  1 -1</clus>
<clus scale="   90.693">  7  8 -1 -1</clus>
<clus scale="   92.559">  5  6 -1 -1</clus>
<clus scale="   93.010">  1  5  2 -1</clus>
<clus scale="  154.131">  2  9  1 -1</clus>
<clus scale="   49.706">  2  5  1 -1</clus>
</clustering>
</event>
<event>
10    2  0.1671105E-006  0.1137757E+03  0.7546771E-02  0.1263182E+00
         21   -1    0    0  501  502  0.00000000000E+00  0.00000000000E+00  0.11575726345E+03  0.11575726345E+03  0.00000000000E+00 0.  1.
          1   -1    0    0  503    0 -0.00000000000E+00 -0.00000000000E+00 -0.46286650356E+03  0.46286650356E+03  0.00000000000E+00 0.  1.
         23    2    1    2    0    0  0.53603152014E+01  0.24019030948E+02 -0.30853252420E+03  0.32069011209E+03  0.83929629306E+02 0.  0.
         23    2    1    2    0    0 -0.67274359198E+02 -0.28452013999E+02  0.37441558391E+02  0.13343887312E+03  0.10520791823E+03 0.  0.
        -11    1    3    3    0    0  0.39683343746E+02  0.20140250871E+01 -0.21525111461E+03  0.21888779411E+03  0.00000000000E+00 0.  1.
         11    1    3    3    0    0 -0.34323028545E+02  0.22005005861E+02 -0.93281409587E+02  0.10180231798E+03  0.00000000000E+00 0. -1.
        -13    1    4    4    0    0 -0.49661217837E+02  0.17389948861E+01  0.69884088497E+02  0.85749906620E+02  0.00000000000E+00 0.  1.
         13    1    4    4    0    0 -0.17613141361E+02 -0.30191008885E+02 -0.32442530106E+02  0.47688966500E+02  0.00000000000E+00 0. -1.
         21    1    1    2  503  502 -0.35118656766E+01  0.27373106715E+02 -0.32503734284E+02  0.42639335292E+02  0.00000000000E+00 0.  1.
          1    1    1    2  501    0  0.65425909674E+02 -0.22940123664E+02 -0.43514540015E+02  0.81855446508E+02  0.00000000000E+00 0.  1.
<scales pt_clust_5="13000.00000" pt_clust_6="13000.00000" pt_clust_7="13000.00000" pt_clust_8="13000.00000" pt_clust_9="27.59747" pt_clust_10="67.60552"></scales>
<clustering>
<clus scale="   27.597">  2  9  1 -1</clus>
<clus scale="   67.606">  1 10  2 -1</clus>
<clus scale="   83.930">  5  6 -1 -1</clus>
<clus scale="   94.448">  2  5  1 -1</clus>
<clus scale="  105.208">  7  8 -1 -1</clus>
<clus scale="   67.606">  1  5  2 -1</clus>
</clustering>
</event>
<event>
10    2  0.1671105E-006  0.3085792E+03  0.7546771E-02  0.1081077E+00
          1   -1    0    0  502    0 -0.00000000000E+00  0.00000000000E+00  0.12899719925E+04  0.12899719925E+04  0.00000000000E+00 0. -1.
         21   -1    0    0  503  502  0.00000000000E+00 -0.00000000000E+00 -0.38260380176E+03  0.38260380176E+03  0.00000000000E+00 0. -1.
         23    2    1    2    0    0  0.28360850506E+03 -0.98052856923E+02  0.10702572946E+04  0.11153361336E+04  0.92064474900E+02 0.  0.
         23    2    1    2    0    0 -0.17058363485E+03  0.25301126052E+03 -0.38506517495E+02  0.32066422056E+03  0.90715577674E+02 0.  0.
        -13    1    3    3    0    0  0.26356757728E+03 -0.60337508811E+02  0.89508354396E+03  0.93503103340E+03  0.00000000000E+00 0. -1.
         13    1    3    3    0    0  0.20040927783E+02 -0.37715348112E+02  0.17517375061E+03  0.18030510024E+03  0.00000000000E+00 0.  1.
        -13    1    4    4    0    0 -0.57506264216E+02  0.22933213196E+02 -0.10149401290E+02  0.62736855500E+02  0.00000000000E+00 0.  1.
         13    1    4    4    0    0 -0.11307737063E+03  0.23007804732E+03 -0.28357116204E+02  0.25792736506E+03  0.00000000000E+00 0. -1.
         21    1    1    2  503  501 -0.31623572869E+02 -0.53485032632E+02 -0.75083537592E+02  0.97458897459E+02  0.00000000000E+00 0. -1.
          1    1    1    2  501    0 -0.81401297347E+02 -0.10147337096E+03 -0.49299048717E+02  0.13911654261E+03  0.00000000000E+00 0. -1.
<scales pt_clust_5="13000.00000" pt_clust_6="13000.00000" pt_clust_7="13000.00000" pt_clust_8="13000.00000" pt_clust_9="42.09638" pt_clust_10="201.23844"></scales>
<clustering>
<clus scale="   42.096">  9 10 -1 -1</clus>
<clus scale="   90.716">  7  8 -1 -1</clus>
<clus scale="   92.064">  5  6 -1 -1</clus>
<clus scale="  201.238">  2  9  1 -1</clus>
<clus scale="  308.179">  2  7  1 -1</clus>
<clus scale="  201.238">  2  5  1 -1</clus>
</clustering>
</event>
<event>
10    2  0.1671105E-006  0.1200075E+03  0.7546771E-02  0.1244212E+00
         21   -1    0    0  503  502  0.00000000000E+00  0.00000000000E+00  0.13084164332E+03  0.13084164332E+03  0.00000000000E+00 0.  1.
         -1   -1    0    0    0  501 -0.00000000000E+00 -0.00000000000E+00 -0.25606781500E+03  0.25606781500E+03  0.00000000000E+00 0.  1.
         23    2    1    2    0    0  0.62671736715E+02 -0.70698111772E+02 -0.95499505166E+02  0.16455348500E+03  0.95035384712E+02 0.  0.
         23    2    1    2    0    0  0.28556987229E+02  0.65324992553E+02 -0.14511879469E+02  0.11697899125E+03  0.91600401616E+02 0.  0.
        -13    1    4    4    0    0 -0.28875150119E+02  0.35465798838E+01  0.70126389525E+01  0.29925401056E+02  0.00000000000E+00 0. -1.
         13    1    4    4    0    0  0.57432137348E+02  0.61778412669E+02 -0.21524518421E+02  0.87053590193E+02  0.00000000000E+00 0.  1.
        -13    1    3    3    0    0  0.30712599802E+02 -0.70736733447E+02 -0.15845977001E+02  0.78727658624E+02  0.00000000000E+00 0.  1.
         13    1    3    3    0    0  0.31959136913E+02  0.38621674051E-01 -0.79653528166E+02  0.85825826376E+02  0.00000000000E+00 0. -1.
         21    1    1    2  503  501 -0.17102954389E+02 -0.19619932522E+02 -0.29282301371E+01  0.26192123486E+02  0.00000000000E+00 0.  1.
         -1    1    1    2    0  502 -0.74125769556E+02  0.24993051741E+02 -0.12286556907E+02  0.79184858579E+02  0.00000000000E+00 0.  1.
<scales pt_clust_5="13000.00000" pt_clust_6="13000.00000" pt_clust_7="13000.00000" pt_clust_8="13000.00000" pt_clust_9="26.02792" pt_clust_10="81.29506"></scales>
<clustering>
<clus scale="   26.028">  1  9  2 -1</clus>
<clus scale="   81.295">  1 10  2 -1</clus>
<clus scale="   91.600">  5  6 -1 -1</clus>
<clus scale="   95.035">  7  8 -1 -1</clus>
<clus scale="  117.306">  1  5  2 -1</clus>
<clus scale="   26.028">  1  5  2 -1</clus>
</clustering>
</event>
<event>
10    2  0.1671105E-006  0.2881288E+03  0.7546771E-02  0.1112590E+00
         21   -1    0    0  503  502  0.00000000000E+00  0.00000000000E+00  0.54485353581E+03  0.54485353581E+03  0.00000000000E+00 0. -1.
         -3   -1    0    0    0  501 -0.00000000000E+00 -0.00000000000E+00 -0.46264257036E+03  0.46264257036E+03  0.00000000000E+00 0.  1.
         23    2    1    2    0    0  0.84989701556E+02  0.52167209792E+02 -0.21128282356E+03  0.25252012428E+03  0.95819175981E+02 0.  0.
         23    2    1    2    0    0 -0.31850290258E+03 -0.10051634654E+03  0.32745457453E+03  0.47644173810E+03  0.90678534108E+02 0.  0.
        -11    1    4    4    0    0 -0.31221748626E+03 -0.81061688249E+02  0.32082244714E+03  0.45494812739E+03  0.00000000000E+00 0. -1.
         11    1    4    4    0    0 -0.62854163212E+01 -0.19454658287E+02  0.66321273850E+01  0.21493610703E+02  0.00000000000E+00 0.  1.
        -13    1    3    3    0    0  0.47770070386E+02  0.59144502603E+02 -0.60807180121E+02  0.97352786129E+02  0.00000000000E+00 0.  1.
         13    1    3    3    0    0  0.37219631169E+02 -0.69772928116E+01 -0.15047564344E+03  0.15516733815E+03  0.00000000000E+00 0. -1.
         21    1    1    2  503  501  0.33108373415E+02  0.62516259143E+02 -0.31941886528E+02  0.77619141727E+02  0.00000000000E+00 0. -1.
         -3    1    1    2    0  502  0.20040482761E+03 -0.14167122399E+02 -0.20188989876E+01  0.20091510207E+03  0.00000000000E+00 0.  1.
<scales pt_clust_5="13000.00000" pt_clust_6="13000.00000" pt_clust_7="13000.00000" pt_clust_8="13000.00000" pt_clust_9="70.74212" pt_clust_10="273.48798"></scales>
<clustering>
<clus scale="   70.742">  2  9  1 -1</clus>
<clus scale="   90.679">  5  6 -1 -1</clus>
<clus scale="   95.819">  7  8 -1 -1</clus>
<clus scale="  166.290">  2  7  1 -1</clus>
<clus scale="  273.488">  1 10  2 -1</clus>
<clus scale="  273.488">  1  5  2 -1</clus>
</clustering>
</event>
<event>
10    2  0.1671105E-006  0.1293983E+03  0.7546771E-02  0.1228591E+00
         21   -1    0    0  501  502  0.00000000000E+00  0.00000000000E+00  0.88366616252E+02  0.88366616252E+02  0.00000000000E+00 0. -1.
          1   -1    0    0  503    0 -0.00000000000E+00 -0.00000000000E+00 -0.73783727830E+03  0.73783727830E+03  0.00000000000E+00 0. -1.
         23    2    1    2    0    0  0.75878385236E+02 -0.46303224505E+02 -0.42423068384E+03  0.44291635324E+03  0.91113692239E+02 0.  0.
         23    2    1    2    0    0 -0.13391663325E+03 -0.44986682973E+02 -0.10259305375E+03  0.19735623452E+03  0.92014576667E+02 0.  0.
        -11    1    3    3    0    0  0.67520630778E+02 -0.70948846472E+02 -0.28733699773E+03  0.30357095490E+03  0.00000000000E+00 0. -1.
         11    1    3    3    0    0  0.83577544582E+01  0.24645621968E+02 -0.13689368611E+03  0.13934539834E+03  0.00000000000E+00 0.  1.
        -11    1    4    4    0    0 -0.28131867840E+02  0.23011623260E+02 -0.21430379116E+01  0.36407820653E+02  0.00000000000E+00 0.  1.
         11    1    4    4    0    0 -0.10578476541E+03 -0.67998306233E+02 -0.10045001584E+03  0.16094841386E+03  0.00000000000E+00 0. -1.
         21    1    1    2  503  502  0.18318085827E+02  0.78454713064E+02 -0.33035999872E+02  0.87075091489E+02  0.00000000000E+00 0. -1.
          1    1    1    2  501    0  0.39720162183E+02  0.12835194414E+02 -0.89610924580E+02  0.98856215301E+02  0.00000000000E+00 0. -1.
<scales pt_clust_5="13000.00000" pt_clust_6="13000.00000" pt_clust_7="13000.00000" pt_clust_8="13000.00000" pt_clust_9="88.26883" pt_clust_10="41.74249"></scales>
<clustering>
<clus scale="   41.742">  1 10  2 -1</clus>
<clus scale="   88.269">  1  9  2 -1</clus>
<clus scale="   91.114">  5  6 -1 -1</clus>
<clus scale="   92.015">  7  8 -1 -1</clus>
<clus scale="  128.759">  2  5  1 -1</clus>
<clus scale="   41.742">  1  5  2 -1</clus>
</clustering>
</event>
<event>
10    2  0.1671105E-006  0.1785186E+03  0.7546771E-02  0.1169681E+00
          2   -1    0    0  502    0 -0.00000000000E+00  0.00000000000E+00  0.45313979553E+03  0.45313979553E+03  0.00000000000E+00 0. -1.
         21   -1    0    0  503  502  0.00000000000E+00 -0.00000000000E+00 -0.11489368871E+03  0.11489368871E+03  0.00000000000E+00 0.  1.
         23    2    1    2    0    0 -0.24006020469E+01  0.17245955418E+03  0.29596733091E+03  0.35392770495E+03  0.88994936072E+02 0.  0.
         23    2    1    2    0    0  0.11162902783E+01 -0.11358522529E+03  0.36261898091E+02  0.15089428133E+03  0.92473290070E+02 0.  0.
        -11    1    4    4    0    0 -0.23787645819E+02 -0.15432808098E+02 -0.20330721894E+02  0.34890713838E+02  0.00000000000E+00 0. -1.
         11    1    4    4    0    0  0.24903936097E+02 -0.98152417196E+02  0.56592619985E+02  0.11600356749E+03  0.00000000000E+00 0.  1.
        -13    1    3    3    0    0 -0.40050144095E+02  0.13422454552E+03  0.22327084924E+03  0.26357183989E+03  0.00000000000E+00 0. -1.
         13    1    3    3    0    0  0.37649542048E+02  0.38235008659E+02  0.72696481679E+02  0.90355865067E+02  0.00000000000E+00 0.  1.
         21    1    1    2  503  501  0.99288348101E+01 -0.26184169143E+02  0.86132860554E+01  0.29298142792E+02  0.00000000000E+00 0.  1.
          2    1    1    2  501    0 -0.86445230415E+01 -0.32690159744E+02 -0.25964082487E+01  0.33913355165E+02  0.00000000000E+00 0. -1.
<scales pt_clust_5="13000.00000" pt_clust_6="13000.00000" pt_clust_7="13000.00000" pt_clust_8="13000.00000" pt_clust_9="20.17849" pt_clust_10="62.92448"></scales>
<clustering>
<clus scale="   20.178">  9 10 -1 -1</clus>
<clus scale="   62.924">  2  9  1 -1</clus>
<clus scale="   88.995">  7  8 -1 -1</clus>
<clus scale="   92.473">  5  6 -1 -1</clus>
<clus scale="  176.742">  1  7  2 -1</clus>
<clus scale="   62.924">  2  5  1 -1</clus>
</clustering>
</event>
<event>
10    2  0.1671105E-006  0.1657151E+03  0.7546771E-02  0.1182747E+00
         21   -1    0    0  501  502  0.00000000000E+00  0.00000000000E+00  0.49925308335E+03  0.49925308335E+03  0.00000000000E+00 0.  1.
          2   -1    0    0  503    0 -0.00000000000E+00 -0.00000000000E+00 -0.16526353075E+03  0.16526353075E+03  0.00000000000E+00 0. -1.
         23    2    1    2    0    0  0.88119931578E+02  0.12731637414E+03 -0.44845581803E+02  0.18686631809E+03  0.94516205839E+02 0.  0.
         23    2    1    2    0    0 -0.77298935346E+02 -0.75392502064E+02  0.67011746816E+02  0.15700041557E+03  0.92192198714E+02 0.  0.
        -11    1    4    4    0    0 -0.49405411841E+02 -0.95526151444E+02  0.49289194920E+02  0.11830285316E+03  0.00000000000E+00 0. -1.
         11    1    4    4    0    0 -0.27893523506E+02  0.20133649380E+02  0.17722551896E+02  0.38697562412E+02  0.00000000000E+00 0.  1.
        -13    1    3    3    0    0  0.47269202433E+02  0.88952417106E+02  0.18363128515E+02  0.10239196500E+03  0.00000000000E+00 0.  1.
         13    1    3    3    0    0  0.40850729145E+02  0.38363957031E+02 -0.63208710318E+02  0.84474353095E+02  0.00000000000E+00 0. -1.
         21    1    1    2  503  502 -0.30413725764E+02 -0.21094954677E+02  0.12858986254E+03  0.13381085373E+03  0.00000000000E+00 0. -1.
          2    1    1    2  501    0  0.19592729532E+02 -0.30828917396E+02  0.18323352504E+03  0.18683902670E+03  0.00000000000E+00 0. -1.
<scales pt_clust_5="13000.00000" pt_clust_6="13000.00000" pt_clust_7="13000.00000" pt_clust_8="13000.00000" pt_clust_9="40.59666" pt_clust_10="36.52803"></scales>
<clustering>
<clus scale="   36.528">  1 10  2 -1</clus>
<clus scale="   40.597">  1  9  2 -1</clus>
<clus scale="   92.192">  5  6 -1 -1</clus>
<clus scale="   94.516">  7  8 -1 -1</clus>
<clus scale="  164.401">  1  5  2 -1</clus>
<clus scale="   36.528">  1  5  2 -1</clus>
</clustering>
</event>
<event>
10    2  0.1671105E-006  0.2142845E+03  0.7546771E-02  0.1138239E+00
         21   -1    0    0  503  502  0.00000000000E+00  0.00000000000E+00  0.78255842741E+02  0.78255842741E+02  0.00000000000E+00 0. -1.
          1   -1    0    0  502    0 -0.00000000000E+00 -0.00000000000E+00 -0.16771332137E+04  0.16771332137E+04  0.00000000000E+00 0. -1.
         23    2    1    2    0    0  0.93222038166E+02  0.14173031020E+03 -0.73663039636E+03  0.76145186739E+03  0.91688474046E+02 0.  0.
         23    2    1    2    0    0 -0.91920898062E+01 -0.26514662090E+03 -0.74871511432E+03  0.79957552600E+03  0.91430160664E+02 0.  0.
        -11    1    4    4    0    0  0.63308687626E-01 -0.12146875928E+03 -0.47522158158E+03  0.49049996441E+03  0.00000000000E+00 0. -1.
         11    1    4    4    0    0 -0.92553984939E+01 -0.14367786162E+03 -0.27349353274E+03  0.30907556159E+03  0.00000000000E+00 0.  1.
        -11    1    3    3    0    0 -0.79373820362E+01  0.30640206179E+02 -0.54985455965E+02  0.63444658057E+02  0.00000000000E+00 0.  1.
         11    1    3    3    0    0  0.10115942020E+03  0.11109010402E+03 -0.68164494040E+03  0.69800720933E+03  0.00000000000E+00 0. -1.
         21    1    1    2  503  501 -0.82857678372E+02  0.83638689568E+02 -0.80217062461E+02  0.14246263499E+03  0.00000000000E+00 0. -1.
          1    1    1    2  501    0 -0.11722699874E+01  0.39777621140E+02 -0.33314797818E+02  0.51899028065E+02  0.00000000000E+00 0. -1.
<scales pt_clust_5="13000.00000" pt_clust_6="13000.00000" pt_clust_7="13000.00000" pt_clust_8="13000.00000" pt_clust_9="29.61291" pt_clust_10="157.75605"></scales>
<clustering>
<clus scale="   29.613">  9 10 -1 -1</clus>
<clus scale="   91.430">  5  6 -1 -1</clus>
<clus scale="   91.688">  7  8 -1 -1</clus>
<clus scale="  157.756">  1  9  2 -1</clus>
<clus scale="  214.174">  1  5  2 -1</clus>
<clus scale="  157.756">  1  5  2 -1</clus>
</clustering>
</event>
<event>
10    2  0.1671105E-006  0.1176372E+03  0.7546771E-02  0.1250419E+00
         21   -1    0    0  501  502  0.00000000000E+00  0.00000000000E+00  0.16192333050E+03  0.16192333050E+03  0.00000000000E+00 0. -1.
          2   -1    0    0  503    0 -0.00000000000E+00 -0.00000000000E+00 -0.42147771808E+03  0.42147771808E+03  0.00000000000E+00 0. -1.
         23    2    1    2    0    0  0.31356285444E+02  0.26119446031E+02 -0.20754273592E+03  0.23344179660E+03  0.98770658947E+02 0.  0.
         23    2    1    2    0    0 -0.10263011283E+03 -0.10100016490E+03 -0.11564657122E+03  0.20522166892E+03  0.89486482714E+02 0.  0.
        -13    1    4    4    0    0 -0.11000491198E+03 -0.73940663135E+02 -0.65690059722E+02  0.14793068063E+03  0.00000000000E+00 0. -1.
         13    1    4    4    0    0  0.73747991470E+01 -0.27059501767E+02 -0.49956511498E+02  0.57290988291E+02  0.00000000000E+00 0.  1.
        -13    1    3    3    0    0 -0.26116080819E+02 -0.15443665634E+02 -0.31926931659E+02  0.44044130718E+02  0.00000000000E+00 0.  1.
         13    1    3    3    0    0  0.57472366263E+02  0.41563111666E+02 -0.17561580426E+03  0.18939766588E+03  0.00000000000E+00 0. -1.
         21    1    1    2  503  502 -0.67999521564E+01  0.25945151681E+02  0.42414248214E+02  0.50183251156E+02  0.00000000000E+00 0. -1.
          2    1    1    2  501    0  0.78073779546E+02  0.48935567190E+02  0.21220671341E+02  0.94554331900E+02  0.00000000000E+00 0. -1.
<scales pt_clust_5="13000.00000" pt_clust_6="13000.00000" pt_clust_7="13000.00000" pt_clust_8="13000.00000" pt_clust_9="26.82145" pt_clust_10="97.00631"></scales>
<clustering>
<clus scale="   26.821">  1  9  2 -1</clus>
<clus scale="   89.486">  5  6 -1 -1</clus>
<clus scale="   97.006">  1 10  2 -1</clus>
<clus scale="   98.771">  7  8 -1 -1</clus>
<clus scale="  109.958">  1  5  2 -1</clus>
<clus scale="   26.821">  1  5  2 -1</clus>
</clustering>
</event>
<event>
10    2  0.1671105E-006  0.1117641E+03  0.7546771E-02  0.1258391E+00
          1   -1    0    0  503    0 -0.00000000000E+00  0.00000000000E+00  0.28260644634E+03  0.28260644634E+03  0.00000000000E+00 0. -1.
         21   -1    0    0  501  502  0.00000000000E+00 -0.00000000000E+00 -0.16166703352E+03  0.16166703352E+03  0.00000000000E+00 0.  1.
         23    2    1    2    0    0  0.46995623496E+02  0.18832289845E+01  0.89217350702E+02  0.13898453167E+03  0.95628600311E+02 0.  0.
         23    2    1    2    0    0 -0.44362057157E+02  0.76067016956E+02  0.10571677403E+03  0.16603122696E+03  0.92930882008E+02 0.  0.
        -11    1    3    3    0    0 -0.28269384092E+02 -0.73338857884E+01  0.35947861421E+02  0.46316225002E+02  0.00000000000E+00 0. -1.
         11    1    3    3    0    0  0.75265007588E+02  0.92171147729E+01  0.53269489281E+02  0.92668306665E+02  0.00000000000E+00 0.  1.
        -13    1    4    4    0    0 -0.58732036752E+02  0.95077934250E+01  0.56145918239E+02  0.81805955845E+02  0.00000000000E+00 0. -1.
         13    1    4    4    0    0  0.14369979595E+02  0.66559223531E+02  0.49570855793E+02  0.84225271117E+02  0.00000000000E+00 0.  1.
         21    1    1    2  503  502  0.77654468446E+01 -0.21652367762E+02  0.19146502163E+02  0.29928510479E+02  0.00000000000E+00 0. -1.
          1    1    1    2  501    0 -0.10399013184E+02 -0.56297878179E+02 -0.93141214083E+02  0.10932921075E+03  0.00000000000E+00 0. -1.
<scales pt_clust_5="13000.00000" pt_clust_6="13000.00000" pt_clust_7="13000.00000" pt_clust_8="13000.00000" pt_clust_9="23.00276" pt_clust_10="57.87494"></scales>
<clustering>
<clus scale="   23.003">  1  9  2 -1</clus>
<clus scale="   57.875">  2 10  1 -1</clus>
<clus scale="   92.931">  7  8 -1 -1</clus>
<clus scale="   95.629">  5  6 -1 -1</clus>
<clus scale="  109.465">  2  7  1 -1</clus>
<clus scale="   57.875">  2  5  1 -1</clus>
</clustering>
</event>
<event>
10    2  0.1671105E-006  0.1677029E+03  0.7546771E-02  0.1180281E+00
         21   -1    0    0  503  502  0.00000000000E+00  0.00000000000E+00  0.11041052903E+03  0.11041052903E+03  0.00000000000E+00 0. -1.
          2   -1    0    0  502    0 -0.00000000000E+00 -0.00000000000E+00 -0.55885462066E+03  0.55885462066E+03  0.00000000000E+00 0. -1.
         23    2    1    2    0    0 -0.10357622753E+03  0.18869380309E+02 -0.14335809806E+03  0.19946012385E+03  0.90270196109E+02 0.  0.
         23    2    1    2    0    0  0.16704052405E+03 -0.64458131147E+02 -0.32395797014E+03  0.38101820957E+03  0.90380983941E+02 0.  0.
        -13    1    4    4    0    0  0.12130127385E+03 -0.52722687720E+02 -0.30044024855E+03  0.32826517298E+03  0.00000000000E+00 0. -1.
         13    1    4    4    0    0  0.45739250196E+02 -0.11735443427E+02 -0.23517721591E+02  0.52753036593E+02  0.00000000000E+00 0.  1.
        -13    1    3    3    0    0 -0.27125030775E+02 -0.35411987786E+02 -0.40060898123E+02  0.59955414534E+02  0.00000000000E+00 0. -1.
         13    1    3    3    0    0 -0.76451196757E+02  0.54281368095E+02 -0.10329719994E+03  0.13950470932E+03  0.00000000000E+00 0.  1.
         21    1    1    2  503  501 -0.16601672113E+02  0.19955101504E+02  0.23705187590E+02  0.35153342823E+02  0.00000000000E+00 0. -1.
          2    1    1    2  501    0 -0.46862624406E+02  0.25633649334E+02 -0.48332110128E+01  0.53633473439E+02  0.00000000000E+00 0. -1.
<scales pt_clust_5="13000.00000" pt_clust_6="13000.00000" pt_clust_7="13000.00000" pt_clust_8="13000.00000" pt_clust_9="25.95807" pt_clust_10="60.75724"></scales>
<clustering>
<clus scale="   25.958">  1  9  2 -1</clus>
<clus scale="   60.757">  1 10  2 -1</clus>
<clus scale="   90.270">  7  8 -1 -1</clus>
<clus scale="   90.381">  5  6 -1 -1</clus>
<clus scale="  167.643">  2  7  1 -1</clus>
<clus scale="   25.958">  1  5  2 -1</clus>
</clustering>
</event>
<event>
10    2  0.1671105E-006  0.1794877E+03  0.7546771E-02  0.1185950E+00
         21   -1    0    0  503  502  0.00000000000E+00  0.00000000000E+00  0.11458217801E+03  0.11458217801E+03  0.00000000000E+00 0. -1.
          2   -1    0    0  502    0 -0.00000000000E+00 -0.00000000000E+00 -0.55088383303E+03  0.55088383303E+03  0.00000000000E+00 0. -1.
         23    2    1    2    0    0  0.65511977176E+02  0.44954590600E+02 -0.18423683901E+03  0.22012455223E+03  0.90547618829E+02 0.  0.
         23    2    1    2    0    0 -0.32728013248E+02  0.12452907062E+03 -0.21421801120E+03  0.26527621715E+03  0.88901646655E+02 0.  0.
        -11    1    3    3    0    0 -0.30795924038E+01 -0.23396816067E+02 -0.38146602035E+02  0.44855971043E+02  0.00000000000E+00 0.  1.
         11    1    3    3    0    0  0.68591569580E+02  0.68351406667E+02 -0.14609023698E+03  0.17526858119E+03  0.00000000000E+00 0. -1.
        -13    1    4    4    0    0 -0.32166298641E+02  0.19932942673E+02 -0.15862650284E+02  0.41031897907E+02  0.00000000000E+00 0.  1.
         13    1    4    4    0    0 -0.56171460723E+00  0.10459612795E+03 -0.19835536092E+03  0.22424431924E+03  0.00000000000E+00 0. -1.
         21    1    1    2  503  501  0.20603353803E+01 -0.60544147955E+02 -0.22689822555E+02  0.64689001238E+02  0.00000000000E+00 0. -1.
          2    1    1    2  501    0 -0.34844299309E+02 -0.10893951327E+03 -0.15156982248E+02  0.11537624043E+03  0.00000000000E+00 0. -1.
<scales pt_clust_5="13000.00000" pt_clust_6="13000.00000" pt_clust_7="13000.00000" pt_clust_8="13000.00000" pt_clust_9="25.12239" pt_clust_10="159.69954"></scales>
<clustering>
<clus scale="   25.122">  9 10 -1 -1</clus>
<clus scale="   88.902">  7  8 -1 -1</clus>
<clus scale="   90.548">  5  6 -1 -1</clus>
<clus scale="  120.464">  2  5  1 -1</clus>
<clus scale="  159.700">  1  9  2 -1</clus>
<clus scale="  159.700">  1  5  2 -1</clus>
</clustering>
</event>
<event>
10    2  0.1671105E-006  0.9810745E+02  0.7546771E-02  0.1287691E+00
          1   -1    0    0  503    0 -0.00000000000E+00  0.00000000000E+00  0.45968229877E+03  0.45968229877E+03  0.00000000000E+00 0. -1.
         21   -1    0    0  501  502  0.00000000000E+00 -0.00000000000E+00 -0.22710075320E+03  0.22710075320E+03  0.00000000000E+00 0. -1.
         23    2    1    2    0    0 -0.14095137790E+02 -0.29701615045E+02  0.32262375940E+03  0.33834205725E+03  0.96480043179E+02 0.  0.
         23    2    1    2    0    0 -0.26210279153E+02 -0.10101678733E+02  0.10487381079E+03  0.14124217723E+03  0.90342757276E+02 0.  0.
        -13    1    4    4    0    0  0.17004486566E+02  0.21775989298E+02  0.53309583815E+01  0.28138326008E+02  0.00000000000E+00 0.  1.
         13    1    4    4    0    0 -0.43214765719E+02 -0.31877668031E+02  0.99542852412E+02  0.11310385122E+03  0.00000000000E+00 0. -1.
        -13    1    3    3    0    0  0.38631473560E+02 -0.29156945679E+01  0.84073852425E+02  0.92570538974E+02  0.00000000000E+00 0.  1.
         13    1    3    3    0    0 -0.52726611350E+02 -0.26785920478E+02  0.23854990697E+03  0.24577151828E+03  0.00000000000E+00 0. -1.
         21    1    1    2  503  502  0.33540902012E+02  0.84357654420E+01 -0.68010870695E+02  0.76299625026E+02  0.00000000000E+00 0. -1.
          1    1    1    2  501    0  0.67645149304E+01  0.31367528337E+02 -0.12690515392E+03  0.13089919246E+03  0.00000000000E+00 0. -1.
<scales pt_clust_5="13000.00000" pt_clust_6="13000.00000" pt_clust_7="13000.00000" pt_clust_8="13000.00000" pt_clust_9="49.74322" pt_clust_10="32.08864"></scales>
<clustering>
<clus scale="   32.089">  2 10  1 -1</clus>
<clus scale="   49.743">  2  9  1 -1</clus>
<clus scale="   90.343">  5  6 -1 -1</clus>
<clus scale="   92.079">  2  5  1 -1</clus>
<clus scale="   96.480">  7  8 -1 -1</clus>
<clus scale="   32.089">  2  5  1 -1</clus>
</clustering>
</event>
<event>
10    2  0.1671105E-006  0.1081403E+03  0.7546771E-02  0.1270586E+00
          1   -1    0    0  503    0 -0.00000000000E+00  0.00000000000E+00  0.35140767437E+03  0.35140767437E+03  0.00000000000E+00 0. -1.
         21   -1    0    0  501  502  0.00000000000E+00 -0.00000000000E+00 -0.16214592208E+03  0.16214592208E+03  0.00000000000E+00 0. -1.
         23    2    1    2    0    0 -0.10224008675E+02  0.24455180987E+01  0.14374626052E+03  0.16947780151E+03  0.89158436951E+02 0.  0.
         23    2    1    2    0    0  0.77504178266E+02  0.83178911530E+01  0.14676726065E+03  0.19541543746E+03  0.10281283693E+03 0.  0.
        -11    1    4    4    0    0 -0.23550384000E+02  0.83112451040E+01  0.48013890482E+02  0.54120523472E+02  0.00000000000E+00 0.  1.
         11    1    4    4    0    0  0.10105456227E+03  0.66460489361E-02  0.98753370171E+02  0.14129491399E+03  0.00000000000E+00 0. -1.
        -13    1    3    3    0    0 -0.29667404808E+02  0.29239311877E+02  0.30868325663E+02  0.51845402846E+02  0.00000000000E+00 0.  1.
         13    1    3    3    0    0  0.19443396133E+02 -0.26793793778E+02  0.11287793485E+03  0.11763239866E+03  0.00000000000E+00 0. -1.
         21    1    1    2  503  502 -0.45723882389E+02 -0.90078185689E+00 -0.11048785785E+01  0.45746099127E+02  0.00000000000E+00 0.  1.
          1    1    1    2  501    0 -0.21556287201E+02 -0.98626273948E+01 -0.10014689029E+03  0.10291425835E+03  0.00000000000E+00 0. -1.
<scales pt_clust_5="13000.00000" pt_clust_6="13000.00000" pt_clust_7="13000.00000" pt_clust_8="13000.00000" pt_clust_9="54.25957" pt_clust_10="23.70538"></scales>
<clustering>
<clus scale="   23.705">  2 10  1 -1</clus>
<clus scale="   54.260">  2  9  1 -1</clus>
<clus scale="   89.158">  7  8 -1 -1</clus>
<clus scale="   95.253">  1  7  2 -1</clus>
<clus scale="  102.813">  5  6 -1 -1</clus>
<clus scale="   23.705">  2  5  1 -1</clus>
</clustering>
</event>
<event>
10    2  0.1671105E-006  0.1047697E+03  0.7546771E-02  0.1271214E+00
          3   -1    0    0  503    0 -0.00000000000E+00  0.00000000000E+00  0.32888548580E+03  0.32888548580E+03  0.00000000000E+00 0. -1.
         21   -1    0    0  501  502  0.00000000000E+00 -0.00000000000E+00 -0.17974637587E+03  0.17974637587E+03  0.00000000000E+00 0. -1.
         23    2    1    2    0    0 -0.52971648893E+02 -0.15348433501E+01  0.23208581592E+03  0.25561103154E+03  0.93085026545E+02 0.  0.
         23    2    1    2    0    0  0.33589822387E+02  0.16225022426E+02  0.44278930135E+02  0.10839211490E+03  0.91633505866E+02 0.  0.
        -11    1    4    4    0    0 -0.10527929270E+02 -0.29911462672E+02  0.28500196493E+02  0.42635596560E+02  0.00000000000E+00 0. -1.
         11    1    4    4    0    0  0.44117751657E+02  0.46136485098E+02  0.15778733642E+02  0.65756518337E+02  0.00000000000E+00 0.  1.
        -11    1    3    3    0    0 -0.78624285803E+02 -0.11757244113E+02  0.17225748504E+03  0.18971729563E+03  0.00000000000E+00 0. -1.
         11    1    3    3    0    0  0.25652636910E+02  0.10222400763E+02  0.59828330871E+02  0.65893735913E+02  0.00000000000E+00 0.  1.
         21    1    1    2  503  502  0.75267419685E+01 -0.36897418509E+02 -0.10309662960E+03  0.10975876444E+03  0.00000000000E+00 0. -1.
          3    1    1    2  501    0  0.11855084537E+02  0.22207239434E+02 -0.24129006520E+02  0.34869950793E+02  0.00000000000E+00 0. -1.
<scales pt_clust_5="13000.00000" pt_clust_6="13000.00000" pt_clust_7="13000.00000" pt_clust_8="13000.00000" pt_clust_9="26.48812" pt_clust_10="25.17349"></scales>
<clustering>
<clus scale="   25.173">  2 10  1 -1</clus>
<clus scale="   26.488">  2  9  1 -1</clus>
<clus scale="   91.634">  5  6 -1 -1</clus>
<clus scale="   93.085">  7  8 -1 -1</clus>
<clus scale="  103.482">  2  5  1 -1</clus>
<clus scale="   25.173">  2  5  1 -1</clus>
</clustering>
</event>
<event>
10    2  0.1671105E-006  0.1971497E+03  0.7546771E-02  0.1172755E+00
         21   -1    0    0  503  502  0.00000000000E+00  0.00000000000E+00  0.31220856230E+03  0.31220856230E+03  0.00000000000E+00 0. -1.
          1   -1    0    0  502    0 -0.00000000000E+00 -0.00000000000E+00 -0.64482157624E+03  0.64482157624E+03  0.00000000000E+00 0. -1.
         23    2    1    2    0    0 -0.71397791020E+02  0.39217912967E+02 -0.61406433429E+02  0.13687777156E+03  0.91263820987E+02 0.  0.
         23    2    1    2    0    0  0.23176232857E+03  0.23406100234E+02 -0.47976908598E+03  0.54080953236E+03  0.89637893533E+02 0.  0.
        -13    1    4    4    0    0  0.16715110320E+03 -0.24617424064E+02 -0.31653908787E+03  0.35880705542E+03  0.00000000000E+00 0. -1.
         13    1    4    4    0    0  0.64611225368E+02  0.48023524298E+02 -0.16322999811E+03  0.18200247694E+03  0.00000000000E+00 0.  1.
        -13    1    3    3    0    0  0.86112182459E+01 -0.20588454180E+02 -0.88832884218E+01  0.24019790557E+02  0.00000000000E+00 0.  1.
         13    1    3    3    0    0 -0.80009009266E+02  0.59806367147E+02 -0.52523145007E+02  0.11285798100E+03  0.00000000000E+00 0. -1.
         21    1    1    2  503  501 -0.23250761027E+02 -0.30423419639E+02  0.79798682756E+02  0.88509954923E+02  0.00000000000E+00 0. -1.
          1    1    1    2  501    0 -0.13711377652E+03 -0.32200593562E+02  0.12876382271E+03  0.19083287971E+03  0.00000000000E+00 0. -1.
<scales pt_clust_5="13000.00000" pt_clust_6="13000.00000" pt_clust_7="13000.00000" pt_clust_8="13000.00000" pt_clust_9="36.48197" pt_clust_10="189.02007"></scales>
<clustering>
<clus scale="   36.482">  9 10 -1 -1</clus>
<clus scale="   89.638">  5  6 -1 -1</clus>
<clus scale="   91.264">  7  8 -1 -1</clus>
<clus scale="  122.331">  2  7  1 -1</clus>
<clus scale="  189.020">  1  9  2 -1</clus>
<clus scale="  189.020">  1  5  2 -1</clus>
</clustering>
</event>
<event>
10    2  0.1671105E-006  0.1216867E+03  0.7546771E-02  0.1240517E+00
         -3   -1    0    0    0  501 -0.00000000000E+00  0.00000000000E+00  0.74276982096E+02  0.74276982096E+02  0.00000000000E+00 0.  1.
         21   -1    0    0  503  502  0.00000000000E+00 -0.00000000000E+00 -0.43710446031E+03  0.43710446031E+03  0.00000000000E+00 0.  1.
         23    2    1    2    0    0 -0.52179747410E+02  0.41993405789E+02 -0.46370064763E+02  0.12254214084E+03  0.91543548137E+02 0.  0.
         23    2    1    2    0    0  0.37448160711E+02 -0.85414557066E+02 -0.14158481786E+03  0.19295243994E+03  0.92121507424E+02 0.  0.
        -11    1    3    3    0    0 -0.32691189360E+02  0.52893120129E+01  0.23943907440E+02  0.40865650452E+02  0.00000000000E+00 0.  1.
         11    1    3    3    0    0 -0.19488558049E+02  0.36704093776E+02 -0.70313972203E+02  0.81676490386E+02  0.00000000000E+00 0. -1.
        -13    1    4    4    0    0 -0.29366496331E+02 -0.42299588604E+02 -0.58900836539E+02  0.78236531415E+02  0.00000000000E+00 0. -1.
         13    1    4    4    0    0  0.66814657042E+02 -0.43114968462E+02 -0.82683981322E+02  0.11471590852E+03  0.00000000000E+00 0.  1.
         21    1    1    2  503  501 -0.83581393587E+01  0.21249711029E+02 -0.54621201153E+01  0.23478574669E+02  0.00000000000E+00 0. -1.
         -3    1    1    2    0  502  0.23089726058E+02  0.22171440249E+02 -0.16941047547E+03  0.17240828696E+03  0.00000000000E+00 0.  1.
<scales pt_clust_5="13000.00000" pt_clust_6="13000.00000" pt_clust_7="13000.00000" pt_clust_8="13000.00000" pt_clust_9="22.83438" pt_clust_10="32.21426"></scales>
<clustering>
<clus scale="   22.834">  1  9  2 -1</clus>
<clus scale="   32.214">  2 10  1 -1</clus>
<clus scale="   91.544">  5  6 -1 -1</clus>
<clus scale="   92.122">  7  8 -1 -1</clus>
<clus scale="  121.250">  1  5  2 -1</clus>
<clus scale="   32.214">  2  5  1 -1</clus>
</clustering>
</event>
<event>
10    2  0.1671105E-006  0.1296296E+03  0.7546771E-02  0.1243338E+00
         21   -1    0    0  501  502  0.00000000000E+00  0.00000000000E+00  0.10169201755E+03  0.10169201755E+03  0.00000000000E+00 0. -1.
          4   -1    0    0  503    0 -0.00000000000E+00 -0.00000000000E+00 -0.58310735367E+03  0.58310735367E+03  0.00000000000E+00 0. -1.
         23    2    1    2    0    0  0.30518006644E+02 -0.19281904933E+02 -0.24276655330E+03  0.26200238503E+03  0.91687020765E+02 0.  0.
         23    2    1    2    0    0  0.27863143628E+02 -0.95385816078E+02 -0.99075713420E+02  0.16698490265E+03  0.90516031958E+02 0.  0.
        -13    1    4    4    0    0  0.16354177117E+02  0.13487240036E+02 -0.31607337150E+01  0.21432568455E+02  0.00000000000E+00 0.  1.
         13    1    4    4    0    0  0.11508966511E+02 -0.10887305611E+03 -0.95914979705E+02  0.14555233419E+03  0.00000000000E+00 0. -1.
        -13    1    3    3    0    0  0.35871734958E+02 -0.52725274715E+02 -0.14107422849E+03  0.15481819630E+03  0.00000000000E+00 0. -1.
         13    1    3    3    0    0 -0.53537283141E+01  0.33443369782E+02 -0.10169232481E+03  0.10718418873E+03  0.00000000000E+00 0.  1.
         21    1    1    2  503  502  0.21826399657E+02  0.96086582402E+02 -0.14270849621E+03  0.17342069637E+03  0.00000000000E+00 0. -1.
          4    1    1    2  501    0 -0.80207549928E+02  0.18581138610E+02  0.31354268162E+01  0.82391387164E+02  0.00000000000E+00 0. -1.
<scales pt_clust_5="13000.00000" pt_clust_6="13000.00000" pt_clust_7="13000.00000" pt_clust_8="13000.00000" pt_clust_9="92.79380" pt_clust_10="82.33171"></scales>
<clustering>
<clus scale="   82.332">  1 10  2 -1</clus>
<clus scale="   90.516">  5  6 -1 -1</clus>
<clus scale="   91.687">  7  8 -1 -1</clus>
<clus scale="   94.733">  2  7  1 -1</clus>
<clus scale="   92.794">  2  9  1 -1</clus>
<clus scale="   82.332">  1  5  2 -1</clus>
</clustering>
</event>
<event>
10    2  0.1671105E-006  0.1922600E+03  0.7546771E-02  0.1168793E+00
         -1   -1    0    0    0  501 -0.00000000000E+00  0.00000000000E+00  0.74337799456E+03  0.74337799456E+03  0.00000000000E+00 0.  1.
         21   -1    0    0  503  502  0.00000000000E+00 -0.00000000000E+00 -0.16716900429E+03  0.16716900429E+03  0.00000000000E+00 0. -1.
         23    2    1    2    0    0 -0.56172563516E+02 -0.12433074485E+03  0.29240933092E+03  0.33527965974E+03  0.91080966298E+02 0.  0.
         23    2    1    2    0    0  0.11035723846E+03 -0.75860788433E+02  0.24648808908E+03  0.29520518676E+03  0.91957299477E+02 0.  0.
        -11    1    4    4    0    0  0.14161201240E+02 -0.42914421021E+02  0.14362983219E+03  0.15057129822E+03  0.00000000000E+00 0.  1.
         11    1    4    4    0    0  0.96196037225E+02 -0.32946367412E+02  0.10285825689E+03  0.14463388854E+03  0.00000000000E+00 0. -1.
        -11    1    3    3    0    0 -0.63496878244E+02 -0.54592954626E+02  0.21552365213E+03  0.23122000102E+03  0.00000000000E+00 0.  1.
         11    1    3    3    0    0  0.73243147287E+01 -0.69737790226E+02  0.76885678787E+02  0.10405965873E+03  0.00000000000E+00 0. -1.
         21    1    1    2  503  501  0.33467045185E+02  0.41349361692E+02  0.77732912755E+02  0.94192454853E+02  0.00000000000E+00 0. -1.
         -1    1    1    2    0  502 -0.87651720134E+02  0.15884217159E+03 -0.40421342484E+02  0.18586969749E+03  0.00000000000E+00 0.  1.
<scales pt_clust_5="13000.00000" pt_clust_6="13000.00000" pt_clust_7="13000.00000" pt_clust_8="13000.00000" pt_clust_9="53.19599" pt_clust_10="168.84237"></scales>
<clustering>
<clus scale="   53.196">  1  9  2 -1</clus>
<clus scale="   91.081">  7  8 -1 -1</clus>
<clus scale="   91.957">  5  6 -1 -1</clus>
<clus scale="  144.398">  1  7  2 -1</clus>
<clus scale="  168.842">  2 10  1 -1</clus>
<clus scale="  168.842">  2  5  1 -1</clus>
</clustering>
</event>
<event>
10    2  0.1671105E-006  0.1188088E+03  0.7546771E-02  0.1247191E+00
          1   -1    0    0  503    0 -0.00000000000E+00  0.00000000000E+00  0.17621001522E+03  0.17621001522E+03  0.00000000000E+00 0. -1.
         21   -1    0    0  501  502  0.00000000000E+00 -0.00000000000E+00 -0.46116428718E+03  0.46116428718E+03  0.00000000000E+00 0. -1.
         23    2    1    2    0    0  0.27996191881E+02 -0.47247580665E+02  0.52785360177E+02  0.11757873190E+03  0.89567534897E+02 0.  0.
         23    2    1    2    0    0 -0.11471549576E+03  0.84454636534E+02 -0.35512240893E+03  0.39443363155E+03  0.95779610414E+02 0.  0.
        -11    1    4    4    0    0 -0.38113398964E+02  0.50497110538E+02 -0.58373391353E+02  0.86081601817E+02  0.00000000000E+00 0.  1.
         11    1    4    4    0    0 -0.76602096796E+02  0.33957525996E+02 -0.29674901758E+03  0.30835202973E+03  0.00000000000E+00 0. -1.
        -11    1    3    3    0    0 -0.22327695652E+02 -0.44238254227E+02  0.80991042845E+01  0.50211000990E+02  0.00000000000E+00 0.  1.
         11    1    3    3    0    0  0.50323887534E+02 -0.30093264372E+01  0.44686255892E+02  0.67367730909E+02  0.00000000000E+00 0. -1.
         21    1    1    2  503  502 -0.75144713693E+01 -0.23055039193E+02  0.17783062687E+02  0.30070574166E+02  0.00000000000E+00 0.  1.
          1    1    1    2  501    0  0.94233775248E+02 -0.14152016676E+02 -0.40028589632E+00  0.95291364784E+02  0.00000000000E+00 0. -1.
<scales pt_clust_5="13000.00000" pt_clust_6="13000.00000" pt_clust_7="13000.00000" pt_clust_8="13000.00000" pt_clust_9="24.24875" pt_clust_10="94.33682"></scales>
<clustering>
<clus scale="   24.249">  1  9  2 -1</clus>
<clus scale="   89.568">  7  8 -1 -1</clus>
<clus scale="   94.337">  2 10  1 -1</clus>
<clus scale="   95.780">  5  6 -1 -1</clus>
<clus scale="  113.860">  1  7  2 -1</clus>
<clus scale="   94.337">  2  5  1 -1</clus>
</clustering>
</event>
<event>
10    2  0.1671105E-006  0.2284793E+03  0.7546771E-02  0.1137674E+00
          1   -1    0    0  502    0 -0.00000000000E+00  0.00000000000E+00  0.53214709931E+03  0.53214709931E+03  0.00000000000E+00 0. -1.
         21   -1    0    0  503  502  0.00000000000E+00 -0.00000000000E+00 -0.23509668070E+03  0.23509668070E+03  0.00000000000E+00 0. -1.
         23    2    1    2    0    0 -0.36929447628E+02 -0.15166630564E+03  0.24312502221E+03  0.30198078367E+03  0.87841703726E+02 0.  0.
         23    2    1    2    0    0  0.22205677953E+03  0.95470095840E+02  0.57113287476E+00  0.26255110633E+03  0.10251343671E+03 0.  0.
        -11    1    4    4    0    0  0.13881455800E+03  0.40659878441E+02  0.47692585965E+02  0.15230656580E+03  0.00000000000E+00 0. -1.
         11    1    4    4    0    0  0.83242221528E+02  0.54810217399E+02 -0.47121453090E+02  0.11024454053E+03  0.00000000000E+00 0.  1.
        -11    1    3    3    0    0 -0.19851627764E+02  0.30422650339E+01  0.50389359063E+02  0.54244170270E+02  0.00000000000E+00 0. -1.
         11    1    3    3    0    0 -0.17077819864E+02 -0.15470857067E+03  0.19273566314E+03  0.24773661340E+03  0.00000000000E+00 0.  1.
         21    1    1    2  503  501 -0.98952019844E+02  0.41417186652E+02  0.38821580984E+02  0.11407892326E+03  0.00000000000E+00 0. -1.
          1    1    1    2  501    0 -0.86175312060E+02  0.14779023147E+02  0.14532682550E+02  0.88632966756E+02  0.00000000000E+00 0. -1.
<scales pt_clust_5="13000.00000" pt_clust_6="13000.00000" pt_clust_7="13000.00000" pt_clust_8="13000.00000" pt_clust_9="25.77836" pt_clust_10="206.17743"></scales>
<clustering>
<clus scale="   25.778">  9 10 -1 -1</clus>
<clus scale="   87.842">  7  8 -1 -1</clus>
<clus scale="  102.513">  5  6 -1 -1</clus>
<clus scale="  179.116">  1  7  2 -1</clus>
<clus scale="  206.177">  2  9  1 -1</clus>
<clus scale="  206.177">  2  5  1 -1</clus>
</clustering>
</event>
<event>
10    2  0.1671105E-006  0.9086154E+02  0.7546771E-02  0.1301476E+00
         -1   -1    0    0    0  501 -0.00000000000E+00  0.00000000000E+00  0.46366571345E+03  0.46366571345E+03  0.00000000000E+00 0.  1.
         21   -1    0    0  503  502  0.00000000000E+00 -0.00000000000E+00 -0.54816939604E+02  0.54816939604E+02  0.00000000000E+00 0. -1.
         23    2    1    2    0    0 -0.33407577477E+02  0.35172987964E+02  0.21958282479E+03  0.24174887799E+03  0.88728224110E+02 0.  0.
         23    2    1    2    0    0  0.14517868180E+02  0.18588300584E+02  0.56402367053E+02  0.10871674887E+03  0.89898893548E+02 0.  0.
        -11    1    3    3    0    0 -0.28311269083E+02  0.63771852760E+02  0.17646397278E+03  0.18975750539E+03  0.00000000000E+00 0. -1.
         11    1    3    3    0    0 -0.50963083943E+01 -0.28598864796E+02  0.43118852007E+02  0.51991372605E+02  0.00000000000E+00 0.  1.
        -13    1    4    4    0    0 -0.11646347728E+02  0.37996889081E+02  0.63935182092E+02  0.75280199949E+02  0.00000000000E+00 0.  1.
         13    1    4    4    0    0  0.26164215907E+02 -0.19408588497E+02 -0.75328150390E+01  0.33436548923E+02  0.00000000000E+00 0. -1.
         21    1    1    2  503  501  0.42235702722E+02 -0.59473744897E+02  0.12082222551E+03  0.14113465589E+03  0.00000000000E+00 0.  1.
         -1    1    1    2    0  502 -0.23345993424E+02  0.57124563497E+01  0.12041356492E+02  0.26882370295E+02  0.00000000000E+00 0.  1.
<scales pt_clust_5="13000.00000" pt_clust_6="13000.00000" pt_clust_7="13000.00000" pt_clust_8="13000.00000" pt_clust_9="69.13266" pt_clust_10="24.03472"></scales>
<clustering>
<clus scale="   24.035">  2 10  1 -1</clus>
<clus scale="   69.133">  1  9  2 -1</clus>
<clus scale="   88.728">  5  6 -1 -1</clus>
<clus scale="   89.703">  1  5  2 -1</clus>
<clus scale="   89.899">  7  8 -1 -1</clus>
<clus scale="   24.035">  2  5  1 -1</clus>
</clustering>
</event>
<event>
10    2  0.1671105E-006  0.1131934E+03  0.7546771E-02  0.1260574E+00
         -2   -1    0    0    0  501 -0.00000000000E+00  0.00000000000E+00  0.14841568080E+03  0.14841568080E+03  0.00000000000E+00 0.  1.
         21   -1    0    0  503  502  0.00000000000E+00 -0.00000000000E+00 -0.30840698742E+03  0.30840698742E+03  0.00000000000E+00 0. -1.
         23    2    1    2    0    0 -0.85725391605E+01 -0.83459593676E+02  0.47025576479E+02  0.13192669822E+03  0.90300922791E+02 0.  0.
         23    2    1    2    0    0 -0.52518394443E+00 -0.14665081269E+02 -0.23375370999E+02  0.10742093135E+03  0.10381477784E+03 0.  0.
        -11    1    3    3    0    0 -0.77618617552E+01 -0.33612994216E+02 -0.26215890819E+02  0.43328429576E+02  0.00000000000E+00 0. -1.
         11    1    3    3    0    0 -0.81067740532E+00 -0.49846599460E+02  0.73241467297E+02  0.88598268648E+02  0.00000000000E+00 0.  1.
        -13    1    4    4    0    0 -0.30848663152E+02 -0.41747357415E+02  0.12283660281E+02  0.53342011392E+02  0.00000000000E+00 0.  1.
         13    1    4    4    0    0  0.30323479208E+02  0.27082276146E+02 -0.35659031280E+02  0.54078919963E+02  0.00000000000E+00 0. -1.
         21    1    1    2  503  501  0.22103561084E+02  0.76396609281E+02 -0.88334612805E+02  0.11886131895E+03  0.00000000000E+00 0. -1.
         -2    1    1    2    0  502 -0.13005837979E+02  0.21728065665E+02 -0.95306899291E+02  0.98613719692E+02  0.00000000000E+00 0.  1.
<scales pt_clust_5="13000.00000" pt_clust_6="13000.00000" pt_clust_7="13000.00000" pt_clust_8="13000.00000" pt_clust_9="88.45240" pt_clust_10="25.32312"></scales>
<clustering>
<clus scale="   25.323">  2 10  1 -1</clus>
<clus scale="   88.452">  2  9  1 -1</clus>
<clus scale="   90.301">  5  6 -1 -1</clus>
<clus scale="  100.943">  1  5  2 -1</clus>
<clus scale="  103.815">  7  8 -1 -1</clus>
<clus scale="   25.323">  2  5  1 -1</clus>
</clustering>
</event>
<event>
10    2  0.1671105E-006  0.2504376E+03  0.7546771E-02  0.1148272E+00
         21   -1    0    0  503  502  0.00000000000E+00  0.00000000000E+00  0.52092559452E+03  0.52092559452E+03  0.00000000000E+00 0. -1.
          4   -1    0    0  502    0 -0.00000000000E+00 -0.00000000000E+00 -0.26704360156E+03  0.26704360156E+03  0.00000000000E+00 0. -1.
         23    2    1    2    0    0 -0.33137564691E+01  0.52417011426E+02 -0.76517564895E+02  0.13030571205E+03  0.91466479028E+02 0.  0.
         23    2    1    2    0    0  0.26971756193E+00  0.19253867477E+03 -0.25091193297E+02  0.21525696428E+03  0.92923509728E+02 0.  0.
        -11    1    3    3    0    0  0.32688921161E+02  0.96844570309E+01  0.17506877793E+01  0.34138236368E+02  0.00000000000E+00 0.  1.
         11    1    3    3    0    0 -0.36002677630E+02  0.42732554395E+02 -0.78268252675E+02  0.96167475678E+02  0.00000000000E+00 0. -1.
        -13    1    4    4    0    0 -0.25566539796E+02  0.86223748204E+01 -0.10535396584E+02  0.28965287602E+02  0.00000000000E+00 0.  1.
         13    1    4    4    0    0  0.25836257358E+02  0.18391629995E+03 -0.14555796713E+02  0.18629167668E+03  0.00000000000E+00 0. -1.
         21    1    1    2  503  501 -0.23824753433E+02 -0.40829223168E+02  0.26195998265E+02  0.54045116947E+02  0.00000000000E+00 0.  1.
          4    1    1    2  501    0  0.26868792340E+02 -0.20412646303E+03  0.32929475288E+03  0.38836140280E+03  0.00000000000E+00 0. -1.
<scales pt_clust_5="13000.00000" pt_clust_6="13000.00000" pt_clust_7="13000.00000" pt_clust_8="13000.00000" pt_clust_9="46.30182" pt_clust_10="46.30182"></scales>
<clustering>
<clus scale="   46.302">  9 10 -1 -1</clus>
<clus scale="   91.466">  5  6 -1 -1</clus>
<clus scale="   92.924">  7  8 -1 -1</clus>
<clus scale="  105.473">  2  5  1 -1</clus>
<clus scale="  249.031">  2  7  1 -1</clus>
<clus scale="  250.438">  1  5  2 -1</clus>
</clustering>
</event>
<event>
10    2  0.1671105E-006  0.1323389E+03  0.7546771E-02  0.1224293E+00
          1   -1    0    0  502    0 -0.00000000000E+00  0.00000000000E+00  0.52970609218E+03  0.52970609218E+03  0.00000000000E+00 0. -1.
         21   -1    0    0  503  502  0.00000000000E+00 -0.00000000000E+00 -0.72149553692E+02  0.72149553692E+02  0.00000000000E+00 0. -1.
         23    2    1    2    0    0  0.72449544756E+00  0.70595886218E+02  0.17435443243E+03  0.20842188187E+03  0.89754714038E+02 0.  0.
         23    2    1    2    0    0  0.18895449082E+02 -0.15238087299E+03  0.17403999116E+03  0.24923250762E+03  0.90829267769E+02 0.  0.
        -11    1    3    3    0    0  0.40054672965E+02  0.90007522437E+01  0.65963101400E+02  0.77695052053E+02  0.00000000000E+00 0. -1.
         11    1    3    3    0    0 -0.39330177518E+02  0.61595133974E+02  0.10839133103E+03  0.13072682982E+03  0.00000000000E+00 0.  1.
        -13    1    4    4    0    0  0.38499669134E+01 -0.80791077063E+02  0.27468807848E+02  0.85419879319E+02  0.00000000000E+00 0. -1.
         13    1    4    4    0    0  0.15045482168E+02 -0.71589795930E+02  0.14657118331E+03  0.16381262830E+03  0.00000000000E+00 0.  1.
         21    1    1    2  503  501  0.10359889151E+02  0.34540828364E+02  0.58490472792E+02  0.68713401420E+02  0.00000000000E+00 0.  1.
          1    1    1    2  501    0 -0.29979833680E+02  0.47244158411E+02  0.50671642112E+02  0.75487854956E+02  0.00000000000E+00 0. -1.
<scales pt_clust_5="13000.00000" pt_clust_6="13000.00000" pt_clust_7="13000.00000" pt_clust_8="13000.00000" pt_clust_9="34.09670" pt_clust_10="94.22120"></scales>
<clustering>
<clus scale="   34.097">  9 10 -1 -1</clus>
<clus scale="   89.755">  5  6 -1 -1</clus>
<clus scale="   90.829">  7  8 -1 -1</clus>
<clus scale="   94.221">  2  9  1 -1</clus>
<clus scale="  131.604">  1  5  2 -1</clus>
<clus scale="   94.221">  2  5  1 -1</clus>
</clustering>
</event>
<event>
10    2  0.1671105E-006  0.1493545E+03  0.7546771E-02  0.1201428E+00
         21   -1    0    0  501  502  0.00000000000E+00  0.00000000000E+00  0.49839618492E+03  0.49839618492E+03  0.00000000000E+00 0. -1.
          2   -1    0    0  503    0 -0.00000000000E+00 -0.00000000000E+00 -0.79921030460E+02  0.79921030460E+02  0.00000000000E+00 0. -1.
         23    2    1    2    0    0 -0.13377992400E+03  0.41794633460E+02  0.10318682313E+03  0.19666768224E+03  0.91579459041E+02 0.  0.
         23    2    1    2    0    0  0.91128976543E+02 -0.10580652783E+02  0.16179352694E+03  0.20768785901E+03  0.92415695862E+02 0.  0.
        -11    1    3    3    0    0  0.42923097066E+01  0.23692178656E+02  0.32650133866E+02  0.40568146292E+02  0.00000000000E+00 0.  1.
         11    1    3    3    0    0 -0.13807223371E+03  0.18102454803E+02  0.70536689261E+02  0.15609953595E+03  0.00000000000E+00 0. -1.
        -11    1    4    4    0    0  0.75493057203E+02  0.23450494806E+02  0.60057827888E+02  0.99277742133E+02  0.00000000000E+00 0.  1.
         11    1    4    4    0    0  0.15635919340E+02 -0.34031147588E+02  0.10173569905E+03  0.10841011688E+03  0.00000000000E+00 0. -1.
         21    1    1    2  503  502 -0.35984025499E+01 -0.26619993597E+02  0.22748581496E+02  0.35200433522E+02  0.00000000000E+00 0. -1.
          2    1    1    2  501    0  0.46249350008E+02 -0.45939870795E+01  0.13074622290E+03  0.13876124062E+03  0.00000000000E+00 0. -1.
<scales pt_clust_5="13000.00000" pt_clust_6="13000.00000" pt_clust_7="13000.00000" pt_clust_8="13000.00000" pt_clust_9="26.86210" pt_clust_10="46.44826"></scales>
<clustering>
<clus scale="   26.862">  2  9  1 -1</clus>
<clus scale="   46.448">  1 10  2 -1</clus>
<clus scale="   91.579">  5  6 -1 -1</clus>
<clus scale="   92.416">  7  8 -1 -1</clus>
<clus scale="  148.839">  2  5  1 -1</clus>
<clus scale="   46.448">  1  5  2 -1</clus>
</clustering>
</event>
<event>
10    2  0.1671105E-006  0.9985961E+02  0.7546771E-02  0.1281227E+00
         21   -1    0    0  501  502  0.00000000000E+00  0.00000000000E+00  0.20345141423E+03  0.20345141423E+03  0.00000000000E+00 0.  1.
          1   -1    0    0  503    0 -0.00000000000E+00 -0.00000000000E+00 -0.12994774800E+03  0.12994774800E+03  0.00000000000E+00 0. -1.
         23    2    1    2    0    0  0.18334710977E+02 -0.59334733660E+02 -0.39529347488E+02  0.11580571395E+03  0.89395871411E+02 0.  0.
         23    2    1    2    0    0  0.12961872716E+02  0.11387729043E+02  0.28963513702E+02  0.96778173374E+02  0.90716256528E+02 0.  0.
        -13    1    3    3    0    0 -0.42980496004E+01 -0.72453087814E+02 -0.53681041338E+01  0.72778703658E+02  0.00000000000E+00 0.  1.
         13    1    3    3    0    0  0.22632760578E+02  0.13118354154E+02 -0.34161243354E+02  0.43027010291E+02  0.00000000000E+00 0. -1.
        -13    1    4    4    0    0 -0.23241352153E+02  0.84156074400E+01  0.49298806124E+02  0.55148483060E+02  0.00000000000E+00 0.  1.
         13    1    4    4    0    0  0.36203224869E+02  0.29721216029E+01 -0.20335292423E+02  0.41629690314E+02  0.00000000000E+00 0. -1.
         21    1    1    2  503  502 -0.45971716665E+02  0.15018439924E+02  0.34002261756E+02  0.59119422150E+02  0.00000000000E+00 0.  1.
          1    1    1    2  501    0  0.14675132972E+02  0.32928564693E+02  0.50067238260E+02  0.61695852757E+02  0.00000000000E+00 0. -1.
<scales pt_clust_5="13000.00000" pt_clust_6="13000.00000" pt_clust_7="13000.00000" pt_clust_8="13000.00000" pt_clust_9="48.52506" pt_clust_10="36.05066"></scales>
<clustering>
<clus scale="   36.051">  1 10  2 -1</clus>
<clus scale="   48.525">  1  9  2 -1</clus>
<clus scale="   89.396">  5  6 -1 -1</clus>
<clus scale="   90.716">  7  8 -1 -1</clus>
<clus scale="   98.662">  2  5  1 -1</clus>
<clus scale="   36.051">  1  5  2 -1</clus>
</clustering>
</event>
<event>
10    2  0.1671105E-006  0.1208320E+03  0.7546771E-02  0.1242078E+00
         21   -1    0    0  501  502  0.00000000000E+00  0.00000000000E+00  0.46009109189E+03  0.46009109189E+03  0.00000000000E+00 0.  1.
          4   -1    0    0  503    0 -0.00000000000E+00 -0.00000000000E+00 -0.93508970754E+02  0.93508970754E+02  0.00000000000E+00 0. -1.
         23    2    1    2    0    0  0.78334354338E+02 -0.81240376502E-01  0.46507521512E+02  0.12809029758E+03  0.90043862131E+02 0.  0.
         23    2    1    2    0    0 -0.11126795024E+03  0.31628213950E+02  0.27920862070E+03  0.31567420620E+03  0.91169347479E+02 0.  0.
        -13    1    3    3    0    0  0.29614794902E+02  0.39298123512E+02  0.42999293745E+02  0.65347669057E+02  0.00000000000E+00 0.  1.
         13    1    3    3    0    0  0.48719559436E+02 -0.39379363889E+02  0.35082277671E+01  0.62742628523E+02  0.00000000000E+00 0. -1.
        -13    1    4    4    0    0 -0.96592903009E+02 -0.14915972238E+02  0.17080913572E+03  0.19679541658E+03  0.00000000000E+00 0.  1.
         13    1    4    4    0    0 -0.14675047229E+02  0.46544186188E+02  0.10839948498E+03  0.11887878963E+03  0.00000000000E+00 0. -1.
         21    1    1    2  503  502 -0.17412360223E+02  0.19086033681E+02 -0.30396765584E+01  0.26013584985E+02  0.00000000000E+00 0. -1.
          4    1    1    2  501    0  0.50345956122E+02 -0.50633007254E+02  0.43905655482E+02  0.83821973878E+02  0.00000000000E+00 0. -1.
<scales pt_clust_5="13000.00000" pt_clust_6="13000.00000" pt_clust_7="13000.00000" pt_clust_8="13000.00000" pt_clust_9="25.83538" pt_clust_10="64.88149"></scales>
<clustering>
<clus scale="   25.835">  2  9  1 -1</clus>
<clus scale="   64.881">  1 10  2 -1</clus>
<clus scale="   90.044">  5  6 -1 -1</clus>
<clus scale="   91.169">  7  8 -1 -1</clus>
<clus scale="  119.985">  2  5  1 -1</clus>
<clus scale="   64.881">  1  5  2 -1</clus>
</clustering>
</event>
<event>
10    2  0.1671105E-006  0.1299624E+03  0.7546771E-02  0.1227652E+00
         -1   -1    0    0    0  501 -0.00000000000E+00  0.00000000000E+00  0.28491387493E+03  0.28491387493E+03  0.00000000000E+00 0.  1.
         21   -1    0    0  503  502  0.00000000000E+00 -0.00000000000E+00 -0.98948454777E+02  0.98948454777E+02  0.00000000000E+00 0.  1.
         23    2    1    2    0    0  0.93867379400E+02 -0.47031507791E+02  0.11022124543E+03  0.17803796833E+03  0.92334974863E+02 0.  0.
         23    2    1    2    0    0 -0.59393983077E+02  0.67342499812E+02  0.24240962081E+02  0.13143005916E+03  0.92863225775E+02 0.  0.
        -11    1    3    3    0    0  0.34188105958E+02 -0.68215773518E+02  0.55649102584E+02  0.94440674309E+02  0.00000000000E+00 0. -1.
         11    1    3    3    0    0  0.59679273442E+02  0.21184265727E+02  0.54572142846E+02  0.83597294022E+02  0.00000000000E+00 0.  1.
        -13    1    4    4    0    0 -0.29973907637E+02 -0.12289574591E+02  0.32807007783E+02  0.46106057545E+02  0.00000000000E+00 0. -1.
         13    1    4    4    0    0 -0.29420075439E+02  0.79632074403E+02 -0.85660457019E+01  0.85324001614E+02  0.00000000000E+00 0.  1.
         21    1    1    2  503  501 -0.31715812906E+02 -0.14402191989E+00  0.39882197727E+02  0.50955894910E+02  0.00000000000E+00 0.  1.
         -1    1    1    2    0  502 -0.27575834172E+01 -0.20166970101E+02  0.11621014915E+02  0.23438407305E+02  0.00000000000E+00 0.  1.
<scales pt_clust_5="13000.00000" pt_clust_6="13000.00000" pt_clust_7="13000.00000" pt_clust_8="13000.00000" pt_clust_9="31.90824" pt_clust_10="20.35464"></scales>
<clustering>
<clus scale="   20.355">  2 10  1 -1</clus>
<clus scale="   31.908">  1  9  2 -1</clus>
<clus scale="   92.335">  5  6 -1 -1</clus>
<clus scale="   92.863">  7  8 -1 -1</clus>
<clus scale="  129.585">  1  5  2 -1</clus>
<clus scale="   20.355">  2  5  1 -1</clus>
</clustering>
</event>
<event>
10    2  0.1671105E-006  0.2027299E+03  0.7546771E-02  0.1164723E+00
         21   -1    0    0  503  502  0.00000000000E+00  0.00000000000E+00  0.42131364973E+03  0.42131364973E+03  0.00000000000E+00 0. -1.
          1   -1    0    0  502    0 -0.00000000000E+00 -0.00000000000E+00 -0.46542357077E+03  0.46542357077E+03  0.00000000000E+00 0. -1.
         23    2    1    2    0    0  0.44362416914E+02  0.89079959253E+02 -0.21347535239E+03  0.25271372195E+03  0.91592772706E+02 0.  0.
         23    2    1    2    0    0  0.94657236212E+02  0.45069556909E+02 -0.17871423560E+03  0.22626783062E+03  0.90923571419E+02 0.  0.
        -13    1    4    4    0    0  0.95999618875E+01  0.48327305665E+02 -0.94255591220E+02  0.10635696600E+03  0.00000000000E+00 0. -1.
         13    1    4    4    0    0  0.85057274324E+02 -0.32577487554E+01 -0.84458644379E+02  0.11991086461E+03  0.00000000000E+00 0.  1.
        -13    1    3    3    0    0 -0.62487418466E-01  0.67219536378E+02 -0.55529963533E+02  0.87189717430E+02  0.00000000000E+00 0.  1.
         13    1    3    3    0    0  0.44424904332E+02  0.21860422875E+02 -0.15794538886E+03  0.16552400452E+03  0.00000000000E+00 0. -1.
         21    1    1    2  503  501 -0.12971597588E+02 -0.52624434270E+02  0.14807825046E+03  0.15768564198E+03  0.00000000000E+00 0. -1.
          1    1    1    2  501    0 -0.12604805554E+03 -0.81525081892E+02  0.20000141649E+03  0.25007002595E+03  0.00000000000E+00 0. -1.
<scales pt_clust_5="13000.00000" pt_clust_6="13000.00000" pt_clust_7="13000.00000" pt_clust_8="13000.00000" pt_clust_9="53.00912" pt_clust_10="201.53157"></scales>
<clustering>
<clus scale="   53.009">  9 10 -1 -1</clus>
<clus scale="   90.924">  5  6 -1 -1</clus>
<clus scale="   91.593">  7  8 -1 -1</clus>
<clus scale="  135.250">  2  7  1 -1</clus>
<clus scale="  201.532">  1  9  2 -1</clus>
<clus scale="  201.532">  1  5  2 -1</clus>
</clustering>
</event>
<event>
10    2  0.1671105E-006  0.1696955E+03  0.7546771E-02  0.1203413E+00
         21   -1    0    0  501  502  0.00000000000E+00  0.00000000000E+00  0.13177999800E+03  0.13177999800E+03  0.00000000000E+00 0.  1.
          2   -1    0    0  503    0 -0.00000000000E+00 -0.00000000000E+00 -0.10320906301E+04  0.10320906301E+04  0.00000000000E+00 0. -1.
         23    2    1    2    0    0  0.34418601974E+01 -0.15001213054E+03 -0.79946802150E+03  0.81846731128E+03  0.90687025109E+02 0.  0.
         23    2    1    2    0    0 -0.41454267348E+02  0.32500956841E+02 -0.72336224162E+02  0.12689671959E+03  0.89974883383E+02 0.  0.
        -11    1    3    3    0    0 -0.20310346046E+02 -0.27657154802E+02 -0.65024426114E+02  0.73522815233E+02  0.00000000000E+00 0.  1.
         11    1    3    3    0    0  0.23752206243E+02 -0.12235497574E+03 -0.73444359539E+03  0.74494449605E+03  0.00000000000E+00 0. -1.
        -13    1    4    4    0    0 -0.52407101311E+02  0.55827803356E+02 -0.64046810872E+02  0.99826058112E+02  0.00000000000E+00 0.  1.
         13    1    4    4    0    0  0.10952833963E+02 -0.23326846515E+02 -0.82894132897E+01  0.27070661478E+02  0.00000000000E+00 0. -1.
         21    1    1    2  503  502 -0.51849543988E+02  0.10992388752E+03 -0.39174657640E+02  0.12769608475E+03  0.00000000000E+00 0.  1.
          2    1    1    2  501    0  0.89861951138E+02  0.75872861797E+01  0.10668271166E+02  0.90810512517E+02  0.00000000000E+00 0. -1.
<scales pt_clust_5="13000.00000" pt_clust_6="13000.00000" pt_clust_7="13000.00000" pt_clust_8="13000.00000" pt_clust_9="143.43090" pt_clust_10="90.18169"></scales>
<clustering>
<clus scale="   89.975">  7  8 -1 -1</clus>
<clus scale="   90.182">  1 10  2 -1</clus>
<clus scale="   90.687">  5  6 -1 -1</clus>
<clus scale="   97.210">  1  7  2 -1</clus>
<clus scale="  143.431">  1  9  2 -1</clus>
<clus scale="   90.182">  1  5  2 -1</clus>
</clustering>
</event>
<event>
10    2  0.1671105E-006  0.9911584E+02  0.7546771E-02  0.1284780E+00
         -3   -1    0    0    0  501 -0.00000000000E+00  0.00000000000E+00  0.17806703173E+03  0.17806703173E+03  0.00000000000E+00 0.  1.
         21   -1    0    0  501  502  0.00000000000E+00 -0.00000000000E+00 -0.14712029083E+03  0.14712029083E+03  0.00000000000E+00 0.  1.
         23    2    1    2    0    0  0.13030053257E+02 -0.78026061129E+01  0.64197327385E+02  0.11711863560E+03  0.96771974302E+02 0.  0.
         23    2    1    2    0    0 -0.17181591693E+02 -0.71166406758E+02 -0.52476264453E+01  0.11758765222E+03  0.91866500026E+02 0.  0.
        -11    1    3    3    0    0  0.14678549441E+02  0.22652108907E+02 -0.15958182066E+02  0.31356680732E+02  0.00000000000E+00 0. -1.
         11    1    3    3    0    0 -0.16484961843E+01 -0.30454715020E+02  0.80155509451E+02  0.85761954864E+02  0.00000000000E+00 0.  1.
        -13    1    4    4    0    0  0.30784436723E+02 -0.14829808369E+02 -0.23385950737E+02  0.41406611217E+02  0.00000000000E+00 0. -1.
         13    1    4    4    0    0 -0.47966028416E+02 -0.56336598388E+02  0.18138324292E+02  0.76181041002E+02  0.00000000000E+00 0.  1.
         21    1    1    2  503  502 -0.14534488445E+02  0.29162280184E+02 -0.14059212279E+02  0.35487341261E+02  0.00000000000E+00 0.  1.
         -3    1    1    2    0  503  0.18686026881E+02  0.49806732686E+02 -0.13943747766E+02  0.54993693486E+02  0.00000000000E+00 0.  1.
<scales pt_clust_5="13000.00000" pt_clust_6="13000.00000" pt_clust_7="13000.00000" pt_clust_8="13000.00000" pt_clust_9="26.53239" pt_clust_10="86.03867"></scales>
<clustering>
<clus scale="   26.532">  9 10 -1 -1</clus>
<clus scale="   86.039">  2  9  1 -1</clus>
<clus scale="   91.867">  7  8 -1 -1</clus>
<clus scale="   94.332">  2  7  1 -1</clus>
<clus scale="   96.772">  5  6 -1 -1</clus>
<clus scale="   86.039">  2  5  1 -1</clus>
</clustering>
</event>
<event>
10    2  0.1671105E-006  0.1963187E+03  0.7546771E-02  0.1153083E+00
         21   -1    0    0  501  502  0.00000000000E+00  0.00000000000E+00  0.10963454842E+03  0.10963454842E+03  0.00000000000E+00 0. -1.
          1   -1    0    0  503    0 -0.00000000000E+00 -0.00000000000E+00 -0.84844087596E+03  0.84844087596E+03  0.00000000000E+00 0. -1.
         23    2    1    2    0    0 -0.19789015602E+03 -0.32044905291E+02 -0.59838050458E+03  0.63759358248E+03  0.90988781450E+02 0.  0.
         23    2    1    2    0    0  0.11706889553E+03  0.47244689304E+01 -0.96033642358E+02  0.17569040385E+03  0.88978708875E+02 0.  0.
        -11    1    3    3    0    0 -0.12922258928E+03 -0.62477426703E+02 -0.35613869711E+03  0.38397484033E+03  0.00000000000E+00 0. -1.
         11    1    3    3    0    0 -0.68667566739E+02  0.30432521412E+02 -0.24224180747E+03  0.25361874215E+03  0.00000000000E+00 0.  1.
        -13    1    4    4    0    0  0.86325071440E+02 -0.36199500963E+02 -0.76547488839E+02  0.12092121351E+03  0.00000000000E+00 0. -1.
         13    1    4    4    0    0  0.30743824087E+02  0.40923969893E+02 -0.19486153518E+02  0.54769190338E+02  0.00000000000E+00 0.  1.
         21    1    1    2  503  502 -0.67562492538E+01 -0.24781066971E+02 -0.33635711016E+02  0.42321498553E+02  0.00000000000E+00 0.  1.
          1    1    1    2  501    0  0.87577509748E+02  0.52101503331E+02 -0.10756469594E+02  0.10246993950E+03  0.00000000000E+00 0. -1.
<scales pt_clust_5="13000.00000" pt_clust_6="13000.00000" pt_clust_7="13000.00000" pt_clust_8="13000.00000" pt_clust_9="25.68556" pt_clust_10="100.62089"></scales>
<clustering>
<clus scale="   25.686">  2  9  1 -1</clus>
<clus scale="   88.979">  7  8 -1 -1</clus>
<clus scale="   90.989">  5  6 -1 -1</clus>
<clus scale="  100.621">  1 10  2 -1</clus>
<clus scale="  195.395">  1  7  2 -1</clus>
<clus scale="  100.621">  1  5  2 -1</clus>
</clustering>
</event>
<event>
10    2  0.1671105E-006  0.9961554E+02  0.7546771E-02  0.1281150E+00
         -1   -1    0    0    0  501 -0.00000000000E+00  0.00000000000E+00  0.73437885157E+03  0.73437885157E+03  0.00000000000E+00 0.  1.
         21   -1    0    0  503  502  0.00000000000E+00 -0.00000000000E+00 -0.64507314262E+02  0.64507314262E+02  0.00000000000E+00 0.  1.
         23    2    1    2    0    0  0.22088067682E+02  0.31989757421E+02  0.40476023103E+03  0.41663684674E+03  0.90797522680E+02 0.  0.
         23    2    1    2    0    0  0.32677908125E+02 -0.57733412356E+02  0.25605334378E+03  0.27968731779E+03  0.90888328673E+02 0.  0.
        -11    1    3    3    0    0  0.52234488091E+02  0.12983117876E+02  0.32290481705E+03  0.32735993031E+03  0.00000000000E+00 0.  1.
         11    1    3    3    0    0 -0.30146420408E+02  0.19006639545E+02  0.81855413977E+02  0.89276916432E+02  0.00000000000E+00 0. -1.
        -11    1    4    4    0    0  0.22996159049E+02 -0.81468720301E+02  0.17021134492E+03  0.19009965191E+03  0.00000000000E+00 0.  1.
         11    1    4    4    0    0  0.96817490759E+01  0.23735307945E+02  0.85841998858E+02  0.89587665871E+02  0.00000000000E+00 0. -1.
         21    1    1    2  503  501 -0.28416880905E+02 -0.12631241147E+02  0.36950547232E+02  0.48295034052E+02  0.00000000000E+00 0. -1.
         -1    1    1    2    0  502 -0.26349094902E+02  0.38374896083E+02 -0.27892584734E+02  0.54266967251E+02  0.00000000000E+00 0.  1.
<scales pt_clust_5="13000.00000" pt_clust_6="13000.00000" pt_clust_7="13000.00000" pt_clust_8="13000.00000" pt_clust_9="31.09771" pt_clust_10="54.83679"></scales>
<clustering>
<clus scale="   31.098">  2  9  1 -1</clus>
<clus scale="   54.837">  2 10  1 -1</clus>
<clus scale="   90.798">  5  6 -1 -1</clus>
<clus scale="   90.888">  7  8 -1 -1</clus>
<clus scale="   99.533">  1  5  2 -1</clus>
<clus scale="   31.098">  2  5  1 -1</clus>
</clustering>
</event>
<event>
10    2  0.1671105E-006  0.1638637E+03  0.7546771E-02  0.1185207E+00
          3   -1    0    0  503    0 -0.00000000000E+00  0.00000000000E+00  0.18849695113E+04  0.18849695113E+04  0.00000000000E+00 0. -1.
         21   -1    0    0  501  502  0.00000000000E+00 -0.00000000000E+00 -0.34248564647E+02  0.34248564647E+02  0.00000000000E+00 0.  1.
         23    2    1    2    0    0 -0.79964421568E+02  0.46376591306E+02  0.59224117826E+03  0.60657809520E+03  0.92963839263E+02 0.  0.
         23    2    1    2    0    0  0.19924745848E+03 -0.36096401217E+00  0.88507275126E+03  0.91145484227E+03  0.87729552972E+02 0.  0.
        -13    1    4    4    0    0  0.12294047473E+03  0.42360668281E+02  0.54911726084E+03  0.56430359975E+03  0.00000000000E+00 0. -1.
         13    1    4    4    0    0  0.76306983754E+02 -0.42721632293E+02  0.33595549042E+03  0.34715124252E+03  0.00000000000E+00 0.  1.
        -13    1    3    3    0    0 -0.63374466870E+02 -0.13344738357E+02  0.22470174846E+03  0.23384884189E+03  0.00000000000E+00 0.  1.
         13    1    3    3    0    0 -0.16589954697E+02  0.59721329663E+02  0.36753942980E+03  0.37272925330E+03  0.00000000000E+00 0. -1.
         21    1    1    2  503  502 -0.57982561543E+02 -0.12819616488E+02  0.27014510651E+03  0.27659482747E+03  0.00000000000E+00 0. -1.
          3    1    1    2  501    0 -0.61300475373E+02 -0.33196010806E+02  0.10326191066E+03  0.12459031105E+03  0.00000000000E+00 0. -1.
<scales pt_clust_5="13000.00000" pt_clust_6="13000.00000" pt_clust_7="13000.00000" pt_clust_8="13000.00000" pt_clust_9="59.38283" pt_clust_10="73.75661"></scales>
<clustering>
<clus scale="   59.383">  1  9  2 -1</clus>
<clus scale="   73.757">  2 10  1 -1</clus>
<clus scale="   87.730">  5  6 -1 -1</clus>
<clus scale="   92.964">  7  8 -1 -1</clus>
<clus scale="  160.952">  2  5  1 -1</clus>
<clus scale="   73.757">  2  5  1 -1</clus>
</clustering>
</event>
<event>
10    2  0.1671105E-006  0.1030904E+03  0.7546771E-02  0.1275480E+00
         21   -1    0    0  501  502  0.00000000000E+00  0.00000000000E+00  0.18148768236E+02  0.18148768236E+02  0.00000000000E+00 0.  1.
          1   -1    0    0  503    0 -0.00000000000E+00 -0.00000000000E+00 -0.97736596584E+03  0.97736596584E+03  0.00000000000E+00 0. -1.
         23    2    1    2    0    0 -0.16940877916E+02  0.33962862544E+02 -0.38382582486E+03  0.39738649644E+03  0.95672850605E+02 0.  0.
         23    2    1    2    0    0  0.24538874456E+02 -0.33331983615E+02 -0.36439628961E+03  0.37820200157E+03  0.92406280206E+02 0.  0.
        -11    1    4    4    0    0 -0.35063943280E+02 -0.56025094913E+01 -0.12577225526E+03  0.13068866984E+03  0.00000000000E+00 0. -1.
         11    1    4    4    0    0  0.59602817736E+02 -0.27729474124E+02 -0.23862403434E+03  0.24751333173E+03  0.00000000000E+00 0.  1.
        -13    1    3    3    0    0 -0.36734129748E+02  0.57135680658E+02 -0.20439880351E+03  0.21538977035E+03  0.00000000000E+00 0. -1.
         13    1    3    3    0    0  0.19793251831E+02 -0.23172818114E+02 -0.17942702135E+03  0.18199672609E+03  0.00000000000E+00 0.  1.
         21    1    1    2  503  502 -0.10160080844E+01 -0.27195054683E+02 -0.15753455250E+03  0.15986787827E+03  0.00000000000E+00 0. -1.
          1    1    1    2  501    0 -0.65819884558E+01  0.26564175754E+02 -0.53460530640E+02  0.60058357802E+02  0.00000000000E+00 0. -1.
<scales pt_clust_5="13000.00000" pt_clust_6="13000.00000" pt_clust_7="13000.00000" pt_clust_8="13000.00000" pt_clust_9="27.21403" pt_clust_10="25.55959"></scales>
<clustering>
<clus scale="   27.214">  2  9  1 -1</clus>
<clus scale="   25.560">  1 10  2 -1</clus>
<clus scale="   92.406">  5  6 -1 -1</clus>
<clus scale="   95.673">  7  8 -1 -1</clus>
<clus scale="  100.066">  1  5  2 -1</clus>
<clus scale="   25.560">  1  5  2 -1</clus>
</clustering>
</event>
<event>
10    2  0.1671105E-006  0.3147746E+03  0.7546771E-02  0.1083374E+00
          1   -1    0    0  503    0 -0.00000000000E+00  0.00000000000E+00  0.10695004104E+04  0.10695004104E+04  0.00000000000E+00 0. -1.
         21   -1    0    0  501  502  0.00000000000E+00 -0.00000000000E+00 -0.13377536876E+04  0.13377536876E+04  0.00000000000E+00 0. -1.
         23    2    1    2    0    0  0.19841167052E+03 -0.12422680929E+03  0.43558776384E+02  0.26519585358E+03  0.11675608170E+03 0.  0.
         23    2    1    2    0    0 -0.45520378768E+03  0.29608438757E+03  0.78755503926E+03  0.96097575914E+03  0.91405781575E+02 0.  0.
        -13    1    4    4    0    0 -0.11616001994E+03  0.31390908142E+02  0.16145519490E+03  0.20136116633E+03  0.00000000000E+00 0.  1.
         13    1    4    4    0    0 -0.33904376774E+03  0.26469347943E+03  0.62609984437E+03  0.75961459281E+03  0.00000000000E+00 0. -1.
        -13    1    3    3    0    0  0.41279433102E+02 -0.63140051332E+02 -0.30097935183E+02  0.81219107245E+02  0.00000000000E+00 0.  1.
         13    1    3    3    0    0  0.15713223742E+03 -0.61086757954E+02  0.73656711567E+02  0.18397674634E+03  0.00000000000E+00 0. -1.
         21    1    1    2  503  502  0.12211871310E+03 -0.13175272919E+03 -0.98112191549E+03  0.99743269186E+03  0.00000000000E+00 0. -1.
          1    1    1    2  501    0  0.13467340405E+03 -0.40104849098E+02 -0.11824517731E+03  0.18364979346E+03  0.00000000000E+00 0. -1.
<scales pt_clust_5="13000.00000" pt_clust_6="13000.00000" pt_clust_7="13000.00000" pt_clust_8="13000.00000" pt_clust_9="301.21094" pt_clust_10="140.51806"></scales>
<clustering>
<clus scale="   91.406">  5  6 -1 -1</clus>
<clus scale="  116.756">  7  8 -1 -1</clus>
<clus scale="  140.518">  2 10  1 -1</clus>
<clus scale="  272.991">  1  7  2 -1</clus>
<clus scale="  301.211">  2  9  1 -1</clus>
<clus scale="  140.518">  2  5  1 -1</clus>
</clustering>
</event>
<event>
10    2  0.1671105E-006  0.1213476E+03  0.7546771E-02  0.1259296E+00
         21   -1    0    0  503  502  0.00000000000E+00  0.00000000000E+00  0.24231101448E+03  0.24231101448E+03  0.00000000000E+00 0. -1.
          3   -1    0    0  502    0 -0.00000000000E+00 -0.00000000000E+00 -0.24264377472E+03  0.24264377472E+03  0.00000000000E+00 0. -1.
         23    2    1    2    0    0  0.18825247022E+02  0.12846263781E+01 -0.14085750198E+02  0.85186345318E+02  0.81867361504E+02 0.  0.
         23    2    1    2    0    0  0.35445594108E+02  0.58775557854E+02 -0.16443796589E+03  0.20011144829E+03  0.91070251834E+02 0.  0.
        -11    1    4    4    0    0  0.62139625312E+02  0.17440074725E+02 -0.10033900898E+03  0.11930383885E+03  0.00000000000E+00 0. -1.
         11    1    4    4    0    0 -0.26694031205E+02  0.41335483129E+02 -0.64098956905E+02  0.80807609443E+02  0.00000000000E+00 0.  1.
        -11    1    3    3    0    0 -0.22306340586E+02 -0.24011961726E+02  0.52102804876E+01  0.33185752350E+02  0.00000000000E+00 0.  1.
         11    1    3    3    0    0  0.41131587607E+02  0.25296588105E+02 -0.19296030686E+02  0.52000592968E+02  0.00000000000E+00 0. -1.
         21    1    1    2  503  501 -0.46740546206E+02 -0.28714569376E+02  0.13533254595E+03  0.14602774787E+03  0.00000000000E+00 0. -1.
          3    1    1    2  501    0 -0.75302949232E+01 -0.31345614856E+02  0.42858409895E+02  0.53629247720E+02  0.00000000000E+00 0. -1.
<scales pt_clust_5="13000.00000" pt_clust_6="13000.00000" pt_clust_7="13000.00000" pt_clust_8="13000.00000" pt_clust_9="30.26215" pt_clust_10="89.38563"></scales>
<clustering>
<clus scale="   30.262">  9 10 -1 -1</clus>
<clus scale="   81.867">  7  8 -1 -1</clus>
<clus scale="   84.014">  2  7  1 -1</clus>
<clus scale="   89.386">  1  9  2 -1</clus>
<clus scale="   91.070">  5  6 -1 -1</clus>
<clus scale="   89.386">  1  5  2 -1</clus>
</clustering>
</event>
<event>
10    2  0.1671105E-006  0.1010570E+03  0.7546771E-02  0.1279576E+00
         21   -1    0    0  501  502  0.00000000000E+00  0.00000000000E+00  0.17609355035E+03  0.17609355035E+03  0.00000000000E+00 0. -1.
          2   -1    0    0  503    0 -0.00000000000E+00 -0.00000000000E+00 -0.73689385979E+03  0.73689385979E+03  0.00000000000E+00 0. -1.
         23    2    1    2    0    0  0.16330892294E+02 -0.35353263787E+02 -0.33054777269E+03  0.34510002159E+03  0.91190150632E+02 0.  0.
         23    2    1    2    0    0 -0.51960248406E+02  0.18880617207E+02 -0.35981354077E+03  0.37453295580E+03  0.88050018415E+02 0.  0.
        -11    1    4    4    0    0 -0.59505145363E+02 -0.77635544275E+01 -0.32267031703E+03  0.32820309047E+03  0.00000000000E+00 0. -1.
         11    1    4    4    0    0  0.75448969574E+01  0.26644171634E+02 -0.37143223737E+02  0.46329865333E+02  0.00000000000E+00 0.  1.
        -13    1    3    3    0    0 -0.22189826079E+02  0.18830133883E+02 -0.14774092949E+03  0.15058002713E+03  0.00000000000E+00 0. -1.
         13    1    3    3    0    0  0.38520718374E+02 -0.54183397670E+02 -0.18280684319E+03  0.19451999446E+03  0.00000000000E+00 0.  1.
         21    1    1    2  503  502  0.27321460197E+02 -0.56875845836E+02  0.31241983307E+02  0.70408703636E+02  0.00000000000E+00 0. -1.
          2    1    1    2  501    0  0.83078959144E+01  0.73348492415E+02  0.98319020701E+02  0.12294572911E+03  0.00000000000E+00 0. -1.
<scales pt_clust_5="13000.00000" pt_clust_6="13000.00000" pt_clust_7="13000.00000" pt_clust_8="13000.00000" pt_clust_9="63.09773" pt_clust_10="39.83222"></scales>
<clustering>
<clus scale="   63.098">  1  9  2 -1</clus>
<clus scale="   39.832">  1 10  2 -1</clus>
<clus scale="   88.050">  5  6 -1 -1</clus>
<clus scale="   91.190">  7  8 -1 -1</clus>
<clus scale="   98.233">  1  5  2 -1</clus>
<clus scale="   63.098">  1  5  2 -1</clus>
</clustering>
</event>
<event>
10    2  0.1671105E-006  0.1177225E+03  0.7546771E-02  0.1257699E+00
         21   -1    0    0  501  502  0.00000000000E+00  0.00000000000E+00  0.43673142225E+02  0.43673142225E+02  0.00000000000E+00 0.  1.
          2   -1    0    0  503    0 -0.00000000000E+00 -0.00000000000E+00 -0.70776618020E+03  0.70776618020E+03  0.00000000000E+00 0. -1.
         23    2    1    2    0    0  0.26588924250E+02  0.17635619435E+02 -0.37925780299E+03  0.39760652245E+03  0.11504990046E+03 0.  0.
         23    2    1    2    0    0  0.13924043715E+01 -0.23083203817E+02 -0.23568422123E+03  0.25392281675E+03  0.91624077836E+02 0.  0.
        -13    1    4    4    0    0 -0.20346709115E+02 -0.52865039529E+02 -0.12441196021E+03  0.13670053701E+03  0.00000000000E+00 0.  1.
         13    1    4    4    0    0  0.21739113486E+02  0.29781835712E+02 -0.11127226102E+03  0.11722227974E+03  0.00000000000E+00 0. -1.
        -13    1    3    3    0    0 -0.33537830233E+02  0.35463714296E+02 -0.23949094250E+03  0.24441434620E+03  0.00000000000E+00 0. -1.
         13    1    3    3    0    0  0.60126754483E+02 -0.17828094860E+02 -0.13976686049E+03  0.15319217624E+03  0.00000000000E+00 0.  1.
         21    1    1    2  503  502  0.19489780268E+02  0.45779489774E+01 -0.48452579764E+02  0.52425772646E+02  0.00000000000E+00 0.  1.
          2    1    1    2  501    0 -0.47471108890E+02  0.86963540454E+00 -0.69843398795E+00  0.47484210587E+02  0.00000000000E+00 0. -1.
<scales pt_clust_5="13000.00000" pt_clust_6="13000.00000" pt_clust_7="13000.00000" pt_clust_8="13000.00000" pt_clust_9="20.02022" pt_clust_10="46.76831"></scales>
<clustering>
<clus scale="   20.020">  2  9  1 -1</clus>
<clus scale="   46.768">  1 10  2 -1</clus>
<clus scale="   91.624">  5  6 -1 -1</clus>
<clus scale="   94.958">  1  5  2 -1</clus>
<clus scale="  115.050">  7  8 -1 -1</clus>
<clus scale="   46.768">  1  5  2 -1</clus>
</clustering>
</event>
<event>
10    2  0.1671105E-006  0.2623022E+03  0.7546771E-02  0.1136670E+00
         21   -1    0    0  503  502  0.00000000000E+00  0.00000000000E+00  0.14297472102E+03  0.14297472102E+03  0.00000000000E+00 0. -1.
          2   -1    0    0  502    0 -0.00000000000E+00 -0.00000000000E+00 -0.87386748293E+03  0.87386748293E+03  0.00000000000E+00 0. -1.
         23    2    1    2    0    0  0.15590262129E+01 -0.10191114581E+03 -0.32758027273E+03  0.34931531030E+03  0.65757423298E+02 0.  0.
         23    2    1    2    0    0 -0.86510769836E+02 -0.15121615914E+03 -0.29090384119E+03  0.35076045362E+03  0.89763082184E+02 0.  0.
        -11    1    3    3    0    0 -0.26346988382E+02 -0.82596730805E+02 -0.25102184804E+03  0.26557174536E+03  0.00000000000E+00 0.  1.
         11    1    3    3    0    0  0.27906014594E+02 -0.19314415009E+02 -0.76558424690E+02  0.83743564939E+02  0.00000000000E+00 0. -1.
        -13    1    4    4    0    0 -0.34214371848E+02  0.94460050090E+00 -0.39364269010E+02  0.52163791904E+02  0.00000000000E+00 0.  1.
         13    1    4    4    0    0 -0.52296397988E+02 -0.15216075964E+03 -0.25153957218E+03  0.29859666171E+03  0.00000000000E+00 0. -1.
         21    1    1    2  503  501  0.64835026413E+02  0.92629501750E+02  0.10589366058E+02  0.11356029199E+03  0.00000000000E+00 0. -1.
          2    1    1    2  501    0  0.20116717211E+02  0.16049780320E+03 -0.12299801405E+03  0.20320614804E+03  0.00000000000E+00 0. -1.
<scales pt_clust_5="13000.00000" pt_clust_6="13000.00000" pt_clust_7="13000.00000" pt_clust_8="13000.00000" pt_clust_9="107.11716" pt_clust_10="107.11716"></scales>
<clustering>
<clus scale="   65.757">  5  6 -1 -1</clus>
<clus scale="   89.763">  7  8 -1 -1</clus>
<clus scale="  107.117">  9 10 -1 -1</clus>
<clus scale="  121.294">  2  5  1 -1</clus>
<clus scale="  245.855">  2  7  1 -1</clus>
<clus scale="  262.302">  1  5  2 -1</clus>
</clustering>
</event>
<event>
10    2  0.1671105E-006  0.1533047E+03  0.7546771E-02  0.1212100E+00
         21   -1    0    0  501  502  0.00000000000E+00  0.00000000000E+00  0.20505008724E+03  0.20505008724E+03  0.00000000000E+00 0.  1.
         -4   -1    0    0    0  501 -0.00000000000E+00 -0.00000000000E+00 -0.38911114126E+03  0.38911114126E+03  0.00000000000E+00 0.  1.
         23    2    1    2    0    0  0.18234837858E+02 -0.57884606509E+02 -0.21295311761E+03  0.23943059925E+03  0.91076037330E+02 0.  0.
         23    2    1    2    0    0 -0.98656750919E+02  0.13761670207E+03 -0.64509104167E+02  0.20301626537E+03  0.91556912878E+02 0.  0.
        -11    1    3    3    0    0  0.28660789620E+02 -0.74960364883E+02 -0.20024695672E+03  0.21572978663E+03  0.00000000000E+00 0. -1.
         11    1    3    3    0    0 -0.10425951761E+02  0.17075758374E+02 -0.12706160889E+02  0.23700812617E+02  0.00000000000E+00 0.  1.
        -11    1    4    4    0    0 -0.60698940374E+02  0.16168874973E+02 -0.36770648199E+02  0.72786499087E+02  0.00000000000E+00 0.  1.
         11    1    4    4    0    0 -0.37957810544E+02  0.12144782709E+03 -0.27738455968E+02  0.13022976628E+03  0.00000000000E+00 0. -1.
         21    1    1    2  503  502  0.38256238362E+02 -0.13087537057E+02  0.26996545115E+02  0.48617248462E+02  0.00000000000E+00 0.  1.
         -4    1    1    2    0  503  0.42165674698E+02 -0.66644558501E+02  0.66404622633E+02  0.10309711542E+03  0.00000000000E+00 0.  1.
<scales pt_clust_5="13000.00000" pt_clust_6="13000.00000" pt_clust_7="13000.00000" pt_clust_8="13000.00000" pt_clust_9="27.43965" pt_clust_10="128.79539"></scales>
<clustering>
<clus scale="   27.440">  9 10 -1 -1</clus>
<clus scale="   91.076">  5  6 -1 -1</clus>
<clus scale="   91.557">  7  8 -1 -1</clus>
<clus scale="  109.444">  2  5  1 -1</clus>
<clus scale="  128.795">  1  9  2 -1</clus>
<clus scale="  128.795">  1  5  2 -1</clus>
</clustering>
</event>
<event>
10    2  0.1671105E-006  0.1037254E+03  0.7546771E-02  0.1276842E+00
         21   -1    0    0  503  502  0.00000000000E+00  0.00000000000E+00  0.28853275929E+03  0.28853275929E+03  0.00000000000E+00 0.  1.
          1   -1    0    0  502    0 -0.00000000000E+00 -0.00000000000E+00 -0.27151982565E+03  0.27151982565E+03  0.00000000000E+00 0. -1.
         23    2    1    2    0    0 -0.25618920845E+02  0.32232105425E+01 -0.21763512958E+03  0.24125182799E+03  0.10084977288E+03 0.  0.
         23    2    1    2    0    0 -0.17387562700E+02 -0.79203349602E+02  0.15084696437E+03  0.19468585656E+03  0.92586598162E+02 0.  0.
        -13    1    4    4    0    0  0.99336680177E+01 -0.82837154149E+02  0.14377935698E+03  0.16623229338E+03  0.00000000000E+00 0.  1.
         13    1    4    4    0    0 -0.27321230718E+02  0.36338045463E+01  0.70676073883E+01  0.28453563180E+02  0.00000000000E+00 0. -1.
        -13    1    3    3    0    0  0.15104007099E+02 -0.30973122445E+02 -0.28300368371E+02  0.44591212076E+02  0.00000000000E+00 0.  1.
         13    1    3    3    0    0 -0.40722927944E+02  0.34196332988E+02 -0.18933476121E+03  0.19666061592E+03  0.00000000000E+00 0. -1.
         21    1    1    2  503  501  0.22627223930E+02  0.23511936564E+02  0.17107990450E+02  0.36844073622E+02  0.00000000000E+00 0.  1.
          1    1    1    2  501    0  0.20379259615E+02  0.52468202495E+02  0.66693108409E+02  0.87270826768E+02  0.00000000000E+00 0. -1.
<scales pt_clust_5="13000.00000" pt_clust_6="13000.00000" pt_clust_7="13000.00000" pt_clust_8="13000.00000" pt_clust_9="20.98132" pt_clust_10="91.55263"></scales>
<clustering>
<clus scale="   20.981">  9 10 -1 -1</clus>
<clus scale="   91.553">  1  9  2 -1</clus>
<clus scale="   92.587">  5  6 -1 -1</clus>
<clus scale="   95.711">  1  5  2 -1</clus>
<clus scale="  100.850">  7  8 -1 -1</clus>
<clus scale="   91.553">  1  5  2 -1</clus>
</clustering>
</event>
<event>
10    2  0.1671105E-006  0.1482997E+03  0.7546771E-02  0.1214000E+00
          2   -1    0    0  503    0 -0.00000000000E+00  0.00000000000E+00  0.17693055125E+04  0.17693055125E+04  0.00000000000E+00 0. -1.
         21   -1    0    0  501  502  0.00000000000E+00 -0.00000000000E+00 -0.43945883135E+02  0.43945883135E+02  0.00000000000E+00 0. -1.
         23    2    1    2    0    0 -0.47471084557E+02 -0.56961196599E+02  0.61396634847E+03  0.62525767314E+03  0.92165063766E+02 0.  0.
         23    2    1    2    0    0  0.12052176440E+03 -0.85605640545E+02  0.25045852902E+03  0.30497592437E+03  0.91798792478E+02 0.  0.
        -13    1    4    4    0    0  0.10783072301E+03 -0.42611277957E+02  0.11926513769E+03  0.16633508019E+03  0.00000000000E+00 0. -1.
         13    1    4    4    0    0  0.12691041389E+02 -0.42994362588E+02  0.13119339133E+03  0.13864084418E+03  0.00000000000E+00 0.  1.
        -13    1    3    3    0    0  0.27605276613E+02 -0.20138507454E+02  0.15313154058E+03  0.15689767207E+03  0.00000000000E+00 0.  1.
         13    1    3    3    0    0 -0.75076361170E+02 -0.36822689145E+02  0.46083480789E+03  0.46836000107E+03  0.00000000000E+00 0. -1.
         21    1    1    2  503  502 -0.57591483818E+02  0.97406538424E+02  0.78646058881E+03  0.79455967082E+03  0.00000000000E+00 0. -1.
          2    1    1    2  501    0 -0.15459196027E+02  0.45160298720E+02  0.74474163057E+02  0.88458127300E+02  0.00000000000E+00 0. -1.
<scales pt_clust_5="13000.00000" pt_clust_6="13000.00000" pt_clust_7="13000.00000" pt_clust_8="13000.00000" pt_clust_9="116.47226" pt_clust_10="47.73300"></scales>
<clustering>
<clus scale="   47.733">  2 10  1 -1</clus>
<clus scale="   91.799">  5  6 -1 -1</clus>
<clus scale="   92.165">  7  8 -1 -1</clus>
<clus scale="  116.120">  1  7  2 -1</clus>
<clus scale="  116.472">  1  9  2 -1</clus>
<clus scale="   47.733">  2  5  1 -1</clus>
</clustering>
</event>
<event>
10    2  0.1671105E-006  0.1003725E+03  0.7546771E-02  0.1280413E+00
         21   -1    0    0  501  502  0.00000000000E+00  0.00000000000E+00  0.13918666169E+03  0.13918666169E+03  0.00000000000E+00 0.  1.
          3   -1    0    0  503    0 -0.00000000000E+00 -0.00000000000E+00 -0.14479188630E+03  0.14479188630E+03  0.00000000000E+00 0. -1.
         23    2    1    2    0    0  0.90452702598E+01  0.38178930750E+02 -0.68055970423E+02  0.11973103223E+03  0.90357386533E+02 0.  0.
         23    2    1    2    0    0 -0.35755912791E+02 -0.30741438193E+02  0.33227226823E+02  0.10876874288E+03  0.92212089791E+02 0.  0.
        -11    1    3    3    0    0 -0.11819774473E+02  0.48795086357E+02 -0.79224128835E+02  0.93793017388E+02  0.00000000000E+00 0. -1.
         11    1    3    3    0    0  0.20865044733E+02 -0.10616155607E+02  0.11168158411E+02  0.25938014841E+02  0.00000000000E+00 0.  1.
        -11    1    4    4    0    0 -0.81582478656E+01 -0.61368112414E+02  0.24794722060E+02  0.66688683235E+02  0.00000000000E+00 0.  1.
         11    1    4    4    0    0 -0.27597664925E+02  0.30626674221E+02  0.84325047629E+01  0.42080059646E+02  0.00000000000E+00 0. -1.
         21    1    1    2  503  502  0.16103814612E+02  0.12503797315E+02  0.25816093205E+01  0.20550973189E+02  0.00000000000E+00 0. -1.
          3    1    1    2  501    0  0.10606827919E+02 -0.19941289871E+02  0.26641909674E+02  0.34927799692E+02  0.00000000000E+00 0. -1.
<scales pt_clust_5="13000.00000" pt_clust_6="13000.00000" pt_clust_7="13000.00000" pt_clust_8="13000.00000" pt_clust_9="20.38818" pt_clust_10="22.28139"></scales>
<clustering>
<clus scale="   20.388">  1  9  2 -1</clus>
<clus scale="   22.281">  1 10  2 -1</clus>
<clus scale="   90.357">  5  6 -1 -1</clus>
<clus scale="   92.212">  7  8 -1 -1</clus>
<clus scale="   98.671">  2  5  1 -1</clus>
<clus scale="   20.388">  1  5  2 -1</clus>
</clustering>
</event>
<event>
10    2  0.1671105E-006  0.2101101E+03  0.7546771E-02  0.1168084E+00
         21   -1    0    0  501  502  0.00000000000E+00  0.00000000000E+00  0.92874351766E+03  0.92874351766E+03  0.00000000000E+00 0. -1.
          1   -1    0    0  503    0 -0.00000000000E+00 -0.00000000000E+00 -0.35749960286E+03  0.35749960286E+03  0.00000000000E+00 0. -1.
         23    2    1    2    0    0 -0.94369269462E+01 -0.70704638077E+02  0.10367123000E+01  0.11242008398E+03  0.86884976115E+02 0.  0.
         23    2    1    2    0    0 -0.54814626929E+02 -0.11107073998E+03 -0.24629073587E+03  0.29135057634E+03  0.94258576035E+02 0.  0.
        -11    1    4    4    0    0 -0.25650443605E+02 -0.27477728568E+02 -0.17114593665E+03  0.17522529057E+03  0.00000000000E+00 0.  1.
         11    1    4    4    0    0 -0.29164183324E+02 -0.83593011416E+02 -0.75144799222E+02  0.11612528578E+03  0.00000000000E+00 0. -1.
        -11    1    3    3    0    0  0.23895508486E+02  0.76123502085E+01  0.96475489045E+01  0.26870400097E+02  0.00000000000E+00 0.  1.
         11    1    3    3    0    0 -0.33332435432E+02 -0.78316988285E+02 -0.86108366045E+01  0.85549683886E+02  0.00000000000E+00 0. -1.
         21    1    1    2  503  502 -0.87837422113E+02  0.14979037547E+02  0.11456180067E+03  0.14513507661E+03  0.00000000000E+00 0. -1.
          1    1    1    2  501    0  0.15208897599E+03  0.16679634051E+03  0.70193613769E+03  0.73733738358E+03  0.00000000000E+00 0. -1.
<scales pt_clust_5="13000.00000" pt_clust_6="13000.00000" pt_clust_7="13000.00000" pt_clust_8="13000.00000" pt_clust_9="89.10547" pt_clust_10="187.78067"></scales>
<clustering>
<clus scale="   86.885">  7  8 -1 -1</clus>
<clus scale="   89.105">  1  9  2 -1</clus>
<clus scale="   94.259">  5  6 -1 -1</clus>
<clus scale="  112.448">  2  7  1 -1</clus>
<clus scale="  187.781">  1 10  2 -1</clus>
<clus scale="   89.105">  1  5  2 -1</clus>
</clustering>
</event>
<event>
10    2  0.1671105E-006  0.1676722E+03  0.7546771E-02  0.1196130E+00
         21   -1    0    0  501  502  0.00000000000E+00  0.00000000000E+00  0.21327937060E+03  0.21327937060E+03  0.00000000000E+00 0.  1.
         -1   -1    0    0    0  501 -0.00000000000E+00 -0.00000000000E+00 -0.42988816077E+03  0.42988816077E+03  0.00000000000E+00 0.  1.
         23    2    1    2    0    0 -0.30674873604E+02  0.75887505114E+02 -0.92742579285E+02  0.15349395985E+03  0.90880957278E+02 0.  0.
         23    2    1    2    0    0 -0.62292045258E+02  0.65697713386E+02 -0.23183120340E+03  0.26539640183E+03  0.92157771166E+02 0.  0.
        -13    1    3    3    0    0 -0.55501697227E+02  0.79694517042E+02 -0.75812039784E+02  0.12320357064E+03  0.00000000000E+00 0.  1.
         13    1    3    3    0    0  0.24826823622E+02 -0.38070119283E+01 -0.16930539501E+02  0.30290389215E+02  0.00000000000E+00 0. -1.
        -13    1    4    4    0    0 -0.71234358810E+02  0.10503209277E+02 -0.14862230894E+03  0.16514612316E+03  0.00000000000E+00 0. -1.
         13    1    4    4    0    0  0.89423135516E+01  0.55194504109E+02 -0.83208894458E+02  0.10025027867E+03  0.00000000000E+00 0.  1.
         21    1    1    2  503  502  0.62622621056E+02 -0.17768863972E+02  0.15843335381E+02  0.66995048107E+02  0.00000000000E+00 0.  1.
         -1    1    1    2    0  503  0.30344297806E+02 -0.12381635453E+03  0.92121657138E+02  0.15728212159E+03  0.00000000000E+00 0.  1.
<scales pt_clust_5="13000.00000" pt_clust_6="13000.00000" pt_clust_7="13000.00000" pt_clust_8="13000.00000" pt_clust_9="65.09474" pt_clust_10="140.07467"></scales>
<clustering>
<clus scale="   65.095">  1  9  2 -1</clus>
<clus scale="   90.881">  5  6 -1 -1</clus>
<clus scale="   92.158">  7  8 -1 -1</clus>
<clus scale="  118.050">  2  5  1 -1</clus>
<clus scale="  140.075">  1 10  2 -1</clus>
<clus scale="   65.095">  1  5  2 -1</clus>
</clustering>
</event>
<event>
10    2  0.1671105E-006  0.2651962E+03  0.7546771E-02  0.1137667E+00
         21   -1    0    0  503  502  0.00000000000E+00  0.00000000000E+00  0.30762530788E+03  0.30762530788E+03  0.00000000000E+00 0. -1.
          3   -1    0    0  502    0 -0.00000000000E+00 -0.00000000000E+00 -0.33405573271E+03  0.33405573271E+03  0.00000000000E+00 0. -1.
         23    2    1    2    0    0  0.53600130278E+02 -0.42915672153E+02 -0.39079720917E+02  0.12104608655E+03  0.91707151306E+02 0.  0.
         23    2    1    2    0    0  0.10821172405E+03 -0.17520144228E+03 -0.48691250132E+02  0.23710869198E+03  0.10697836872E+03 0.  0.
        -13    1    3    3    0    0  0.70052890996E+02 -0.14106066639E+02 -0.48731994918E+02  0.86493907193E+02  0.00000000000E+00 0.  1.
         13    1    3    3    0    0 -0.16452760718E+02 -0.28809605514E+02  0.96522740009E+01  0.34552179359E+02  0.00000000000E+00 0. -1.
        -13    1    4    4    0    0  0.30851662168E+02 -0.66026778191E+02  0.33358273768E+02  0.80150701342E+02  0.00000000000E+00 0.  1.
         13    1    4    4    0    0  0.77360061882E+02 -0.10917466409E+03 -0.82049523901E+02  0.15695799064E+03  0.00000000000E+00 0. -1.
         21    1    1    2  503  501 -0.18394245153E+02  0.44470648260E+02 -0.59072514158E+01  0.48485899298E+02  0.00000000000E+00 0.  1.
          3    1    1    2  501    0 -0.14341760918E+03  0.17364646618E+03  0.67247797628E+02  0.23504036275E+03  0.00000000000E+00 0. -1.
<scales pt_clust_5="13000.00000" pt_clust_6="13000.00000" pt_clust_7="13000.00000" pt_clust_8="13000.00000" pt_clust_9="24.74847" pt_clust_10="248.49748"></scales>
<clustering>
<clus scale="   24.748">  9 10 -1 -1</clus>
<clus scale="   91.707">  5  6 -1 -1</clus>
<clus scale="  106.978">  7  8 -1 -1</clus>
<clus scale="  114.564">  2  5  1 -1</clus>
<clus scale="  248.497">  1  9  2 -1</clus>
<clus scale="  248.497">  1  5  2 -1</clus>
</clustering>
</event>
<event>
10    2  0.2541122E-006  0.9607939E+02  0.7546771E-02  0.1289027E+00
         -1   -1    0    0    0  501 -0.00000000000E+00  0.00000000000E+00  0.64044036370E+03  0.64044036370E+03  0.00000000000E+00 0.  1.
         21   -1    0    0  503  502  0.00000000000E+00 -0.00000000000E+00 -0.30432701998E+03  0.30432701998E+03  0.00000000000E+00 0.  1.
         23    2    1    2    0    0  0.12245138732E+01  0.35116578109E+02  0.36154533899E+03  0.37515811363E+03  0.93775820882E+02 0.  0.
         23    2    1    2    0    0  0.60581167342E+02  0.43020176609E+02  0.21177881275E+03  0.24305176362E+03  0.93290304091E+02 0.  0.
        -11    1    4    4    0    0  0.45438216083E+02  0.60095090394E+02  0.20623554059E+03  0.21956582060E+03  0.00000000000E+00 0. -1.
         11    1    4    4    0    0  0.15142951259E+02 -0.17074913785E+02  0.55432721588E+01  0.23485943026E+02  0.00000000000E+00 0.  1.
        -11    1    3    3    0    0 -0.41438356583E+02  0.67797971805E+00  0.10636239222E+03  0.11415145873E+03  0.00000000000E+00 0. -1.
         11    1    3    3    0    0  0.42662870457E+02  0.34438598391E+02  0.25518294677E+03  0.26100665489E+03  0.00000000000E+00 0.  1.
         21    1    1    2  503  501 -0.18722739074E+02 -0.73031276718E+02  0.95647944480E+01  0.75997326468E+02  0.00000000000E+00 0. -1.
         -1    1    1    2    0  502 -0.43082942141E+02 -0.51054779999E+01 -0.24677560247E+03  0.25056017996E+03  0.00000000000E+00 0.  1.
<scales pt_clust_5="13000.00000" pt_clust_6="13000.00000" pt_clust_7="13000.00000" pt_clust_8="13000.00000" pt_clust_9="88.10359" pt_clust_10="43.38440"></scales>
<clustering>
<clus scale="   43.384">  2 10  1 -1</clus>
<clus scale="   88.104">  2  9  1 -1</clus>
<clus scale="   93.290">  5  6 -1 -1</clus>
<clus scale="   93.776">  7  8 -1 -1</clus>
<clus scale="   95.606">  2  5  1 -1</clus>
<clus scale="   43.384">  2  5  1 -1</clus>
</clustering>
</event>
<event>
10    2  0.1671105E-006  0.1556942E+03  0.7546771E-02  0.1194119E+00
          1   -1    0    0  502    0 -0.00000000000E+00  0.00000000000E+00  0.82004294547E+03  0.82004294547E+03  0.00000000000E+00 0. -1.
         21   -1    0    0  503  502  0.00000000000E+00 -0.00000000000E+00 -0.74751989239E+02  0.74751989239E+02  0.00000000000E+00 0. -1.
         23    2    1    2    0    0 -0.13718269050E+02  0.84801036358E+02  0.21903173794E+03  0.25271972032E+03  0.92265639002E+02 0.  0.
         23    2    1    2    0    0 -0.58688196494E+02 -0.17621011246E+03  0.45539036760E+03  0.49988890778E+03  0.89522204403E+02 0.  0.
        -11    1    3    3    0    0 -0.26491489679E+02  0.10147111162E+03  0.17706786140E+03  0.20579410355E+03  0.00000000000E+00 0. -1.
         11    1    3    3    0    0  0.12773220629E+02 -0.16670075258E+02  0.41963876539E+02  0.46925616762E+02  0.00000000000E+00 0.  1.
        -11    1    4    4    0    0 -0.62392814260E+02 -0.50119458332E+02  0.17610080521E+03  0.19343297798E+03  0.00000000000E+00 0.  1.
         11    1    4    4    0    0  0.37046177665E+01 -0.12609065413E+03  0.27928956239E+03  0.30645592980E+03  0.00000000000E+00 0. -1.
         21    1    1    2  503  501  0.47668795933E+02  0.31558516484E+02  0.22856176769E+02  0.61568326962E+02  0.00000000000E+00 0. -1.
          1    1    1    2  501    0  0.24737669611E+02  0.59850559621E+02  0.48012673927E+02  0.80617979647E+02  0.00000000000E+00 0. -1.
<scales pt_clust_5="13000.00000" pt_clust_6="13000.00000" pt_clust_7="13000.00000" pt_clust_8="13000.00000" pt_clust_9="37.53785" pt_clust_10="123.26618"></scales>
<clustering>
<clus scale="   37.538">  9 10 -1 -1</clus>
<clus scale="   89.522">  7  8 -1 -1</clus>
<clus scale="   92.266">  5  6 -1 -1</clus>
<clus scale="  123.266">  2  9  1 -1</clus>
<clus scale="  154.084">  2  7  1 -1</clus>
<clus scale="  123.266">  2  5  1 -1</clus>
</clustering>
</event>
<event>
10    2  0.1671105E-006  0.5061889E+03  0.7546771E-02  0.1059586E+00
          2   -1    0    0  502    0 -0.00000000000E+00  0.00000000000E+00  0.10058539510E+04  0.10058539510E+04  0.00000000000E+00 0. -1.
         21   -1    0    0  503  502  0.00000000000E+00 -0.00000000000E+00 -0.45242846984E+03  0.45242846984E+03  0.00000000000E+00 0. -1.
         23    2    1    2    0    0  0.82666422776E+02 -0.25978632274E+02  0.81819233705E+02  0.15016256762E+03  0.91355256673E+02 0.  0.
         23    2    1    2    0    0 -0.32328932805E+03  0.49924675848E+03  0.21211429345E+03  0.63851688570E+03  0.94593997479E+02 0.  0.
        -13    1    3    3    0    0  0.29676638407E+02 -0.57154978346E+02  0.43583699290E+02  0.77762029684E+02  0.00000000000E+00 0.  1.
         13    1    3    3    0    0  0.52989784369E+02  0.31176346072E+02  0.38235534415E+02  0.72400537939E+02  0.00000000000E+00 0. -1.
        -13    1    4    4    0    0 -0.55403864674E+01  0.35969254741E+02  0.32318418766E+02  0.48671997703E+02  0.00000000000E+00 0.  1.
         13    1    4    4    0    0 -0.31774894158E+03  0.46327750374E+03  0.17979587468E+03  0.58984488800E+03  0.00000000000E+00 0. -1.
         21    1    1    2  503  501 -0.66790964741E+02 -0.18100445050E+03  0.73822084606E+02  0.20657527501E+03  0.00000000000E+00 0. -1.
          2    1    1    2  501    0  0.30741387001E+03 -0.29226367571E+03  0.18566986941E+03  0.46302769250E+03  0.00000000000E+00 0. -1.
<scales pt_clust_5="13000.00000" pt_clust_6="13000.00000" pt_clust_7="13000.00000" pt_clust_8="13000.00000" pt_clust_9="192.74833" pt_clust_10="497.27200"></scales>
<clustering>
<clus scale="   91.355">  5  6 -1 -1</clus>
<clus scale="   94.594">  7  8 -1 -1</clus>
<clus scale="  125.914">  1  5  2 -1</clus>
<clus scale="  192.748">  2  9  1 -1</clus>
<clus scale="  497.272">  2 10  1 -1</clus>
<clus scale="  192.748">  2  5  1 -1</clus>
</clustering>
</event>
<event>
10    2  0.1671105E-006  0.3018718E+03  0.7546771E-02  0.1084441E+00
         21   -1    0    0  501  502  0.00000000000E+00  0.00000000000E+00  0.37280798097E+03  0.37280798097E+03  0.00000000000E+00 0.  1.
          2   -1    0    0  503    0 -0.00000000000E+00 -0.00000000000E+00 -0.42115809494E+03  0.42115809494E+03  0.00000000000E+00 0. -1.
         23    2    1    2    0    0 -0.94203952795E+02 -0.21909591262E+03 -0.51610765515E+02  0.26074898887E+03  0.91918226862E+02 0.  0.
         23    2    1    2    0    0  0.13553860881E+03  0.34669860235E+03 -0.22500393920E+02  0.38325531500E+03  0.88361379550E+02 0.  0.
        -11    1    4    4    0    0  0.11697988125E+03  0.33454252876E+03 -0.37637044920E+02  0.35639801250E+03  0.00000000000E+00 0.  1.
         11    1    4    4    0    0  0.18558727554E+02  0.12156073591E+02  0.15136651000E+02  0.26857302490E+02  0.00000000000E+00 0. -1.
        -13    1    3    3    0    0 -0.28328309363E+02 -0.15419551633E+03 -0.60064173008E+02  0.16788822248E+03  0.00000000000E+00 0. -1.
         13    1    3    3    0    0 -0.65875643432E+02 -0.64900396287E+02  0.84534074929E+01  0.92860766387E+02  0.00000000000E+00 0.  1.
         21    1    1    2  503  502  0.11437266914E+02 -0.23741268185E+02  0.20423487835E+02  0.33340332104E+02  0.00000000000E+00 0.  1.
          2    1    1    2  501    0 -0.52771922926E+02 -0.10386142155E+03  0.53375576282E+01  0.11662143995E+03  0.00000000000E+00 0. -1.
<scales pt_clust_5="13000.00000" pt_clust_6="13000.00000" pt_clust_7="13000.00000" pt_clust_8="13000.00000" pt_clust_9="26.35259" pt_clust_10="119.37419"></scales>
<clustering>
<clus scale="   26.353">  1  9  2 -1</clus>
<clus scale="   88.361">  5  6 -1 -1</clus>
<clus scale="   91.918">  7  8 -1 -1</clus>
<clus scale="  119.374">  1 10  2 -1</clus>
<clus scale="  300.808">  1  5  2 -1</clus>
<clus scale="   26.353">  1  5  2 -1</clus>
</clustering>
</event>
<event>
10    2  0.1671105E-006  0.1604509E+03  0.7546771E-02  0.1209212E+00
         -1   -1    0    0    0  501 -0.00000000000E+00  0.00000000000E+00  0.44724030864E+03  0.44724030864E+03  0.00000000000E+00 0.  1.
         21   -1    0    0  501  502  0.00000000000E+00 -0.00000000000E+00 -0.21772587252E+03  0.21772587252E+03  0.00000000000E+00 0.  1.
         23    2    1    2    0    0  0.19376758150E+02 -0.43848265056E+02  0.80391242021E+02  0.12950165773E+03  0.89497477369E+02 0.  0.
         23    2    1    2    0    0  0.40714783113E+02  0.15787056063E+03  0.28594571008E+03  0.34179728114E+03  0.92084878257E+02 0.  0.
        -11    1    4    4    0    0  0.36864897000E+02  0.10024130537E+03  0.97203852714E+02  0.14441581948E+03  0.00000000000E+00 0. -1.
         11    1    4    4    0    0  0.38498861131E+01  0.57629255253E+02  0.18874185736E+03  0.19738146166E+03  0.00000000000E+00 0.  1.
        -11    1    3    3    0    0  0.38161469341E+02 -0.63126646762E+02  0.51187859171E+02  0.89785679260E+02  0.00000000000E+00 0.  1.
         11    1    3    3    0    0 -0.18784711190E+02  0.19278381706E+02  0.29203382850E+02  0.39715978467E+02  0.00000000000E+00 0. -1.
         21    1    1    2  503  502 -0.10614224744E+02 -0.41954625537E+02 -0.75027940579E+02  0.86614341990E+02  0.00000000000E+00 0.  1.
         -1    1    1    2    0  503 -0.49477316519E+02 -0.72067670032E+02 -0.61794575404E+02  0.10705290030E+03  0.00000000000E+00 0.  1.
<scales pt_clust_5="13000.00000" pt_clust_6="13000.00000" pt_clust_7="13000.00000" pt_clust_8="13000.00000" pt_clust_9="32.81025" pt_clust_10="139.42515"></scales>
<clustering>
<clus scale="   32.810">  9 10 -1 -1</clus>
<clus scale="   89.497">  7  8 -1 -1</clus>
<clus scale="   92.085">  5  6 -1 -1</clus>
<clus scale="  101.528">  1  7  2 -1</clus>
<clus scale="  139.425">  2  9  1 -1</clus>
<clus scale="  139.425">  2  5  1 -1</clus>
</clustering>
</event>
<event>
10    2  0.1671105E-006  0.1265740E+03  0.7546771E-02  0.1244413E+00
         21   -1    0    0  503  502  0.00000000000E+00  0.00000000000E+00  0.25214044670E+03  0.25214044670E+03  0.00000000000E+00 0. -1.
         -1   -1    0    0    0  501 -0.00000000000E+00 -0.00000000000E+00 -0.14874013723E+03  0.14874013723E+03  0.00000000000E+00 0.  1.
         23    2    1    2    0    0  0.21209256050E+02 -0.20500704522E+02 -0.70798207172E+02  0.12004876492E+03  0.92353713473E+02 0.  0.
         23    2    1    2    0    0 -0.36573548563E+02  0.71043396249E+02  0.85594832762E+02  0.16836281651E+03  0.12097426992E+03 0.  0.
        -11    1    3    3    0    0  0.42043224753E+02  0.23545242334E+02 -0.33520234398E+02  0.58699380731E+02  0.00000000000E+00 0.  1.
         11    1    3    3    0    0 -0.20833968702E+02 -0.44045946856E+02 -0.37277972774E+02  0.61349384190E+02  0.00000000000E+00 0. -1.
        -13    1    4    4    0    0 -0.45344046540E+01 -0.29062875693E+02  0.48839530979E+02  0.57013255962E+02  0.00000000000E+00 0. -1.
         13    1    4    4    0    0 -0.32039143909E+02  0.10010627194E+03  0.36755301782E+02  0.11134956055E+03  0.00000000000E+00 0.  1.
         21    1    1    2  503  501 -0.11015019604E+02 -0.36684112078E+02  0.39425373237E+02  0.54967397525E+02  0.00000000000E+00 0. -1.
         -1    1    1    2    0  502  0.26379312116E+02 -0.13858579649E+02  0.49178310641E+02  0.57501604978E+02  0.00000000000E+00 0.  1.
<scales pt_clust_5="13000.00000" pt_clust_6="13000.00000" pt_clust_7="13000.00000" pt_clust_8="13000.00000" pt_clust_9="40.25573" pt_clust_10="29.79813"></scales>
<clustering>
<clus scale="   29.798">  1 10  2 -1</clus>
<clus scale="   40.256">  1  9  2 -1</clus>
<clus scale="   92.354">  5  6 -1 -1</clus>
<clus scale="   99.576">  2  5  1 -1</clus>
<clus scale="  120.974">  7  8 -1 -1</clus>
<clus scale="   29.798">  1  5  2 -1</clus>
</clustering>
</event>
<event>
10    2  0.1671105E-006  0.1434808E+03  0.7546771E-02  0.1213815E+00
          1   -1    0    0  503    0 -0.00000000000E+00  0.00000000000E+00  0.64272260152E+03  0.64272260152E+03  0.00000000000E+00 0. -1.
         21   -1    0    0  501  502  0.00000000000E+00 -0.00000000000E+00 -0.19861297507E+03  0.19861297507E+03  0.00000000000E+00 0. -1.
         23    2    1    2    0    0  0.97186672179E+02 -0.41385534097E+02  0.46667519622E+03  0.48686761595E+03  0.89979581115E+02 0.  0.
         23    2    1    2    0    0  0.90785619559E+02 -0.39013432171E+02 -0.69083228991E+01  0.13532875612E+03  0.92206673838E+02 0.  0.
        -11    1    3    3    0    0  0.22375330546E+01 -0.29233806082E+02  0.40047453649E+02  0.49632857222E+02  0.00000000000E+00 0.  1.
         11    1    3    3    0    0  0.94949139124E+02 -0.12151728015E+02  0.42662774257E+03  0.43723475873E+03  0.00000000000E+00 0. -1.
        -13    1    4    4    0    0  0.31189590389E+02  0.21612245222E+02  0.23969314047E+02  0.44882153559E+02  0.00000000000E+00 0.  1.
         13    1    4    4    0    0  0.59596029170E+02 -0.60625677393E+02 -0.30877636946E+02  0.90446602565E+02  0.00000000000E+00 0. -1.
         21    1    1    2  503  502 -0.16552660485E+03  0.70623742082E+02 -0.40280923731E+02  0.18441616707E+03  0.00000000000E+00 0. -1.
          1    1    1    2  501    0 -0.22445686885E+02  0.97752241863E+01  0.24623676859E+02  0.34723037449E+02  0.00000000000E+00 0. -1.
<scales pt_clust_5="13000.00000" pt_clust_6="13000.00000" pt_clust_7="13000.00000" pt_clust_8="13000.00000" pt_clust_9="111.76053" pt_clust_10="24.48192"></scales>
<clustering>
<clus scale="   24.482">  2 10  1 -1</clus>
<clus scale="   89.980">  5  6 -1 -1</clus>
<clus scale="   92.207">  7  8 -1 -1</clus>
<clus scale="  128.722">  2  7  1 -1</clus>
<clus scale="  111.761">  2  9  1 -1</clus>
<clus scale="   24.482">  2  5  1 -1</clus>
</clustering>
</event>
<event>
10    2  0.1671105E-006  0.3119236E+03  0.7546771E-02  0.1091711E+00
          1   -1    0    0  503    0 -0.00000000000E+00  0.00000000000E+00  0.28049988288E+03  0.28049988288E+03  0.00000000000E+00 0. -1.
         21   -1    0    0  501  502  0.00000000000E+00 -0.00000000000E+00 -0.88750760749E+03  0.88750760749E+03  0.00000000000E+00 0.  1.
         23    2    1    2    0    0  0.82712668574E+02  0.31432793072E+03 -0.98168808668E+01  0.33741510888E+03  0.90050824413E+02 0.  0.
         23    2    1    2    0    0  0.11863577032E+03 -0.16275758562E+03 -0.18180335325E+03  0.28425275356E+03  0.84750757952E+02 0.  0.
        -11    1    3    3    0    0  0.37684587411E+02  0.20936426569E+03  0.33327529045E+02  0.21532358920E+03  0.00000000000E+00 0. -1.
         11    1    3    3    0    0  0.45028081163E+02  0.10496366503E+03 -0.43144409912E+02  0.12209151967E+03  0.00000000000E+00 0.  1.
        -13    1    4    4    0    0  0.79720976010E+02 -0.38942479597E+02 -0.74177207862E+02  0.11564691478E+03  0.00000000000E+00 0. -1.
         13    1    4    4    0    0  0.38914794313E+02 -0.12381510603E+03 -0.10762614539E+03  0.16860583877E+03  0.00000000000E+00 0.  1.
         21    1    1    2  503  502 -0.24558451856E+03 -0.15361579985E+03 -0.40960114036E+03  0.50167984203E+03  0.00000000000E+00 0. -1.
          1    1    1    2  501    0  0.44236079662E+02  0.20454547576E+01 -0.57863501263E+01  0.44659785902E+02  0.00000000000E+00 0. -1.
<scales pt_clust_5="13000.00000" pt_clust_6="13000.00000" pt_clust_7="13000.00000" pt_clust_8="13000.00000" pt_clust_9="298.64226" pt_clust_10="44.28337"></scales>
<clustering>
<clus scale="   44.283">  2 10  1 -1</clus>
<clus scale="   84.751">  7  8 -1 -1</clus>
<clus scale="   90.051">  5  6 -1 -1</clus>
<clus scale="  224.826">  2  7  1 -1</clus>
<clus scale="  298.642">  2  9  1 -1</clus>
<clus scale="   44.283">  2  5  1 -1</clus>
</clustering>
</event>
<event>
10    2  0.1671105E-006  0.1800793E+03  0.7546771E-02  0.1187667E+00
         -4   -1    0    0    0  501 -0.00000000000E+00  0.00000000000E+00  0.54073906559E+03  0.54073906559E+03  0.00000000000E+00 0.  1.
         21   -1    0    0  503  502  0.00000000000E+00 -0.00000000000E+00 -0.11589757248E+03  0.11589757248E+03  0.00000000000E+00 0.  1.
         23    2    1    2    0    0  0.35588463616E+02 -0.70268604107E+02  0.83018885271E+02  0.14751836178E+03  0.93087680635E+02 0.  0.
         23    2    1    2    0    0 -0.15143132413E+03  0.77617986785E+02  0.14595052267E+03  0.24160466770E+03  0.90084752236E+02 0.  0.
        -11    1    4    4    0    0 -0.17564706845E+02  0.29229838893E+02 -0.46067318907E+01  0.34411108482E+02  0.00000000000E+00 0. -1.
         11    1    4    4    0    0 -0.13386661729E+03  0.48388147893E+02  0.15055725456E+03  0.20719355922E+03  0.00000000000E+00 0.  1.
        -13    1    3    3    0    0  0.28872998555E+02 -0.41328543555E+02  0.10093489042E+03  0.11282531037E+03  0.00000000000E+00 0. -1.
         13    1    3    3    0    0  0.67154650613E+01 -0.28940060552E+02 -0.17916005145E+02  0.34693051409E+02  0.00000000000E+00 0.  1.
         21    1    1    2  503  501 -0.20982415180E+02  0.32120752081E+02  0.28718323753E+02  0.47924383983E+02  0.00000000000E+00 0. -1.
         -4    1    1    2    0  502  0.13682527569E+03 -0.39470134759E+02  0.16715376141E+03  0.21958922460E+03  0.00000000000E+00 0.  1.
<scales pt_clust_5="13000.00000" pt_clust_6="13000.00000" pt_clust_7="13000.00000" pt_clust_8="13000.00000" pt_clust_9="38.36671" pt_clust_10="155.92724"></scales>
<clustering>
<clus scale="   38.367">  2  9  1 -1</clus>
<clus scale="   90.085">  5  6 -1 -1</clus>
<clus scale="   93.088">  7  8 -1 -1</clus>
<clus scale="  114.814">  1  7  2 -1</clus>
<clus scale="  155.927">  2 10  1 -1</clus>
<clus scale="   38.367">  2  5  1 -1</clus>
</clustering>
</event>
<event>
10    2  0.1671105E-006  0.9152018E+02  0.7546771E-02  0.1300582E+00
          2   -1    0    0  503    0 -0.00000000000E+00  0.00000000000E+00  0.84599575263E+02  0.84599575263E+02  0.00000000000E+00 0. -1.
         21   -1    0    0  501  502  0.00000000000E+00 -0.00000000000E+00 -0.40095610978E+03  0.40095610978E+03  0.00000000000E+00 0. -1.
         23    2    1    2    0    0 -0.14648662594E+02 -0.21830341480E+02  0.11745393305E+02  0.92481711760E+02  0.87884956741E+02 0.  0.
         23    2    1    2    0    0  0.44490482018E+00 -0.74388357951E+01 -0.53161051693E+02  0.10496711819E+03  0.90202351776E+02 0.  0.
        -13    1    3    3    0    0  0.27375056186E+02 -0.25688970761E+02 -0.17215021536E+02  0.41299804920E+02  0.00000000000E+00 0. -1.
         13    1    3    3    0    0 -0.42023718780E+02  0.38586292809E+01  0.28960414841E+02  0.51181906840E+02  0.00000000000E+00 0.  1.
        -13    1    4    4    0    0 -0.26374883468E+02 -0.34905810494E+02 -0.60040940820E+01  0.44159927875E+02  0.00000000000E+00 0. -1.
         13    1    4    4    0    0  0.26819788288E+02  0.27466974699E+02 -0.47156957611E+02  0.60807190316E+02  0.00000000000E+00 0.  1.
         21    1    1    2  503  502  0.18884568409E+02 -0.11252997316E+02 -0.19364798576E+02  0.29295943345E+02  0.00000000000E+00 0. -1.
          2    1    1    2  501    0 -0.46808106348E+01  0.40522174591E+02 -0.25557607756E+03  0.25881091175E+03  0.00000000000E+00 0. -1.
<scales pt_clust_5="13000.00000" pt_clust_6="13000.00000" pt_clust_7="13000.00000" pt_clust_8="13000.00000" pt_clust_9="21.98310" pt_clust_10="33.84967"></scales>
<clustering>
<clus scale="   21.983">  2  9  1 -1</clus>
<clus scale="   33.850">  2 10  1 -1</clus>
<clus scale="   87.885">  5  6 -1 -1</clus>
<clus scale="   89.237">  1  5  2 -1</clus>
<clus scale="   90.202">  7  8 -1 -1</clus>
<clus scale="   21.983">  2  5  1 -1</clus>
</clustering>
</event>
<event>
10    2  0.1671105E-006  0.1022753E+03  0.7546771E-02  0.1275712E+00
          2   -1    0    0  503    0 -0.00000000000E+00  0.00000000000E+00  0.10971128384E+04  0.10971128384E+04  0.00000000000E+00 0. -1.
         21   -1    0    0  501  502  0.00000000000E+00 -0.00000000000E+00 -0.26695908791E+02  0.26695908791E+02  0.00000000000E+00 0.  1.
         23    2    1    2    0    0  0.61197316504E+01 -0.32899919377E+02  0.32989394386E+03  0.34411944022E+03  0.92023470540E+02 0.  0.
         23    2    1    2    0    0 -0.75232298983E+02  0.92859136181E+01  0.44454298020E+03  0.46019690112E+03  0.91742027198E+02 0.  0.
        -13    1    4    4    0    0 -0.68181752004E+02  0.43758265462E+02  0.26001244343E+03  0.27234171154E+03  0.00000000000E+00 0.  1.
         13    1    4    4    0    0 -0.70505469791E+01 -0.34472351844E+02  0.18453053677E+03  0.18785518958E+03  0.00000000000E+00 0. -1.
        -13    1    3    3    0    0 -0.40728421674E+02 -0.28861827980E+00  0.12944058087E+03  0.13569727930E+03  0.00000000000E+00 0.  1.
         13    1    3    3    0    0  0.46848153325E+02 -0.32611301097E+02  0.20045336299E+03  0.20842216092E+03  0.00000000000E+00 0. -1.
         21    1    1    2  503  502 -0.14867635393E+02  0.29235089475E+02  0.52792363408E+02  0.62151192048E+02  0.00000000000E+00 0.  1.
          2    1    1    2  501    0  0.83980202725E+02 -0.56210837157E+01  0.24318764213E+03  0.25734121380E+03  0.00000000000E+00 0. -1.
<scales pt_clust_5="13000.00000" pt_clust_6="13000.00000" pt_clust_7="13000.00000" pt_clust_8="13000.00000" pt_clust_9="32.79843" pt_clust_10="79.29124"></scales>
<clustering>
<clus scale="   32.798">  2  9  1 -1</clus>
<clus scale="   79.291">  2 10  1 -1</clus>
<clus scale="   91.742">  5  6 -1 -1</clus>
<clus scale="   92.023">  7  8 -1 -1</clus>
<clus scale="  102.022">  2  5  1 -1</clus>
<clus scale="   32.798">  2  5  1 -1</clus>
</clustering>
</event>
<event>
10    2  0.1671105E-006  0.2468808E+03  0.7546771E-02  0.1142994E+00
          3   -1    0    0  502    0 -0.00000000000E+00  0.00000000000E+00  0.32364856965E+03  0.32364856965E+03  0.00000000000E+00 0. -1.
         21   -1    0    0  503  502  0.00000000000E+00 -0.00000000000E+00 -0.44714357877E+03  0.44714357877E+03  0.00000000000E+00 0. -1.
         23    2    1    2    0    0  0.20746111419E+02 -0.82184482856E+02 -0.20311501449E+03  0.23843685465E+03  0.91715506775E+02 0.  0.
         23    2    1    2    0    0 -0.23610363979E+03  0.11742990472E+03  0.12762031222E+03  0.30705094086E+03  0.91970783121E+02 0.  0.
        -13    1    4    4    0    0 -0.17788132264E+03  0.11117985084E+03  0.61220267910E+02  0.21851921055E+03  0.00000000000E+00 0. -1.
         13    1    4    4    0    0 -0.58222317156E+02  0.62500538824E+01  0.66400044306E+02  0.88531730314E+02  0.00000000000E+00 0.  1.
        -13    1    3    3    0    0 -0.20126135129E+02 -0.49015678364E+02 -0.16540651107E+03  0.17368624570E+03  0.00000000000E+00 0. -1.
         13    1    3    3    0    0  0.40872246548E+02 -0.33168804492E+02 -0.37708503420E+02  0.64750608951E+02  0.00000000000E+00 0.  1.
         21    1    1    2  503  501  0.84470172622E+02 -0.12093055558E+02 -0.45078602533E+01  0.85450411699E+02  0.00000000000E+00 0. -1.
          3    1    1    2  501    0  0.13088735575E+03 -0.23152366307E+02 -0.43492446586E+02  0.13985394121E+03  0.00000000000E+00 0. -1.
<scales pt_clust_5="13000.00000" pt_clust_6="13000.00000" pt_clust_7="13000.00000" pt_clust_8="13000.00000" pt_clust_9="23.17938" pt_clust_10="230.92949"></scales>
<clustering>
<clus scale="   23.179">  9 10 -1 -1</clus>
<clus scale="   91.716">  7  8 -1 -1</clus>
<clus scale="   91.971">  5  6 -1 -1</clus>
<clus scale="  124.886">  1  7  2 -1</clus>
<clus scale="  230.929">  2  9  1 -1</clus>
<clus scale="  230.929">  2  5  1 -1</clus>
</clustering>
</event>
<event>
10    2  0.2105840E-006  0.1837483E+03  0.7546771E-02  0.1182198E+00
         -4   -1    0    0    0  501 -0.00000000000E+00  0.00000000000E+00  0.21824631948E+03  0.21824631948E+03  0.00000000000E+00 0.  1.
         21   -1    0    0  501  502  0.00000000000E+00 -0.00000000000E+00 -0.47907446147E+03  0.47907446147E+03  0.00000000000E+00 0.  1.
         23    2    1    2    0    0  0.55154091477E+02 -0.61444951217E+02 -0.47934048788E+02  0.13115735156E+03  0.89928427090E+02 0.  0.
         23    2    1    2    0    0 -0.73608132070E+02 -0.11267657047E+03  0.11179197124E+03  0.18948528458E+03  0.72753430142E+02 0.  0.
        -13    1    3    3    0    0  0.36056296615E+02 -0.74181772558E+02 -0.51950450263E+01  0.82643695454E+02  0.00000000000E+00 0.  1.
         13    1    3    3    0    0  0.19097794862E+02  0.12736821341E+02 -0.42739003762E+02  0.48513656109E+02  0.00000000000E+00 0. -1.
        -13    1    4    4    0    0 -0.32499334763E+02 -0.14724468688E+01  0.12540801715E+02  0.34866123493E+02  0.00000000000E+00 0. -1.
         13    1    4    4    0    0 -0.41108797308E+02 -0.11120412360E+03  0.99251169528E+02  0.15461916108E+03  0.00000000000E+00 0.  1.
         21    1    1    2  503  502 -0.19471158821E+02  0.44419700017E+02 -0.13756337716E+03  0.14586267004E+03  0.00000000000E+00 0.  1.
         -4    1    1    2    0  503  0.37925199414E+02  0.12970182167E+03 -0.18712268729E+03  0.23081547477E+03  0.00000000000E+00 0.  1.
<scales pt_clust_5="13000.00000" pt_clust_6="13000.00000" pt_clust_7="13000.00000" pt_clust_8="13000.00000" pt_clust_9="45.65076" pt_clust_10="45.65076"></scales>
<clustering>
<clus scale="   45.651">  9 10 -1 -1</clus>
<clus scale="   72.753">  7  8 -1 -1</clus>
<clus scale="   89.928">  5  6 -1 -1</clus>
<clus scale="  122.084">  1  5  2 -1</clus>
<clus scale="  182.346">  1  7  2 -1</clus>
<clus scale="  183.748">  2  5  1 -1</clus>
</clustering>
</event>
<event>
10    2  0.1671105E-006  0.2155823E+03  0.7546771E-02  0.1146041E+00
         21   -1    0    0  503  502  0.00000000000E+00  0.00000000000E+00  0.61727934019E+03  0.61727934019E+03  0.00000000000E+00 0. -1.
          2   -1    0    0  502    0 -0.00000000000E+00 -0.00000000000E+00 -0.23753898976E+03  0.23753898976E+03  0.00000000000E+00 0. -1.
         23    2    1    2    0    0  0.14199271607E+03 -0.41841372010E+02  0.16245163300E+03  0.23831883135E+03  0.92155848888E+02 0.  0.
         23    2    1    2    0    0 -0.73948422908E+02  0.22660041369E+03 -0.73565369054E+02  0.26460549397E+03  0.88250139836E+02 0.  0.
        -11    1    3    3    0    0 -0.78345366094E+01 -0.19508789897E+02  0.32639670043E+02  0.38824230934E+02  0.00000000000E+00 0.  1.
         11    1    3    3    0    0  0.14982725268E+03 -0.22332582113E+02  0.12981196295E+03  0.19949460042E+03  0.00000000000E+00 0. -1.
        -13    1    4    4    0    0 -0.61690103566E+02  0.85639388706E+02 -0.91089166079E+00  0.10554905731E+03  0.00000000000E+00 0.  1.
         13    1    4    4    0    0 -0.12258319342E+02  0.14096102498E+03 -0.72654477393E+02  0.15905643666E+03  0.00000000000E+00 0. -1.
         21    1    1    2  503  501 -0.32552857142E+02 -0.97934157883E+02  0.13402921093E+03  0.16915855630E+03  0.00000000000E+00 0.  1.
          2    1    1    2  501    0 -0.35491436020E+02 -0.86824883796E+02  0.15682487557E+03  0.18273544832E+03  0.00000000000E+00 0. -1.
<scales pt_clust_5="13000.00000" pt_clust_6="13000.00000" pt_clust_7="13000.00000" pt_clust_8="13000.00000" pt_clust_9="20.61007" pt_clust_10="197.87625"></scales>
<clustering>
<clus scale="   20.610">  9 10 -1 -1</clus>
<clus scale="   88.250">  7  8 -1 -1</clus>
<clus scale="   92.156">  5  6 -1 -1</clus>
<clus scale="  174.371">  2  5  1 -1</clus>
<clus scale="  197.876">  1  9  2 -1</clus>
<clus scale="  197.876">  1  5  2 -1</clus>
</clustering>
</event>
<event>
10    2  0.1671105E-006  0.1657147E+03  0.7546771E-02  0.1209457E+00
         21   -1    0    0  503  502  0.00000000000E+00  0.00000000000E+00  0.32010306965E+03  0.32010306965E+03  0.00000000000E+00 0. -1.
          1   -1    0    0  502    0 -0.00000000000E+00 -0.00000000000E+00 -0.21725033715E+03  0.21725033715E+03  0.00000000000E+00 0. -1.
         23    2    1    2    0    0  0.27771052027E+02 -0.10276020766E+01  0.21468677471E+02  0.92642971219E+02  0.85729392318E+02 0.  0.
         23    2    1    2    0    0  0.10522464343E+03  0.31090473830E+02 -0.10143835061E+03  0.17749431964E+03  0.95789620418E+02 0.  0.
        -11    1    4    4    0    0  0.88152428179E+02 -0.16704801353E+02 -0.86404213134E+02  0.12456158729E+03  0.00000000000E+00 0.  1.
         11    1    4    4    0    0  0.17072215253E+02  0.47795275183E+02 -0.15034137480E+02  0.52932732342E+02  0.00000000000E+00 0. -1.
        -13    1    3    3    0    0 -0.31039912864E+02 -0.35922652757E+01  0.68885971032E+01  0.31997395682E+02  0.00000000000E+00 0.  1.
         13    1    3    3    0    0  0.58810964890E+02  0.25646631992E+01  0.14580080368E+02  0.60645575537E+02  0.00000000000E+00 0. -1.
         21    1    1    2  503  501  0.20216404569E+02 -0.30843064212E+02  0.14558245892E+02  0.39647700401E+02  0.00000000000E+00 0. -1.
          1    1    1    2  501    0 -0.15321210003E+03  0.78019245865E+00  0.16826415975E+03  0.22756841554E+03  0.00000000000E+00 0. -1.
<scales pt_clust_5="13000.00000" pt_clust_6="13000.00000" pt_clust_7="13000.00000" pt_clust_8="13000.00000" pt_clust_9="36.87815" pt_clust_10="135.22471"></scales>
<clustering>
<clus scale="   36.878">  1  9  2 -1</clus>
<clus scale="   85.729">  7  8 -1 -1</clus>
<clus scale="   91.675">  2  7  1 -1</clus>
<clus scale="   95.790">  5  6 -1 -1</clus>
<clus scale="  135.225">  1 10  2 -1</clus>
<clus scale="   36.878">  1  5  2 -1</clus>
</clustering>
</event>
<event>
10    2  0.1671105E-006  0.1214608E+03  0.7546771E-02  0.1241091E+00
          2   -1    0    0  503    0 -0.00000000000E+00  0.00000000000E+00  0.33170729682E+03  0.33170729682E+03  0.00000000000E+00 0. -1.
         21   -1    0    0  501  502  0.00000000000E+00 -0.00000000000E+00 -0.18804438762E+03  0.18804438762E+03  0.00000000000E+00 0. -1.
         23    2    1    2    0    0 -0.56862186083E+02  0.78074292822E+02  0.17519368364E+03  0.22023294410E+03  0.92091364825E+02 0.  0.
         23    2    1    2    0    0  0.20963409769E+02 -0.57059501704E+02  0.90052789330E+02  0.14162402350E+03  0.90843865407E+02 0.  0.
        -11    1    4    4    0    0  0.41514793833E+02 -0.98947441925E+01  0.60302006209E+01  0.43101593812E+02  0.00000000000E+00 0.  1.
         11    1    4    4    0    0 -0.20551384064E+02 -0.47164757512E+02  0.84022588709E+02  0.98522429687E+02  0.00000000000E+00 0. -1.
        -13    1    3    3    0    0  0.21421571475E+02  0.57123611660E+01  0.56497987900E+02  0.60692152964E+02  0.00000000000E+00 0.  1.
         13    1    3    3    0    0 -0.78283757558E+02  0.72361931656E+02  0.11869569574E+03  0.15954079114E+03  0.00000000000E+00 0. -1.
         21    1    1    2  503  502  0.37423198646E+02  0.30924167472E+02 -0.53407752165E+02  0.72174704170E+02  0.00000000000E+00 0. -1.
          2    1    1    2  501    0 -0.15244223317E+01 -0.51938958589E+02 -0.68175811611E+02  0.85720012667E+02  0.00000000000E+00 0. -1.
<scales pt_clust_5="13000.00000" pt_clust_6="13000.00000" pt_clust_7="13000.00000" pt_clust_8="13000.00000" pt_clust_9="48.54688" pt_clust_10="39.31801"></scales>
<clustering>
<clus scale="   48.547">  2  9  1 -1</clus>
<clus scale="   39.318">  2 10  1 -1</clus>
<clus scale="   90.844">  5  6 -1 -1</clus>
<clus scale="   92.091">  7  8 -1 -1</clus>
<clus scale="  120.518">  2  5  1 -1</clus>
<clus scale="   48.547">  2  5  1 -1</clus>
</clustering>
</event>
<event>
10    2  0.1671105E-006  0.1120367E+03  0.7546771E-02  0.1260438E+00
         21   -1    0    0  503  502  0.00000000000E+00  0.00000000000E+00  0.24991447171E+03  0.24991447171E+03  0.00000000000E+00 0. -1.
         -1   -1    0    0    0  501 -0.00000000000E+00 -0.00000000000E+00 -0.15132446352E+03  0.15132446352E+03  0.00000000000E+00 0.  1.
         23    2    1    2    0    0  0.35863108180E+02 -0.50148215673E+02 -0.71708189155E+02  0.12906504959E+03  0.87833459289E+02 0.  0.
         23    2    1    2    0    0 -0.60455813280E+02 -0.21989760941E+01  0.63677069428E+02  0.13071492691E+03  0.96808481508E+02 0.  0.
        -11    1    3    3    0    0  0.49278538727E+02  0.31650486220E+01 -0.19014399137E+02  0.52914452529E+02  0.00000000000E+00 0.  1.
         11    1    3    3    0    0 -0.13415430547E+02 -0.53313264295E+02 -0.52693790018E+02  0.76150597063E+02  0.00000000000E+00 0. -1.
        -13    1    4    4    0    0  0.18400457070E+02  0.24414891591E+02  0.12612660645E+02  0.33071784958E+02  0.00000000000E+00 0. -1.
         13    1    4    4    0    0 -0.78856270350E+02 -0.26613867685E+02  0.51064408783E+02  0.97643141956E+02  0.00000000000E+00 0.  1.
         21    1    1    2  503  501  0.12119321741E+01  0.64860002259E+02  0.63119185888E+02  0.90511437397E+02  0.00000000000E+00 0. -1.
         -1    1    1    2    0  502  0.23380772925E+02 -0.12512810492E+02  0.43501942030E+02  0.50947521327E+02  0.00000000000E+00 0.  1.
<scales pt_clust_5="13000.00000" pt_clust_6="13000.00000" pt_clust_7="13000.00000" pt_clust_8="13000.00000" pt_clust_9="60.95591" pt_clust_10="26.51850"></scales>
<clustering>
<clus scale="   26.519">  1 10  2 -1</clus>
<clus scale="   60.956">  1  9  2 -1</clus>
<clus scale="   87.833">  5  6 -1 -1</clus>
<clus scale="   96.808">  7  8 -1 -1</clus>
<clus scale="  104.379">  2  5  1 -1</clus>
<clus scale="   26.519">  1  5  2 -1</clus>
</clustering>
</event>
<event>
10    2  0.1671105E-006  0.1739299E+03  0.7546771E-02  0.1183491E+00
          1   -1    0    0  503    0 -0.00000000000E+00  0.00000000000E+00  0.61807414363E+03  0.61807414363E+03  0.00000000000E+00 0. -1.
         21   -1    0    0  501  502  0.00000000000E+00 -0.00000000000E+00 -0.11752069197E+03  0.11752069197E+03  0.00000000000E+00 0. -1.
         23    2    1    2    0    0  0.11480903319E+03  0.39809098870E+01  0.17430533493E+03  0.22803390083E+03  0.91761366582E+02 0.  0.
         23    2    1    2    0    0  0.76253508058E+02  0.89312503034E+02  0.14045254416E+03  0.20456181198E+03  0.91254024956E+02 0.  0.
        -13    1    4    4    0    0  0.80023151200E+02  0.26494427786E+02  0.65886582688E+02  0.10698925745E+03  0.00000000000E+00 0. -1.
         13    1    4    4    0    0 -0.37696431418E+01  0.62818075248E+02  0.74565961469E+02  0.97572554528E+02  0.00000000000E+00 0.  1.
        -13    1    3    3    0    0  0.78966059947E+02 -0.16740692162E+01  0.39268861230E+02  0.88207055237E+02  0.00000000000E+00 0.  1.
         13    1    3    3    0    0  0.35842973248E+02  0.56549791032E+01  0.13503647370E+03  0.13982684559E+03  0.00000000000E+00 0. -1.
         21    1    1    2  503  502 -0.24300657932E+02 -0.22750127032E+02  0.94550810732E+02  0.10023944366E+03  0.00000000000E+00 0. -1.
          1    1    1    2  501    0 -0.16676188332E+03 -0.70543285888E+02  0.91244761843E+02  0.20275967912E+03  0.00000000000E+00 0. -1.
<scales pt_clust_5="13000.00000" pt_clust_6="13000.00000" pt_clust_7="13000.00000" pt_clust_8="13000.00000" pt_clust_9="33.28799" pt_clust_10="148.06872"></scales>
<clustering>
<clus scale="   33.288">  1  9  2 -1</clus>
<clus scale="   91.254">  5  6 -1 -1</clus>
<clus scale="   91.761">  7  8 -1 -1</clus>
<clus scale="  139.845">  1  7  2 -1</clus>
<clus scale="  148.069">  2 10  1 -1</clus>
<clus scale="  148.069">  2  5  1 -1</clus>
</clustering>
</event>
<event>
10    2  0.1671105E-006  0.2531489E+03  0.7546771E-02  0.1149394E+00
          1   -1    0    0  502    0 -0.00000000000E+00  0.00000000000E+00  0.42535409823E+03  0.42535409823E+03  0.00000000000E+00 0. -1.
         21   -1    0    0  503  502  0.00000000000E+00 -0.00000000000E+00 -0.62955142397E+03  0.62955142397E+03  0.00000000000E+00 0. -1.
         23    2    1    2    0    0 -0.88199213365E+01 -0.41750469528E+02  0.31520629808E+03  0.33051863633E+03  0.89814619608E+02 0.  0.
         23    2    1    2    0    0  0.23438858709E+03 -0.31777165377E+02 -0.18938387471E+03  0.31649470244E+03  0.91404850390E+02 0.  0.
        -11    1    3    3    0    0  0.35104649607E+02 -0.25921434922E+02  0.22227318192E+03  0.22651627892E+03  0.00000000000E+00 0.  1.
         11    1    3    3    0    0 -0.43924570944E+02 -0.15829034606E+02  0.92933116156E+02  0.10400235741E+03  0.00000000000E+00 0. -1.
        -13    1    4    4    0    0  0.14366143225E+03  0.16835280944E+02 -0.14366865095E+03  0.20386935784E+03  0.00000000000E+00 0.  1.
         13    1    4    4    0    0  0.90727154840E+02 -0.48612446321E+02 -0.45715223760E+02  0.11262534460E+03  0.00000000000E+00 0. -1.
         21    1    1    2  503  501 -0.77725669834E+02  0.25448283777E+02 -0.87057080771E+02  0.11944802305E+03  0.00000000000E+00 0.  1.
          1    1    1    2  501    0 -0.14784299592E+03  0.48079351128E+02 -0.24296266834E+03  0.28844416038E+03  0.00000000000E+00 0. -1.
<scales pt_clust_5="13000.00000" pt_clust_6="13000.00000" pt_clust_7="13000.00000" pt_clust_8="13000.00000" pt_clust_9="24.86724" pt_clust_10="238.54764"></scales>
<clustering>
<clus scale="   24.867">  9 10 -1 -1</clus>
<clus scale="   89.815">  5  6 -1 -1</clus>
<clus scale="   91.405">  7  8 -1 -1</clus>
<clus scale="   99.436">  1  5  2 -1</clus>
<clus scale="  238.548">  2  9  1 -1</clus>
<clus scale="  238.548">  2  5  1 -1</clus>
</clustering>
</event>
<event>
10    2  0.1671105E-006  0.3187099E+03  0.7546771E-02  0.1076516E+00
         21   -1    0    0  503  502  0.00000000000E+00  0.00000000000E+00  0.94540761929E+03  0.94540761929E+03  0.00000000000E+00 0. -1.
          1   -1    0    0  502    0 -0.00000000000E+00 -0.00000000000E+00 -0.20061886264E+03  0.20061886264E+03  0.00000000000E+00 0. -1.
         23    2    1    2    0    0 -0.14198512146E+03 -0.28977125396E+03  0.32335116484E+02  0.33506208791E+03  0.84225225781E+02 0.  0.
         23    2    1    2    0    0  0.39254053300E+02  0.25680113238E+03  0.53247460470E+03  0.59966321245E+03  0.92623222904E+02 0.  0.
        -11    1    4    4    0    0  0.55637349224E+02  0.22826092432E+03  0.50429612053E+03  0.55633905254E+03  0.00000000000E+00 0. -1.
         11    1    4    4    0    0 -0.16383295923E+02  0.28540208066E+02  0.28178484168E+02  0.43324159908E+02  0.00000000000E+00 0.  1.
        -13    1    3    3    0    0 -0.32501152735E+02 -0.50136692235E+02 -0.26095987770E+02  0.65199796127E+02  0.00000000000E+00 0.  1.
         13    1    3    3    0    0 -0.10948396873E+03 -0.23963456172E+03  0.58431104254E+02  0.26986229178E+03  0.00000000000E+00 0. -1.
         21    1    1    2  503  501  0.53561613080E+02  0.50870867569E+01  0.96501967297E+02  0.11048689759E+03  0.00000000000E+00 0. -1.
          1    1    1    2  501    0  0.49169455082E+02  0.27883034815E+02  0.83477068179E+02  0.10081428398E+03  0.00000000000E+00 0. -1.
<scales pt_clust_5="13000.00000" pt_clust_6="13000.00000" pt_clust_7="13000.00000" pt_clust_8="13000.00000" pt_clust_9="24.19528" pt_clust_10="110.70563"></scales>
<clustering>
<clus scale="   24.195">  9 10 -1 -1</clus>
<clus scale="   84.225">  7  8 -1 -1</clus>
<clus scale="   92.623">  5  6 -1 -1</clus>
<clus scale="  110.706">  1  9  2 -1</clus>
<clus scale="  316.371">  2  7  1 -1</clus>
<clus scale="  110.706">  1  5  2 -1</clus>
</clustering>
</event>
<event>
10    2  0.1671105E-006  0.1294205E+03  0.7546771E-02  0.1228765E+00
         21   -1    0    0  501  502  0.00000000000E+00  0.00000000000E+00  0.45826080234E+02  0.45826080234E+02  0.00000000000E+00 0.  1.
         -2   -1    0    0    0  501 -0.00000000000E+00 -0.00000000000E+00 -0.90921869558E+03  0.90921869558E+03  0.00000000000E+00 0.  1.
         23    2    1    2    0    0 -0.68645917533E+02 -0.10985205184E+03 -0.57775132601E+03  0.59896538923E+03  0.90461082811E+02 0.  0.
         23    2    1    2    0    0  0.35725465478E+02  0.33894419843E+02 -0.22053672336E+03  0.24403176890E+03  0.92140747235E+02 0.  0.
        -13    1    4    4    0    0  0.63072464585E+02  0.35973957471E+02 -0.18765916392E+03  0.20121685617E+03  0.00000000000E+00 0. -1.
         13    1    4    4    0    0 -0.27346999108E+02 -0.20795376282E+01 -0.32877559445E+02  0.42814912729E+02  0.00000000000E+00 0.  1.
        -13    1    3    3    0    0 -0.18014587721E+02  0.13648075164E+02 -0.55458267984E+02  0.59886683113E+02  0.00000000000E+00 0. -1.
         13    1    3    3    0    0 -0.50631329813E+02 -0.12350012700E+03 -0.52229305802E+03  0.53907870612E+03  0.00000000000E+00 0.  1.
         21    1    1    2  503  502 -0.60887503674E+01  0.31066429042E+02 -0.24610344270E+02  0.40098191225E+02  0.00000000000E+00 0.  1.
         -2    1    1    2    0  503  0.39009202423E+02  0.44891202952E+02 -0.40494221705E+02  0.71949426459E+02  0.00000000000E+00 0.  1.
<scales pt_clust_5="13000.00000" pt_clust_6="13000.00000" pt_clust_7="13000.00000" pt_clust_8="13000.00000" pt_clust_9="27.90396" pt_clust_10="91.19246"></scales>
<clustering>
<clus scale="   27.904">  9 10 -1 -1</clus>
<clus scale="   90.461">  7  8 -1 -1</clus>
<clus scale="   91.192">  1  9  2 -1</clus>
<clus scale="   92.141">  5  6 -1 -1</clus>
<clus scale="  128.230">  2  7  1 -1</clus>
<clus scale="   91.192">  1  5  2 -1</clus>
</clustering>
</event>
<event>
10    2  0.1671105E-006  0.9004361E+02  0.7546771E-02  0.1302856E+00
          1   -1    0    0  503    0 -0.00000000000E+00  0.00000000000E+00  0.39643374291E+03  0.39643374291E+03  0.00000000000E+00 0. -1.
         21   -1    0    0  501  502  0.00000000000E+00 -0.00000000000E+00 -0.40153995559E+02  0.40153995559E+02  0.00000000000E+00 0.  1.
         23    2    1    2    0    0 -0.21421947396E+02  0.10477613653E+02  0.15439909740E+03  0.17996081716E+03  0.89320402009E+02 0.  0.
         23    2    1    2    0    0 -0.17940985846E+01  0.48022970054E+01  0.11546770742E+03  0.14596075001E+03  0.89137356041E+02 0.  0.
        -13    1    3    3    0    0 -0.39946558571E+02  0.40646620693E+02  0.92158458043E+02  0.10835615674E+03  0.00000000000E+00 0. -1.
         13    1    3    3    0    0  0.18524611175E+02 -0.30169007040E+02  0.62240639359E+02  0.71604660412E+02  0.00000000000E+00 0.  1.
        -13    1    4    4    0    0  0.40558930909E+02 -0.87134635626E+01  0.75655569425E+02  0.86282770637E+02  0.00000000000E+00 0.  1.
         13    1    4    4    0    0 -0.42353029493E+02  0.13515760568E+02  0.39812137990E+02  0.59677979376E+02  0.00000000000E+00 0. -1.
         21    1    1    2  503  502 -0.50708897174E+01 -0.33919499810E+02  0.52671797174E+02  0.62853517065E+02  0.00000000000E+00 0. -1.
          1    1    1    2  501    0  0.28286935698E+02  0.18639589151E+02  0.33741145360E+02  0.47812654237E+02  0.00000000000E+00 0. -1.
<scales pt_clust_5="13000.00000" pt_clust_6="13000.00000" pt_clust_7="13000.00000" pt_clust_8="13000.00000" pt_clust_9="31.06267" pt_clust_10="33.87602"></scales>
<clustering>
<clus scale="   33.876">  2 10  1 -1</clus>
<clus scale="   31.063">  2  9  1 -1</clus>
<clus scale="   89.137">  7  8 -1 -1</clus>
<clus scale="   89.320">  5  6 -1 -1</clus>
<clus scale="   89.862">  2  7  1 -1</clus>
<clus scale="   33.876">  2  5  1 -1</clus>
</clustering>
</event>
<event>
10    2  0.1671105E-006  0.1368687E+03  0.7546771E-02  0.1219680E+00
          2   -1    0    0  503    0 -0.00000000000E+00  0.00000000000E+00  0.45056836364E+03  0.45056836364E+03  0.00000000000E+00 0. -1.
         21   -1    0    0  501  502  0.00000000000E+00 -0.00000000000E+00 -0.95706997992E+02  0.95706997992E+02  0.00000000000E+00 0.  1.
         23    2    1    2    0    0 -0.67235087675E+02 -0.64201088428E+02  0.25162273807E+03  0.28686975186E+03  0.10167554005E+03 0.  0.
         23    2    1    2    0    0  0.77983944077E+02  0.46598903338E+02  0.11779215314E+03  0.17578270190E+03  0.93656893074E+02 0.  0.
        -11    1    4    4    0    0  0.62064718049E+02  0.73554958512E+02  0.10361688081E+03  0.14141718119E+03  0.00000000000E+00 0.  1.
         11    1    4    4    0    0  0.15919226028E+02 -0.26956055174E+02  0.14175272333E+02  0.34365520709E+02  0.00000000000E+00 0. -1.
        -13    1    3    3    0    0  0.19758175973E+02 -0.58613670212E+01  0.87818602884E+01  0.22402281386E+02  0.00000000000E+00 0.  1.
         13    1    3    3    0    0 -0.86993263648E+02 -0.58339721407E+02  0.24284087778E+03  0.26446747047E+03  0.00000000000E+00 0. -1.
         21    1    1    2  503  502  0.16205439611E+02  0.38087432623E+02  0.90274795910E+01  0.42364657258E+02  0.00000000000E+00 0.  1.
          2    1    1    2  501    0 -0.26954296013E+02 -0.20485247533E+02 -0.23581005153E+02  0.41258250619E+02  0.00000000000E+00 0. -1.
<scales pt_clust_5="13000.00000" pt_clust_6="13000.00000" pt_clust_7="13000.00000" pt_clust_8="13000.00000" pt_clust_9="33.93660" pt_clust_10="33.85527"></scales>
<clustering>
<clus scale="   33.855">  2 10  1 -1</clus>
<clus scale="   33.937">  2  9  1 -1</clus>
<clus scale="   93.657">  5  6 -1 -1</clus>
<clus scale="  101.676">  7  8 -1 -1</clus>
<clus scale="  131.022">  2  5  1 -1</clus>
<clus scale="   33.855">  2  5  1 -1</clus>
</clustering>
</event>
<event>
10    2  0.1671105E-006  0.9745278E+02  0.7546771E-02  0.1286097E+00
         21   -1    0    0  503  502  0.00000000000E+00  0.00000000000E+00  0.59496843626E+03  0.59496843626E+03  0.00000000000E+00 0.  1.
          2   -1    0    0  502    0 -0.00000000000E+00 -0.00000000000E+00 -0.37338247743E+02  0.37338247743E+02  0.00000000000E+00 0.  1.
         23    2    1    2    0    0  0.44265393953E+01  0.34668994667E+02  0.78374173867E+02  0.12547987768E+03  0.91548648989E+02 0.  0.
         23    2    1    2    0    0  0.43455055097E+02 -0.18347511999E+02  0.28597851246E+03  0.30416261975E+03  0.92229152954E+02 0.  0.
        -13    1    3    3    0    0  0.23256467632E+02  0.51800750392E+02  0.17373388862E+02  0.59380263290E+02  0.00000000000E+00 0.  1.
         13    1    3    3    0    0 -0.18829928237E+02 -0.17131755725E+02  0.61000785005E+02  0.66099614393E+02  0.00000000000E+00 0. -1.
        -13    1    4    4    0    0  0.40003267015E+02 -0.51936759381E+02  0.22618391086E+03  0.23549278095E+03  0.00000000000E+00 0. -1.
         13    1    4    4    0    0  0.34517880822E+01  0.33589247382E+02  0.59794601603E+02  0.68669838805E+02  0.00000000000E+00 0.  1.
         21    1    1    2  503  501 -0.20888354800E+02  0.25380604673E+01  0.12617490757E+03  0.12791744376E+03  0.00000000000E+00 0.  1.
          2    1    1    2  501    0 -0.26993239692E+02 -0.18859543135E+02  0.67102594615E+02  0.74746742808E+02  0.00000000000E+00 0.  1.
<scales pt_clust_5="13000.00000" pt_clust_6="13000.00000" pt_clust_7="13000.00000" pt_clust_8="13000.00000" pt_clust_9="21.04198" pt_clust_10="35.36816"></scales>
<clustering>
<clus scale="   21.042">  1  9  2 -1</clus>
<clus scale="   35.368">  1 10  2 -1</clus>
<clus scale="   91.549">  5  6 -1 -1</clus>
<clus scale="   92.229">  7  8 -1 -1</clus>
<clus scale="   96.809">  2  5  1 -1</clus>
<clus scale="   21.042">  1  5  2 -1</clus>
</clustering>
</event>
<event>
10    2  0.1671105E-006  0.2156084E+03  0.7546771E-02  0.1152329E+00
         21   -1    0    0  501  502  0.00000000000E+00  0.00000000000E+00  0.56662536216E+03  0.56662536216E+03  0.00000000000E+00 0. -1.
          3   -1    0    0  503    0 -0.00000000000E+00 -0.00000000000E+00 -0.64807441855E+03  0.64807441855E+03  0.00000000000E+00 0. -1.
         23    2    1    2    0    0  0.10016408562E+03 -0.60996683309E+02 -0.14494334914E+03  0.20737131929E+03  0.90779128556E+02 0.  0.
         23    2    1    2    0    0 -0.25293988838E+03  0.18000610391E+03 -0.38311162415E+03  0.50138499812E+03  0.90728249178E+02 0.  0.
        -11    1    3    3    0    0  0.92353990105E+02 -0.82428623810E+02 -0.10976751278E+03  0.16544680225E+03  0.00000000000E+00 0.  1.
         11    1    3    3    0    0  0.78100955102E+01  0.21431940501E+02 -0.35175836363E+02  0.41924517044E+02  0.00000000000E+00 0. -1.
        -13    1    4    4    0    0 -0.44748838722E+02  0.97391259405E+01 -0.21158963970E+02  0.50448101028E+02  0.00000000000E+00 0.  1.
         13    1    4    4    0    0 -0.20819104966E+03  0.17026697797E+03 -0.36195266018E+03  0.45093689709E+03  0.00000000000E+00 0. -1.
         21    1    1    2  503  502  0.25785001851E+02 -0.34617503168E+02  0.11175275755E+02  0.44588391250E+02  0.00000000000E+00 0. -1.
          3    1    1    2  501    0  0.12699080092E+03 -0.84391917431E+02  0.43543064115E+03  0.46135507205E+03  0.00000000000E+00 0. -1.
<scales pt_clust_5="13000.00000" pt_clust_6="13000.00000" pt_clust_7="13000.00000" pt_clust_8="13000.00000" pt_clust_9="43.16524" pt_clust_10="195.58981"></scales>
<clustering>
<clus scale="   43.165">  1  9  2 -1</clus>
<clus scale="   90.728">  7  8 -1 -1</clus>
<clus scale="   90.779">  5  6 -1 -1</clus>
<clus scale="  150.148">  2  5  1 -1</clus>
<clus scale="  195.590">  1 10  2 -1</clus>
<clus scale="   43.165">  1  5  2 -1</clus>
</clustering>
</event>
<event>
10    2  0.1671105E-006  0.1072182E+03  0.7546771E-02  0.1266605E+00
          4   -1    0    0  503    0 -0.00000000000E+00  0.00000000000E+00  0.29832772497E+03  0.29832772497E+03  0.00000000000E+00 0. -1.
         21   -1    0    0  501  502  0.00000000000E+00 -0.00000000000E+00 -0.16003597256E+03  0.16003597256E+03  0.00000000000E+00 0. -1.
         23    2    1    2    0    0  0.34340381293E+02  0.40748302365E+01  0.12490728010E+03  0.15826235262E+03  0.90825533886E+02 0.  0.
         23    2    1    2    0    0 -0.53554141535E+02 -0.77183148248E+02 -0.79235002308E+02  0.15395787485E+03  0.92733797451E+02 0.  0.
        -11    1    4    4    0    0  0.11127956172E+00 -0.39116416349E+02 -0.79008998720E+02  0.88161943546E+02  0.00000000000E+00 0.  1.
         11    1    4    4    0    0 -0.53665421097E+02 -0.38066731899E+02 -0.22600358835E+00  0.65795931308E+02  0.00000000000E+00 0. -1.
        -11    1    3    3    0    0 -0.13059300787E+02  0.24390050322E+02  0.94342270655E+02  0.98315227326E+02  0.00000000000E+00 0.  1.
         11    1    3    3    0    0  0.47399682080E+02 -0.20315220086E+02  0.30565009442E+02  0.59947125291E+02  0.00000000000E+00 0. -1.
         21    1    1    2  503  502  0.33262219362E+02 -0.49670716749E+01  0.30216137135E+02  0.45211303689E+02  0.00000000000E+00 0. -1.
          4    1    1    2  501    0 -0.14048459120E+02  0.78075389686E+02  0.62403337485E+02  0.10093216637E+03  0.00000000000E+00 0. -1.
<scales pt_clust_5="13000.00000" pt_clust_6="13000.00000" pt_clust_7="13000.00000" pt_clust_8="13000.00000" pt_clust_9="33.63104" pt_clust_10="76.60474"></scales>
<clustering>
<clus scale="   33.631">  1  9  2 -1</clus>
<clus scale="   76.605">  2 10  1 -1</clus>
<clus scale="   90.826">  7  8 -1 -1</clus>
<clus scale="   92.734">  5  6 -1 -1</clus>
<clus scale="  105.572">  1  7  2 -1</clus>
<clus scale="   76.605">  2  5  1 -1</clus>
</clustering>
</event>
<event>
10    2  0.1671105E-006  0.1112717E+03  0.7546771E-02  0.1258894E+00
          1   -1    0    0  503    0 -0.00000000000E+00  0.00000000000E+00  0.53647813605E+03  0.53647813605E+03  0.00000000000E+00 0. -1.
         21   -1    0    0  501  502  0.00000000000E+00 -0.00000000000E+00 -0.13515748573E+03  0.13515748573E+03  0.00000000000E+00 0. -1.
         23    2    1    2    0    0 -0.53755348260E+02  0.16545620832E+02  0.27596645159E+03  0.29588264100E+03  0.90695423304E+02 0.  0.
         23    2    1    2    0    0  0.10293393086E+03 -0.40044908454E+02  0.16168986388E+03  0.21653307161E+03  0.92433598885E+02 0.  0.
        -11    1    4    4    0    0  0.17735280413E+02  0.26342427841E+02  0.17138516253E+02  0.36085903276E+02  0.00000000000E+00 0.  1.
         11    1    4    4    0    0  0.85198650447E+02 -0.66387336295E+02  0.14455134763E+03  0.18044716833E+03  0.00000000000E+00 0. -1.
        -13    1    3    3    0    0 -0.71839540950E+02 -0.29591035530E+01  0.24359876825E+03  0.25398825924E+03  0.00000000000E+00 0.  1.
         13    1    3    3    0    0  0.18084192690E+02  0.19504724385E+02  0.32367683335E+02  0.41894381760E+02  0.00000000000E+00 0. -1.
         21    1    1    2  503  502  0.28848895044E+02 -0.11939989208E+02  0.35585675891E+02  0.47340916934E+02  0.00000000000E+00 0. -1.
          1    1    1    2  501    0 -0.78027477644E+02  0.35439276830E+02 -0.71921341030E+02  0.11187899224E+03  0.00000000000E+00 0. -1.
<scales pt_clust_5="13000.00000" pt_clust_6="13000.00000" pt_clust_7="13000.00000" pt_clust_8="13000.00000" pt_clust_9="31.22214" pt_clust_10="84.43909"></scales>
<clustering>
<clus scale="   31.222">  1  9  2 -1</clus>
<clus scale="   84.439">  2 10  1 -1</clus>
<clus scale="   90.695">  7  8 -1 -1</clus>
<clus scale="   92.434">  5  6 -1 -1</clus>
<clus scale="  109.832">  1  7  2 -1</clus>
<clus scale="   84.439">  2  5  1 -1</clus>
</clustering>
</event>
<event>
10    2  0.1671105E-006  0.1367216E+03  0.7546771E-02  0.1234004E+00
          1   -1    0    0  502    0 -0.00000000000E+00  0.00000000000E+00  0.77769016481E+02  0.77769016481E+02  0.00000000000E+00 0. -1.
         21   -1    0    0  503  502  0.00000000000E+00 -0.00000000000E+00 -0.76794345225E+03  0.76794345225E+03  0.00000000000E+00 0.  1.
         23    2    1    2    0    0  0.19785859695E+02 -0.27690286887E+02 -0.18871638855E+02  0.99444000951E+02  0.91513596478E+02 0.  0.
         23    2    1    2    0    0 -0.37313156774E+02 -0.76341942199E+02 -0.89794384934E+02  0.15355157617E+03  0.91075195158E+02 0.  0.
        -11    1    3    3    0    0  0.29598339184E+02 -0.55400802473E+02  0.28757998392E+01  0.62877506486E+02  0.00000000000E+00 0.  1.
         11    1    3    3    0    0 -0.98124794890E+01  0.27710515586E+02 -0.21747438694E+02  0.36566494466E+02  0.00000000000E+00 0. -1.
        -13    1    4    4    0    0 -0.14834152702E+02 -0.77956676786E+02 -0.10094871016E+03  0.12840536447E+03  0.00000000000E+00 0.  1.
         13    1    4    4    0    0 -0.22479004072E+02  0.16147345871E+01  0.11154325226E+02  0.25146211705E+02  0.00000000000E+00 0. -1.
         21    1    1    2  503  501  0.12714541253E+02  0.44287108538E+02 -0.37071391160E+03  0.37356634189E+03  0.00000000000E+00 0.  1.
          1    1    1    2  501    0  0.48127558260E+01  0.59745120548E+02 -0.21079450038E+03  0.21915054972E+03  0.00000000000E+00 0. -1.
<scales pt_clust_5="13000.00000" pt_clust_6="13000.00000" pt_clust_7="13000.00000" pt_clust_8="13000.00000" pt_clust_9="39.51654" pt_clust_10="111.48751"></scales>
<clustering>
<clus scale="   39.517">  9 10 -1 -1</clus>
<clus scale="   91.075">  7  8 -1 -1</clus>
<clus scale="   91.514">  5  6 -1 -1</clus>
<clus scale="   97.637">  1  5  2 -1</clus>
<clus scale="  111.488">  2  9  1 -1</clus>
<clus scale="  111.488">  2  5  1 -1</clus>
</clustering>
</event>
<event>
10    2  0.1671105E-006  0.3722949E+03  0.7546771E-02  0.1091531E+00
          1   -1    0    0  502    0 -0.00000000000E+00  0.00000000000E+00  0.10016752804E+04  0.10016752804E+04  0.00000000000E+00 0. -1.
         21   -1    0    0  503  502  0.00000000000E+00 -0.00000000000E+00 -0.36257870383E+03  0.36257870383E+03  0.00000000000E+00 0. -1.
         23    2    1    2    0    0  0.21910261724E+02  0.96588985820E+02 -0.72614676960E+02  0.15140757011E+03  0.88554329234E+02 0.  0.
         23    2    1    2    0    0  0.18402238776E+03  0.20258347347E+03  0.76485505874E+03  0.82188075263E+03  0.12482150356E+03 0.  0.
        -11    1    3    3    0    0 -0.27442562486E+02  0.27573156809E+02  0.12376550175E+01  0.38921780562E+02  0.00000000000E+00 0.  1.
         11    1    3    3    0    0  0.49352824210E+02  0.69015829011E+02 -0.73852331977E+02  0.11248578955E+03  0.00000000000E+00 0. -1.
        -13    1    4    4    0    0 -0.58929241410E+01  0.64820278132E+02  0.19667555742E+03  0.20716580292E+03  0.00000000000E+00 0.  1.
         13    1    4    4    0    0  0.18991531190E+03  0.13776319533E+03  0.56817950131E+03  0.61471494971E+03  0.00000000000E+00 0. -1.
         21    1    1    2  503  501 -0.54852969658E+02 -0.25872396094E+02  0.30207021582E+02  0.67754655285E+02  0.00000000000E+00 0.  1.
          1    1    1    2  501    0 -0.15107967983E+03 -0.27330006319E+03 -0.83350826799E+02  0.32321100620E+03  0.00000000000E+00 0. -1.
<scales pt_clust_5="13000.00000" pt_clust_6="13000.00000" pt_clust_7="13000.00000" pt_clust_8="13000.00000" pt_clust_9="59.31810" pt_clust_10="59.31810"></scales>
<clustering>
<clus scale="   59.318">  9 10 -1 -1</clus>
<clus scale="   88.554">  5  6 -1 -1</clus>
<clus scale="  124.822">  7  8 -1 -1</clus>
<clus scale="  132.858">  1  5  2 -1</clus>
<clus scale="  368.872">  1  7  2 -1</clus>
<clus scale="  372.295">  2  5  1 -1</clus>
</clustering>
</event>
<event>
10    2  0.1671105E-006  0.1871217E+03  0.7546771E-02  0.1162745E+00
          2   -1    0    0  502    0 -0.00000000000E+00  0.00000000000E+00  0.50484688146E+03  0.50484688146E+03  0.00000000000E+00 0. -1.
         21   -1    0    0  503  502  0.00000000000E+00 -0.00000000000E+00 -0.34556419558E+03  0.34556419558E+03  0.00000000000E+00 0.  1.
         23    2    1    2    0    0  0.87492234399E+02  0.12750696051E+03  0.42426425949E+03  0.46074854506E+03  0.91521275332E+02 0.  0.
         23    2    1    2    0    0 -0.45378246539E+02 -0.16051532829E+03 -0.11471375641E+03  0.22794255686E+03  0.10475785146E+03 0.  0.
        -11    1    4    4    0    0 -0.72808269001E+02 -0.89616039361E+02 -0.94698148387E+02  0.14933123536E+03  0.00000000000E+00 0.  1.
         11    1    4    4    0    0  0.27430022462E+02 -0.70899288931E+02 -0.20015608018E+02  0.78611321497E+02  0.00000000000E+00 0. -1.
        -13    1    3    3    0    0  0.60164784868E+02  0.51730052520E+02  0.10576024581E+03  0.13221584347E+03  0.00000000000E+00 0.  1.
         13    1    3    3    0    0  0.27327449531E+02  0.75776907993E+02  0.31850401368E+03  0.32853270159E+03  0.00000000000E+00 0. -1.
         21    1    1    2  503  501 -0.28787730437E+02  0.57304789829E+01 -0.77563904285E+02  0.82932087042E+02  0.00000000000E+00 0.  1.
          2    1    1    2  501    0 -0.13326257422E+02  0.27277888796E+02 -0.72703912915E+02  0.78787888074E+02  0.00000000000E+00 0. -1.
<scales pt_clust_5="13000.00000" pt_clust_6="13000.00000" pt_clust_7="13000.00000" pt_clust_8="13000.00000" pt_clust_9="26.19658" pt_clust_10="59.77402"></scales>
<clustering>
<clus scale="   26.197">  9 10 -1 -1</clus>
<clus scale="   59.774">  2  9  1 -1</clus>
<clus scale="   91.521">  7  8 -1 -1</clus>
<clus scale="  104.758">  5  6 -1 -1</clus>
<clus scale="  180.046">  1  7  2 -1</clus>
<clus scale="   59.774">  2  5  1 -1</clus>
</clustering>
</event>
<event>
10    2  0.1671105E-006  0.1069099E+03  0.7546771E-02  0.1267778E+00
         -3   -1    0    0    0  501 -0.00000000000E+00  0.00000000000E+00  0.24010332442E+03  0.24010332442E+03  0.00000000000E+00 0.  1.
         21   -1    0    0  501  502  0.00000000000E+00 -0.00000000000E+00 -0.12660507754E+03  0.12660507754E+03  0.00000000000E+00 0. -1.
         23    2    1    2    0    0 -0.29870204183E+02  0.29649130352E+01  0.66803202756E+02  0.11834988792E+03  0.92967780786E+02 0.  0.
         23    2    1    2    0    0  0.57594143574E+02 -0.63968960446E+02  0.98220180887E+02  0.15844291862E+03  0.89709761199E+02 0.  0.
        -11    1    4    4    0    0 -0.21560106477E+02 -0.31298394867E+02  0.38094127532E+02  0.53810689133E+02  0.00000000000E+00 0.  1.
         11    1    4    4    0    0  0.79154250051E+02 -0.32670565579E+02  0.60126053355E+02  0.10463222949E+03  0.00000000000E+00 0. -1.
        -13    1    3    3    0    0 -0.21783798035E+02 -0.25881718596E+02  0.79050347212E+02  0.85984618442E+02  0.00000000000E+00 0.  1.
         13    1    3    3    0    0 -0.80864061483E+01  0.28846631631E+02 -0.12247144456E+02  0.32365269475E+02  0.00000000000E+00 0. -1.
         21    1    1    2  503  502  0.50135538720E+01  0.22045941017E+02 -0.18901788136E+02  0.29469252323E+02  0.00000000000E+00 0.  1.
         -3    1    1    2    0  503 -0.32737493263E+02  0.38958106394E+02 -0.32623348623E+02  0.60446343101E+02  0.00000000000E+00 0.  1.
<scales pt_clust_5="13000.00000" pt_clust_6="13000.00000" pt_clust_7="13000.00000" pt_clust_8="13000.00000" pt_clust_9="20.43471" pt_clust_10="73.68836"></scales>
<clustering>
<clus scale="   20.435">  9 10 -1 -1</clus>
<clus scale="   73.688">  2  9  1 -1</clus>
<clus scale="   89.710">  5  6 -1 -1</clus>
<clus scale="   92.968">  7  8 -1 -1</clus>
<clus scale="  104.089">  2  5  1 -1</clus>
<clus scale="   73.688">  2  5  1 -1</clus>
</clustering>
</event>
<event>
10    2  0.1671105E-006  0.1489248E+03  0.7546771E-02  0.1221903E+00
          3   -1    0    0  503    0 -0.00000000000E+00  0.00000000000E+00  0.75342722317E+03  0.75342722317E+03  0.00000000000E+00 0. -1.
         21   -1    0    0  501  502  0.00000000000E+00 -0.00000000000E+00 -0.77525706401E+02  0.77525706401E+02  0.00000000000E+00 0. -1.
         23    2    1    2    0    0  0.26423578587E+02 -0.17425229953E+02  0.22940006544E+03  0.25000234926E+03  0.94206902429E+02 0.  0.
         23    2    1    2    0    0 -0.23778217684E+02 -0.95584932260E+02  0.25795875282E+03  0.29083454123E+03  0.91324308380E+02 0.  0.
        -11    1    4    4    0    0 -0.48301981318E+02 -0.28749911616E+02  0.69556516118E+02  0.89430127763E+02  0.00000000000E+00 0. -1.
         11    1    4    4    0    0  0.24523763634E+02 -0.66835020645E+02  0.18840223670E+03  0.20140441346E+03  0.00000000000E+00 0.  1.
        -13    1    3    3    0    0  0.60518239533E+02 -0.20008118524E+02  0.12799359007E+03  0.14298650714E+03  0.00000000000E+00 0. -1.
         13    1    3    3    0    0 -0.34094660946E+02  0.25828885709E+01  0.10140647537E+03  0.10701584212E+03  0.00000000000E+00 0.  1.
         21    1    1    2  503  502  0.66762720082E+02  0.12389641305E+03  0.16301941750E+03  0.21536692514E+03  0.00000000000E+00 0. -1.
          3    1    1    2  501    0 -0.69408080985E+02 -0.10886250839E+02  0.25523281003E+02  0.74749113951E+02  0.00000000000E+00 0. -1.
<scales pt_clust_5="13000.00000" pt_clust_6="13000.00000" pt_clust_7="13000.00000" pt_clust_8="13000.00000" pt_clust_9="117.63705" pt_clust_10="70.25662"></scales>
<clustering>
<clus scale="   70.257">  2 10  1 -1</clus>
<clus scale="   91.324">  5  6 -1 -1</clus>
<clus scale="   94.207">  7  8 -1 -1</clus>
<clus scale="   97.075">  1  7  2 -1</clus>
<clus scale="  117.637">  2  9  1 -1</clus>
<clus scale="   70.257">  2  5  1 -1</clus>
</clustering>
</event>
<event>
10    2  0.1671105E-006  0.1187284E+03  0.7546771E-02  0.1245241E+00
         21   -1    0    0  503  502  0.00000000000E+00  0.00000000000E+00  0.55563505469E+02  0.55563505469E+02  0.00000000000E+00 0. -1.
         -1   -1    0    0    0  501 -0.00000000000E+00 -0.00000000000E+00 -0.55510689864E+03  0.55510689864E+03  0.00000000000E+00 0.  1.
         23    2    1    2    0    0 -0.36388239319E+02 -0.83881505976E+02 -0.23566497795E+03  0.26876061974E+03  0.91291170901E+02 0.  0.
         23    2    1    2    0    0 -0.41377329014E+02  0.72604340014E+02 -0.15494318802E+03  0.19835046382E+03  0.91389503985E+02 0.  0.
        -13    1    4    4    0    0 -0.93795302728E+00  0.45718983765E+02 -0.14039889338E+03  0.14765823545E+03  0.00000000000E+00 0.  1.
         13    1    4    4    0    0 -0.40439375987E+02  0.26885356249E+02 -0.14544294637E+02  0.50692228372E+02  0.00000000000E+00 0. -1.
        -13    1    3    3    0    0  0.10352560568E+02 -0.27385357984E+02 -0.16271703381E+03  0.16532987157E+03  0.00000000000E+00 0.  1.
         13    1    3    3    0    0 -0.46740799887E+02 -0.56496147992E+02 -0.72947944142E+02  0.10343074817E+03  0.00000000000E+00 0. -1.
         21    1    1    2  503  501  0.17655780039E+02  0.22346406541E+02 -0.55471981531E+02  0.62355666856E+02  0.00000000000E+00 0. -1.
         -1    1    1    2    0  502  0.60109788295E+02 -0.11069240579E+02 -0.53463245668E+02  0.81203653694E+02  0.00000000000E+00 0.  1.
<scales pt_clust_5="13000.00000" pt_clust_6="13000.00000" pt_clust_7="13000.00000" pt_clust_8="13000.00000" pt_clust_9="28.47961" pt_clust_10="63.02024"></scales>
<clustering>
<clus scale="   28.480">  2  9  1 -1</clus>
<clus scale="   63.020">  1 10  2 -1</clus>
<clus scale="   91.291">  7  8 -1 -1</clus>
<clus scale="   91.390">  5  6 -1 -1</clus>
<clus scale="  118.653">  2  7  1 -1</clus>
<clus scale="   63.020">  1  5  2 -1</clus>
</clustering>
</event>
<event>
10    2  0.1671105E-006  0.1733211E+03  0.7546771E-02  0.1194423E+00
         21   -1    0    0  501  502  0.00000000000E+00  0.00000000000E+00  0.26390836906E+03  0.26390836906E+03  0.00000000000E+00 0.  1.
         -4   -1    0    0    0  501 -0.00000000000E+00 -0.00000000000E+00 -0.22771947491E+03  0.22771947491E+03  0.00000000000E+00 0.  1.
         23    2    1    2    0    0  0.55431087087E+02 -0.26585959843E+02 -0.55907768799E+02  0.12424006182E+03  0.92360682510E+02 0.  0.
         23    2    1    2    0    0 -0.15514618089E+03 -0.76796654443E+02 -0.21639878777E+01  0.19354438877E+03  0.86525626272E+02 0.  0.
        -11    1    3    3    0    0 -0.16231802644E+02 -0.34718080374E+02 -0.25099665811E+02  0.45812768370E+02  0.00000000000E+00 0. -1.
         11    1    3    3    0    0  0.71662889730E+02  0.81321205306E+01 -0.30808102988E+02  0.78427293454E+02  0.00000000000E+00 0.  1.
        -13    1    4    4    0    0 -0.25155114113E+02  0.79635733367E+01 -0.25407372012E+02  0.36629671291E+02  0.00000000000E+00 0. -1.
         13    1    4    4    0    0 -0.12999106678E+03 -0.84760227780E+02  0.23243384134E+02  0.15691471748E+03  0.00000000000E+00 0.  1.
         21    1    1    2  503  502  0.45792665286E+02  0.58096209592E+02  0.35125209131E+02  0.81889670163E+02  0.00000000000E+00 0.  1.
         -4    1    1    2    0  503  0.53922428517E+02  0.45286404694E+02  0.59135441703E+02  0.91953723213E+02  0.00000000000E+00 0.  1.
<scales pt_clust_5="13000.00000" pt_clust_6="13000.00000" pt_clust_7="13000.00000" pt_clust_8="13000.00000" pt_clust_9="25.91271" pt_clust_10="152.50876"></scales>
<clustering>
<clus scale="   25.913">  9 10 -1 -1</clus>
<clus scale="   86.526">  7  8 -1 -1</clus>
<clus scale="   92.361">  5  6 -1 -1</clus>
<clus scale="  110.950">  2  5  1 -1</clus>
<clus scale="  152.509">  1  9  2 -1</clus>
<clus scale="  152.509">  1  5  2 -1</clus>
</clustering>
</event>
<event>
10    2  0.1671105E-006  0.3081604E+03  0.7546771E-02  0.1128026E+00
         21   -1    0    0  501  502  0.00000000000E+00  0.00000000000E+00  0.56526128733E+03  0.56526128733E+03  0.00000000000E+00 0. -1.
          1   -1    0    0  503    0 -0.00000000000E+00 -0.00000000000E+00 -0.57214354401E+03  0.57214354401E+03  0.00000000000E+00 0. -1.
         23    2    1    2    0    0 -0.29229265232E+01  0.15938969253E+02 -0.27570868270E+03  0.29078443606E+03  0.90981955904E+02 0.  0.
         23    2    1    2    0    0 -0.15423224471E+03  0.24094445719E+03 -0.12449921569E+03  0.32507351322E+03  0.91273860066E+02 0.  0.
        -11    1    4    4    0    0 -0.10303496080E+03  0.20289023308E+03 -0.12818830221E+03  0.26117597640E+03  0.00000000000E+00 0. -1.
         11    1    4    4    0    0 -0.51197283903E+02  0.38054224107E+02  0.36890865200E+01  0.63897536813E+02  0.00000000000E+00 0.  1.
        -11    1    3    3    0    0 -0.21621135687E+02  0.49320954562E+02 -0.17257012267E+03  0.18077742477E+03  0.00000000000E+00 0. -1.
         11    1    3    3    0    0  0.18698209164E+02 -0.33381985309E+02 -0.10313856003E+03  0.11000701130E+03  0.00000000000E+00 0.  1.
         21    1    1    2  503  502  0.11438462180E+03 -0.26248805145E+03  0.38116555298E+03  0.47672948056E+03  0.00000000000E+00 0. -1.
          1    1    1    2  501    0  0.42770549432E+02  0.56046250084E+01  0.12160088733E+02  0.44817401511E+02  0.00000000000E+00 0. -1.
<scales pt_clust_5="13000.00000" pt_clust_6="13000.00000" pt_clust_7="13000.00000" pt_clust_8="13000.00000" pt_clust_9="294.33302" pt_clust_10="43.13620"></scales>
<clustering>
<clus scale="   43.136">  1 10  2 -1</clus>
<clus scale="   90.982">  7  8 -1 -1</clus>
<clus scale="   91.274">  5  6 -1 -1</clus>
<clus scale="   92.410">  2  7  1 -1</clus>
<clus scale="  294.333">  1  9  2 -1</clus>
<clus scale="   43.136">  1  5  2 -1</clus>
</clustering>
</event>
<event>
10    2  0.1671105E-006  0.2027040E+03  0.7546771E-02  0.1147657E+00
         21   -1    0    0  503  502  0.00000000000E+00  0.00000000000E+00  0.13138974140E+03  0.13138974140E+03  0.00000000000E+00 0. -1.
          1   -1    0    0  502    0 -0.00000000000E+00 -0.00000000000E+00 -0.92418111726E+03  0.92418111726E+03  0.00000000000E+00 0. -1.
         23    2    1    2    0    0  0.11946548744E+03  0.55106519262E+02 -0.24612648262E+03  0.29400855399E+03  0.92488124725E+02 0.  0.
         23    2    1    2    0    0 -0.22973619851E+03 -0.50760470295E+02 -0.58696351484E+03  0.63881636675E+03  0.90580552120E+02 0.  0.
        -11    1    3    3    0    0  0.95982384882E+02  0.69738901188E+00 -0.11283918151E+03  0.14814109978E+03  0.00000000000E+00 0. -1.
         11    1    3    3    0    0  0.23483102561E+02  0.54409130250E+02 -0.13328730111E+03  0.14586745421E+03  0.00000000000E+00 0.  1.
        -13    1    4    4    0    0 -0.70539620127E+02 -0.57540883055E+02 -0.17846450221E+03  0.20034063437E+03  0.00000000000E+00 0.  1.
         13    1    4    4    0    0 -0.15919657839E+03  0.67804127598E+01 -0.40849901263E+03  0.43847573238E+03  0.00000000000E+00 0. -1.
         21    1    1    2  503  501  0.75070421032E+02  0.13645393680E+02  0.23998228596E+02  0.79985497801E+02  0.00000000000E+00 0. -1.
          1    1    1    2  501    0  0.35200290038E+02 -0.17991442647E+02  0.16300393003E+02  0.42760440120E+02  0.00000000000E+00 0. -1.
<scales pt_clust_5="13000.00000" pt_clust_6="13000.00000" pt_clust_7="13000.00000" pt_clust_8="13000.00000" pt_clust_9="25.59141" pt_clust_10="115.94217"></scales>
<clustering>
<clus scale="   25.591">  9 10 -1 -1</clus>
<clus scale="   90.581">  7  8 -1 -1</clus>
<clus scale="   92.488">  5  6 -1 -1</clus>
<clus scale="  115.942">  1  9  2 -1</clus>
<clus scale="  201.841">  1  7  2 -1</clus>
<clus scale="  115.942">  1  5  2 -1</clus>
</clustering>
</event>
<event>
10    2  0.1671105E-006  0.1134794E+03  0.7546771E-02  0.1254386E+00
         21   -1    0    0  501  502  0.00000000000E+00  0.00000000000E+00  0.79096316228E+02  0.79096316228E+02  0.00000000000E+00 0.  1.
         -4   -1    0    0    0  501 -0.00000000000E+00 -0.00000000000E+00 -0.46291708668E+03  0.46291708668E+03  0.00000000000E+00 0.  1.
         23    2    1    2    0    0 -0.23562733015E+02 -0.72385600795E+02 -0.25149665246E+03  0.27810745004E+03  0.91095060142E+02 0.  0.
         23    2    1    2    0    0  0.76775462445E+02  0.41935867451E+01 -0.32432394496E+02  0.12380256097E+03  0.91450292979E+02 0.  0.
        -11    1    3    3    0    0 -0.43793807539E+02 -0.76505478951E+02 -0.23704531085E+03  0.25290604042E+03  0.00000000000E+00 0.  1.
         11    1    3    3    0    0  0.20231074524E+02  0.41198781568E+01 -0.14451341611E+02  0.25201409619E+02  0.00000000000E+00 0. -1.
        -13    1    4    4    0    0  0.43599132203E+02 -0.31688791147E+02  0.14742465075E+02  0.55878476086E+02  0.00000000000E+00 0.  1.
         13    1    4    4    0    0  0.33176330241E+02  0.35882377892E+02 -0.47174859571E+02  0.67924084881E+02  0.00000000000E+00 0. -1.
         21    1    1    2  503  502 -0.51941567614E+02  0.32582472186E+02 -0.73754266028E+02  0.95912646180E+02  0.00000000000E+00 0.  1.
         -4    1    1    2    0  503 -0.12711618154E+01  0.35609541863E+02 -0.26137457473E+02  0.44190745719E+02  0.00000000000E+00 0.  1.
<scales pt_clust_5="13000.00000" pt_clust_6="13000.00000" pt_clust_7="13000.00000" pt_clust_8="13000.00000" pt_clust_9="35.50204" pt_clust_10="98.23754"></scales>
<clustering>
<clus scale="   35.502">  9 10 -1 -1</clus>
<clus scale="   91.095">  5  6 -1 -1</clus>
<clus scale="   91.450">  7  8 -1 -1</clus>
<clus scale="   98.238">  1  9  2 -1</clus>
<clus scale="  113.193">  2  5  1 -1</clus>
<clus scale="   98.238">  1  5  2 -1</clus>
</clustering>
</event>
<event>
10    2  0.1671105E-006  0.1239187E+03  0.7546771E-02  0.1237530E+00
          2   -1    0    0  502    0 -0.00000000000E+00  0.00000000000E+00  0.15165706892E+04  0.15165706892E+04  0.00000000000E+00 0. -1.
         21   -1    0    0  503  502  0.00000000000E+00 -0.00000000000E+00 -0.23380127547E+02  0.23380127547E+02  0.00000000000E+00 0. -1.
         23    2    1    2    0    0 -0.21565050302E+02 -0.62191141517E+02  0.37946275217E+03  0.39709826043E+03  0.96758765333E+02 0.  0.
         23    2    1    2    0    0 -0.80012535774E+02  0.82504520542E+02  0.59090752060E+03  0.60932199438E+03  0.94300546861E+02 0.  0.
        -11    1    3    3    0    0  0.15191273939E+02 -0.53726191505E+02  0.33105745576E+03  0.33573250881E+03  0.00000000000E+00 0.  1.
         11    1    3    3    0    0 -0.36756324242E+02 -0.84649500118E+01  0.48405296410E+02  0.61365751613E+02  0.00000000000E+00 0. -1.
        -11    1    4    4    0    0  0.16643098905E+02  0.36119375949E+02  0.20373432736E+03  0.20757957078E+03  0.00000000000E+00 0.  1.
         11    1    4    4    0    0 -0.96655634678E+02  0.46385144593E+02  0.38717319324E+03  0.40174242360E+03  0.00000000000E+00 0. -1.
         21    1    1    2  503  501  0.48142919441E+02 -0.16896986274E+02  0.20645474010E+03  0.21266595531E+03  0.00000000000E+00 0.  1.
          2    1    1    2  501    0  0.53434666635E+02 -0.34163927517E+01  0.31636554881E+03  0.32086460667E+03  0.00000000000E+00 0. -1.
<scales pt_clust_5="13000.00000" pt_clust_6="13000.00000" pt_clust_7="13000.00000" pt_clust_8="13000.00000" pt_clust_9="23.57332" pt_clust_10="106.36643"></scales>
<clustering>
<clus scale="   23.573">  9 10 -1 -1</clus>
<clus scale="   94.301">  7  8 -1 -1</clus>
<clus scale="   96.759">  5  6 -1 -1</clus>
<clus scale="  106.366">  2  9  1 -1</clus>
<clus scale="  122.009">  2  7  1 -1</clus>
<clus scale="  106.366">  2  5  1 -1</clus>
</clustering>
</event>
<event>
10    2  0.1671105E-006  0.2382818E+03  0.7546771E-02  0.1150878E+00
         21   -1    0    0  501  502  0.00000000000E+00  0.00000000000E+00  0.10248127325E+04  0.10248127325E+04  0.00000000000E+00 0. -1.
          3   -1    0    0  503    0 -0.00000000000E+00 -0.00000000000E+00 -0.12793410934E+03  0.12793410934E+03  0.00000000000E+00 0. -1.
         23    2    1    2    0    0  0.70445171020E+02  0.37433578594E+02  0.10232197089E+03  0.15759969843E+03  0.89465548074E+02 0.  0.
         23    2    1    2    0    0 -0.90565615680E+02 -0.24162180872E+03  0.19758088365E+03  0.33778879274E+03  0.92086012614E+02 0.  0.
        -13    1    3    3    0    0 -0.61581053710E+01  0.36324519213E+02  0.11107958427E+02  0.38480900434E+02  0.00000000000E+00 0. -1.
         13    1    3    3    0    0  0.76603276391E+02  0.11090593809E+01  0.91214012462E+02  0.11911879800E+03  0.00000000000E+00 0.  1.
        -13    1    4    4    0    0 -0.11943304568E+02 -0.16007135043E+03  0.12187394950E+03  0.20154091227E+03  0.00000000000E+00 0.  1.
         13    1    4    4    0    0 -0.78622311112E+02 -0.81550458294E+02  0.75706934157E+02  0.13624788047E+03  0.00000000000E+00 0. -1.
         21    1    1    2  503  502 -0.63298390629E+02  0.10293683055E+02  0.13995475772E+03  0.15394797944E+03  0.00000000000E+00 0.  1.
          3    1    1    2  501    0  0.83418835289E+02  0.19389454707E+03  0.45702101091E+03  0.50341037125E+03  0.00000000000E+00 0. -1.
<scales pt_clust_5="13000.00000" pt_clust_6="13000.00000" pt_clust_7="13000.00000" pt_clust_8="13000.00000" pt_clust_9="64.12992" pt_clust_10="219.76896"></scales>
<clustering>
<clus scale="   64.130">  1  9  2 -1</clus>
<clus scale="   89.466">  5  6 -1 -1</clus>
<clus scale="   92.086">  7  8 -1 -1</clus>
<clus scale="  115.117">  2  5  1 -1</clus>
<clus scale="  219.769">  1 10  2 -1</clus>
<clus scale="   64.130">  1  5  2 -1</clus>
</clustering>
</event>
<event>
10    2  0.1671105E-006  0.1891578E+03  0.7546771E-02  0.1159692E+00
         21   -1    0    0  501  502  0.00000000000E+00  0.00000000000E+00  0.85392771256E+03  0.85392771256E+03  0.00000000000E+00 0. -1.
          3   -1    0    0  503    0 -0.00000000000E+00 -0.00000000000E+00 -0.18999575701E+03  0.18999575701E+03  0.00000000000E+00 0. -1.
         23    2    1    2    0    0  0.14573290610E+03 -0.11055372036E+03  0.13877858861E+02  0.20412735596E+03  0.89527523595E+02 0.  0.
         23    2    1    2    0    0 -0.36556242385E+02  0.16805274624E+03  0.34605656778E+02  0.19498257287E+03  0.85103277647E+02 0.  0.
        -11    1    3    3    0    0  0.36644753864E+02 -0.83540462170E+02  0.40168758413E+01  0.91312551694E+02  0.00000000000E+00 0.  1.
         11    1    3    3    0    0  0.10908815224E+03 -0.27013258187E+02  0.98609830196E+01  0.11281480427E+03  0.00000000000E+00 0. -1.
        -13    1    4    4    0    0  0.24120887405E+02  0.47291603709E+02  0.27154140989E+02  0.59629358234E+02  0.00000000000E+00 0.  1.
         13    1    4    4    0    0 -0.60677129790E+02  0.12076114253E+03  0.74515157892E+01  0.13535321463E+03  0.00000000000E+00 0. -1.
         21    1    1    2  503  502 -0.90098628357E+02 -0.10665928409E+03  0.44247268217E+03  0.46397849108E+03  0.00000000000E+00 0. -1.
          3    1    1    2  501    0 -0.19078035359E+02  0.49160258212E+02  0.17297575774E+03  0.18083504966E+03  0.00000000000E+00 0. -1.
<scales pt_clust_5="13000.00000" pt_clust_6="13000.00000" pt_clust_7="13000.00000" pt_clust_8="13000.00000" pt_clust_9="126.57514" pt_clust_10="52.73237"></scales>
<clustering>
<clus scale="   52.732">  1 10  2 -1</clus>
<clus scale="   85.103">  7  8 -1 -1</clus>
<clus scale="   89.528">  5  6 -1 -1</clus>
<clus scale="  126.575">  1  9  2 -1</clus>
<clus scale="  187.104">  1  7  2 -1</clus>
<clus scale="   52.732">  1  5  2 -1</clus>
</clustering>
</event>
<event>
10    2  0.1671105E-006  0.1391566E+03  0.7546771E-02  0.1229677E+00
          3   -1    0    0  503    0 -0.00000000000E+00  0.00000000000E+00  0.25431453504E+03  0.25431453504E+03  0.00000000000E+00 0. -1.
         21   -1    0    0  501  502  0.00000000000E+00 -0.00000000000E+00 -0.35225596099E+03  0.35225596099E+03  0.00000000000E+00 0. -1.
         23    2    1    2    0    0  0.25828153273E+02  0.39927911255E+02  0.26013372680E+02  0.10555180049E+03  0.90571272651E+02 0.  0.
         23    2    1    2    0    0  0.57376439098E+02 -0.37806249621E+02  0.12226910929E+03  0.16556494939E+03  0.87980958772E+02 0.  0.
        -11    1    3    3    0    0 -0.29211525540E+02 -0.68302371220E+01  0.57787535393E+01  0.30550930526E+02  0.00000000000E+00 0.  1.
         11    1    3    3    0    0  0.55039678813E+02  0.46758148377E+02  0.20234619141E+02  0.75000869963E+02  0.00000000000E+00 0. -1.
        -13    1    4    4    0    0  0.45077676944E+02 -0.56529285128E+02  0.12352431288E+03  0.14312865859E+03  0.00000000000E+00 0. -1.
         13    1    4    4    0    0  0.12298762155E+02  0.18723035507E+02 -0.12552035892E+01  0.22436290807E+02  0.00000000000E+00 0.  1.
         21    1    1    2  503  502  0.24197033175E+02 -0.30450229721E+02  0.22321396560E+02  0.44843702444E+02  0.00000000000E+00 0. -1.
          3    1    1    2  501    0 -0.10740162555E+03  0.28328568086E+02 -0.26854530448E+03  0.29061004370E+03  0.00000000000E+00 0. -1.
<scales pt_clust_5="13000.00000" pt_clust_6="13000.00000" pt_clust_7="13000.00000" pt_clust_8="13000.00000" pt_clust_9="38.89361" pt_clust_10="107.81423"></scales>
<clustering>
<clus scale="   38.894">  1  9  2 -1</clus>
<clus scale="   87.981">  7  8 -1 -1</clus>
<clus scale="   90.571">  5  6 -1 -1</clus>
<clus scale="  101.226">  1  5  2 -1</clus>
<clus scale="  107.814">  2 10  1 -1</clus>
<clus scale="  107.814">  2  5  1 -1</clus>
</clustering>
</event>
<event>
10    2  0.1671105E-006  0.2235100E+03  0.7546771E-02  0.1149755E+00
         21   -1    0    0  503  502  0.00000000000E+00  0.00000000000E+00  0.33369679543E+03  0.33369679543E+03  0.00000000000E+00 0. -1.
          1   -1    0    0  502    0 -0.00000000000E+00 -0.00000000000E+00 -0.30468459139E+03  0.30468459139E+03  0.00000000000E+00 0. -1.
         23    2    1    2    0    0 -0.10962525579E+03  0.32925237943E+01 -0.61834988486E+01  0.14337232282E+03  0.92134954673E+02 0.  0.
         23    2    1    2    0    0  0.25409188676E+03  0.10559678714E+03 -0.41826549018E+02  0.29208531117E+03  0.88605871283E+02 0.  0.
        -13    1    4    4    0    0  0.17036413609E+03  0.11044281440E+03 -0.45765286696E+02  0.20812499990E+03  0.00000000000E+00 0. -1.
         13    1    4    4    0    0  0.83727750673E+02 -0.48460272678E+01  0.39387376784E+01  0.83960311264E+02  0.00000000000E+00 0.  1.
        -13    1    3    3    0    0 -0.92039171032E+02  0.39003085730E+02 -0.18593385379E+02  0.10167676077E+03  0.00000000000E+00 0.  1.
         13    1    3    3    0    0 -0.17586084756E+02 -0.35710561935E+02  0.12409886531E+02  0.41695562048E+02  0.00000000000E+00 0. -1.
         21    1    1    2  503  501 -0.24837567309E+02 -0.15007387285E+02  0.34378350512E+02  0.44988858697E+02  0.00000000000E+00 0.  1.
          1    1    1    2  501    0 -0.11962906366E+03 -0.93881923646E+02  0.42643901387E+02  0.15793489414E+03  0.00000000000E+00 0. -1.
<scales pt_clust_5="13000.00000" pt_clust_6="13000.00000" pt_clust_7="13000.00000" pt_clust_8="13000.00000" pt_clust_9="21.92116" pt_clust_10="211.24359"></scales>
<clustering>
<clus scale="   21.921">  9 10 -1 -1</clus>
<clus scale="   88.606">  5  6 -1 -1</clus>
<clus scale="   92.135">  7  8 -1 -1</clus>
<clus scale="  143.239">  2  7  1 -1</clus>
<clus scale="  211.244">  1  9  2 -1</clus>
<clus scale="  211.244">  1  5  2 -1</clus>
</clustering>
</event>
<event>
10    2  0.1671105E-006  0.2558167E+03  0.7546771E-02  0.1109753E+00
         21   -1    0    0  501  502  0.00000000000E+00  0.00000000000E+00  0.22490313482E+03  0.22490313482E+03  0.00000000000E+00 0. -1.
          3   -1    0    0  503    0 -0.00000000000E+00 -0.00000000000E+00 -0.50255690775E+03  0.50255690775E+03  0.00000000000E+00 0. -1.
         23    2    1    2    0    0  0.38576494976E+02 -0.24284883581E+03 -0.16517959909E+03  0.30997059196E+03  0.91289456725E+02 0.  0.
         23    2    1    2    0    0 -0.79423969024E+02  0.20293075381E+03  0.45389522463E+02  0.24107347793E+03  0.92558928875E+02 0.  0.
        -11    1    4    4    0    0  0.12929029300E+02  0.51375194770E+02 -0.12429210285E+02  0.54415583288E+02  0.00000000000E+00 0.  1.
         11    1    4    4    0    0 -0.92352998324E+02  0.15155555904E+03  0.57818732748E+02  0.18665789464E+03  0.00000000000E+00 0. -1.
        -13    1    3    3    0    0  0.57638126059E+02 -0.18091670739E+03 -0.88237730598E+02  0.20937742402E+03  0.00000000000E+00 0. -1.
         13    1    3    3    0    0 -0.19061631083E+02 -0.61932128419E+02 -0.76941868493E+02  0.10059316795E+03  0.00000000000E+00 0.  1.
         21    1    1    2  503  502  0.18489451913E+02 -0.11046735151E+02 -0.29673769333E+02  0.36666371186E+02  0.00000000000E+00 0.  1.
          3    1    1    2  501    0  0.22358022135E+02  0.50964817148E+02 -0.12818992697E+03  0.13974960149E+03  0.00000000000E+00 0. -1.
<scales pt_clust_5="13000.00000" pt_clust_6="13000.00000" pt_clust_7="13000.00000" pt_clust_8="13000.00000" pt_clust_9="21.53811" pt_clust_10="55.22396"></scales>
<clustering>
<clus scale="   21.538">  2  9  1 -1</clus>
<clus scale="   55.224">  1 10  2 -1</clus>
<clus scale="   91.289">  7  8 -1 -1</clus>
<clus scale="   92.559">  5  6 -1 -1</clus>
<clus scale="  255.360">  2  7  1 -1</clus>
<clus scale="   55.224">  1  5  2 -1</clus>
</clustering>
</event>
<event>
10    2  0.1671105E-006  0.1772488E+03  0.7546771E-02  0.1195316E+00
         21   -1    0    0  503  502  0.00000000000E+00  0.00000000000E+00  0.41160040775E+02  0.41160040775E+02  0.00000000000E+00 0. -1.
          1   -1    0    0  502    0 -0.00000000000E+00 -0.00000000000E+00 -0.11890950539E+04  0.11890950539E+04  0.00000000000E+00 0. -1.
         23    2    1    2    0    0 -0.42614240436E+02 -0.84408652640E+01 -0.40474518902E+03  0.41733301202E+03  0.91983439791E+02 0.  0.
         23    2    1    2    0    0 -0.13009256975E+02  0.14306196914E+03 -0.44077352215E+03  0.47519841101E+03  0.10438517242E+03 0.  0.
        -11    1    4    4    0    0 -0.56367692703E+02  0.93445284108E+02 -0.23435575326E+03  0.25851877493E+03  0.00000000000E+00 0.  1.
         11    1    4    4    0    0  0.43358435728E+02  0.49616685033E+02 -0.20641776888E+03  0.21667963608E+03  0.00000000000E+00 0. -1.
        -11    1    3    3    0    0 -0.40846405006E+02  0.35880192974E+02 -0.27177731997E+03  0.27716191784E+03  0.00000000000E+00 0. -1.
         11    1    3    3    0    0 -0.17678354298E+01 -0.44321058238E+02 -0.13296786905E+03  0.14017109418E+03  0.00000000000E+00 0.  1.
         21    1    1    2  503  501  0.25809151813E+02 -0.24828161124E+02 -0.87664667275E+02  0.94697644060E+02  0.00000000000E+00 0.  1.
          1    1    1    2  501    0  0.29814345597E+02 -0.10979294275E+03 -0.21475163467E+03  0.24302602757E+03  0.00000000000E+00 0. -1.
<scales pt_clust_5="13000.00000" pt_clust_6="13000.00000" pt_clust_7="13000.00000" pt_clust_8="13000.00000" pt_clust_9="20.87887" pt_clust_10="148.00586"></scales>
<clustering>
<clus scale="   20.879">  9 10 -1 -1</clus>
<clus scale="   91.983">  7  8 -1 -1</clus>
<clus scale="  101.726">  2  7  1 -1</clus>
<clus scale="  104.385">  5  6 -1 -1</clus>
<clus scale="  148.006">  1  9  2 -1</clus>
<clus scale="  148.006">  1  5  2 -1</clus>
</clustering>
</event>
<event>
10    2  0.1671105E-006  0.3398144E+03  0.7546771E-02  0.1066916E+00
          1   -1    0    0  502    0 -0.00000000000E+00  0.00000000000E+00  0.23036763078E+03  0.23036763078E+03  0.00000000000E+00 0. -1.
         21   -1    0    0  503  502  0.00000000000E+00 -0.00000000000E+00 -0.13207798037E+04  0.13207798037E+04  0.00000000000E+00 0. -1.
         23    2    1    2    0    0  0.27942126836E+03 -0.24733430668E+03 -0.22631975594E+02  0.38476293026E+03  0.90993415764E+02 0.  0.
         23    2    1    2    0    0 -0.12280475785E+03  0.11132377921E+03 -0.70733366953E+03  0.73199312823E+03  0.89549022119E+02 0.  0.
        -11    1    4    4    0    0 -0.83625293295E+02  0.20588413093E+02 -0.26077280678E+03  0.27462616261E+03  0.00000000000E+00 0. -1.
         11    1    4    4    0    0 -0.39179464559E+02  0.90735366115E+02 -0.44656086274E+03  0.45736696562E+03  0.00000000000E+00 0.  1.
        -13    1    3    3    0    0  0.17067011308E+03 -0.10216666235E+03 -0.38790235015E+02  0.20265980541E+03  0.00000000000E+00 0.  1.
         13    1    3    3    0    0  0.10875115528E+03 -0.14516764433E+03  0.16158259421E+02  0.18210312486E+03  0.00000000000E+00 0. -1.
         21    1    1    2  503  501 -0.26038866467E+02  0.31717569281E+02 -0.19485596578E+03  0.19913029445E+03  0.00000000000E+00 0.  1.
          1    1    1    2  501    0 -0.13057764404E+03  0.10429295819E+03 -0.16559056201E+03  0.23526108152E+03  0.00000000000E+00 0. -1.
<scales pt_clust_5="13000.00000" pt_clust_6="13000.00000" pt_clust_7="13000.00000" pt_clust_8="13000.00000" pt_clust_9="41.03690" pt_clust_10="174.28092"></scales>
<clustering>
<clus scale="   41.037">  2  9  1 -1</clus>
<clus scale="   89.549">  5  6 -1 -1</clus>
<clus scale="   90.993">  7  8 -1 -1</clus>
<clus scale="  174.281">  2 10  1 -1</clus>
<clus scale="  339.430">  2  5  1 -1</clus>
<clus scale="   41.037">  2  5  1 -1</clus>
</clustering>
</event>
<event>
10    2  0.1671105E-006  0.1321101E+03  0.7546771E-02  0.1237254E+00
         21   -1    0    0  501  502  0.00000000000E+00  0.00000000000E+00  0.14838976010E+03  0.14838976010E+03  0.00000000000E+00 0. -1.
          1   -1    0    0  503    0 -0.00000000000E+00 -0.00000000000E+00 -0.30857038160E+03  0.30857038160E+03  0.00000000000E+00 0. -1.
         23    2    1    2    0    0  0.88863309001E+01  0.47769545813E+02 -0.13434616671E+03  0.16961231436E+03  0.91425096611E+02 0.  0.
         23    2    1    2    0    0 -0.53188550683E+02 -0.14343104048E+02 -0.11205516971E+03  0.17649087628E+03  0.12473139859E+03 0.  0.
        -13    1    3    3    0    0  0.27906171844E+02 -0.65753445968E+00 -0.26835547738E+01  0.28042614799E+02  0.00000000000E+00 0.  1.
         13    1    3    3    0    0 -0.19019840944E+02  0.48427080273E+02 -0.13166261193E+03  0.14156969956E+03  0.00000000000E+00 0. -1.
        -13    1    4    4    0    0  0.46658728084E+01 -0.32188058414E+02  0.14947836647E+02  0.35794961851E+02  0.00000000000E+00 0. -1.
         13    1    4    4    0    0 -0.57854423491E+02  0.17844954366E+02 -0.12700300636E+03  0.14069591443E+03  0.00000000000E+00 0.  1.
         21    1    1    2  503  502  0.24269462569E+02 -0.36894387972E+02  0.37034903779E+02  0.57634944046E+02  0.00000000000E+00 0. -1.
          1    1    1    2  501    0  0.20032757214E+02  0.34679462071E+01  0.49185811138E+02  0.53222007007E+02  0.00000000000E+00 0. -1.
<scales pt_clust_5="13000.00000" pt_clust_6="13000.00000" pt_clust_7="13000.00000" pt_clust_8="13000.00000" pt_clust_9="48.96140" pt_clust_10="20.33072"></scales>
<clustering>
<clus scale="   20.331">  1 10  2 -1</clus>
<clus scale="   48.961">  1  9  2 -1</clus>
<clus scale="   91.425">  5  6 -1 -1</clus>
<clus scale="  101.261">  2  5  1 -1</clus>
<clus scale="  124.731">  7  8 -1 -1</clus>
<clus scale="   20.331">  1  5  2 -1</clus>
</clustering>
</event>
<event>
10    2  0.1671105E-006  0.1274403E+03  0.7546771E-02  0.1231671E+00
          1   -1    0    0  503    0 -0.00000000000E+00  0.00000000000E+00  0.56005186852E+03  0.56005186852E+03  0.00000000000E+00 0. -1.
         21   -1    0    0  501  502  0.00000000000E+00 -0.00000000000E+00 -0.88144401114E+02  0.88144401114E+02  0.00000000000E+00 0. -1.
         23    2    1    2    0    0  0.44592284747E+02  0.59270800933E+02  0.16447019950E+03  0.20233156398E+03  0.91575736738E+02 0.  0.
         23    2    1    2    0    0  0.38868179240E+02 -0.14301195760E+03  0.13907068346E+03  0.22345788646E+03  0.92895729973E+02 0.  0.
        -13    1    3    3    0    0 -0.28616552342E+02  0.17409894428E+02  0.48334079143E+02  0.58806417154E+02  0.00000000000E+00 0.  1.
         13    1    3    3    0    0  0.73208837089E+02  0.41860906505E+02  0.11613612035E+03  0.14352514683E+03  0.00000000000E+00 0. -1.
        -13    1    4    4    0    0 -0.26461451177E+02 -0.43972622430E+02  0.19186854323E+02  0.54789919698E+02  0.00000000000E+00 0. -1.
         13    1    4    4    0    0  0.65329630417E+02 -0.99039335170E+02  0.11988382914E+03  0.16866796676E+03  0.00000000000E+00 0.  1.
         21    1    1    2  503  502  0.15092335108E+02  0.27294798665E+02  0.28635252747E+02  0.42341023996E+02  0.00000000000E+00 0. -1.
          1    1    1    2  501    0 -0.98552799095E+02  0.56446358002E+02  0.13973133169E+03  0.18006579519E+03  0.00000000000E+00 0. -1.
<scales pt_clust_5="13000.00000" pt_clust_6="13000.00000" pt_clust_7="13000.00000" pt_clust_8="13000.00000" pt_clust_9="31.18950" pt_clust_10="113.95252"></scales>
<clustering>
<clus scale="   31.189">  2  9  1 -1</clus>
<clus scale="   91.576">  5  6 -1 -1</clus>
<clus scale="   92.896">  7  8 -1 -1</clus>
<clus scale="  113.953">  2 10  1 -1</clus>
<clus scale="  126.481">  1  5  2 -1</clus>
<clus scale="   31.189">  2  5  1 -1</clus>
</clustering>
</event>
<event>
10    2  0.1671105E-006  0.1554143E+03  0.7546771E-02  0.1194684E+00
          2   -1    0    0  502    0 -0.00000000000E+00  0.00000000000E+00  0.53701109772E+03  0.53701109772E+03  0.00000000000E+00 0. -1.
         21   -1    0    0  503  502  0.00000000000E+00 -0.00000000000E+00 -0.27889859927E+03  0.27889859927E+03  0.00000000000E+00 0.  1.
         23    2    1    2    0    0  0.12391093686E+03 -0.95247376609E+01  0.42267986195E+03  0.44926379579E+03  0.87949142167E+02 0.  0.
         23    2    1    2    0    0 -0.12105974020E+03  0.94034316193E+02 -0.23207769901E+01  0.17882838476E+03  0.92066779416E+02 0.  0.
        -13    1    3    3    0    0  0.10398715433E+03 -0.19644010305E+02  0.41027836892E+03  0.42370692160E+03  0.00000000000E+00 0. -1.
         13    1    3    3    0    0  0.19923782528E+02  0.10119272644E+02  0.12401493032E+02  0.25556874192E+02  0.00000000000E+00 0.  1.
        -13    1    4    4    0    0 -0.10204455679E+03  0.30016468849E+02 -0.23180446249E+02  0.10886419549E+03  0.00000000000E+00 0.  1.
         13    1    4    4    0    0 -0.19015183415E+02  0.64017847344E+02  0.20859669259E+02  0.69964189272E+02  0.00000000000E+00 0. -1.
         21    1    1    2  503  501 -0.21756106272E+02 -0.43841021415E+02 -0.72263877369E+02  0.87277896923E+02  0.00000000000E+00 0.  1.
          2    1    1    2  501    0  0.18904909616E+02 -0.40668557117E+02 -0.89982709148E+02  0.10053961951E+03  0.00000000000E+00 0. -1.
<scales pt_clust_5="13000.00000" pt_clust_6="13000.00000" pt_clust_7="13000.00000" pt_clust_8="13000.00000" pt_clust_9="40.62945" pt_clust_10="94.61218"></scales>
<clustering>
<clus scale="   40.629">  9 10 -1 -1</clus>
<clus scale="   87.949">  5  6 -1 -1</clus>
<clus scale="   92.067">  7  8 -1 -1</clus>
<clus scale="   94.612">  2  9  1 -1</clus>
<clus scale="  153.011">  1  5  2 -1</clus>
<clus scale="   94.612">  2  5  1 -1</clus>
</clustering>
</event>
<event>
10    2  0.1671105E-006  0.2562517E+03  0.7546771E-02  0.1110205E+00
         21   -1    0    0  503  502  0.00000000000E+00  0.00000000000E+00  0.57684537451E+03  0.57684537451E+03  0.00000000000E+00 0. -1.
         -1   -1    0    0    0  501 -0.00000000000E+00 -0.00000000000E+00 -0.31001874042E+03  0.31001874042E+03  0.00000000000E+00 0.  1.
         23    2    1    2    0    0  0.15224684518E+03 -0.96477221768E+02  0.10869640464E+03  0.22658386842E+03  0.83895082439E+02 0.  0.
         23    2    1    2    0    0 -0.21839118459E+03  0.25973336382E+03  0.22733293327E+03  0.42007136715E+03  0.98099751058E+02 0.  0.
        -13    1    3    3    0    0  0.24027543588E+02 -0.46173748759E+02  0.15373360811E+01  0.52073998575E+02  0.00000000000E+00 0. -1.
         13    1    3    3    0    0  0.12821930159E+03 -0.50303473009E+02  0.10715906856E+03  0.17450986984E+03  0.00000000000E+00 0.  1.
        -13    1    4    4    0    0 -0.13725978681E+03  0.22126909130E+03  0.19227675042E+03  0.32368288276E+03  0.00000000000E+00 0. -1.
         13    1    4    4    0    0 -0.81131397778E+02  0.38464272523E+02  0.35056182851E+02  0.96388484386E+02  0.00000000000E+00 0.  1.
         21    1    1    2  503  501  0.92932110737E+01 -0.29656163967E+02 -0.88445046199E+02  0.93746349424E+02  0.00000000000E+00 0. -1.
         -1    1    1    2    0  502  0.56851128335E+02 -0.13359997808E+03  0.19242342380E+02  0.14646252994E+03  0.00000000000E+00 0.  1.
<scales pt_clust_5="13000.00000" pt_clust_6="13000.00000" pt_clust_7="13000.00000" pt_clust_8="13000.00000" pt_clust_9="31.07816" pt_clust_10="154.18177"></scales>
<clustering>
<clus scale="   31.078">  2  9  1 -1</clus>
<clus scale="   83.895">  5  6 -1 -1</clus>
<clus scale="   98.100">  7  8 -1 -1</clus>
<clus scale="  154.182">  1 10  2 -1</clus>
<clus scale="  251.157">  2  5  1 -1</clus>
<clus scale="  154.182">  1  5  2 -1</clus>
</clustering>
</event>
<event>
10    2  0.1671105E-006  0.1478203E+03  0.7546771E-02  0.1203962E+00
         21   -1    0    0  503  502  0.00000000000E+00  0.00000000000E+00  0.13407767661E+03  0.13407767661E+03  0.00000000000E+00 0. -1.
          2   -1    0    0  502    0 -0.00000000000E+00 -0.00000000000E+00 -0.50497541559E+03  0.50497541559E+03  0.00000000000E+00 0. -1.
         23    2    1    2    0    0 -0.39687111730E+01 -0.13681521657E+03 -0.26838708289E+03  0.31454877236E+03  0.90416534863E+02 0.  0.
         23    2    1    2    0    0 -0.78747158538E+02  0.73823849883E+02 -0.14615793018E+03  0.20473431356E+03  0.94355300888E+02 0.  0.
        -11    1    4    4    0    0 -0.60352185504E+01  0.30012761268E+02 -0.10691562815E+03  0.11121214522E+03  0.00000000000E+00 0.  1.
         11    1    4    4    0    0 -0.72711939988E+02  0.43811088615E+02 -0.39242302029E+02  0.93522168340E+02  0.00000000000E+00 0. -1.
        -11    1    3    3    0    0 -0.28540993019E+02 -0.22501886561E+02 -0.12142640387E+03  0.12674894374E+03  0.00000000000E+00 0.  1.
         11    1    3    3    0    0  0.24572281846E+02 -0.11431333001E+03 -0.14696067902E+03  0.18779982862E+03  0.00000000000E+00 0. -1.
         21    1    1    2  503  501  0.43438841618E+02  0.18576507093E+02  0.19483967638E+01  0.47284414206E+02  0.00000000000E+00 0.  1.
          2    1    1    2  501    0  0.39277028094E+02  0.44414859592E+02  0.41698877331E+02  0.72485592080E+02  0.00000000000E+00 0. -1.
<scales pt_clust_5="13000.00000" pt_clust_6="13000.00000" pt_clust_7="13000.00000" pt_clust_8="13000.00000" pt_clust_9="36.03861" pt_clust_10="111.53372"></scales>
<clustering>
<clus scale="   36.039">  9 10 -1 -1</clus>
<clus scale="   90.417">  7  8 -1 -1</clus>
<clus scale="   94.355">  5  6 -1 -1</clus>
<clus scale="  111.534">  1  9  2 -1</clus>
<clus scale="  145.338">  2  7  1 -1</clus>
<clus scale="  111.534">  1  5  2 -1</clus>
</clustering>
</event>
<event>
10    2  0.1671105E-006  0.1179317E+03  0.7546771E-02  0.1248511E+00
          2   -1    0    0  502    0 -0.00000000000E+00  0.00000000000E+00  0.47393888897E+03  0.47393888897E+03  0.00000000000E+00 0. -1.
         21   -1    0    0  503  502  0.00000000000E+00 -0.00000000000E+00 -0.34845139145E+03  0.34845139145E+03  0.00000000000E+00 0. -1.
         23    2    1    2    0    0 -0.89023187788E+02  0.37562021157E+02  0.33687380476E+03  0.36284854490E+03  0.94016343310E+02 0.  0.
         23    2    1    2    0    0 -0.13577777296E+02 -0.59962836133E+02  0.82978675082E+02  0.13583724933E+03  0.88240580424E+02 0.  0.
        -11    1    3    3    0    0  0.19885742725E+02  0.63029751840E+01  0.40557937514E+02  0.45608294808E+02  0.00000000000E+00 0.  1.
         11    1    3    3    0    0 -0.10890893051E+03  0.31259045973E+02  0.29631586724E+03  0.31724025010E+03  0.00000000000E+00 0. -1.
        -13    1    4    4    0    0  0.10176630222E+02 -0.76390763805E+02  0.70234487613E+02  0.10426886327E+03  0.00000000000E+00 0. -1.
         13    1    4    4    0    0 -0.23754407519E+02  0.16427927672E+02  0.12744187469E+02  0.31568386059E+02  0.00000000000E+00 0.  1.
         21    1    1    2  503  501  0.85351648144E+01  0.36042606915E+02 -0.11340483075E+03  0.11930035284E+03  0.00000000000E+00 0. -1.
          2    1    1    2  501    0  0.94065800271E+02 -0.13641791939E+02 -0.18096015157E+03  0.20440413334E+03  0.00000000000E+00 0. -1.
<scales pt_clust_5="13000.00000" pt_clust_6="13000.00000" pt_clust_7="13000.00000" pt_clust_8="13000.00000" pt_clust_9="37.03942" pt_clust_10="102.45316"></scales>
<clustering>
<clus scale="   37.039">  2  9  1 -1</clus>
<clus scale="   88.241">  7  8 -1 -1</clus>
<clus scale="   94.016">  5  6 -1 -1</clus>
<clus scale="  102.453">  2 10  1 -1</clus>
<clus scale="  113.381">  2  7  1 -1</clus>
<clus scale="   37.039">  2  5  1 -1</clus>
</clustering>
</event>
<event>
10    2  0.1671105E-006  0.1198544E+03  0.7546771E-02  0.1262674E+00
         21   -1    0    0  503  502  0.00000000000E+00  0.00000000000E+00  0.74735636258E+02  0.74735636258E+02  0.00000000000E+00 0. -1.
          1   -1    0    0  502    0 -0.00000000000E+00 -0.00000000000E+00 -0.56812628872E+03  0.56812628872E+03  0.00000000000E+00 0. -1.
         23    2    1    2    0    0  0.20873415507E+02  0.10346530141E+02 -0.32643798418E+03  0.33660457692E+03  0.78728225766E+02 0.  0.
         23    2    1    2    0    0  0.52835993984E+02  0.60974122403E+02 -0.28321767504E+02  0.12514149261E+03  0.91371684862E+02 0.  0.
        -11    1    4    4    0    0 -0.18045837786E+02  0.29294029857E+02  0.13493589989E+02  0.36957670617E+02  0.00000000000E+00 0.  1.
         11    1    4    4    0    0  0.70881831770E+02  0.31680092546E+02 -0.41815357492E+02  0.88183821992E+02  0.00000000000E+00 0. -1.
        -13    1    3    3    0    0 -0.25381514326E+02  0.11075602688E+01 -0.49093606356E+02  0.55277754515E+02  0.00000000000E+00 0.  1.
         13    1    3    3    0    0  0.46254929833E+02  0.92389698721E+01 -0.27734437782E+03  0.28132682241E+03  0.00000000000E+00 0. -1.
         21    1    1    2  503  501 -0.28805860680E+02  0.21912576444E+01 -0.23006095370E+02  0.36930470397E+02  0.00000000000E+00 0. -1.
          1    1    1    2  501    0 -0.44903548811E+02 -0.73511910188E+02 -0.11562480541E+03  0.14418538505E+03  0.00000000000E+00 0. -1.
<scales pt_clust_5="13000.00000" pt_clust_6="13000.00000" pt_clust_7="13000.00000" pt_clust_8="13000.00000" pt_clust_9="28.88908" pt_clust_10="77.56479"></scales>
<clustering>
<clus scale="   28.889">  1  9  2 -1</clus>
<clus scale="   78.728">  7  8 -1 -1</clus>
<clus scale="   81.601">  2  7  1 -1</clus>
<clus scale="   77.565">  1 10  2 -1</clus>
<clus scale="   91.372">  5  6 -1 -1</clus>
<clus scale="   28.889">  1  5  2 -1</clus>
</clustering>
</event>
<event>
10    2  0.1671105E-006  0.2105483E+03  0.7546771E-02  0.1141225E+00
         21   -1    0    0  503  502  0.00000000000E+00  0.00000000000E+00  0.90125311725E+03  0.90125311725E+03  0.00000000000E+00 0.  1.
          1   -1    0    0  502    0 -0.00000000000E+00 -0.00000000000E+00 -0.32402556294E+03  0.32402556294E+03  0.00000000000E+00 0. -1.
         23    2    1    2    0    0  0.19369625784E+03  0.19989110356E+01 -0.22726873098E+03  0.31215073786E+03  0.90910786580E+02 0.  0.
         23    2    1    2    0    0 -0.14190101984E+03  0.16998112554E+03  0.37800471028E+03  0.44763785540E+03  0.91992424269E+02 0.  0.
        -13    1    4    4    0    0 -0.52575394111E+02  0.20544169163E+02  0.46245392371E+02  0.72971715535E+02  0.00000000000E+00 0. -1.
         13    1    4    4    0    0 -0.89325625730E+02  0.14943695637E+03  0.33175931791E+03  0.37466613987E+03  0.00000000000E+00 0.  1.
        -13    1    3    3    0    0  0.68683360205E+02 -0.33315161591E+02 -0.45949243068E+02  0.89099028611E+02  0.00000000000E+00 0.  1.
         13    1    3    3    0    0  0.12501289763E+03  0.35314072627E+02 -0.18131948791E+03  0.22305170925E+03  0.00000000000E+00 0. -1.
         21    1    1    2  503  501 -0.17836908597E+02 -0.27480737760E+02  0.12802066589E+03  0.13214627180E+03  0.00000000000E+00 0.  1.
          1    1    1    2  501    0 -0.33958329400E+02 -0.14449929881E+03  0.29847090911E+03  0.33334381512E+03  0.00000000000E+00 0. -1.
<scales pt_clust_5="13000.00000" pt_clust_6="13000.00000" pt_clust_7="13000.00000" pt_clust_8="13000.00000" pt_clust_9="23.61233" pt_clust_10="186.50994"></scales>
<clustering>
<clus scale="   23.612">  9 10 -1 -1</clus>
<clus scale="   90.911">  7  8 -1 -1</clus>
<clus scale="   91.992">  5  6 -1 -1</clus>
<clus scale="  186.510">  1  9  2 -1</clus>
<clus scale="  210.078">  2  7  1 -1</clus>
<clus scale="  186.510">  1  5  2 -1</clus>
</clustering>
</event>
<event>
10    2  0.1671105E-006  0.1416043E+03  0.7546771E-02  0.1225624E+00
         21   -1    0    0  503  502  0.00000000000E+00  0.00000000000E+00  0.76002141371E+02  0.76002141371E+02  0.00000000000E+00 0. -1.
          1   -1    0    0  502    0 -0.00000000000E+00 -0.00000000000E+00 -0.64400056531E+03  0.64400056531E+03  0.00000000000E+00 0. -1.
         23    2    1    2    0    0  0.32716572197E+02 -0.38681940168E+02 -0.35978336728E+03  0.37464897312E+03  0.91384435750E+02 0.  0.
         23    2    1    2    0    0 -0.53272534654E+02 -0.78138767115E+02 -0.16552445715E+03  0.21100205892E+03  0.90442761338E+02 0.  0.
        -13    1    3    3    0    0  0.59450024478E+02 -0.47418517330E+02 -0.27512918051E+03  0.28544506856E+03  0.00000000000E+00 0. -1.
         13    1    3    3    0    0 -0.26733452282E+02  0.87365771625E+01 -0.84654186773E+02  0.89203904565E+02  0.00000000000E+00 0.  1.
        -13    1    4    4    0    0 -0.37013983399E+02 -0.15340779791E+02 -0.13207179830E+03  0.13801570345E+03  0.00000000000E+00 0.  1.
         13    1    4    4    0    0 -0.16258551255E+02 -0.62797987324E+02 -0.33452658847E+02  0.72986355470E+02  0.00000000000E+00 0. -1.
         21    1    1    2  503  501  0.17926279895E+02  0.25452605020E+02  0.45456690337E+01  0.31461877251E+02  0.00000000000E+00 0. -1.
          1    1    1    2  501    0  0.26296825619E+01  0.91368102263E+02 -0.47236268547E+02  0.10288979739E+03  0.00000000000E+00 0. -1.
<scales pt_clust_5="13000.00000" pt_clust_6="13000.00000" pt_clust_7="13000.00000" pt_clust_8="13000.00000" pt_clust_9="27.11231" pt_clust_10="118.44893"></scales>
<clustering>
<clus scale="   27.112">  9 10 -1 -1</clus>
<clus scale="   90.443">  7  8 -1 -1</clus>
<clus scale="   91.384">  5  6 -1 -1</clus>
<clus scale="  104.488">  2  5  1 -1</clus>
<clus scale="  118.449">  1  9  2 -1</clus>
<clus scale="  118.449">  1  5  2 -1</clus>
</clustering>
</event>
<event>
10    2  0.1671105E-006  0.1075777E+03  0.7546771E-02  0.1274320E+00
          1   -1    0    0  503    0 -0.00000000000E+00  0.00000000000E+00  0.61882853857E+03  0.61882853857E+03  0.00000000000E+00 0. -1.
         21   -1    0    0  501  502  0.00000000000E+00 -0.00000000000E+00 -0.33184018984E+02  0.33184018984E+02  0.00000000000E+00 0.  1.
         23    2    1    2    0    0  0.23819920771E+02 -0.48439400533E+01  0.27140738334E+03  0.29277951794E+03  0.10708420059E+03 0.  0.
         23    2    1    2    0    0  0.34121884745E+02 -0.90767458149E+01  0.14294730886E+03  0.17228463996E+03  0.89450398105E+02 0.  0.
        -11    1    3    3    0    0  0.34841122811E+02 -0.28185583878E+02  0.26120852672E+03  0.26502495242E+03  0.00000000000E+00 0.  1.
         11    1    3    3    0    0 -0.11021202041E+02  0.23341643825E+02  0.10198856621E+02  0.27754565521E+02  0.00000000000E+00 0. -1.
        -13    1    4    4    0    0  0.60195415496E+02 -0.33227935053E+01  0.59638032885E+02  0.84801084721E+02  0.00000000000E+00 0.  1.
         13    1    4    4    0    0 -0.26073530751E+02 -0.57539523095E+01  0.83309275975E+02  0.87483555235E+02  0.00000000000E+00 0. -1.
         21    1    1    2  503  502 -0.46817288282E+02 -0.95649866588E+01  0.94753661857E+02  0.10612070433E+03  0.00000000000E+00 0. -1.
          1    1    1    2  501    0 -0.11124517234E+02  0.23485672527E+02  0.76536165527E+02  0.80827695323E+02  0.00000000000E+00 0. -1.
<scales pt_clust_5="13000.00000" pt_clust_6="13000.00000" pt_clust_7="13000.00000" pt_clust_8="13000.00000" pt_clust_9="49.13716" pt_clust_10="25.98716"></scales>
<clustering>
<clus scale="   25.987">  2 10  1 -1</clus>
<clus scale="   49.137">  1  9  2 -1</clus>
<clus scale="   89.450">  7  8 -1 -1</clus>
<clus scale="   90.041">  2  7  1 -1</clus>
<clus scale="  107.084">  5  6 -1 -1</clus>
<clus scale="   25.987">  2  5  1 -1</clus>
</clustering>
</event>
<event>
10    2  0.1671105E-006  0.1155281E+03  0.7546771E-02  0.1251674E+00
         21   -1    0    0  503  502  0.00000000000E+00  0.00000000000E+00  0.63940830050E+03  0.63940830050E+03  0.00000000000E+00 0.  1.
         -1   -1    0    0    0  501 -0.00000000000E+00 -0.00000000000E+00 -0.13187938702E+03  0.13187938702E+03  0.00000000000E+00 0.  1.
         23    2    1    2    0    0 -0.38070902933E+02  0.31176420427E+02 -0.13321707725E+02  0.10272818140E+03  0.89186593814E+02 0.  0.
         23    2    1    2    0    0  0.69307821398E+02 -0.74106575939E+02 -0.63209998629E+00  0.13703150744E+03  0.92097099714E+02 0.  0.
        -11    1    3    3    0    0 -0.12306651906E+02 -0.24401369973E+02 -0.28635671721E+02  0.39583863286E+02  0.00000000000E+00 0. -1.
         11    1    3    3    0    0 -0.25764251027E+02  0.55577790401E+02  0.15313963996E+02  0.63144318114E+02  0.00000000000E+00 0.  1.
        -13    1    4    4    0    0  0.57372575501E+02 -0.90900038324E+02 -0.19322269571E+02  0.10921437400E+03  0.00000000000E+00 0.  1.
         13    1    4    4    0    0  0.11935245896E+02  0.16793462385E+02  0.18690169585E+02  0.27817133436E+02  0.00000000000E+00 0. -1.
         21    1    1    2  503  501 -0.47674833416E+02 -0.25008625691E+01  0.16439121668E+03  0.17118299032E+03  0.00000000000E+00 0.  1.
         -1    1    1    2    0  502  0.16437914951E+02  0.45431018080E+02  0.35709150451E+03  0.36034500835E+03  0.00000000000E+00 0.  1.
<scales pt_clust_5="13000.00000" pt_clust_6="13000.00000" pt_clust_7="13000.00000" pt_clust_8="13000.00000" pt_clust_9="47.74038" pt_clust_10="47.83040"></scales>
<clustering>
<clus scale="   47.740">  1  9  2 -1</clus>
<clus scale="   47.830">  1 10  2 -1</clus>
<clus scale="   89.187">  5  6 -1 -1</clus>
<clus scale="   92.097">  7  8 -1 -1</clus>
<clus scale="  113.221">  2  5  1 -1</clus>
<clus scale="   47.740">  1  5  2 -1</clus>
</clustering>
</event>
<event>
10    2  0.1671105E-006  0.1490940E+03  0.7546771E-02  0.1219244E+00
         -3   -1    0    0    0  501 -0.00000000000E+00  0.00000000000E+00  0.63273254414E+03  0.63273254414E+03  0.00000000000E+00 0.  1.
         21   -1    0    0  503  502  0.00000000000E+00 -0.00000000000E+00 -0.16728911270E+03  0.16728911270E+03  0.00000000000E+00 0. -1.
         23    2    1    2    0    0 -0.30490673293E+02 -0.41410249549E+02  0.17172365039E+03  0.19989692653E+03  0.88460608218E+02 0.  0.
         23    2    1    2    0    0  0.88694487345E+02  0.13441172531E+03  0.35854531968E+03  0.40360702538E+03  0.91709654293E+02 0.  0.
        -11    1    4    4    0    0  0.58314221475E+02  0.11614853073E+03  0.33915269192E+03  0.36320184203E+03  0.00000000000E+00 0.  1.
         11    1    4    4    0    0  0.30380265870E+02  0.18263194584E+02  0.19392627759E+02  0.40405183358E+02  0.00000000000E+00 0. -1.
        -13    1    3    3    0    0 -0.23662732651E+02 -0.63751862169E+02  0.15980251582E+03  0.17366942422E+03  0.00000000000E+00 0. -1.
         13    1    3    3    0    0 -0.68279406418E+01  0.22341612620E+02  0.11921134571E+02  0.26227502308E+02  0.00000000000E+00 0.  1.
         21    1    1    2  503  501 -0.10933107766E+03 -0.60924330921E+02 -0.43447571566E+02  0.13248679223E+03  0.00000000000E+00 0. -1.
         -3    1    1    2    0  502  0.51127263609E+02 -0.32077144843E+02 -0.21377967060E+02  0.64030912699E+02  0.00000000000E+00 0.  1.
<scales pt_clust_5="13000.00000" pt_clust_6="13000.00000" pt_clust_7="13000.00000" pt_clust_8="13000.00000" pt_clust_9="117.55150" pt_clust_10="60.35678"></scales>
<clustering>
<clus scale="   60.357">  2 10  1 -1</clus>
<clus scale="   88.461">  7  8 -1 -1</clus>
<clus scale="   91.710">  5  6 -1 -1</clus>
<clus scale="  102.295">  1  7  2 -1</clus>
<clus scale="  117.552">  2  9  1 -1</clus>
<clus scale="   60.357">  2  5  1 -1</clus>
</clustering>
</event>
<event>
10    2  0.1671105E-006  0.9139857E+02  0.7546771E-02  0.1300040E+00
          1   -1    0    0  502    0 -0.00000000000E+00  0.00000000000E+00  0.89022517204E+02  0.89022517204E+02  0.00000000000E+00 0. -1.
         21   -1    0    0  503  502  0.00000000000E+00 -0.00000000000E+00 -0.30546177548E+03  0.30546177548E+03  0.00000000000E+00 0.  1.
         23    2    1    2    0    0 -0.22215861510E+02  0.72287265748E+01  0.68485713930E+01  0.94352204819E+02  0.91157208347E+02 0.  0.
         23    2    1    2    0    0 -0.51583097618E+02  0.26626071525E+02 -0.14593825441E+03  0.18108607495E+03  0.90135613364E+02 0.  0.
        -11    1    4    4    0    0 -0.46346890274E+02  0.58627295348E+02 -0.99209203086E+02  0.12420813168E+03  0.00000000000E+00 0.  1.
         11    1    4    4    0    0 -0.52362073447E+01 -0.32001223823E+02 -0.46729051327E+02  0.56877943277E+02  0.00000000000E+00 0. -1.
        -11    1    3    3    0    0 -0.17927771094E+01  0.33839816640E+02  0.36338821066E+02  0.49687595600E+02  0.00000000000E+00 0. -1.
         11    1    3    3    0    0 -0.20423084401E+02 -0.26611090066E+02 -0.29490249673E+02  0.44664609219E+02  0.00000000000E+00 0.  1.
         21    1    1    2  503  501  0.44713947827E+02  0.28982005868E+00 -0.47106018857E+02  0.64949196596E+02  0.00000000000E+00 0.  1.
          1    1    1    2  501    0  0.29085011302E+02 -0.34144618158E+02 -0.30243556397E+02  0.54096816313E+02  0.00000000000E+00 0. -1.
<scales pt_clust_5="13000.00000" pt_clust_6="13000.00000" pt_clust_7="13000.00000" pt_clust_8="13000.00000" pt_clust_9="39.89544" pt_clust_10="90.49307"></scales>
<clustering>
<clus scale="   39.895">  9 10 -1 -1</clus>
<clus scale="   90.136">  5  6 -1 -1</clus>
<clus scale="   90.493">  2  9  1 -1</clus>
<clus scale="   90.493">  2  5  1 -1</clus>
<clus scale="   91.157">  7  8 -1 -1</clus>
<clus scale="   90.493">  2  5  1 -1</clus>
</clustering>
</event>
<event>
10    2  0.1671105E-006  0.4488643E+03  0.7546771E-02  0.1062494E+00
          1   -1    0    0  502    0 -0.00000000000E+00  0.00000000000E+00  0.10182333592E+04  0.10182333592E+04  0.00000000000E+00 0. -1.
         21   -1    0    0  503  502  0.00000000000E+00 -0.00000000000E+00 -0.34259440282E+03  0.34259440282E+03  0.00000000000E+00 0. -1.
         23    2    1    2    0    0  0.10263671516E+03  0.92323411566E+02  0.22569692229E+03  0.28046073465E+03  0.93065650638E+02 0.  0.
         23    2    1    2    0    0 -0.33465755594E+03 -0.40177782404E+03  0.40459237769E+03  0.66750259074E+03  0.91889155606E+02 0.  0.
        -11    1    4    4    0    0 -0.91677854424E+02 -0.55763989493E+02  0.67546225173E+02  0.12679488969E+03  0.00000000000E+00 0.  1.
         11    1    4    4    0    0 -0.24297970151E+03 -0.34601383455E+03  0.33704615252E+03  0.54070770105E+03  0.00000000000E+00 0. -1.
        -13    1    3    3    0    0  0.58780286690E+02 -0.16384559815E+01  0.53749115747E+02  0.79666643490E+02  0.00000000000E+00 0. -1.
         13    1    3    3    0    0  0.43856428474E+02  0.93961867547E+02  0.17194780654E+03  0.20079409116E+03  0.00000000000E+00 0.  1.
         21    1    1    2  503  501  0.32817482849E+02  0.15276921783E+03  0.58480529430E+01  0.15636374522E+03  0.00000000000E+00 0.  1.
          1    1    1    2  501    0  0.19920335792E+03  0.15668519465E+03  0.39501603493E+02  0.25650069144E+03  0.00000000000E+00 0. -1.
<scales pt_clust_5="13000.00000" pt_clust_6="13000.00000" pt_clust_7="13000.00000" pt_clust_8="13000.00000" pt_clust_9="107.67418" pt_clust_10="107.67418"></scales>
<clustering>
<clus scale="   91.889">  5  6 -1 -1</clus>
<clus scale="   93.066">  7  8 -1 -1</clus>
<clus scale="  107.674">  9 10 -1 -1</clus>
<clus scale="  166.491">  1  7  2 -1</clus>
<clus scale="  437.171">  1  5  2 -1</clus>
<clus scale="  448.864">  2  5  1 -1</clus>
</clustering>
</event>
<event>
10    2  0.1671105E-006  0.1156324E+03  0.7546771E-02  0.1251687E+00
         -3   -1    0    0    0  501 -0.00000000000E+00  0.00000000000E+00  0.12081294266E+03  0.12081294266E+03  0.00000000000E+00 0.  1.
         21   -1    0    0  503  502  0.00000000000E+00 -0.00000000000E+00 -0.33965863953E+03  0.33965863953E+03  0.00000000000E+00 0. -1.
         23    2    1    2    0    0 -0.92349950535E+01 -0.66761878240E+02  0.39732304445E+02  0.12065462024E+03  0.91850137987E+02 0.  0.
         23    2    1    2    0    0  0.12140216458E+02  0.76550015193E+02 -0.69497496904E+02  0.13655063103E+03  0.88367884879E+02 0.  0.
        -11    1    3    3    0    0 -0.17705628602E+02  0.15390732448E+02 -0.85727795984E+01  0.24977119120E+02  0.00000000000E+00 0.  1.
         11    1    3    3    0    0  0.84706335486E+01 -0.82152610688E+02  0.48305084044E+02  0.95677501117E+02  0.00000000000E+00 0. -1.
        -11    1    4    4    0    0 -0.24323297046E+02  0.72936986529E+02 -0.29617938099E+02  0.82393258464E+02  0.00000000000E+00 0.  1.
         11    1    4    4    0    0  0.36463513503E+02  0.36130286645E+01 -0.39879558805E+02  0.54157372569E+02  0.00000000000E+00 0. -1.
         21    1    1    2  503  501  0.24236346424E+02 -0.19848640586E+02 -0.37114288146E+02  0.48567884509E+02  0.00000000000E+00 0.  1.
         -3    1    1    2    0  502 -0.27141567829E+02  0.10060503633E+02 -0.15196621626E+03  0.15469844641E+03  0.00000000000E+00 0.  1.
<scales pt_clust_5="13000.00000" pt_clust_6="13000.00000" pt_clust_7="13000.00000" pt_clust_8="13000.00000" pt_clust_9="25.12653" pt_clust_10="28.94613"></scales>
<clustering>
<clus scale="   28.946">  2 10  1 -1</clus>
<clus scale="   25.127">  2  9  1 -1</clus>
<clus scale="   88.368">  7  8 -1 -1</clus>
<clus scale="   91.850">  5  6 -1 -1</clus>
<clus scale="  112.886">  2  7  1 -1</clus>
<clus scale="   28.946">  2  5  1 -1</clus>
</clustering>
</event>
<event>
10    2  0.1671105E-006  0.1014798E+03  0.7546771E-02  0.1279507E+00
         -1   -1    0    0    0  501 -0.00000000000E+00  0.00000000000E+00  0.16940608004E+03  0.16940608004E+03  0.00000000000E+00 0.  1.
         21   -1    0    0  503  502  0.00000000000E+00 -0.00000000000E+00 -0.20706141794E+03  0.20706141794E+03  0.00000000000E+00 0. -1.
         23    2    1    2    0    0  0.46364272456E+02  0.88111305008E+01  0.10696643216E+03  0.15029092604E+03  0.94436555736E+02 0.  0.
         23    2    1    2    0    0  0.11285477559E+02 -0.29400517791E+02 -0.60402361071E+02  0.11267622444E+03  0.89753740207E+02 0.  0.
        -11    1    4    4    0    0  0.20186571880E+02  0.22362525770E+02  0.30798140583E+01  0.30283089302E+02  0.00000000000E+00 0.  1.
         11    1    4    4    0    0 -0.89010943209E+01 -0.51763043561E+02 -0.63482175129E+02  0.82393135138E+02  0.00000000000E+00 0. -1.
        -13    1    3    3    0    0 -0.30752576424E+01 -0.37476314384E+02  0.33361009101E+02  0.50268163659E+02  0.00000000000E+00 0. -1.
         13    1    3    3    0    0  0.49439530098E+02  0.46287444885E+02  0.73605423055E+02  0.10002276238E+03  0.00000000000E+00 0.  1.
         21    1    1    2  503  501 -0.10129793551E+02  0.26234278000E+02 -0.28231121623E+02  0.39847788993E+02  0.00000000000E+00 0.  1.
         -1    1    1    2    0  502 -0.47519956463E+02 -0.56448907096E+01 -0.55988287359E+02  0.73652558508E+02  0.00000000000E+00 0.  1.
<scales pt_clust_5="13000.00000" pt_clust_6="13000.00000" pt_clust_7="13000.00000" pt_clust_8="13000.00000" pt_clust_9="28.12206" pt_clust_10="51.48520"></scales>
<clustering>
<clus scale="   28.122">  2  9  1 -1</clus>
<clus scale="   51.485">  2 10  1 -1</clus>
<clus scale="   89.754">  5  6 -1 -1</clus>
<clus scale="   94.437">  7  8 -1 -1</clus>
<clus scale="   97.137">  2  5  1 -1</clus>
<clus scale="   28.122">  2  5  1 -1</clus>
</clustering>
</event>
<event>
10    2  0.1671105E-006  0.1639800E+03  0.7546771E-02  0.1184949E+00
          1   -1    0    0  503    0 -0.00000000000E+00  0.00000000000E+00  0.97299705638E+02  0.97299705638E+02  0.00000000000E+00 0. -1.
         21   -1    0    0  501  502  0.00000000000E+00 -0.00000000000E+00 -0.61491991887E+03  0.61491991887E+03  0.00000000000E+00 0.  1.
         23    2    1    2    0    0  0.11767710868E+03  0.29959074005E+02 -0.10127766322E+03  0.18183401879E+03  0.89783056864E+02 0.  0.
         23    2    1    2    0    0 -0.13982902097E+03  0.22467349753E+02 -0.23073999925E+03  0.28662768264E+03  0.94114527527E+02 0.  0.
        -13    1    3    3    0    0  0.92165389699E+02  0.52222646738E+02 -0.42782109996E+02  0.11424523109E+03  0.00000000000E+00 0.  1.
         13    1    3    3    0    0  0.25511718981E+02 -0.22263572734E+02 -0.58495553222E+02  0.67588787701E+02  0.00000000000E+00 0. -1.
        -13    1    4    4    0    0 -0.96830295107E+02  0.45791637889E+02 -0.98068879395E+02  0.14522563567E+03  0.00000000000E+00 0. -1.
         13    1    4    4    0    0 -0.42998725867E+02 -0.23324288136E+02 -0.13267111986E+03  0.14140204697E+03  0.00000000000E+00 0.  1.
         21    1    1    2  503  502  0.66174990075E+02 -0.29582299349E+02 -0.26621588869E+02  0.77220144653E+02  0.00000000000E+00 0.  1.
          1    1    1    2  501    0 -0.44023077781E+02 -0.22844124408E+02 -0.15898096189E+03  0.16653777842E+03  0.00000000000E+00 0. -1.
<scales pt_clust_5="13000.00000" pt_clust_6="13000.00000" pt_clust_7="13000.00000" pt_clust_8="13000.00000" pt_clust_9="69.08569" pt_clust_10="49.59723"></scales>
<clustering>
<clus scale="   49.597">  2 10  1 -1</clus>
<clus scale="   69.086">  1  9  2 -1</clus>
<clus scale="   89.783">  5  6 -1 -1</clus>
<clus scale="   94.115">  7  8 -1 -1</clus>
<clus scale="  161.533">  1  5  2 -1</clus>
<clus scale="   49.597">  2  5  1 -1</clus>
</clustering>
</event>
<event>
10    2  0.1671105E-006  0.1527911E+03  0.7546771E-02  0.1197200E+00
         21   -1    0    0  503  502  0.00000000000E+00  0.00000000000E+00  0.45381173748E+02  0.45381173748E+02  0.00000000000E+00 0. -1.
          2   -1    0    0  502    0 -0.00000000000E+00 -0.00000000000E+00 -0.11739156207E+04  0.11739156207E+04  0.00000000000E+00 0. -1.
         23    2    1    2    0    0  0.12535733616E+03 -0.56732412197E+02 -0.80935144608E+03  0.82614573798E+03  0.92379590740E+02 0.  0.
         23    2    1    2    0    0 -0.88980828743E+02 -0.26592240300E+02 -0.14355916840E+03  0.19403728957E+03  0.91741483444E+02 0.  0.
        -11    1    3    3    0    0  0.11984959797E+03 -0.25983542545E+02 -0.73987775222E+03  0.74997210538E+03  0.00000000000E+00 0. -1.
         11    1    3    3    0    0  0.55077381900E+01 -0.30748869652E+02 -0.69473693865E+02  0.76173632604E+02  0.00000000000E+00 0.  1.
        -13    1    4    4    0    0 -0.31734528481E+02 -0.48787609729E+02 -0.10904043433E+03  0.12360067750E+03  0.00000000000E+00 0. -1.
         13    1    4    4    0    0 -0.57246300262E+02  0.22195369428E+02 -0.34518734075E+02  0.70436612070E+02  0.00000000000E+00 0.  1.
         21    1    1    2  503  501 -0.26565884033E+02  0.41028044288E+02 -0.74993076883E+02  0.89515407573E+02  0.00000000000E+00 0.  1.
          2    1    1    2  501    0 -0.98106233850E+01  0.42296608209E+02 -0.10063075562E+03  0.10959835936E+03  0.00000000000E+00 0. -1.
<scales pt_clust_5="13000.00000" pt_clust_6="13000.00000" pt_clust_7="13000.00000" pt_clust_8="13000.00000" pt_clust_9="21.82708" pt_clust_10="93.82197"></scales>
<clustering>
<clus scale="   21.827">  9 10 -1 -1</clus>
<clus scale="   91.741">  7  8 -1 -1</clus>
<clus scale="   92.380">  5  6 -1 -1</clus>
<clus scale="   93.822">  1  9  2 -1</clus>
<clus scale="  152.406">  1  7  2 -1</clus>
<clus scale="   93.822">  1  5  2 -1</clus>
</clustering>
</event>
<event>
10    2  0.1671105E-006  0.1452697E+03  0.7546771E-02  0.1206462E+00
         -3   -1    0    0    0  501 -0.00000000000E+00  0.00000000000E+00  0.53268548269E+03  0.53268548269E+03  0.00000000000E+00 0.  1.
         21   -1    0    0  503  502  0.00000000000E+00 -0.00000000000E+00 -0.13761115550E+03  0.13761115550E+03  0.00000000000E+00 0.  1.
         23    2    1    2    0    0 -0.15075454549E+03  0.60093768110E+02  0.38572674061E+03  0.42822393984E+03  0.90842887909E+02 0.  0.
         23    2    1    2    0    0  0.56224896996E+02 -0.24128572030E+02 -0.11975050933E+02  0.11039370098E+03  0.91104008364E+02 0.  0.
        -11    1    3    3    0    0 -0.31508869361E+02  0.68836150918E+01  0.15774041668E+02  0.35902832697E+02  0.00000000000E+00 0. -1.
         11    1    3    3    0    0 -0.11924567613E+03  0.53210153018E+02  0.36995269894E+03  0.39232110715E+03  0.00000000000E+00 0.  1.
        -13    1    4    4    0    0 -0.20101127819E+02 -0.26607092241E+02 -0.48176479793E+01  0.33692765235E+02  0.00000000000E+00 0.  1.
         13    1    4    4    0    0  0.76326024816E+02  0.24785202106E+01 -0.71574029538E+01  0.76700935741E+02  0.00000000000E+00 0. -1.
         21    1    1    2  503  501  0.40243054641E+02 -0.51976232778E+01  0.48826909822E+02  0.63486895163E+02  0.00000000000E+00 0.  1.
         -3    1    1    2    0  502  0.54286593849E+02 -0.30767572802E+02 -0.27504272308E+02  0.68192102204E+02  0.00000000000E+00 0.  1.
<scales pt_clust_5="13000.00000" pt_clust_6="13000.00000" pt_clust_7="13000.00000" pt_clust_8="13000.00000" pt_clust_9="40.57732" pt_clust_10="64.00678"></scales>
<clustering>
<clus scale="   40.577">  1  9  2 -1</clus>
<clus scale="   64.007">  2 10  1 -1</clus>
<clus scale="   90.843">  5  6 -1 -1</clus>
<clus scale="   91.104">  7  8 -1 -1</clus>
<clus scale="  145.106">  1  5  2 -1</clus>
<clus scale="   64.007">  2  5  1 -1</clus>
</clustering>
</event>
<event>
10    2  0.1671105E-006  0.1034359E+03  0.7546771E-02  0.1273373E+00
          1   -1    0    0  503    0 -0.00000000000E+00  0.00000000000E+00  0.39732105830E+03  0.39732105830E+03  0.00000000000E+00 0. -1.
         21   -1    0    0  501  502  0.00000000000E+00 -0.00000000000E+00 -0.51663594581E+03  0.51663594581E+03  0.00000000000E+00 0. -1.
         23    2    1    2    0    0 -0.80085402148E+02  0.76254706812E+01  0.24111574327E+03  0.26995440852E+03  0.90921733323E+02 0.  0.
         23    2    1    2    0    0  0.13605253614E+02  0.31170564382E+01  0.10940276181E+03  0.14273272272E+03  0.90602686917E+02 0.  0.
        -11    1    4    4    0    0  0.44646779228E+02 -0.15624213508E+01  0.21868089382E+02  0.49739213796E+02  0.00000000000E+00 0. -1.
         11    1    4    4    0    0 -0.31041525614E+02  0.46794777890E+01  0.87534672429E+02  0.92993508924E+02  0.00000000000E+00 0.  1.
        -13    1    3    3    0    0 -0.36259036664E+02  0.58913054854E+01  0.15091268806E+02  0.39713620010E+02  0.00000000000E+00 0.  1.
         13    1    3    3    0    0 -0.43826365484E+02  0.17341651958E+01  0.22602447446E+03  0.23024078851E+03  0.00000000000E+00 0. -1.
         21    1    1    2  503  502  0.96030107299E+02  0.25352391841E+02 -0.42542089676E+03  0.43686092144E+03  0.00000000000E+00 0. -1.
          1    1    1    2  501    0 -0.29549958765E+02 -0.36094918961E+02 -0.44412495824E+02  0.64408951421E+02  0.00000000000E+00 0. -1.
<scales pt_clust_5="13000.00000" pt_clust_6="13000.00000" pt_clust_7="13000.00000" pt_clust_8="13000.00000" pt_clust_9="68.97044" pt_clust_10="46.64808"></scales>
<clustering>
<clus scale="   46.648">  2 10  1 -1</clus>
<clus scale="   68.970">  2  9  1 -1</clus>
<clus scale="   90.603">  5  6 -1 -1</clus>
<clus scale="   90.922">  7  8 -1 -1</clus>
<clus scale="  103.156">  2  5  1 -1</clus>
<clus scale="   46.648">  2  5  1 -1</clus>
</clustering>
</event>
<event>
10    2  0.1671105E-006  0.9322077E+02  0.7546771E-02  0.1295438E+00
         -3   -1    0    0    0  501 -0.00000000000E+00  0.00000000000E+00  0.96703987749E+02  0.96703987749E+02  0.00000000000E+00 0.  1.
         21   -1    0    0  503  502  0.00000000000E+00 -0.00000000000E+00 -0.19540121742E+03  0.19540121742E+03  0.00000000000E+00 0. -1.
         23    2    1    2    0    0  0.22563321353E+02  0.22492832911E+02 -0.21785063599E+02  0.98994134092E+02  0.91160400316E+02 0.  0.
         23    2    1    2    0    0  0.28401469939E+02 -0.63990286245E+01 -0.66153986876E+02  0.11661735934E+03  0.91518672722E+02 0.  0.
        -13    1    4    4    0    0  0.18396120187E+01  0.41307258428E+02 -0.30976540048E+02  0.51664492687E+02  0.00000000000E+00 0.  1.
         13    1    4    4    0    0  0.26561857920E+02 -0.47706287053E+02 -0.35177446828E+02  0.64952866648E+02  0.00000000000E+00 0. -1.
        -13    1    3    3    0    0  0.83769852971E+01  0.41825688401E+02  0.22801682361E+02  0.48368159065E+02  0.00000000000E+00 0.  1.
         13    1    3    3    0    0  0.14186336056E+02 -0.19332855490E+02 -0.44586745960E+02  0.50625975026E+02  0.00000000000E+00 0. -1.
         21    1    1    2  503  501 -0.44037494260E+02  0.10858937792E+02 -0.16152742469E+02  0.48146947151E+02  0.00000000000E+00 0. -1.
         -3    1    1    2    0  502 -0.69272970323E+01 -0.26952742079E+02  0.53945632749E+01  0.28346764589E+02  0.00000000000E+00 0.  1.
<scales pt_clust_5="13000.00000" pt_clust_6="13000.00000" pt_clust_7="13000.00000" pt_clust_8="13000.00000" pt_clust_9="45.66409" pt_clust_10="27.82874"></scales>
<clustering>
<clus scale="   27.829">  2 10  1 -1</clus>
<clus scale="   45.664">  1  9  2 -1</clus>
<clus scale="   91.160">  7  8 -1 -1</clus>
<clus scale="   91.519">  5  6 -1 -1</clus>
<clus scale="   92.869">  1  7  2 -1</clus>
<clus scale="   27.829">  2  5  1 -1</clus>
</clustering>
</event>
<event>
10    2  0.1671105E-006  0.1498735E+03  0.7546771E-02  0.1221966E+00
         21   -1    0    0  503  502  0.00000000000E+00  0.00000000000E+00  0.83302327766E+02  0.83302327766E+02  0.00000000000E+00 0. -1.
          2   -1    0    0  502    0 -0.00000000000E+00 -0.00000000000E+00 -0.60749477850E+03  0.60749477850E+03  0.00000000000E+00 0. -1.
         23    2    1    2    0    0  0.20591399327E+02  0.20689320181E+02 -0.32289545137E+03  0.33661404639E+03  0.90528945739E+02 0.  0.
         23    2    1    2    0    0 -0.11091334396E+03  0.59922596418E+02 -0.16125416527E+03  0.22248801600E+03  0.87209655521E+02 0.  0.
        -13    1    3    3    0    0 -0.72688648910E+01 -0.33441585401E+02 -0.11321513506E+03  0.11827443864E+03  0.00000000000E+00 0.  1.
         13    1    3    3    0    0  0.27860264218E+02  0.54130905582E+02 -0.20968031631E+03  0.21833960774E+03  0.00000000000E+00 0. -1.
        -13    1    4    4    0    0 -0.93671675871E+02  0.71368737824E+02 -0.16369114855E+03  0.20164987407E+03  0.00000000000E+00 0. -1.
         13    1    4    4    0    0 -0.17241668084E+02 -0.11446141406E+02  0.24369832793E+01  0.20838141926E+02  0.00000000000E+00 0.  1.
         21    1    1    2  503  501  0.19882130384E+02 -0.35225612340E+02 -0.21750051858E+02  0.45926110538E+02  0.00000000000E+00 0. -1.
          2    1    1    2  501    0  0.70439814245E+02 -0.45386304259E+02 -0.18292782240E+02  0.85768933346E+02  0.00000000000E+00 0. -1.
<scales pt_clust_5="13000.00000" pt_clust_6="13000.00000" pt_clust_7="13000.00000" pt_clust_8="13000.00000" pt_clust_9="22.87304" pt_clust_10="126.25511"></scales>
<clustering>
<clus scale="   22.873">  9 10 -1 -1</clus>
<clus scale="   87.210">  7  8 -1 -1</clus>
<clus scale="   90.529">  5  6 -1 -1</clus>
<clus scale="   95.119">  2  5  1 -1</clus>
<clus scale="  126.255">  1  9  2 -1</clus>
<clus scale="  126.255">  1  5  2 -1</clus>
</clustering>
</event>
<event>
10    2  0.1671105E-006  0.1996661E+03  0.7546771E-02  0.1179447E+00
         21   -1    0    0  501  502  0.00000000000E+00  0.00000000000E+00  0.19630843755E+04  0.19630843755E+04  0.00000000000E+00 0. -1.
         -4   -1    0    0    0  501 -0.00000000000E+00 -0.00000000000E+00 -0.29932813419E+02  0.29932813419E+02  0.00000000000E+00 0. -1.
         23    2    1    2    0    0 -0.43212987393E+01 -0.19926951607E+02  0.29133763856E+03  0.30841778052E+03  0.99137029769E+02 0.  0.
         23    2    1    2    0    0 -0.16456946916E+03 -0.31876169412E+02  0.74731220383E+03  0.77241142128E+03  0.10022311804E+03 0.  0.
        -13    1    4    4    0    0 -0.15762933121E+03  0.48868716078E+01  0.59026403385E+03  0.61096850755E+03  0.00000000000E+00 0. -1.
         13    1    4    4    0    0 -0.69401379498E+01 -0.36763041020E+02  0.15704816998E+03  0.16144291373E+03  0.00000000000E+00 0.  1.
        -13    1    3    3    0    0  0.32245475593E+02 -0.40815615254E+02  0.10252143378E+03  0.11496229612E+03  0.00000000000E+00 0.  1.
         13    1    3    3    0    0 -0.36566774332E+02  0.20888663647E+02  0.18881620479E+03  0.19345548440E+03  0.00000000000E+00 0. -1.
         21    1    1    2  503  502  0.89160439341E+02  0.14905731214E+02  0.48781178382E+03  0.49611702370E+03  0.00000000000E+00 0. -1.
         -4    1    1    2    0  503  0.79730328554E+02  0.36897389805E+02  0.40668993591E+03  0.41607096346E+03  0.00000000000E+00 0. -1.
<scales pt_clust_5="13000.00000" pt_clust_6="13000.00000" pt_clust_7="13000.00000" pt_clust_8="13000.00000" pt_clust_9="26.92494" pt_clust_10="174.83659"></scales>
<clustering>
<clus scale="   26.925">  9 10 -1 -1</clus>
<clus scale="   99.137">  7  8 -1 -1</clus>
<clus scale="  100.223">  5  6 -1 -1</clus>
<clus scale="  101.212">  2  7  1 -1</clus>
<clus scale="  174.837">  1  9  2 -1</clus>
<clus scale="  174.837">  1  5  2 -1</clus>
</clustering>
</event>
<event>
10    2  0.1671105E-006  0.9757673E+02  0.7546771E-02  0.1285531E+00
         -4   -1    0    0    0  501 -0.00000000000E+00  0.00000000000E+00  0.16898832936E+03  0.16898832936E+03  0.00000000000E+00 0.  1.
         21   -1    0    0  503  502  0.00000000000E+00 -0.00000000000E+00 -0.11493136448E+03  0.11493136448E+03  0.00000000000E+00 0. -1.
         23    2    1    2    0    0  0.15827349208E+02 -0.12724589590E+02  0.40607761045E+02  0.10246142171E+03  0.91852776320E+02 0.  0.
         23    2    1    2    0    0 -0.56946137138E+02 -0.22363369668E+02  0.22920934529E+02  0.11280536650E+03  0.91960310098E+02 0.  0.
        -11    1    4    4    0    0 -0.49775193859E+01 -0.24625453818E+02 -0.29640627735E+02  0.38855572155E+02  0.00000000000E+00 0. -1.
         11    1    4    4    0    0 -0.51968617752E+02  0.22620841502E+01  0.52561562264E+02  0.73949794343E+02  0.00000000000E+00 0.  1.
        -11    1    3    3    0    0 -0.11124245930E+02 -0.48161288569E+02  0.23948896116E+02  0.54925478508E+02  0.00000000000E+00 0.  1.
         11    1    3    3    0    0  0.26951595138E+02  0.35436698979E+02  0.16658864929E+02  0.47535943198E+02  0.00000000000E+00 0. -1.
         21    1    1    2  503  501  0.33869868529E+02  0.39646611643E+01  0.32538393297E+01  0.34256006812E+02  0.00000000000E+00 0. -1.
         -4    1    1    2    0  502  0.72489194017E+01  0.31123298093E+02 -0.12725570018E+02  0.34396898828E+02  0.00000000000E+00 0.  1.
<scales pt_clust_5="13000.00000" pt_clust_6="13000.00000" pt_clust_7="13000.00000" pt_clust_8="13000.00000" pt_clust_9="36.29672" pt_clust_10="31.95632"></scales>
<clustering>
<clus scale="   31.956">  2 10  1 -1</clus>
<clus scale="   36.297">  2  9  1 -1</clus>
<clus scale="   91.853">  7  8 -1 -1</clus>
<clus scale="   91.960">  5  6 -1 -1</clus>
<clus scale="   97.475">  1  7  2 -1</clus>
<clus scale="   31.956">  2  5  1 -1</clus>
</clustering>
</event>
<event>
10    2  0.1671105E-006  0.9988490E+02  0.7546771E-02  0.1284576E+00
         21   -1    0    0  503  502  0.00000000000E+00  0.00000000000E+00  0.85443910450E+02  0.85443910450E+02  0.00000000000E+00 0.  1.
         -4   -1    0    0    0  501 -0.00000000000E+00 -0.00000000000E+00 -0.59267070420E+03  0.59267070420E+03  0.00000000000E+00 0.  1.
         23    2    1    2    0    0 -0.62065709090E+01  0.36285268775E+02 -0.32955542202E+03  0.34173724435E+03  0.82597976608E+02 0.  0.
         23    2    1    2    0    0  0.38098373455E+02 -0.73583916179E+02 -0.31889396131E+02  0.12697019756E+03  0.90765735288E+02 0.  0.
        -11    1    3    3    0    0 -0.32923629260E+02  0.48062327549E+02 -0.25714736008E+03  0.26366402388E+03  0.00000000000E+00 0.  1.
         11    1    3    3    0    0  0.26717058351E+02 -0.11777058774E+02 -0.72408061943E+02  0.78073220471E+02  0.00000000000E+00 0. -1.
        -11    1    4    4    0    0  0.54419711912E+02 -0.86385548750E+02 -0.25012299243E+02  0.10511699763E+03  0.00000000000E+00 0.  1.
         11    1    4    4    0    0 -0.16321338457E+02  0.12801632571E+02 -0.68770968878E+01  0.21853199929E+02  0.00000000000E+00 0. -1.
         21    1    1    2  503  501  0.49545281147E+02  0.46664586332E+02 -0.59635318105E+02  0.90491378965E+02  0.00000000000E+00 0.  1.
         -4    1    1    2    0  502 -0.81437083693E+02 -0.93659389274E+01 -0.86146657493E+02  0.11891579378E+03  0.00000000000E+00 0.  1.
<scales pt_clust_5="13000.00000" pt_clust_6="13000.00000" pt_clust_7="13000.00000" pt_clust_8="13000.00000" pt_clust_9="68.06114" pt_clust_10="69.86017"></scales>
<clustering>
<clus scale="   68.061">  1  9  2 -1</clus>
<clus scale="   69.860">  1 10  2 -1</clus>
<clus scale="   82.598">  5  6 -1 -1</clus>
<clus scale="   90.766">  7  8 -1 -1</clus>
<clus scale="   92.526">  2  5  1 -1</clus>
<clus scale="   68.061">  1  5  2 -1</clus>
</clustering>
</event>
<event>
10    2  0.1671105E-006  0.9202470E+02  0.7546771E-02  0.1298960E+00
         21   -1    0    0  501  502  0.00000000000E+00  0.00000000000E+00  0.19237171974E+03  0.19237171974E+03  0.00000000000E+00 0. -1.
          1   -1    0    0  503    0 -0.00000000000E+00 -0.00000000000E+00 -0.28124375492E+03  0.28124375492E+03  0.00000000000E+00 0. -1.
         23    2    1    2    0    0  0.46436495365E+01  0.16893269783E+01 -0.22352092560E+03  0.24100442354E+03  0.89983946782E+02 0.  0.
         23    2    1    2    0    0 -0.14949168534E+02 -0.55253850015E+02  0.40436542095E+02  0.11531468574E+03  0.91574544661E+02 0.  0.
        -11    1    3    3    0    0  0.35009583843E+02  0.31842694604E+02 -0.11792834943E+03  0.12706975942E+03  0.00000000000E+00 0.  1.
         11    1    3    3    0    0 -0.30365934307E+02 -0.30153367625E+02 -0.10559257617E+03  0.11393466412E+03  0.00000000000E+00 0. -1.
        -13    1    4    4    0    0  0.98763693010E+01 -0.66317386659E+02  0.55335770778E+00  0.67051060011E+02  0.00000000000E+00 0. -1.
         13    1    4    4    0    0 -0.24825537835E+02  0.11063536643E+02  0.39883184387E+02  0.48263625731E+02  0.00000000000E+00 0.  1.
         21    1    1    2  503  502 -0.10229696998E+02  0.20968560161E+02  0.11412079001E+02  0.25972346121E+02  0.00000000000E+00 0.  1.
          1    1    1    2  501    0  0.20535215996E+02  0.32595962876E+02  0.82800269323E+02  0.91324019249E+02  0.00000000000E+00 0. -1.
<scales pt_clust_5="13000.00000" pt_clust_6="13000.00000" pt_clust_7="13000.00000" pt_clust_8="13000.00000" pt_clust_9="23.33082" pt_clust_10="45.77778"></scales>
<clustering>
<clus scale="   23.331">  1  9  2 -1</clus>
<clus scale="   45.778">  1 10  2 -1</clus>
<clus scale="   89.984">  5  6 -1 -1</clus>
<clus scale="   90.442">  2  5  1 -1</clus>
<clus scale="   91.575">  7  8 -1 -1</clus>
<clus scale="   23.331">  1  5  2 -1</clus>
</clustering>
</event>
<event>
10    2  0.1671105E-006  0.1005079E+03  0.7546771E-02  0.1282451E+00
          2   -1    0    0  503    0 -0.00000000000E+00  0.00000000000E+00  0.30397772334E+03  0.30397772334E+03  0.00000000000E+00 0. -1.
         21   -1    0    0  501  502  0.00000000000E+00 -0.00000000000E+00 -0.17868887265E+03  0.17868887265E+03  0.00000000000E+00 0.  1.
         23    2    1    2    0    0 -0.12492319136E+02  0.15586564406E+02  0.21998481673E+03  0.23956157404E+03  0.92722322751E+02 0.  0.
         23    2    1    2    0    0 -0.59070269026E+01 -0.18060378148E+02  0.13239548179E+02  0.10147563755E+03  0.98797515933E+02 0.  0.
        -13    1    3    3    0    0  0.70285939318E+00 -0.38558111824E+02  0.10293643557E+03  0.10992329947E+03  0.00000000000E+00 0.  1.
         13    1    3    3    0    0 -0.13195178529E+02  0.54144676230E+02  0.11704838116E+03  0.12963827457E+03  0.00000000000E+00 0. -1.
        -13    1    4    4    0    0  0.22121100258E+02 -0.12480769874E+02 -0.36288458108E+02  0.44294072799E+02  0.00000000000E+00 0.  1.
         13    1    4    4    0    0 -0.28028127160E+02 -0.55796082734E+01  0.49528006287E+02  0.57181564751E+02  0.00000000000E+00 0. -1.
         21    1    1    2  503  502 -0.35312169579E+02 -0.28570223199E+01 -0.58748913185E+02  0.68604276086E+02  0.00000000000E+00 0.  1.
          2    1    1    2  501    0  0.53711515617E+02  0.53308360614E+01 -0.49186601041E+02  0.73025108319E+02  0.00000000000E+00 0. -1.
<scales pt_clust_5="13000.00000" pt_clust_6="13000.00000" pt_clust_7="13000.00000" pt_clust_8="13000.00000" pt_clust_9="35.42756" pt_clust_10="35.15758"></scales>
<clustering>
<clus scale="   35.428">  2  9  1 -1</clus>
<clus scale="   35.158">  2 10  1 -1</clus>
<clus scale="   92.722">  5  6 -1 -1</clus>
<clus scale="   94.543">  1  5  2 -1</clus>
<clus scale="   98.798">  7  8 -1 -1</clus>
<clus scale="   35.428">  2  5  1 -1</clus>
</clustering>
</event>
<event>
10    2  0.1671105E-006  0.9666314E+02  0.7546771E-02  0.1298664E+00
         21   -1    0    0  503  502  0.00000000000E+00  0.00000000000E+00  0.48880927150E+02  0.48880927150E+02  0.00000000000E+00 0. -1.
          1   -1    0    0  502    0 -0.00000000000E+00 -0.00000000000E+00 -0.65348385430E+03  0.65348385430E+03  0.00000000000E+00 0. -1.
         23    2    1    2    0    0 -0.18177189875E+02  0.62331775847E+02 -0.45052800186E+03  0.46398764269E+03  0.89963279151E+02 0.  0.
         23    2    1    2    0    0  0.11199717156E+02  0.18405574185E+02 -0.11050579316E+03  0.13259773042E+03  0.70045906141E+02 0.  0.
        -11    1    3    3    0    0  0.35213616473E+02  0.38121288287E+02 -0.23193599866E+03  0.23767107288E+03  0.00000000000E+00 0. -1.
         11    1    3    3    0    0 -0.53390806349E+02  0.24210487559E+02 -0.21859200320E+03  0.22631656982E+03  0.00000000000E+00 0.  1.
        -11    1    4    4    0    0 -0.42323884677E+01 -0.25569297963E+02 -0.48974205164E+02  0.55409158827E+02  0.00000000000E+00 0.  1.
         11    1    4    4    0    0  0.15432105624E+02  0.43974872148E+02 -0.61531587992E+02  0.77188571597E+02  0.00000000000E+00 0. -1.
         21    1    1    2  503  501  0.27243674960E+02 -0.29082059382E+02 -0.10600012971E+02  0.41235231032E+02  0.00000000000E+00 0.  1.
          1    1    1    2  501    0 -0.20266202241E+02 -0.51655290650E+02 -0.32969119159E+02  0.64544177301E+02  0.00000000000E+00 0. -1.
<scales pt_clust_5="13000.00000" pt_clust_6="13000.00000" pt_clust_7="13000.00000" pt_clust_8="13000.00000" pt_clust_9="39.84952" pt_clust_10="65.75845"></scales>
<clustering>
<clus scale="   39.850">  1  9  2 -1</clus>
<clus scale="   65.758">  1 10  2 -1</clus>
<clus scale="   70.046">  7  8 -1 -1</clus>
<clus scale="   78.465">  1  7  2 -1</clus>
<clus scale="   89.963">  5  6 -1 -1</clus>
<clus scale="   39.850">  1  5  2 -1</clus>
</clustering>
</event>
<event>
10    2  0.1671105E-006  0.2628597E+03  0.7546771E-02  0.1106072E+00
          2   -1    0    0  502    0 -0.00000000000E+00  0.00000000000E+00  0.22631499035E+04  0.22631499035E+04  0.00000000000E+00 0. -1.
         21   -1    0    0  503  502  0.00000000000E+00 -0.00000000000E+00 -0.93808313843E+02  0.93808313843E+02  0.00000000000E+00 0. -1.
         23    2    1    2    0    0 -0.20034498439E+03 -0.55401442238E+02  0.74064224240E+03  0.77534468590E+03  0.96958847742E+02 0.  0.
         23    2    1    2    0    0  0.27872502191E+03 -0.92544937323E+02  0.13605958763E+04  0.13960985133E+04  0.10778551470E+03 0.  0.
        -11    1    3    3    0    0 -0.18315900048E+03 -0.78773505020E+02  0.66812356120E+03  0.69723853707E+03  0.00000000000E+00 0.  1.
         11    1    3    3    0    0 -0.17185983910E+02  0.23372062783E+02  0.72518681200E+02  0.78106148828E+02  0.00000000000E+00 0. -1.
        -13    1    4    4    0    0  0.16089685498E+03 -0.92091219650E+02  0.65492428537E+03  0.68065733688E+03  0.00000000000E+00 0. -1.
         13    1    4    4    0    0  0.11782816694E+03 -0.45371767343E+00  0.70567159089E+03  0.71544117646E+03  0.00000000000E+00 0.  1.
         21    1    1    2  503  501 -0.31025246473E+02  0.22214814671E+02  0.13217242438E+02  0.40382662211E+02  0.00000000000E+00 0. -1.
          2    1    1    2  501    0 -0.47354791048E+02  0.12573156489E+03  0.54886228575E+02  0.14513235591E+03  0.00000000000E+00 0. -1.
<scales pt_clust_5="13000.00000" pt_clust_6="13000.00000" pt_clust_7="13000.00000" pt_clust_8="13000.00000" pt_clust_9="22.26971" pt_clust_10="172.56228"></scales>
<clustering>
<clus scale="   22.270">  9 10 -1 -1</clus>
<clus scale="   96.959">  5  6 -1 -1</clus>
<clus scale="  107.786">  7  8 -1 -1</clus>
<clus scale="  172.562">  2  9  1 -1</clus>
<clus scale="  258.609">  1  5  2 -1</clus>
<clus scale="  172.562">  2  5  1 -1</clus>
</clustering>
</event>
<event>
10    2  0.1671105E-006  0.1074619E+03  0.7546771E-02  0.1265601E+00
         21   -1    0    0  501  502  0.00000000000E+00  0.00000000000E+00  0.16522538750E+03  0.16522538750E+03  0.00000000000E+00 0. -1.
          2   -1    0    0  503    0 -0.00000000000E+00 -0.00000000000E+00 -0.45160053281E+03  0.45160053281E+03  0.00000000000E+00 0. -1.
         23    2    1    2    0    0 -0.47406849954E+02 -0.51625064919E+02 -0.23758292904E+03  0.26451133668E+03  0.92779536050E+02 0.  0.
         23    2    1    2    0    0  0.60845779457E+02 -0.50394872241E+02 -0.13567631885E+03  0.18205127816E+03  0.92156130329E+02 0.  0.
        -13    1    4    4    0    0 -0.24573243802E+02 -0.12936849701E+02 -0.37105005015E+02  0.46346389161E+02  0.00000000000E+00 0.  1.
         13    1    4    4    0    0  0.85419023259E+02 -0.37458022540E+02 -0.98571313839E+02  0.13570488900E+03  0.00000000000E+00 0. -1.
        -13    1    3    3    0    0 -0.66901067815E+02 -0.12350394783E+02 -0.17781393658E+03  0.19038403602E+03  0.00000000000E+00 0. -1.
         13    1    3    3    0    0  0.19494217861E+02 -0.39274670136E+02 -0.59768992454E+02  0.74127300661E+02  0.00000000000E+00 0.  1.
         21    1    1    2  503  502  0.40744007624E+02  0.17334307782E+02  0.15302371911E+02  0.46847785109E+02  0.00000000000E+00 0. -1.
          2    1    1    2  501    0 -0.54182937128E+02  0.84685629377E+02  0.71581730668E+02  0.12341552035E+03  0.00000000000E+00 0. -1.
<scales pt_clust_5="13000.00000" pt_clust_6="13000.00000" pt_clust_7="13000.00000" pt_clust_8="13000.00000" pt_clust_9="44.27813" pt_clust_10="100.33889"></scales>
<clustering>
<clus scale="   44.278">  1  9  2 -1</clus>
<clus scale="   92.156">  5  6 -1 -1</clus>
<clus scale="   92.780">  7  8 -1 -1</clus>
<clus scale="  100.339">  1 10  2 -1</clus>
<clus scale="  106.924">  1  5  2 -1</clus>
<clus scale="   44.278">  1  5  2 -1</clus>
</clustering>
</event>
<event>
10    2  0.1671105E-006  0.2199563E+03  0.7546771E-02  0.1163362E+00
         21   -1    0    0  503  502  0.00000000000E+00  0.00000000000E+00  0.39462994666E+03  0.39462994666E+03  0.00000000000E+00 0. -1.
          3   -1    0    0  502    0 -0.00000000000E+00 -0.00000000000E+00 -0.23263059692E+03  0.23263059692E+03  0.00000000000E+00 0. -1.
         23    2    1    2    0    0  0.46921650982E+02 -0.41952914938E+02 -0.16513111944E+02  0.11052159492E+03  0.89334493202E+02 0.  0.
         23    2    1    2    0    0 -0.83434948793E+02  0.22245721848E+03  0.23754671026E+01  0.25708465077E+03  0.98174691681E+02 0.  0.
        -11    1    3    3    0    0  0.66077687736E+02 -0.11183565782E+02 -0.27807560428E+02  0.72557517716E+02  0.00000000000E+00 0.  1.
         11    1    3    3    0    0 -0.19156036754E+02 -0.30769349157E+02  0.11294448483E+02  0.37964077207E+02  0.00000000000E+00 0. -1.
        -13    1    4    4    0    0 -0.26970906682E+02  0.11162187572E+02  0.23339026833E+02  0.37372910137E+02  0.00000000000E+00 0.  1.
         13    1    4    4    0    0 -0.56464042111E+02  0.21129503091E+03 -0.20963559730E+02  0.21971174064E+03  0.00000000000E+00 0. -1.
         21    1    1    2  503  501 -0.11591090892E+02 -0.43385717931E+02  0.33414510083E+02  0.55975024721E+02  0.00000000000E+00 0. -1.
          3    1    1    2  501    0  0.48104388703E+02 -0.13711858561E+03  0.14272248450E+03  0.20367927315E+03  0.00000000000E+00 0. -1.
<scales pt_clust_5="13000.00000" pt_clust_6="13000.00000" pt_clust_7="13000.00000" pt_clust_8="13000.00000" pt_clust_9="27.69042" pt_clust_10="203.03589"></scales>
<clustering>
<clus scale="   27.690">  9 10 -1 -1</clus>
<clus scale="   89.334">  5  6 -1 -1</clus>
<clus scale="   98.175">  7  8 -1 -1</clus>
<clus scale="  109.281">  2  5  1 -1</clus>
<clus scale="  203.036">  1  9  2 -1</clus>
<clus scale="  203.036">  1  5  2 -1</clus>
</clustering>
</event>
<event>
10    2  0.1671105E-006  0.2358979E+03  0.7546771E-02  0.1151789E+00
         -4   -1    0    0    0  501 -0.00000000000E+00  0.00000000000E+00  0.21469650773E+03  0.21469650773E+03  0.00000000000E+00 0.  1.
         21   -1    0    0  503  502  0.00000000000E+00 -0.00000000000E+00 -0.68299844932E+03  0.68299844932E+03  0.00000000000E+00 0. -1.
         23    2    1    2    0    0 -0.22805601703E+01  0.71110717666E+02  0.74447994082E+01  0.11585683161E+03  0.91134215699E+02 0.  0.
         23    2    1    2    0    0  0.13097743297E+03 -0.18413132921E+03 -0.50259511196E+03  0.55845487358E+03  0.90612167574E+02 0.  0.
        -11    1    3    3    0    0  0.35660070008E+02  0.66584254169E+02  0.14740036685E+02  0.76956950158E+02  0.00000000000E+00 0. -1.
         11    1    3    3    0    0 -0.37940630179E+02  0.45264634978E+01 -0.72952372767E+01  0.38899881453E+02  0.00000000000E+00 0.  1.
        -13    1    4    4    0    0  0.18844827940E+02 -0.74117487644E+02 -0.97133042023E+02  0.12362587661E+03  0.00000000000E+00 0.  1.
         13    1    4    4    0    0  0.11213260503E+03 -0.11001384156E+03 -0.40546206994E+03  0.43482899697E+03  0.00000000000E+00 0. -1.
         21    1    1    2  503  501 -0.14817148588E+03  0.10298782337E+03  0.54132967837E+02  0.18839230132E+03  0.00000000000E+00 0.  1.
         -4    1    1    2    0  502  0.19474613079E+02  0.10032788174E+02 -0.27284596875E+02  0.34990950541E+02  0.00000000000E+00 0.  1.
<scales pt_clust_5="13000.00000" pt_clust_6="13000.00000" pt_clust_7="13000.00000" pt_clust_8="13000.00000" pt_clust_9="217.80091" pt_clust_10="21.90702"></scales>
<clustering>
<clus scale="   21.907">  2 10  1 -1</clus>
<clus scale="   90.612">  7  8 -1 -1</clus>
<clus scale="   91.134">  5  6 -1 -1</clus>
<clus scale="  116.112">  1  5  2 -1</clus>
<clus scale="  217.801">  1  9  2 -1</clus>
<clus scale="   21.907">  2  5  1 -1</clus>
</clustering>
</event>
<event>
10    2  0.1671105E-006  0.1026630E+03  0.7546771E-02  0.1276571E+00
          1   -1    0    0  503    0 -0.00000000000E+00  0.00000000000E+00  0.49165338060E+03  0.49165338060E+03  0.00000000000E+00 0. -1.
         21   -1    0    0  501  502  0.00000000000E+00 -0.00000000000E+00 -0.25569113863E+03  0.25569113863E+03  0.00000000000E+00 0.  1.
         23    2    1    2    0    0 -0.26573137188E+02  0.20908872197E+02  0.19712457008E+03  0.22106467515E+03  0.94171024799E+02 0.  0.
         23    2    1    2    0    0 -0.57441825862E+02 -0.73304436083E+02  0.19161271978E+03  0.23143650865E+03  0.90411943055E+02 0.  0.
        -11    1    4    4    0    0 -0.25292815013E+02  0.13673328861E+02  0.16148969874E+02  0.32976895570E+02  0.00000000000E+00 0.  1.
         11    1    4    4    0    0 -0.32149010849E+02 -0.86977764943E+02  0.17546374991E+03  0.19845961308E+03  0.00000000000E+00 0. -1.
        -13    1    3    3    0    0  0.86364581269E+01  0.37246348119E+02  0.16863755577E+03  0.17291762221E+03  0.00000000000E+00 0.  1.
         13    1    3    3    0    0 -0.35209595315E+02 -0.16337475921E+02  0.28487014317E+02  0.48147052936E+02  0.00000000000E+00 0. -1.
         21    1    1    2  503  502  0.10856345406E+03 -0.23499406460E+02 -0.17918288410E+03  0.21081923920E+03  0.00000000000E+00 0.  1.
          1    1    1    2  501    0 -0.24548491012E+02  0.75894970346E+02  0.26407836201E+02  0.84024096231E+02  0.00000000000E+00 0. -1.
<scales pt_clust_5="13000.00000" pt_clust_6="13000.00000" pt_clust_7="13000.00000" pt_clust_8="13000.00000" pt_clust_9="96.90974" pt_clust_10="79.76638"></scales>
<clustering>
<clus scale="   79.766">  2 10  1 -1</clus>
<clus scale="   90.412">  5  6 -1 -1</clus>
<clus scale="   94.171">  7  8 -1 -1</clus>
<clus scale="   96.910">  2  9  1 -1</clus>
<clus scale="   99.226">  2  5  1 -1</clus>
<clus scale="   79.766">  2  5  1 -1</clus>
</clustering>
</event>
<event>
10    2  0.1671105E-006  0.1255549E+03  0.7546771E-02  0.1234579E+00
         21   -1    0    0  501  502  0.00000000000E+00  0.00000000000E+00  0.13900622925E+03  0.13900622925E+03  0.00000000000E+00 0. -1.
         -3   -1    0    0    0  501 -0.00000000000E+00 -0.00000000000E+00 -0.30725641237E+03  0.30725641237E+03  0.00000000000E+00 0.  1.
         23    2    1    2    0    0  0.58113137284E+02  0.80115831367E+02 -0.46302904609E+02  0.14309793557E+03  0.92397927617E+02 0.  0.
         23    2    1    2    0    0  0.64559849538E+02 -0.89294736834E+02 -0.27688644062E+02  0.14577987011E+03  0.91343228112E+02 0.  0.
        -11    1    3    3    0    0 -0.19217232202E+02  0.26878888249E+02 -0.35656651512E+02  0.48612482389E+02  0.00000000000E+00 0. -1.
         11    1    3    3    0    0  0.77330369486E+02  0.53236943118E+02 -0.10646253097E+02  0.94485453178E+02  0.00000000000E+00 0.  1.
        -13    1    4    4    0    0  0.74670260340E+02 -0.26597956016E+02 -0.10276623183E+02  0.79929394014E+02  0.00000000000E+00 0. -1.
         13    1    4    4    0    0 -0.10110410802E+02 -0.62696780818E+02 -0.17412020879E+02  0.65850476101E+02  0.00000000000E+00 0.  1.
         21    1    1    2  503  502 -0.78449300425E+02  0.18993903428E+02 -0.58985472352E+02  0.99971731270E+02  0.00000000000E+00 0.  1.
         -3    1    1    2    0  503 -0.44223686397E+02 -0.98149979605E+01 -0.35273162095E+02  0.57413104668E+02  0.00000000000E+00 0.  1.
<scales pt_clust_5="13000.00000" pt_clust_6="13000.00000" pt_clust_7="13000.00000" pt_clust_8="13000.00000" pt_clust_9="20.54886" pt_clust_10="126.03695"></scales>
<clustering>
<clus scale="   20.549">  9 10 -1 -1</clus>
<clus scale="   91.343">  7  8 -1 -1</clus>
<clus scale="   92.398">  5  6 -1 -1</clus>
<clus scale="  126.037">  1  9  2 -1</clus>
<clus scale="  126.037">  1  7  2 -1</clus>
<clus scale="  125.555">  1  5  2 -1</clus>
</clustering>
</event>
<event>
10    2  0.1671105E-006  0.1445224E+03  0.7546771E-02  0.1228020E+00
          2   -1    0    0  503    0 -0.00000000000E+00  0.00000000000E+00  0.91623448216E+03  0.91623448216E+03  0.00000000000E+00 0. -1.
         21   -1    0    0  501  502  0.00000000000E+00 -0.00000000000E+00 -0.43619383284E+02  0.43619383284E+02  0.00000000000E+00 0.  1.
         23    2    1    2    0    0 -0.15875342148E+02  0.12455515190E+02  0.21145557307E+03  0.23150551385E+03  0.92055294337E+02 0.  0.
         23    2    1    2    0    0 -0.34303522740E+02 -0.10350378207E+03  0.44065545467E+03  0.46300973874E+03  0.91164816997E+02 0.  0.
        -11    1    3    3    0    0  0.25843082046E+02  0.31258464984E+02  0.14676753470E+03  0.15226840041E+03  0.00000000000E+00 0. -1.
         11    1    3    3    0    0 -0.41718424194E+02 -0.18802949794E+02  0.64688038375E+02  0.79237113444E+02  0.00000000000E+00 0.  1.
        -11    1    4    4    0    0 -0.55498893058E+02 -0.25886530637E+02  0.20847509287E+03  0.21728346450E+03  0.00000000000E+00 0. -1.
         11    1    4    4    0    0  0.21195370318E+02 -0.77617251429E+02  0.23218036180E+03  0.24572627424E+03  0.00000000000E+00 0.  1.
         21    1    1    2  503  502  0.44835184531E+02  0.11134266806E+03  0.15192111994E+03  0.19361665782E+03  0.00000000000E+00 0. -1.
          2    1    1    2  501    0  0.53436803565E+01 -0.20294401181E+02  0.68582951197E+02  0.71721955034E+02  0.00000000000E+00 0. -1.
<scales pt_clust_5="13000.00000" pt_clust_6="13000.00000" pt_clust_7="13000.00000" pt_clust_8="13000.00000" pt_clust_9="112.14142" pt_clust_10="20.98614"></scales>
<clustering>
<clus scale="   20.986">  2 10  1 -1</clus>
<clus scale="   91.165">  7  8 -1 -1</clus>
<clus scale="   92.055">  5  6 -1 -1</clus>
<clus scale="   93.517">  1  5  2 -1</clus>
<clus scale="  112.141">  2  9  1 -1</clus>
<clus scale="   20.986">  2  5  1 -1</clus>
</clustering>
</event>
<event>
10    2  0.1671105E-006  0.1076975E+03  0.7546771E-02  0.1265161E+00
          2   -1    0    0  503    0 -0.00000000000E+00  0.00000000000E+00  0.51504332319E+03  0.51504332319E+03  0.00000000000E+00 0. -1.
         21   -1    0    0  501  502  0.00000000000E+00 -0.00000000000E+00 -0.62074678677E+02  0.62074678677E+02  0.00000000000E+00 0.  1.
         23    2    1    2    0    0 -0.68775736003E+02  0.21229669411E+02  0.29035075919E+03  0.31291038475E+03  0.91807106471E+02 0.  0.
         23    2    1    2    0    0  0.16988746715E+02 -0.89217095103E+01  0.66651187656E+02  0.11558189769E+03  0.92458530392E+02 0.  0.
        -13    1    4    4    0    0 -0.28235490078E+02  0.15228656388E+02  0.75320079419E+00  0.32089284610E+02  0.00000000000E+00 0.  1.
         13    1    4    4    0    0  0.45224236793E+02 -0.24150365898E+02  0.65897986862E+02  0.83492613081E+02  0.00000000000E+00 0. -1.
        -13    1    3    3    0    0 -0.39426620379E+02 -0.35322568401E+02  0.12978233390E+03  0.14016274978E+03  0.00000000000E+00 0.  1.
         13    1    3    3    0    0 -0.29349115624E+02  0.56552237812E+02  0.16056842529E+03  0.17274763497E+03  0.00000000000E+00 0. -1.
         21    1    1    2  503  502 -0.29846817317E+02 -0.58229778498E+01  0.16881573650E+02  0.34781131435E+02  0.00000000000E+00 0.  1.
          2    1    1    2  501    0  0.81633806605E+02 -0.64849820507E+01  0.79085124017E+02  0.11384458799E+03  0.00000000000E+00 0. -1.
<scales pt_clust_5="13000.00000" pt_clust_6="13000.00000" pt_clust_7="13000.00000" pt_clust_8="13000.00000" pt_clust_9="30.40953" pt_clust_10="72.35752"></scales>
<clustering>
<clus scale="   30.410">  2  9  1 -1</clus>
<clus scale="   72.358">  2 10  1 -1</clus>
<clus scale="   91.807">  7  8 -1 -1</clus>
<clus scale="   92.459">  5  6 -1 -1</clus>
<clus scale="  107.139">  1  7  2 -1</clus>
<clus scale="   30.410">  2  5  1 -1</clus>
</clustering>
</event>
<event>
10    2  0.1671105E-006  0.9408365E+02  0.7546771E-02  0.1293940E+00
         21   -1    0    0  503  502  0.00000000000E+00  0.00000000000E+00  0.25031081118E+03  0.25031081118E+03  0.00000000000E+00 0.  1.
          3   -1    0    0  502    0 -0.00000000000E+00 -0.00000000000E+00 -0.88687170640E+02  0.88687170640E+02  0.00000000000E+00 0. -1.
         23    2    1    2    0    0  0.25177969115E+02 -0.97503906131E+00  0.47748960554E+02  0.10643740168E+03  0.91728274881E+02 0.  0.
         23    2    1    2    0    0  0.24007893274E+02 -0.54843243784E+02  0.10808894319E+03  0.15315995694E+03  0.90501891932E+02 0.  0.
        -11    1    4    4    0    0 -0.10742590729E+02  0.21804609150E+02  0.22374499229E+02  0.33037288804E+02  0.00000000000E+00 0. -1.
         11    1    4    4    0    0  0.34750484003E+02 -0.76647852934E+02  0.85714443957E+02  0.12012266814E+03  0.00000000000E+00 0.  1.
        -13    1    3    3    0    0  0.20590185001E+02  0.20390610363E+02 -0.20027280251E+02  0.35225341213E+02  0.00000000000E+00 0. -1.
         13    1    3    3    0    0  0.45877841139E+01 -0.21365649424E+02  0.67776240805E+02  0.71212060468E+02  0.00000000000E+00 0.  1.
         21    1    1    2  503  501 -0.25203510936E+02  0.22289021596E+02  0.15506216675E+02  0.37046729988E+02  0.00000000000E+00 0. -1.
          3    1    1    2  501    0 -0.23982351453E+02  0.33529261249E+02 -0.97204798729E+01  0.42353893210E+02  0.00000000000E+00 0. -1.
<scales pt_clust_5="13000.00000" pt_clust_6="13000.00000" pt_clust_7="13000.00000" pt_clust_8="13000.00000" pt_clust_9="24.51019" pt_clust_10="79.18959"></scales>
<clustering>
<clus scale="   24.510">  9 10 -1 -1</clus>
<clus scale="   79.190">  1  9  2 -1</clus>
<clus scale="   90.502">  5  6 -1 -1</clus>
<clus scale="   91.728">  7  8 -1 -1</clus>
<clus scale="   92.888">  1  5  2 -1</clus>
<clus scale="   79.190">  1  5  2 -1</clus>
</clustering>
</event>
<event>
10    2  0.1671105E-006  0.1306379E+03  0.7546771E-02  0.1227638E+00
          2   -1    0    0  503    0 -0.00000000000E+00  0.00000000000E+00  0.77967693035E+03  0.77967693035E+03  0.00000000000E+00 0. -1.
         21   -1    0    0  501  502  0.00000000000E+00 -0.00000000000E+00 -0.57647001707E+02  0.57647001707E+02  0.00000000000E+00 0.  1.
         23    2    1    2    0    0 -0.57098642536E+02  0.61801978591E+02  0.38566247644E+03  0.40510212698E+03  0.91062879439E+02 0.  0.
         23    2    1    2    0    0  0.28234660124E+02 -0.12402197261E+03  0.22958324542E+03  0.27640712238E+03  0.86682091585E+02 0.  0.
        -13    1    3    3    0    0 -0.48938922977E+02 -0.63815779333E+01  0.22552639386E+03  0.23086337312E+03  0.00000000000E+00 0. -1.
         13    1    3    3    0    0 -0.81597195597E+01  0.68183556524E+02  0.16013608258E+03  0.17423875386E+03  0.00000000000E+00 0.  1.
        -13    1    4    4    0    0  0.39259927777E+02 -0.15178264546E+02  0.43385350000E+02  0.60448409725E+02  0.00000000000E+00 0.  1.
         13    1    4    4    0    0 -0.11025267653E+02 -0.10884370807E+03  0.18619789542E+03  0.21595871266E+03  0.00000000000E+00 0. -1.
         21    1    1    2  503  502  0.17432811257E+02  0.85636247699E+02  0.81033136403E+02  0.11917985998E+03  0.00000000000E+00 0.  1.
          2    1    1    2  501    0  0.11431171155E+02 -0.23416253679E+02  0.25751070382E+02  0.36634822725E+02  0.00000000000E+00 0. -1.
<scales pt_clust_5="13000.00000" pt_clust_6="13000.00000" pt_clust_7="13000.00000" pt_clust_8="13000.00000" pt_clust_9="80.05275" pt_clust_10="26.05749"></scales>
<clustering>
<clus scale="   26.057">  2 10  1 -1</clus>
<clus scale="   80.053">  2  9  1 -1</clus>
<clus scale="   86.682">  7  8 -1 -1</clus>
<clus scale="   91.063">  5  6 -1 -1</clus>
<clus scale="  127.623">  2  7  1 -1</clus>
<clus scale="   26.057">  2  5  1 -1</clus>
</clustering>
</event>
<event>
10    2  0.1671105E-006  0.4872394E+03  0.7546771E-02  0.1055661E+00
         21   -1    0    0  503  502  0.00000000000E+00  0.00000000000E+00  0.34458449895E+03  0.34458449895E+03  0.00000000000E+00 0. -1.
          2   -1    0    0  502    0 -0.00000000000E+00 -0.00000000000E+00 -0.20929319204E+04  0.20929319204E+04  0.00000000000E+00 0. -1.
         23    2    1    2    0    0  0.11791006534E+03 -0.49419634034E+02 -0.18827622400E+03  0.24556510087E+03  0.92245316986E+02 0.  0.
         23    2    1    2    0    0 -0.22032043710E+03 -0.39540817323E+03 -0.16332930971E+04  0.16971951859E+04  0.89086697232E+02 0.  0.
        -11    1    4    4    0    0 -0.18996791133E+03 -0.30656646518E+03 -0.14003000035E+04  0.14459982381E+04  0.00000000000E+00 0. -1.
         11    1    4    4    0    0 -0.30352525775E+02 -0.88841708048E+02 -0.23299309363E+03  0.25119694781E+03  0.00000000000E+00 0.  1.
        -11    1    3    3    0    0 -0.87799364906E+01 -0.25682990457E+02 -0.20609741647E+02  0.34080268989E+02  0.00000000000E+00 0.  1.
         11    1    3    3    0    0  0.12669000183E+03 -0.23736643577E+02 -0.16766648235E+03  0.21148483188E+03  0.00000000000E+00 0. -1.
         21    1    1    2  503  501 -0.49664630808E+02  0.97922185825E+02  0.27848433991E+02  0.11327340953E+03  0.00000000000E+00 0.  1.
          2    1    1    2  501    0  0.15207500257E+03  0.34690562144E+03  0.45373465642E+02  0.38148272304E+03  0.00000000000E+00 0. -1.
<scales pt_clust_5="13000.00000" pt_clust_6="13000.00000" pt_clust_7="13000.00000" pt_clust_8="13000.00000" pt_clust_9="94.89047" pt_clust_10="94.89047"></scales>
<clustering>
<clus scale="   89.087">  5  6 -1 -1</clus>
<clus scale="   92.245">  7  8 -1 -1</clus>
<clus scale="   94.890">  9 10 -1 -1</clus>
<clus scale="  157.652">  2  7  1 -1</clus>
<clus scale="  462.900">  2  5  1 -1</clus>
<clus scale="  487.239">  1  5  2 -1</clus>
</clustering>
</event>
<event>
10    2  0.1671105E-006  0.9452881E+02  0.7546771E-02  0.1294269E+00
         21   -1    0    0  501  502  0.00000000000E+00  0.00000000000E+00  0.43634555129E+03  0.43634555129E+03  0.00000000000E+00 0. -1.
          3   -1    0    0  503    0 -0.00000000000E+00 -0.00000000000E+00 -0.75663306042E+02  0.75663306042E+02  0.00000000000E+00 0. -1.
         23    2    1    2    0    0  0.14284424936E+02  0.29723026264E+01  0.94530413418E+01  0.89446221224E+02  0.87740453167E+02 0.  0.
         23    2    1    2    0    0 -0.28418431054E+02  0.55389129963E+02  0.79596954312E+02  0.13623560347E+03  0.91372323903E+02 0.  0.
        -11    1    4    4    0    0 -0.51824340598E+02  0.16380548320E+01  0.34648985996E+02  0.62361829131E+02  0.00000000000E+00 0.  1.
         11    1    4    4    0    0  0.23405909544E+02  0.53751075131E+02  0.44947968316E+02  0.73873774339E+02  0.00000000000E+00 0. -1.
        -11    1    3    3    0    0 -0.30773473067E+02 -0.12920583655E+01 -0.18807163242E+02  0.36088577814E+02  0.00000000000E+00 0.  1.
         11    1    3    3    0    0  0.45057898003E+02  0.42643609919E+01  0.28260204584E+02  0.53357643409E+02  0.00000000000E+00 0. -1.
         21    1    1    2  503  502  0.36039651754E+02 -0.99568171960E+01  0.10868085284E+03  0.11493268674E+03  0.00000000000E+00 0.  1.
          3    1    1    2  501    0 -0.21905645636E+02 -0.48404615393E+02  0.16295139676E+03  0.17139434590E+03  0.00000000000E+00 0. -1.
<scales pt_clust_5="13000.00000" pt_clust_6="13000.00000" pt_clust_7="13000.00000" pt_clust_8="13000.00000" pt_clust_9="37.38977" pt_clust_10="53.63763"></scales>
<clustering>
<clus scale="   37.390">  1  9  2 -1</clus>
<clus scale="   53.638">  1 10  2 -1</clus>
<clus scale="   87.740">  7  8 -1 -1</clus>
<clus scale="   91.023">  2  7  1 -1</clus>
<clus scale="   91.372">  5  6 -1 -1</clus>
<clus scale="   37.390">  1  5  2 -1</clus>
</clustering>
</event>
<event>
10    2  0.1671105E-006  0.1162725E+03  0.7546771E-02  0.1250208E+00
          2   -1    0    0  503    0 -0.00000000000E+00  0.00000000000E+00  0.66344532351E+03  0.66344532351E+03  0.00000000000E+00 0. -1.
         21   -1    0    0  501  502  0.00000000000E+00 -0.00000000000E+00 -0.57830606428E+02  0.57830606428E+02  0.00000000000E+00 0. -1.
         23    2    1    2    0    0  0.43718418497E+02  0.66274466707E+02  0.53896248783E+03  0.55218619866E+03  0.90141165143E+02 0.  0.
         23    2    1    2    0    0 -0.15697967481E+02 -0.22080287946E+02  0.41649422724E+02  0.10505455997E+03  0.92562524055E+02 0.  0.
        -11    1    4    4    0    0  0.33996124135E+02  0.93684995489E+01  0.27095947839E+02  0.44471289944E+02  0.00000000000E+00 0. -1.
         11    1    4    4    0    0 -0.49694091616E+02 -0.31448787494E+02  0.14553474885E+02  0.60583270031E+02  0.00000000000E+00 0.  1.
        -13    1    3    3    0    0 -0.26943109135E+02  0.12734648181E+02  0.99337078103E+02  0.10371093231E+03  0.00000000000E+00 0.  1.
         13    1    3    3    0    0  0.70661527631E+02  0.53539818525E+02  0.43962540972E+03  0.44847526635E+03  0.00000000000E+00 0. -1.
         21    1    1    2  503  502 -0.13319319351E+02 -0.23915695948E+02 -0.16958384189E+01  0.27427005826E+02  0.00000000000E+00 0. -1.
          2    1    1    2  501    0 -0.14701131665E+02 -0.20278482814E+02  0.26698644955E+02  0.36608165481E+02  0.00000000000E+00 0. -1.
<scales pt_clust_5="13000.00000" pt_clust_6="13000.00000" pt_clust_7="13000.00000" pt_clust_8="13000.00000" pt_clust_9="34.23305" pt_clust_10="25.04676"></scales>
<clustering>
<clus scale="   25.047">  2 10  1 -1</clus>
<clus scale="   34.233">  2  9  1 -1</clus>
<clus scale="   90.141">  7  8 -1 -1</clus>
<clus scale="   92.563">  5  6 -1 -1</clus>
<clus scale="  114.354">  1  7  2 -1</clus>
<clus scale="   25.047">  2  5  1 -1</clus>
</clustering>
</event>
<event>
10    2  0.1671105E-006  0.4167975E+03  0.7546771E-02  0.1064257E+00
         21   -1    0    0  501  502  0.00000000000E+00  0.00000000000E+00  0.66709916442E+03  0.66709916442E+03  0.00000000000E+00 0.  1.
         -1   -1    0    0    0  501 -0.00000000000E+00 -0.00000000000E+00 -0.48605675168E+03  0.48605675168E+03  0.00000000000E+00 0.  1.
         23    2    1    2    0    0 -0.17294341141E+03  0.31401865797E+02  0.20968930202E+03  0.28840068448E+03  0.91158382497E+02 0.  0.
         23    2    1    2    0    0 -0.21717512666E+03 -0.26939530970E+03 -0.15139040105E+03  0.38765538103E+03  0.87285579467E+02 0.  0.
        -11    1    4    4    0    0 -0.10742509299E+03 -0.77191236023E+02 -0.31673512434E+02  0.13602150166E+03  0.00000000000E+00 0.  1.
         11    1    4    4    0    0 -0.10975003367E+03 -0.19220407368E+03 -0.11971688862E+03  0.25163387938E+03  0.00000000000E+00 0. -1.
        -13    1    3    3    0    0 -0.59395327730E+02 -0.31516838976E+02  0.58489263976E+02  0.89118517131E+02  0.00000000000E+00 0. -1.
         13    1    3    3    0    0 -0.11354808368E+03  0.62918704773E+02  0.15120003804E+03  0.19928216735E+03  0.00000000000E+00 0.  1.
         21    1    1    2  503  502  0.22633208840E+03  0.11380683513E+03  0.90655985635E+02  0.26906638158E+03  0.00000000000E+00 0.  1.
         -1    1    1    2    0  503  0.16378644967E+03  0.12418660877E+03  0.32087526137E+02  0.20803346901E+03  0.00000000000E+00 0.  1.
<scales pt_clust_5="13000.00000" pt_clust_6="13000.00000" pt_clust_7="13000.00000" pt_clust_8="13000.00000" pt_clust_9="54.97502" pt_clust_10="412.09991"></scales>
<clustering>
<clus scale="   54.975">  9 10 -1 -1</clus>
<clus scale="   87.286">  5  6 -1 -1</clus>
<clus scale="   91.158">  7  8 -1 -1</clus>
<clus scale="  198.004">  2  7  1 -1</clus>
<clus scale="  412.100">  1  9  2 -1</clus>
<clus scale="  412.100">  1  5  2 -1</clus>
</clustering>
</event>
<event>
10    2  0.1671105E-006  0.1159530E+03  0.7546771E-02  0.1253291E+00
         21   -1    0    0  501  502  0.00000000000E+00  0.00000000000E+00  0.18345639143E+03  0.18345639143E+03  0.00000000000E+00 0.  1.
          1   -1    0    0  503    0 -0.00000000000E+00 -0.00000000000E+00 -0.31575627789E+03  0.31575627789E+03  0.00000000000E+00 0. -1.
         23    2    1    2    0    0 -0.73358242709E+02  0.18783676753E+02 -0.21262697907E+03  0.24310530271E+03  0.90308901507E+02 0.  0.
         23    2    1    2    0    0  0.59502250154E+02  0.53517400225E+02  0.10243183930E+03  0.15285859268E+03  0.80429085239E+02 0.  0.
        -11    1    3    3    0    0 -0.17846227608E+02  0.35461586317E+02 -0.25443474872E+02  0.47152755567E+02  0.00000000000E+00 0.  1.
         11    1    3    3    0    0 -0.55512015100E+02 -0.16677909564E+02 -0.18718350420E+03  0.19595254714E+03  0.00000000000E+00 0. -1.
        -11    1    4    4    0    0  0.47471181445E+02  0.13915501420E+02  0.84749328682E+01  0.50189428515E+02  0.00000000000E+00 0.  1.
         11    1    4    4    0    0  0.12031068709E+02  0.39601898805E+02  0.93956906434E+02  0.10266916416E+03  0.00000000000E+00 0. -1.
         21    1    1    2  503  502  0.28656550694E+02 -0.19473954253E+02  0.14219888620E+02  0.37451809359E+02  0.00000000000E+00 0. -1.
          1    1    1    2  501    0 -0.14800558139E+02 -0.52827122725E+02 -0.36324635310E+02  0.65796964573E+02  0.00000000000E+00 0. -1.
<scales pt_clust_5="13000.00000" pt_clust_6="13000.00000" pt_clust_7="13000.00000" pt_clust_8="13000.00000" pt_clust_9="34.64726" pt_clust_10="55.97598"></scales>
<clustering>
<clus scale="   34.647">  1  9  2 -1</clus>
<clus scale="   55.976">  1 10  2 -1</clus>
<clus scale="   80.429">  7  8 -1 -1</clus>
<clus scale="   90.309">  5  6 -1 -1</clus>
<clus scale="  108.435">  1  7  2 -1</clus>
<clus scale="   34.647">  1  5  2 -1</clus>
</clustering>
</event>
<event>
10    2  0.1671105E-006  0.1892382E+03  0.7546771E-02  0.1162829E+00
          2   -1    0    0  502    0 -0.00000000000E+00  0.00000000000E+00  0.82000343035E+03  0.82000343035E+03  0.00000000000E+00 0. -1.
         21   -1    0    0  503  502  0.00000000000E+00 -0.00000000000E+00 -0.11903013217E+03  0.11903013217E+03  0.00000000000E+00 0. -1.
         23    2    1    2    0    0 -0.12946814062E+03 -0.71567587796E+02  0.20812899961E+03  0.27111157492E+03  0.91103712968E+02 0.  0.
         23    2    1    2    0    0  0.12708790978E+02  0.19670271585E+03  0.42755819850E+03  0.47940278660E+03  0.90374481488E+02 0.  0.
        -11    1    4    4    0    0  0.15492281021E+02  0.12154815886E+03  0.16031557004E+03  0.20177970089E+03  0.00000000000E+00 0. -1.
         11    1    4    4    0    0 -0.27834900434E+01  0.75154556986E+02  0.26724262846E+03  0.27762308571E+03  0.00000000000E+00 0.  1.
        -11    1    3    3    0    0 -0.12258018616E+03 -0.31350543822E+02  0.18524104259E+03  0.22432789059E+03  0.00000000000E+00 0. -1.
         11    1    3    3    0    0 -0.68879544658E+01 -0.40217043974E+02  0.22887957016E+02  0.46783684326E+02  0.00000000000E+00 0.  1.
         21    1    1    2  503  501  0.10459540050E+03 -0.91804170205E+02  0.63557470348E+02  0.15299593298E+03  0.00000000000E+00 0. -1.
          2    1    1    2  501    0  0.12163949150E+02 -0.33330957847E+02  0.17286297191E+01  0.35523268017E+02  0.00000000000E+00 0. -1.
<scales pt_clust_5="13000.00000" pt_clust_6="13000.00000" pt_clust_7="13000.00000" pt_clust_8="13000.00000" pt_clust_9="22.49987" pt_clust_10="172.13142"></scales>
<clustering>
<clus scale="   22.500">  9 10 -1 -1</clus>
<clus scale="   90.374">  5  6 -1 -1</clus>
<clus scale="   91.104">  7  8 -1 -1</clus>
<clus scale="  173.735">  1  7  2 -1</clus>
<clus scale="  172.131">  2  9  1 -1</clus>
<clus scale="  172.131">  2  5  1 -1</clus>
</clustering>
</event>
<event>
10    2  0.1671105E-006  0.1160264E+03  0.7546771E-02  0.1253276E+00
         21   -1    0    0  503  502  0.00000000000E+00  0.00000000000E+00  0.40685833704E+03  0.40685833704E+03  0.00000000000E+00 0. -1.
          1   -1    0    0  502    0 -0.00000000000E+00 -0.00000000000E+00 -0.45852419066E+03  0.45852419066E+03  0.00000000000E+00 0. -1.
         23    2    1    2    0    0 -0.74684670670E+02  0.33547437348E+02 -0.37089504109E+03  0.39229702855E+03  0.98135602692E+02 0.  0.
         23    2    1    2    0    0 -0.11959104813E+02 -0.29537573460E+02 -0.39488300677E+02  0.10229375763E+03  0.88821160349E+02 0.  0.
        -11    1    3    3    0    0 -0.62151360172E+02 -0.22017193788E+02 -0.14427191982E+03  0.15862514064E+03  0.00000000000E+00 0.  1.
         11    1    3    3    0    0 -0.12533310497E+02  0.55564631135E+02 -0.22662312127E+03  0.23367188791E+03  0.00000000000E+00 0. -1.
        -11    1    4    4    0    0 -0.44374528521E+01 -0.61375443273E+02 -0.23366571272E+02  0.65822736785E+02  0.00000000000E+00 0.  1.
         11    1    4    4    0    0 -0.75216519606E+01  0.31837869813E+02 -0.16121729405E+02  0.36471020845E+02  0.00000000000E+00 0. -1.
         21    1    1    2  503  501  0.56574549040E+02 -0.79712180901E+01  0.29153467417E+03  0.29708026888E+03  0.00000000000E+00 0. -1.
          1    1    1    2  501    0  0.30069226443E+02  0.39613542029E+01  0.67182813974E+02  0.73711472645E+02  0.00000000000E+00 0. -1.
<scales pt_clust_5="13000.00000" pt_clust_6="13000.00000" pt_clust_7="13000.00000" pt_clust_8="13000.00000" pt_clust_9="26.11834" pt_clust_10="93.85243"></scales>
<clustering>
<clus scale="   26.118">  9 10 -1 -1</clus>
<clus scale="   88.821">  7  8 -1 -1</clus>
<clus scale="   93.852">  1  9  2 -1</clus>
<clus scale="   98.136">  5  6 -1 -1</clus>
<clus scale="  108.262">  1  7  2 -1</clus>
<clus scale="   93.852">  1  5  2 -1</clus>
</clustering>
</event>
<event>
10    2  0.1671105E-006  0.2918288E+03  0.7546771E-02  0.1111167E+00
         21   -1    0    0  503  502  0.00000000000E+00  0.00000000000E+00  0.69498446788E+03  0.69498446788E+03  0.00000000000E+00 0. -1.
          2   -1    0    0  502    0 -0.00000000000E+00 -0.00000000000E+00 -0.23813064297E+03  0.23813064297E+03  0.00000000000E+00 0. -1.
         23    2    1    2    0    0 -0.11887394123E+03 -0.70676096268E+02  0.15369011675E+03  0.22617152916E+03  0.91688516872E+02 0.  0.
         23    2    1    2    0    0  0.17298232479E+02 -0.21275352931E+03 -0.36174670101E+02  0.23917955772E+03  0.10166101019E+03 0.  0.
        -11    1    3    3    0    0 -0.52914399852E+02 -0.83353038588E+02  0.89229654393E+02  0.13307739844E+03  0.00000000000E+00 0. -1.
         11    1    3    3    0    0 -0.65959541378E+02  0.12676942320E+02  0.64460462359E+02  0.93094130712E+02  0.00000000000E+00 0.  1.
        -11    1    4    4    0    0 -0.13067692897E+02 -0.94395202281E+02  0.30402273897E+02  0.10002758154E+03  0.00000000000E+00 0.  1.
         11    1    4    4    0    0  0.30365925376E+02 -0.11835832703E+03 -0.66576943999E+02  0.13915197618E+03  0.00000000000E+00 0. -1.
         21    1    1    2  503  501 -0.10795689353E+02  0.82888181052E+02  0.14212026358E+03  0.16487924911E+03  0.00000000000E+00 0. -1.
          2    1    1    2  501    0  0.11237139810E+03  0.20054144453E+03  0.19721811469E+03  0.30288477487E+03  0.00000000000E+00 0. -1.
<scales pt_clust_5="13000.00000" pt_clust_6="13000.00000" pt_clust_7="13000.00000" pt_clust_8="13000.00000" pt_clust_9="68.76059" pt_clust_10="68.76059"></scales>
<clustering>
<clus scale="   68.761">  9 10 -1 -1</clus>
<clus scale="   91.689">  5  6 -1 -1</clus>
<clus scale="  101.661">  7  8 -1 -1</clus>
<clus scale="  165.931">  2  5  1 -1</clus>
<clus scale="  287.222">  2  7  1 -1</clus>
<clus scale="  291.829">  1  5  2 -1</clus>
</clustering>
</event>
<event>
10    2  0.1671105E-006  0.2100321E+03  0.7546771E-02  0.1156672E+00
          2   -1    0    0  502    0 -0.00000000000E+00  0.00000000000E+00  0.16130327966E+04  0.16130327966E+04  0.00000000000E+00 0. -1.
         21   -1    0    0  503  502  0.00000000000E+00 -0.00000000000E+00 -0.63969519932E+02  0.63969519932E+02  0.00000000000E+00 0. -1.
         23    2    1    2    0    0  0.11283663751E+03  0.15197792271E+02  0.37167662705E+03  0.39956697933E+03  0.92450939536E+02 0.  0.
         23    2    1    2    0    0 -0.27570483565E+03 -0.36145492110E+02  0.93675898555E+03  0.98142352336E+03  0.91406138682E+02 0.  0.
        -11    1    4    4    0    0 -0.22786201670E+03 -0.43965825478E+02  0.85896441185E+03  0.88976061572E+03  0.00000000000E+00 0. -1.
         11    1    4    4    0    0 -0.47842818948E+02  0.78203333688E+01  0.77794573702E+02  0.91662907637E+02  0.00000000000E+00 0.  1.
        -13    1    3    3    0    0  0.36891772758E+02  0.44623402869E+02  0.21900455306E+03  0.22652868525E+03  0.00000000000E+00 0. -1.
         13    1    3    3    0    0  0.75944864751E+02 -0.29425610598E+02  0.15267207400E+03  0.17303829408E+03  0.00000000000E+00 0.  1.
         21    1    1    2  503  501  0.46027274098E+02 -0.99646305282E+01  0.10033829769E+03  0.11084032572E+03  0.00000000000E+00 0. -1.
          2    1    1    2  501    0  0.11684092404E+03  0.30912330367E+02  0.14028936641E+03  0.18517148816E+03  0.00000000000E+00 0. -1.
<scales pt_clust_5="13000.00000" pt_clust_6="13000.00000" pt_clust_7="13000.00000" pt_clust_8="13000.00000" pt_clust_9="32.77283" pt_clust_10="196.25207"></scales>
<clustering>
<clus scale="   32.773">  9 10 -1 -1</clus>
<clus scale="   91.406">  5  6 -1 -1</clus>
<clus scale="   92.451">  7  8 -1 -1</clus>
<clus scale="  146.664">  1  7  2 -1</clus>
<clus scale="  196.252">  2  9  1 -1</clus>
<clus scale="  196.252">  2  5  1 -1</clus>
</clustering>
</event>
<event>
10    2  0.1671105E-006  0.2480769E+03  0.7546771E-02  0.1153848E+00
          2   -1    0    0  502    0 -0.00000000000E+00  0.00000000000E+00  0.77667781784E+03  0.77667781784E+03  0.00000000000E+00 0. -1.
         21   -1    0    0  503  502  0.00000000000E+00 -0.00000000000E+00 -0.33411250926E+03  0.33411250926E+03  0.00000000000E+00 0. -1.
         23    2    1    2    0    0 -0.95107825874E+01 -0.21340915189E+02  0.51053754078E+02  0.10794349518E+03  0.92192313664E+02 0.  0.
         23    2    1    2    0    0 -0.20046562980E+03 -0.78260265129E+02  0.62676206774E+03  0.66877137287E+03  0.90073979508E+02 0.  0.
        -11    1    3    3    0    0  0.32730721227E+02 -0.31018094067E+02  0.45828752931E+02  0.64293832261E+02  0.00000000000E+00 0.  1.
         11    1    3    3    0    0 -0.42241503815E+02  0.96771788782E+01  0.52250011478E+01  0.43649662915E+02  0.00000000000E+00 0. -1.
        -13    1    4    4    0    0 -0.48987065891E+02 -0.36657372142E+02  0.30045011831E+03  0.30661664852E+03  0.00000000000E+00 0.  1.
         13    1    4    4    0    0 -0.15147856391E+03 -0.41602892986E+02  0.32631194943E+03  0.36215472435E+03  0.00000000000E+00 0. -1.
         21    1    1    2  503  501  0.36550804267E+02  0.39099702895E+02 -0.53254632467E+02  0.75503668376E+02  0.00000000000E+00 0. -1.
          2    1    1    2  501    0  0.17342560812E+03  0.60501477422E+02 -0.18199588077E+03  0.25857179069E+03  0.00000000000E+00 0. -1.
<scales pt_clust_5="13000.00000" pt_clust_6="13000.00000" pt_clust_7="13000.00000" pt_clust_8="13000.00000" pt_clust_9="25.62345" pt_clust_10="235.97027"></scales>
<clustering>
<clus scale="   25.623">  9 10 -1 -1</clus>
<clus scale="   90.074">  7  8 -1 -1</clus>
<clus scale="   92.192">  5  6 -1 -1</clus>
<clus scale="   95.107">  1  5  2 -1</clus>
<clus scale="  235.970">  2  9  1 -1</clus>
<clus scale="  235.970">  2  5  1 -1</clus>
</clustering>
</event>
<event>
10    2  0.1671105E-006  0.9608507E+02  0.7546771E-02  0.1291913E+00
         21   -1    0    0  501  502  0.00000000000E+00  0.00000000000E+00  0.26488660706E+03  0.26488660706E+03  0.00000000000E+00 0. -1.
          1   -1    0    0  503    0 -0.00000000000E+00 -0.00000000000E+00 -0.37391939564E+03  0.37391939564E+03  0.00000000000E+00 0. -1.
         23    2    1    2    0    0 -0.44032200351E+01  0.34742075118E+01 -0.25235066238E+03  0.26996821396E+03  0.95762838733E+02 0.  0.
         23    2    1    2    0    0 -0.39269383846E+02  0.11944547764E+02 -0.85668251491E+02  0.13100983401E+03  0.90220677038E+02 0.  0.
        -13    1    3    3    0    0 -0.62525218115E+01 -0.43113798973E+02 -0.76432150463E+02  0.87975947368E+02  0.00000000000E+00 0.  1.
         13    1    3    3    0    0  0.18493017764E+01  0.46588006485E+02 -0.17591851191E+03  0.18199226659E+03  0.00000000000E+00 0. -1.
        -13    1    4    4    0    0  0.20224516932E+02 -0.26574511939E+01 -0.62114427606E+02  0.65378094564E+02  0.00000000000E+00 0.  1.
         13    1    4    4    0    0 -0.59493900777E+02  0.14601998958E+02 -0.23553823885E+02  0.65631739447E+02  0.00000000000E+00 0. -1.
         21    1    1    2  503  502  0.11151140811E+02 -0.27403472351E+02  0.10597836285E+03  0.11003050319E+03  0.00000000000E+00 0. -1.
          1    1    1    2  501    0  0.32521463070E+02  0.11984717075E+02  0.12300776243E+03  0.12779745155E+03  0.00000000000E+00 0. -1.
<scales pt_clust_5="13000.00000" pt_clust_6="13000.00000" pt_clust_7="13000.00000" pt_clust_8="13000.00000" pt_clust_9="29.58544" pt_clust_10="42.60599"></scales>
<clustering>
<clus scale="   29.585">  1  9  2 -1</clus>
<clus scale="   42.606">  1 10  2 -1</clus>
<clus scale="   90.221">  7  8 -1 -1</clus>
<clus scale="   90.563">  1  7  2 -1</clus>
<clus scale="   95.763">  5  6 -1 -1</clus>
<clus scale="   29.585">  1  5  2 -1</clus>
</clustering>
</event>
<event>
10    2  0.1671105E-006  0.2142727E+03  0.7546771E-02  0.1170506E+00
         21   -1    0    0  501  502  0.00000000000E+00  0.00000000000E+00  0.96482873064E+02  0.96482873064E+02  0.00000000000E+00 0.  1.
         -1   -1    0    0    0  501 -0.00000000000E+00 -0.00000000000E+00 -0.80335686112E+03  0.80335686112E+03  0.00000000000E+00 0.  1.
         23    2    1    2    0    0  0.38418469392E+02  0.54281438233E+01 -0.18426046277E+03  0.20924369069E+03  0.91244508991E+02 0.  0.
         23    2    1    2    0    0 -0.18303625426E+03 -0.12426691992E+03 -0.32721514977E+03  0.40433599664E+03  0.86448286177E+02 0.  0.
        -11    1    3    3    0    0 -0.15134246799E+02 -0.25872140428E+02 -0.27580818684E+02  0.40732230921E+02  0.00000000000E+00 0.  1.
         11    1    3    3    0    0  0.53552716191E+02  0.31300284251E+02 -0.15667964408E+03  0.16851145977E+03  0.00000000000E+00 0. -1.
        -13    1    4    4    0    0 -0.86878448344E+02 -0.48290790547E+02 -0.77043115828E+02  0.12575971905E+03  0.00000000000E+00 0.  1.
         13    1    4    4    0    0 -0.96157805916E+02 -0.75976129371E+02 -0.25017203394E+03  0.27857627759E+03  0.00000000000E+00 0. -1.
         21    1    1    2  503  502  0.22630535930E+02 -0.15487400002E+02 -0.31279945093E+02  0.41598505747E+02  0.00000000000E+00 0.  1.
         -1    1    1    2    0  503  0.12198724894E+03  0.13432617610E+03 -0.16411843043E+03  0.24466154110E+03  0.00000000000E+00 0.  1.
<scales pt_clust_5="13000.00000" pt_clust_6="13000.00000" pt_clust_7="13000.00000" pt_clust_8="13000.00000" pt_clust_9="27.42263" pt_clust_10="196.05993"></scales>
<clustering>
<clus scale="   27.423">  1  9  2 -1</clus>
<clus scale="   86.448">  7  8 -1 -1</clus>
<clus scale="   91.245">  5  6 -1 -1</clus>
<clus scale="  100.299">  2  5  1 -1</clus>
<clus scale="  196.060">  1 10  2 -1</clus>
<clus scale="   27.423">  1  5  2 -1</clus>
</clustering>
</event>
<event>
10    2  0.1671105E-006  0.2588487E+03  0.7546771E-02  0.1149543E+00
          2   -1    0    0  503    0 -0.00000000000E+00  0.00000000000E+00  0.10830111091E+04  0.10830111091E+04  0.00000000000E+00 0. -1.
         21   -1    0    0  501  502  0.00000000000E+00 -0.00000000000E+00 -0.17187160838E+03  0.17187160838E+03  0.00000000000E+00 0. -1.
         23    2    1    2    0    0  0.55568222723E+01 -0.11426736370E+02  0.12783846148E+03  0.15790151072E+03  0.91808312666E+02 0.  0.
         23    2    1    2    0    0  0.17168494872E+03 -0.28894814960E+03  0.25204824952E+03  0.42987412318E+03  0.91086151092E+02 0.  0.
        -13    1    4    4    0    0  0.35272256427E+02 -0.84689511987E+01  0.23823338739E+02  0.43398233564E+02  0.00000000000E+00 0.  1.
         13    1    4    4    0    0  0.13641269229E+03 -0.28047919840E+03  0.22822491078E+03  0.38647588961E+03  0.00000000000E+00 0. -1.
        -13    1    3    3    0    0 -0.17513925792E+02  0.34662444072E+02  0.38036431983E+02  0.54359845324E+02  0.00000000000E+00 0.  1.
         13    1    3    3    0    0  0.23070748064E+02 -0.46089180442E+02  0.89802029501E+02  0.10354166539E+03  0.00000000000E+00 0. -1.
         21    1    1    2  503  502 -0.17973498592E+03  0.10978862186E+03  0.24342803691E+03  0.32189348519E+03  0.00000000000E+00 0. -1.
          2    1    1    2  501    0  0.24932149339E+01  0.19058626411E+03  0.28782475280E+03  0.34521359839E+03  0.00000000000E+00 0. -1.
<scales pt_clust_5="13000.00000" pt_clust_6="13000.00000" pt_clust_7="13000.00000" pt_clust_8="13000.00000" pt_clust_9="242.29312" pt_clust_10="186.79028"></scales>
<clustering>
<clus scale="   91.086">  5  6 -1 -1</clus>
<clus scale="   91.808">  7  8 -1 -1</clus>
<clus scale="   92.683">  1  7  2 -1</clus>
<clus scale="  186.790">  2 10  1 -1</clus>
<clus scale="  242.293">  1  9  2 -1</clus>
<clus scale="  186.790">  2  5  1 -1</clus>
</clustering>
</event>
<event>
10    2  0.1671105E-006  0.3524058E+03  0.7546771E-02  0.1107481E+00
          1   -1    0    0  502    0 -0.00000000000E+00  0.00000000000E+00  0.13764816073E+04  0.13764816073E+04  0.00000000000E+00 0. -1.
         21   -1    0    0  503  502  0.00000000000E+00 -0.00000000000E+00 -0.15843506916E+03  0.15843506916E+03  0.00000000000E+00 0. -1.
         23    2    1    2    0    0  0.35255955383E+01  0.49482539798E+02  0.24174910485E+03  0.26297993360E+03  0.90856283294E+02 0.  0.
         23    2    1    2    0    0 -0.16225093368E+03 -0.33809370181E+03  0.80904898730E+03  0.89642827337E+03  0.91600593685E+02 0.  0.
        -11    1    4    4    0    0 -0.16182726832E+03 -0.28242340418E+03  0.73443026492E+03  0.80332985630E+03  0.00000000000E+00 0. -1.
         11    1    4    4    0    0 -0.42366536558E+00 -0.55670297632E+02  0.74618722377E+02  0.93098417065E+02  0.00000000000E+00 0.  1.
        -11    1    3    3    0    0  0.37079423010E+02 -0.21319766046E+01  0.13219845878E+03  0.13731664662E+03  0.00000000000E+00 0. -1.
         11    1    3    3    0    0 -0.33553827472E+02  0.51614516402E+02  0.10955064607E+03  0.12566328698E+03  0.00000000000E+00 0.  1.
         21    1    1    2  503  501  0.31593175316E+01  0.43156758809E+02  0.75757374597E+01  0.43930387162E+02  0.00000000000E+00 0. -1.
          1    1    1    2  501    0  0.15556602061E+03  0.24545440321E+03  0.15967270851E+03  0.33157808230E+03  0.00000000000E+00 0. -1.
<scales pt_clust_5="13000.00000" pt_clust_6="13000.00000" pt_clust_7="13000.00000" pt_clust_8="13000.00000" pt_clust_9="26.01335" pt_clust_10="346.90572"></scales>
<clustering>
<clus scale="   26.013">  9 10 -1 -1</clus>
<clus scale="   90.856">  7  8 -1 -1</clus>
<clus scale="   91.601">  5  6 -1 -1</clus>
<clus scale="  103.517">  1  7  2 -1</clus>
<clus scale="  346.906">  2  9  1 -1</clus>
<clus scale="  346.906">  2  5  1 -1</clus>
</clustering>
</event>
<event>
10    2  0.1671105E-006  0.1794720E+03  0.7546771E-02  0.1168833E+00
         21   -1    0    0  501  502  0.00000000000E+00  0.00000000000E+00  0.61945029300E+02  0.61945029300E+02  0.00000000000E+00 0.  1.
          1   -1    0    0  503    0 -0.00000000000E+00 -0.00000000000E+00 -0.98011569908E+03  0.98011569908E+03  0.00000000000E+00 0. -1.
         23    2    1    2    0    0  0.11174680510E+03  0.11949264142E+03 -0.58618927269E+03  0.61504414677E+03  0.88857184625E+02 0.  0.
         23    2    1    2    0    0 -0.12501034177E+03 -0.68675757159E+02 -0.30832041185E+03  0.35221718698E+03  0.93013575751E+02 0.  0.
        -11    1    4    4    0    0 -0.60231917339E+02 -0.70472357761E+02 -0.11151212711E+03  0.14501445296E+03  0.00000000000E+00 0.  1.
         11    1    4    4    0    0 -0.64778424429E+02  0.17966006021E+01 -0.19680828474E+03  0.20720273402E+03  0.00000000000E+00 0. -1.
        -11    1    3    3    0    0  0.11040148457E+03  0.65181318937E+02 -0.35157854303E+03  0.37422528516E+03  0.00000000000E+00 0. -1.
         11    1    3    3    0    0  0.13453205298E+01  0.54311322487E+02 -0.23461072966E+03  0.24081886162E+03  0.00000000000E+00 0.  1.
         21    1    1    2  503  502  0.15658449208E+02 -0.29399827725E+02 -0.36738853624E+02  0.49591130935E+02  0.00000000000E+00 0.  1.
          1    1    1    2  501    0 -0.23949125391E+01 -0.21417056541E+02  0.13077868379E+02  0.25208263690E+02  0.00000000000E+00 0. -1.
<scales pt_clust_5="13000.00000" pt_clust_6="13000.00000" pt_clust_7="13000.00000" pt_clust_8="13000.00000" pt_clust_9="36.02519" pt_clust_10="21.55054"></scales>
<clustering>
<clus scale="   21.551">  1 10  2 -1</clus>
<clus scale="   36.025">  1  9  2 -1</clus>
<clus scale="   88.857">  7  8 -1 -1</clus>
<clus scale="   93.014">  5  6 -1 -1</clus>
<clus scale="  177.354">  2  7  1 -1</clus>
<clus scale="   21.551">  1  5  2 -1</clus>
</clustering>
</event>
<event>
10    2  0.1671105E-006  0.2129353E+03  0.7546771E-02  0.1139477E+00
          2   -1    0    0  502    0 -0.00000000000E+00  0.00000000000E+00  0.11944371965E+04  0.11944371965E+04  0.00000000000E+00 0. -1.
         21   -1    0    0  503  502  0.00000000000E+00 -0.00000000000E+00 -0.96600469331E+02  0.96600469331E+02  0.00000000000E+00 0. -1.
         23    2    1    2    0    0 -0.13726313375E+03  0.58968919404E+02  0.44133898189E+03  0.47517627602E+03  0.93241058655E+02 0.  0.
         23    2    1    2    0    0  0.23358123758E+03 -0.14461983186E+03  0.60330220385E+03  0.66908546495E+03  0.90701267469E+02 0.  0.
        -11    1    4    4    0    0  0.19356756781E+02 -0.48754427947E+02  0.14474895612E+03  0.15396083455E+03  0.00000000000E+00 0.  1.
         11    1    4    4    0    0  0.21422448080E+03 -0.95865403915E+02  0.45855324773E+03  0.51512463040E+03  0.00000000000E+00 0. -1.
        -13    1    3    3    0    0 -0.11225101151E+03  0.77700622444E+02  0.28843632372E+03  0.31911312908E+03  0.00000000000E+00 0. -1.
         13    1    3    3    0    0 -0.25012122244E+02 -0.18731703040E+02  0.15290265817E+03  0.15606314694E+03  0.00000000000E+00 0.  1.
         21    1    1    2  503  501 -0.73249134151E+02  0.73123692570E+02  0.21658497700E+02  0.10574308768E+03  0.00000000000E+00 0. -1.
          2    1    1    2  501    0 -0.23068969674E+02  0.12527219889E+02  0.31537043743E+02  0.41032837192E+02  0.00000000000E+00 0. -1.
<scales pt_clust_5="13000.00000" pt_clust_6="13000.00000" pt_clust_7="13000.00000" pt_clust_8="13000.00000" pt_clust_9="23.07939" pt_clust_10="136.79695"></scales>
<clustering>
<clus scale="   23.079">  9 10 -1 -1</clus>
<clus scale="   90.701">  5  6 -1 -1</clus>
<clus scale="   93.241">  7  8 -1 -1</clus>
<clus scale="  136.797">  2  9  1 -1</clus>
<clus scale="  211.835">  2  5  1 -1</clus>
<clus scale="  136.797">  2  5  1 -1</clus>
</clustering>
</event>
<event>
10    2  0.1671105E-006  0.1677576E+03  0.7546771E-02  0.1180477E+00
         21   -1    0    0  501  502  0.00000000000E+00  0.00000000000E+00  0.58187446431E+02  0.58187446431E+02  0.00000000000E+00 0.  1.
          1   -1    0    0  503    0 -0.00000000000E+00 -0.00000000000E+00 -0.77329766056E+03  0.77329766056E+03  0.00000000000E+00 0. -1.
         23    2    1    2    0    0 -0.12358518416E+03 -0.67971523187E+02 -0.41121498033E+03  0.44448882784E+03  0.92623605628E+02 0.  0.
         23    2    1    2    0    0  0.13464980742E+03  0.39204218760E+02 -0.29418865287E+03  0.33831030506E+03  0.90770907375E+02 0.  0.
        -11    1    4    4    0    0  0.13036633982E+03  0.71183773068E+01 -0.26163401680E+03  0.29240111594E+03  0.00000000000E+00 0.  1.
         11    1    4    4    0    0  0.42834676036E+01  0.32085841453E+02 -0.32554636065E+02  0.45909189122E+02  0.00000000000E+00 0. -1.
        -13    1    3    3    0    0 -0.41458125800E+02 -0.41007158112E+02 -0.28881707297E+03  0.29464498104E+03  0.00000000000E+00 0. -1.
         13    1    3    3    0    0 -0.82127058358E+02 -0.26964365076E+02 -0.12239790735E+03  0.14984384680E+03  0.00000000000E+00 0.  1.
         21    1    1    2  503  502  0.11350689316E+02  0.18030113271E+02 -0.10639294940E+02  0.23814233755E+02  0.00000000000E+00 0. -1.
          1    1    1    2  501    0 -0.22415312581E+02  0.10737191156E+02  0.93271400799E+00  0.24871740338E+02  0.00000000000E+00 0. -1.
<scales pt_clust_5="13000.00000" pt_clust_6="13000.00000" pt_clust_7="13000.00000" pt_clust_8="13000.00000" pt_clust_9="21.30547" pt_clust_10="24.81310"></scales>
<clustering>
<clus scale="   21.305">  1  9  2 -1</clus>
<clus scale="   24.813">  1 10  2 -1</clus>
<clus scale="   90.771">  5  6 -1 -1</clus>
<clus scale="   92.624">  7  8 -1 -1</clus>
<clus scale="  166.742">  1  5  2 -1</clus>
<clus scale="   21.305">  1  5  2 -1</clus>
</clustering>
</event>
<event>
10    2  0.1671105E-006  0.1037026E+03  0.7546771E-02  0.1277880E+00
         -1   -1    0    0    0  501 -0.00000000000E+00  0.00000000000E+00  0.47581942007E+03  0.47581942007E+03  0.00000000000E+00 0.  1.
         21   -1    0    0  503  502  0.00000000000E+00 -0.00000000000E+00 -0.67488227786E+02  0.67488227786E+02  0.00000000000E+00 0. -1.
         23    2    1    2    0    0 -0.13347091487E+02  0.22303490404E+02  0.30638569076E+03  0.32304602761E+03  0.99050259530E+02 0.  0.
         23    2    1    2    0    0  0.49161755956E+02 -0.11641629027E+02  0.11346900052E+03  0.15264350147E+03  0.88726651516E+02 0.  0.
        -13    1    4    4    0    0  0.16679613548E+02 -0.48043679416E+02  0.74499347067E+02  0.90202867767E+02  0.00000000000E+00 0.  1.
         13    1    4    4    0    0  0.32482142408E+02  0.36402050389E+02  0.38969653449E+02  0.62440633708E+02  0.00000000000E+00 0. -1.
        -13    1    3    3    0    0 -0.24293109287E+02 -0.35064903858E+02  0.10418800401E+03  0.11258260444E+03  0.00000000000E+00 0.  1.
         13    1    3    3    0    0  0.10946017800E+02  0.57368394262E+02  0.20219768675E+03  0.21046342317E+03  0.00000000000E+00 0. -1.
         21    1    1    2  503  501  0.92393920066E+01 -0.18705069091E+02 -0.35742433679E+01  0.21166511050E+02  0.00000000000E+00 0.  1.
         -1    1    1    2    0  502 -0.45054056477E+02  0.80432077138E+01 -0.79492556263E+01  0.46451607726E+02  0.00000000000E+00 0.  1.
<scales pt_clust_5="13000.00000" pt_clust_6="13000.00000" pt_clust_7="13000.00000" pt_clust_8="13000.00000" pt_clust_9="20.86255" pt_clust_10="40.51187"></scales>
<clustering>
<clus scale="   20.863">  2  9  1 -1</clus>
<clus scale="   40.512">  2 10  1 -1</clus>
<clus scale="   88.727">  5  6 -1 -1</clus>
<clus scale="   93.892">  2  5  1 -1</clus>
<clus scale="   99.050">  7  8 -1 -1</clus>
<clus scale="   20.863">  2  5  1 -1</clus>
</clustering>
</event>
<event>
10    2  0.1671105E-006  0.9813350E+02  0.7546771E-02  0.1292291E+00
         21   -1    0    0  501  502  0.00000000000E+00  0.00000000000E+00  0.36537029786E+03  0.36537029786E+03  0.00000000000E+00 0. -1.
          2   -1    0    0  503    0 -0.00000000000E+00 -0.00000000000E+00 -0.15521276998E+03  0.15521276998E+03  0.00000000000E+00 0. -1.
         23    2    1    2    0    0 -0.30848192711E+02 -0.48438014497E+01 -0.68116799127E+02  0.11776559870E+03  0.90850231199E+02 0.  0.
         23    2    1    2    0    0  0.38263811106E+02 -0.52045895084E+02 -0.13683456602E+02  0.10054360631E+03  0.75821404299E+02 0.  0.
        -11    1    3    3    0    0  0.22744849117E+02  0.11940958380E+02 -0.54090284159E+02  0.59880493391E+02  0.00000000000E+00 0.  1.
         11    1    3    3    0    0 -0.53593041828E+02 -0.16784759830E+02 -0.14026514968E+02  0.57885105313E+02  0.00000000000E+00 0. -1.
        -13    1    4    4    0    0 -0.41397993007E+01 -0.54707235079E+02  0.28870240327E+01  0.54939552383E+02  0.00000000000E+00 0. -1.
         13    1    4    4    0    0  0.42403610407E+02  0.26613399952E+01 -0.16570480635E+02  0.45604053927E+02  0.00000000000E+00 0.  1.
         21    1    1    2  503  502 -0.14366344002E+02  0.21688436809E+02  0.39618042363E+02  0.47395879693E+02  0.00000000000E+00 0.  1.
          2    1    1    2  501    0  0.69507256067E+01  0.35201259725E+02  0.25233974125E+03  0.25487798314E+03  0.00000000000E+00 0. -1.
<scales pt_clust_5="13000.00000" pt_clust_6="13000.00000" pt_clust_7="13000.00000" pt_clust_8="13000.00000" pt_clust_9="26.01500" pt_clust_10="52.47265"></scales>
<clustering>
<clus scale="   26.015">  1  9  2 -1</clus>
<clus scale="   52.473">  1 10  2 -1</clus>
<clus scale="   75.821">  7  8 -1 -1</clus>
<clus scale="   84.412">  1  7  2 -1</clus>
<clus scale="   90.850">  5  6 -1 -1</clus>
<clus scale="   26.015">  1  5  2 -1</clus>
</clustering>
</event>
<event>
10    2  0.1671105E-006  0.1153658E+03  0.7546771E-02  0.1251069E+00
         21   -1    0    0  501  502  0.00000000000E+00  0.00000000000E+00  0.65397024122E+02  0.65397024122E+02  0.00000000000E+00 0.  1.
          1   -1    0    0  503    0 -0.00000000000E+00 -0.00000000000E+00 -0.53947715167E+03  0.53947715167E+03  0.00000000000E+00 0. -1.
         23    2    1    2    0    0  0.71604660196E+02  0.16868662822E+02 -0.23923619284E+03  0.26548046345E+03  0.88510685029E+02 0.  0.
         23    2    1    2    0    0 -0.66139120353E+02 -0.34945622721E+02 -0.20918280590E+03  0.23927730905E+03  0.88885344994E+02 0.  0.
        -11    1    4    4    0    0 -0.44879297705E+02 -0.18944971076E+02 -0.20691555830E+03  0.21257260303E+03  0.00000000000E+00 0.  1.
         11    1    4    4    0    0 -0.21259822648E+02 -0.16000651645E+02 -0.22672475979E+01  0.26704706022E+02  0.00000000000E+00 0. -1.
        -13    1    3    3    0    0  0.11197930908E+02  0.26852756428E+02 -0.17240836961E+03  0.17484596105E+03  0.00000000000E+00 0. -1.
         13    1    3    3    0    0  0.60406729288E+02 -0.99840936059E+01 -0.66827823234E+02  0.90634502407E+02  0.00000000000E+00 0.  1.
         21    1    1    2  503  502 -0.44993981718E+02  0.15143631959E+02  0.79647228976E+01  0.48137561120E+02  0.00000000000E+00 0.  1.
          1    1    1    2  501    0  0.39528441874E+02  0.29333279398E+01 -0.33625851701E+02  0.51978842161E+02  0.00000000000E+00 0. -1.
<scales pt_clust_5="13000.00000" pt_clust_6="13000.00000" pt_clust_7="13000.00000" pt_clust_8="13000.00000" pt_clust_9="30.23970" pt_clust_10="39.63713"></scales>
<clustering>
<clus scale="   39.637">  1 10  2 -1</clus>
<clus scale="   30.240">  1  9  2 -1</clus>
<clus scale="   88.511">  7  8 -1 -1</clus>
<clus scale="   88.885">  5  6 -1 -1</clus>
<clus scale="  115.077">  2  7  1 -1</clus>
<clus scale="   39.637">  1  5  2 -1</clus>
</clustering>
</event>
<event>
10    2  0.1671105E-006  0.3527132E+03  0.7546771E-02  0.1061533E+00
         21   -1    0    0  501  502  0.00000000000E+00  0.00000000000E+00  0.82332394956E+03  0.82332394956E+03  0.00000000000E+00 0. -1.
          1   -1    0    0  503    0 -0.00000000000E+00 -0.00000000000E+00 -0.10219586289E+04  0.10219586289E+04  0.00000000000E+00 0. -1.
         23    2    1    2    0    0  0.87838451129E+01  0.41603816070E+03 -0.60356638950E+03  0.73909758448E+03  0.93850656690E+02 0.  0.
         23    2    1    2    0    0  0.17530282626E+03 -0.23401191430E+03 -0.23011047621E+03  0.38397017648E+03  0.94813544554E+02 0.  0.
        -11    1    3    3    0    0  0.13735431300E+01  0.31046465260E+03 -0.51382306373E+03  0.60033684541E+03  0.00000000000E+00 0. -1.
         11    1    3    3    0    0  0.74103019829E+01  0.10557350810E+03 -0.89743325763E+02  0.13876073907E+03  0.00000000000E+00 0.  1.
        -13    1    4    4    0    0  0.12377427224E+03 -0.18424953886E+03 -0.11922209278E+03  0.25195608833E+03  0.00000000000E+00 0.  1.
         13    1    4    4    0    0  0.51528554023E+02 -0.49762375440E+02 -0.11088838344E+03  0.13201408815E+03  0.00000000000E+00 0. -1.
         21    1    1    2  503  502  0.24280623460E+02  0.65209048932E+01 -0.27198606852E+01  0.25287714771E+02  0.00000000000E+00 0.  1.
          1    1    1    2  501    0 -0.20836729484E+03 -0.18854715129E+03  0.63776204707E+03  0.69692710271E+03  0.00000000000E+00 0. -1.
<scales pt_clust_5="13000.00000" pt_clust_6="13000.00000" pt_clust_7="13000.00000" pt_clust_8="13000.00000" pt_clust_9="25.14102" pt_clust_10="262.78782"></scales>
<clustering>
<clus scale="   25.141">  1  9  2 -1</clus>
<clus scale="   93.851">  5  6 -1 -1</clus>
<clus scale="   94.814">  7  8 -1 -1</clus>
<clus scale="  262.788">  1 10  2 -1</clus>
<clus scale="  352.456">  2  5  1 -1</clus>
<clus scale="   25.141">  1  5  2 -1</clus>
</clustering>
</event>
<event>
10    2  0.1671105E-006  0.1590080E+03  0.7546771E-02  0.1190887E+00
         21   -1    0    0  501  502  0.00000000000E+00  0.00000000000E+00  0.31373414435E+03  0.31373414435E+03  0.00000000000E+00 0.  1.
          1   -1    0    0  503    0 -0.00000000000E+00 -0.00000000000E+00 -0.20318637410E+03  0.20318637410E+03  0.00000000000E+00 0. -1.
         23    2    1    2    0    0  0.58365947386E+02 -0.10124089681E+03  0.29428202447E+02  0.14531768265E+03  0.81209031452E+02 0.  0.
         23    2    1    2    0    0 -0.14626322340E+03  0.66230153999E+02 -0.13101497406E+02  0.18359971719E+03  0.88078618869E+02 0.  0.
        -11    1    4    4    0    0 -0.95935874100E+02 -0.40275416686E+01  0.10461713356E+01  0.96026077217E+02  0.00000000000E+00 0.  1.
         11    1    4    4    0    0 -0.50327349295E+02  0.70257695668E+02 -0.14147668742E+02  0.87573639975E+02  0.00000000000E+00 0. -1.
        -11    1    3    3    0    0  0.43676855638E+02 -0.30697291905E+02  0.47025377944E+02  0.71143359630E+02  0.00000000000E+00 0.  1.
         11    1    3    3    0    0  0.14689091748E+02 -0.70543604909E+02 -0.17597175496E+02  0.74174323019E+02  0.00000000000E+00 0. -1.
         21    1    1    2  503  502  0.63127110959E+00  0.26644813946E+02 -0.27305268473E+02  0.38156549894E+02  0.00000000000E+00 0.  1.
          1    1    1    2  501    0  0.87266004900E+02  0.83659288688E+01  0.12152633369E+03  0.14984656872E+03  0.00000000000E+00 0. -1.
<scales pt_clust_5="13000.00000" pt_clust_6="13000.00000" pt_clust_7="13000.00000" pt_clust_8="13000.00000" pt_clust_9="26.65229" pt_clust_10="87.95700"></scales>
<clustering>
<clus scale="   26.652">  2  9  1 -1</clus>
<clus scale="   81.209">  7  8 -1 -1</clus>
<clus scale="   87.957">  1 10  2 -1</clus>
<clus scale="   88.079">  5  6 -1 -1</clus>
<clus scale="  155.308">  2  7  1 -1</clus>
<clus scale="   87.957">  1  5  2 -1</clus>
</clustering>
</event>
<event>
10    2  0.1671105E-006  0.1246114E+03  0.7546771E-02  0.1236094E+00
         -3   -1    0    0    0  501 -0.00000000000E+00  0.00000000000E+00  0.98721727744E+03  0.98721727744E+03  0.00000000000E+00 0.  1.
         21   -1    0    0  503  502  0.00000000000E+00 -0.00000000000E+00 -0.26663124000E+03  0.26663124000E+03  0.00000000000E+00 0.  1.
         23    2    1    2    0    0 -0.67703889287E+02 -0.14101579888E+02  0.62065224342E+03  0.63119950644E+03  0.91765671621E+02 0.  0.
         23    2    1    2    0    0  0.14179793711E+03 -0.59438029359E+01  0.30773700397E+03  0.35146409744E+03  0.93182425476E+02 0.  0.
        -11    1    3    3    0    0 -0.32661542063E+02  0.38982680816E+02  0.24852051065E+03  0.25367079049E+03  0.00000000000E+00 0.  1.
         11    1    3    3    0    0 -0.35042347224E+02 -0.53084260704E+02  0.37213173277E+03  0.37752871595E+03  0.00000000000E+00 0. -1.
        -13    1    4    4    0    0  0.10505770034E+03  0.35647310177E+01  0.29206305597E+03  0.31040402119E+03  0.00000000000E+00 0.  1.
         13    1    4    4    0    0  0.36740236769E+02 -0.95085339536E+01  0.15673947994E+02  0.41060076248E+02  0.00000000000E+00 0. -1.
         21    1    1    2  503  501  0.40214643736E+02 -0.17990979985E+02 -0.20758331086E+02  0.48701142092E+02  0.00000000000E+00 0.  1.
         -3    1    1    2    0  502 -0.11430869156E+03  0.38036362809E+02 -0.18704487886E+03  0.22248377147E+03  0.00000000000E+00 0.  1.
<scales pt_clust_5="13000.00000" pt_clust_6="13000.00000" pt_clust_7="13000.00000" pt_clust_8="13000.00000" pt_clust_9="44.05557" pt_clust_10="81.85407"></scales>
<clustering>
<clus scale="   44.056">  2  9  1 -1</clus>
<clus scale="   81.854">  2 10  1 -1</clus>
<clus scale="   91.766">  5  6 -1 -1</clus>
<clus scale="   93.182">  7  8 -1 -1</clus>
<clus scale="  123.556">  1  5  2 -1</clus>
<clus scale="   44.056">  2  5  1 -1</clus>
</clustering>
</event>
<event>
10    2  0.1671105E-006  0.9680721E+02  0.7546771E-02  0.1290781E+00
          2   -1    0    0  503    0 -0.00000000000E+00  0.00000000000E+00  0.17562037871E+03  0.17562037871E+03  0.00000000000E+00 0. -1.
         21   -1    0    0  501  502  0.00000000000E+00 -0.00000000000E+00 -0.19814835403E+03  0.19814835403E+03  0.00000000000E+00 0. -1.
         23    2    1    2    0    0 -0.35508412402E+02  0.59207898453E+01  0.37482474027E+02  0.10595970687E+03  0.92339701739E+02 0.  0.
         23    2    1    2    0    0 -0.54704851369E+02 -0.51044598777E+02 -0.15823356688E+01  0.10915277695E+03  0.79458499237E+02 0.  0.
        -13    1    3    3    0    0 -0.60191238255E+02 -0.19863412974E+02  0.22713802508E+02  0.67330952482E+02  0.00000000000E+00 0. -1.
         13    1    3    3    0    0  0.24682825854E+02  0.25784202820E+02  0.14768671519E+02  0.38628754389E+02  0.00000000000E+00 0.  1.
        -13    1    4    4    0    0 -0.13418136980E+02 -0.63285824032E+02 -0.94423323474E+01  0.65378127562E+02  0.00000000000E+00 0.  1.
         13    1    4    4    0    0 -0.41286714390E+02  0.12241225254E+02  0.78599966786E+01  0.43774649383E+02  0.00000000000E+00 0. -1.
         21    1    1    2  503  502  0.22583677595E+01  0.29348659372E+02  0.23314262833E+02  0.37549951841E+02  0.00000000000E+00 0. -1.
          2    1    1    2  501    0  0.87954896012E+02  0.15775149560E+02 -0.81742376515E+02  0.12110629709E+03  0.00000000000E+00 0. -1.
<scales pt_clust_5="13000.00000" pt_clust_6="13000.00000" pt_clust_7="13000.00000" pt_clust_8="13000.00000" pt_clust_9="29.43542" pt_clust_10="90.44457"></scales>
<clustering>
<clus scale="   29.435">  1  9  2 -1</clus>
<clus scale="   79.458">  7  8 -1 -1</clus>
<clus scale="   90.445">  2 10  1 -1</clus>
<clus scale="   90.445">  2  7  1 -1</clus>
<clus scale="   92.340">  5  6 -1 -1</clus>
<clus scale="   90.445">  2  5  1 -1</clus>
</clustering>
</event>
<event>
10    2  0.1671105E-006  0.9345192E+02  0.7546771E-02  0.1295853E+00
         21   -1    0    0  503  502  0.00000000000E+00  0.00000000000E+00  0.17585455562E+03  0.17585455562E+03  0.00000000000E+00 0. -1.
         -1   -1    0    0    0  501 -0.00000000000E+00 -0.00000000000E+00 -0.28568436124E+03  0.28568436124E+03  0.00000000000E+00 0.  1.
         23    2    1    2    0    0 -0.32330014768E+02 -0.29809686684E+01 -0.18645986798E+03  0.20928804300E+03  0.89331330160E+02 0.  0.
         23    2    1    2    0    0  0.52059074167E+02  0.14080880981E+02  0.12897731538E+03  0.16700089865E+03  0.91354988114E+02 0.  0.
        -11    1    4    4    0    0 -0.26293854000E+02  0.94608960131E+00  0.37971040930E+02  0.46195906669E+02  0.00000000000E+00 0.  1.
         11    1    4    4    0    0  0.78352928167E+02  0.13134791380E+02  0.91006274450E+02  0.12080499198E+03  0.00000000000E+00 0. -1.
        -11    1    3    3    0    0  0.19321057730E+02  0.19081317020E+02 -0.20334069124E+02  0.33924538290E+02  0.00000000000E+00 0. -1.
         11    1    3    3    0    0 -0.51651072499E+02 -0.22062285688E+02 -0.16612579885E+03  0.17536350471E+03  0.00000000000E+00 0.  1.
         21    1    1    2  503  501  0.20791795736E+02  0.75794019868E+01 -0.22556811397E+02  0.31599934253E+02  0.00000000000E+00 0. -1.
         -1    1    1    2    0  502 -0.40520855135E+02 -0.18679314300E+02 -0.29790441623E+02  0.53650040966E+02  0.00000000000E+00 0.  1.
<scales pt_clust_5="13000.00000" pt_clust_6="13000.00000" pt_clust_7="13000.00000" pt_clust_8="13000.00000" pt_clust_9="22.13021" pt_clust_10="41.06198"></scales>
<clustering>
<clus scale="   22.130">  2  9  1 -1</clus>
<clus scale="   41.062">  1 10  2 -1</clus>
<clus scale="   89.331">  7  8 -1 -1</clus>
<clus scale="   91.355">  5  6 -1 -1</clus>
<clus scale="   91.475">  2  7  1 -1</clus>
<clus scale="   41.062">  1  5  2 -1</clus>
</clustering>
</event>
<event>
10    2  0.1671105E-006  0.1613910E+03  0.7546771E-02  0.1187621E+00
          1   -1    0    0  502    0 -0.00000000000E+00  0.00000000000E+00  0.63581800397E+03  0.63581800397E+03  0.00000000000E+00 0. -1.
         21   -1    0    0  503  502  0.00000000000E+00 -0.00000000000E+00 -0.11616176258E+03  0.11616176258E+03  0.00000000000E+00 0. -1.
         23    2    1    2    0    0 -0.10906435813E+03 -0.74603545338E+02  0.42394580842E+03  0.45382303120E+03  0.93619292784E+02 0.  0.
         23    2    1    2    0    0  0.72020152272E+02  0.11715698859E+03 -0.20696644627E+02  0.16598324883E+03  0.90605879964E+02 0.  0.
        -13    1    3    3    0    0 -0.57396011198E+02 -0.15076681010E+02  0.30771931408E+03  0.31338919042E+03  0.00000000000E+00 0.  1.
         13    1    3    3    0    0 -0.51668346928E+02 -0.59526864328E+02  0.11622649433E+03  0.14043384078E+03  0.00000000000E+00 0. -1.
        -13    1    4    4    0    0  0.25663842677E+02  0.96410410988E+02 -0.45276492354E+02  0.10956076363E+03  0.00000000000E+00 0. -1.
         13    1    4    4    0    0  0.46356309595E+02  0.20746577603E+02  0.24579847727E+02  0.56422485197E+02  0.00000000000E+00 0.  1.
         21    1    1    2  503  501  0.13601356524E+02 -0.31398662687E+02  0.83636030692E+02  0.90365140114E+02  0.00000000000E+00 0.  1.
          1    1    1    2  501    0  0.23442849329E+02 -0.11154780566E+02  0.32771046912E+02  0.41808346414E+02  0.00000000000E+00 0. -1.
<scales pt_clust_5="13000.00000" pt_clust_6="13000.00000" pt_clust_7="13000.00000" pt_clust_8="13000.00000" pt_clust_9="23.63313" pt_clust_10="62.60373"></scales>
<clustering>
<clus scale="   23.633">  9 10 -1 -1</clus>
<clus scale="   62.604">  2  9  1 -1</clus>
<clus scale="   90.606">  7  8 -1 -1</clus>
<clus scale="   93.619">  5  6 -1 -1</clus>
<clus scale="  159.662">  2  7  1 -1</clus>
<clus scale="   62.604">  2  5  1 -1</clus>
</clustering>
</event>
<event>
10    2  0.1671105E-006  0.1142938E+03  0.7546771E-02  0.1254093E+00
         21   -1    0    0  503  502  0.00000000000E+00  0.00000000000E+00  0.14516643178E+03  0.14516643178E+03  0.00000000000E+00 0. -1.
         -1   -1    0    0    0  501 -0.00000000000E+00 -0.00000000000E+00 -0.34713776926E+03  0.34713776926E+03  0.00000000000E+00 0.  1.
         23    2    1    2    0    0 -0.56142594630E+02 -0.39063743547E-02 -0.22197078380E+03  0.24652506287E+03  0.91387016662E+02 0.  0.
         23    2    1    2    0    0  0.96381939242E+02 -0.14158583966E+02 -0.34288978753E+02  0.14022165297E+03  0.94849534452E+02 0.  0.
        -11    1    3    3    0    0 -0.25058184142E+02  0.42990490065E+02 -0.72635902151E+02  0.88045835278E+02  0.00000000000E+00 0. -1.
         11    1    3    3    0    0 -0.31084410488E+02 -0.42994396439E+02 -0.14933488165E+03  0.15847922759E+03  0.00000000000E+00 0.  1.
        -13    1    4    4    0    0  0.88350093266E+02 -0.32477774667E+02  0.69509764290E+01  0.94386762317E+02  0.00000000000E+00 0. -1.
         13    1    4    4    0    0  0.80318459758E+01  0.18319190701E+02 -0.41239955183E+02  0.45834890653E+02  0.00000000000E+00 0.  1.
         21    1    1    2  503  501 -0.42372967765E+02  0.41723122149E+02  0.22878623714E+02  0.63715922203E+02  0.00000000000E+00 0. -1.
         -1    1    1    2    0  502  0.21336231533E+01 -0.27560631808E+02  0.31409801354E+02  0.41841563003E+02  0.00000000000E+00 0.  1.
<scales pt_clust_5="13000.00000" pt_clust_6="13000.00000" pt_clust_7="13000.00000" pt_clust_8="13000.00000" pt_clust_9="51.65600" pt_clust_10="27.64310"></scales>
<clustering>
<clus scale="   27.643">  1 10  2 -1</clus>
<clus scale="   51.656">  1  9  2 -1</clus>
<clus scale="   91.387">  5  6 -1 -1</clus>
<clus scale="   94.850">  7  8 -1 -1</clus>
<clus scale="  111.437">  2  5  1 -1</clus>
<clus scale="   27.643">  1  5  2 -1</clus>
</clustering>
</event>
<event>
10    2  0.1671105E-006  0.9167442E+02  0.7546771E-02  0.1300362E+00
         21   -1    0    0  501  502  0.00000000000E+00  0.00000000000E+00  0.70003205487E+02  0.70003205487E+02  0.00000000000E+00 0. -1.
          2   -1    0    0  503    0 -0.00000000000E+00 -0.00000000000E+00 -0.43983613098E+03  0.43983613098E+03  0.00000000000E+00 0. -1.
         23    2    1    2    0    0  0.39148116878E+02  0.38782245025E+01 -0.18338911063E+03  0.20873593488E+03  0.91605179625E+02 0.  0.
         23    2    1    2    0    0  0.43793958113E+02 -0.29082113297E+01 -0.15207042103E+03  0.18162155927E+03  0.89076424372E+02 0.  0.
        -11    1    4    4    0    0  0.37113391788E+02  0.31523362493E+02 -0.13314003738E+03  0.14176528414E+03  0.00000000000E+00 0.  1.
         11    1    4    4    0    0  0.66805663248E+01 -0.34431573823E+02 -0.18930383652E+02  0.39856275134E+02  0.00000000000E+00 0. -1.
        -11    1    3    3    0    0  0.19052929131E+02 -0.40334170867E+02 -0.51192265532E+02  0.67900717951E+02  0.00000000000E+00 0.  1.
         11    1    3    3    0    0  0.20095187748E+02  0.44212395370E+02 -0.13219684509E+03  0.14083521693E+03  0.00000000000E+00 0. -1.
         21    1    1    2  503  502 -0.28150968940E+02 -0.59105902368E+01 -0.53908715806E+02  0.61102878566E+02  0.00000000000E+00 0. -1.
          2    1    1    2  501    0 -0.54791106051E+02  0.49405770640E+01  0.19535321970E+02  0.58378963750E+02  0.00000000000E+00 0. -1.
<scales pt_clust_5="13000.00000" pt_clust_6="13000.00000" pt_clust_7="13000.00000" pt_clust_8="13000.00000" pt_clust_9="28.76477" pt_clust_10="56.41231"></scales>
<clustering>
<clus scale="   28.765">  2  9  1 -1</clus>
<clus scale="   56.412">  1 10  2 -1</clus>
<clus scale="   89.076">  5  6 -1 -1</clus>
<clus scale="   89.148">  1  5  2 -1</clus>
<clus scale="   91.605">  7  8 -1 -1</clus>
<clus scale="   56.412">  1  5  2 -1</clus>
</clustering>
</event>
<event>
10    2  0.1671105E-006  0.1677404E+03  0.7546771E-02  0.1199160E+00
         21   -1    0    0  501  502  0.00000000000E+00  0.00000000000E+00  0.29449575491E+03  0.29449575491E+03  0.00000000000E+00 0. -1.
          2   -1    0    0  503    0 -0.00000000000E+00 -0.00000000000E+00 -0.44242832609E+03  0.44242832609E+03  0.00000000000E+00 0. -1.
         23    2    1    2    0    0 -0.14216780599E+02 -0.61891234633E+02 -0.30585820672E+03  0.32535671712E+03  0.90967626034E+02 0.  0.
         23    2    1    2    0    0 -0.48119944765E+02  0.15773188844E+03  0.25702373054E+02  0.19063926259E+03  0.92129467296E+02 0.  0.
        -11    1    4    4    0    0  0.75318002316E+01  0.79984173954E+02  0.46451987194E+02  0.92800771614E+02  0.00000000000E+00 0.  1.
         11    1    4    4    0    0 -0.55651744997E+02  0.77747714483E+02 -0.20749614140E+02  0.97838490971E+02  0.00000000000E+00 0. -1.
        -11    1    3    3    0    0 -0.42986071026E+02 -0.82052416170E+01 -0.77363669115E+02  0.88883438228E+02  0.00000000000E+00 0. -1.
         11    1    3    3    0    0  0.28769290427E+02 -0.53685993016E+02 -0.22849453760E+03  0.23647327889E+03  0.00000000000E+00 0.  1.
         21    1    1    2  503  502 -0.63021285957E+01  0.26751642345E+02  0.52821905399E+02  0.59544276660E+02  0.00000000000E+00 0. -1.
          2    1    1    2  501    0  0.68638853960E+02 -0.12259229615E+03  0.79401357085E+02  0.16138382464E+03  0.00000000000E+00 0. -1.
<scales pt_clust_5="13000.00000" pt_clust_6="13000.00000" pt_clust_7="13000.00000" pt_clust_8="13000.00000" pt_clust_9="27.48394" pt_clust_10="140.17496"></scales>
<clustering>
<clus scale="   27.484">  1  9  2 -1</clus>
<clus scale="   90.968">  7  8 -1 -1</clus>
<clus scale="   92.129">  5  6 -1 -1</clus>
<clus scale="  110.367">  2  7  1 -1</clus>
<clus scale="  140.175">  1 10  2 -1</clus>
<clus scale="   27.484">  1  5  2 -1</clus>
</clustering>
</event>
<event>
10    2  0.1671105E-006  0.9445622E+02  0.7546771E-02  0.1293863E+00
         21   -1    0    0  503  502  0.00000000000E+00  0.00000000000E+00  0.91311379952E+02  0.91311379952E+02  0.00000000000E+00 0.  1.
         -1   -1    0    0    0  501 -0.00000000000E+00 -0.00000000000E+00 -0.29068602948E+03  0.29068602948E+03  0.00000000000E+00 0.  1.
         23    2    1    2    0    0 -0.42554561659E+02 -0.95686450915E+01 -0.71710199059E+02  0.12591492183E+03  0.93860349476E+02 0.  0.
         23    2    1    2    0    0 -0.25736208569E+02  0.11914460019E+02 -0.46244234914E+02  0.10621087809E+03  0.91312181952E+02 0.  0.
        -11    1    3    3    0    0 -0.62234155347E+02 -0.56948414706E+00 -0.81181855739E+02  0.10229324565E+03  0.00000000000E+00 0. -1.
         11    1    3    3    0    0  0.19679593688E+02 -0.89991609444E+01  0.94716566802E+01  0.23621676183E+02  0.00000000000E+00 0.  1.
        -13    1    4    4    0    0 -0.50247704367E+02 -0.16051323010E+02 -0.44449990570E+02  0.68980275632E+02  0.00000000000E+00 0.  1.
         13    1    4    4    0    0  0.24511495798E+02  0.27965783029E+02 -0.17942443442E+01  0.37230602459E+02  0.00000000000E+00 0. -1.
         21    1    1    2  503  501  0.86476992440E+02  0.63482164750E+01 -0.92568629618E+02  0.12683659276E+03  0.00000000000E+00 0.  1.
         -1    1    1    2    0  502 -0.18186222212E+02 -0.86940314024E+01  0.11148414066E+02  0.23035016748E+02  0.00000000000E+00 0.  1.
<scales pt_clust_5="13000.00000" pt_clust_6="13000.00000" pt_clust_7="13000.00000" pt_clust_8="13000.00000" pt_clust_9="82.39306" pt_clust_10="20.15750"></scales>
<clustering>
<clus scale="   20.158">  1 10  2 -1</clus>
<clus scale="   82.393">  2  9  1 -1</clus>
<clus scale="   91.312">  7  8 -1 -1</clus>
<clus scale="   91.925">  1  7  2 -1</clus>
<clus scale="   93.860">  5  6 -1 -1</clus>
<clus scale="   20.158">  1  5  2 -1</clus>
</clustering>
</event>
<event>
10    2  0.1671105E-006  0.9039905E+02  0.7546771E-02  0.1302960E+00
         21   -1    0    0  501  502  0.00000000000E+00  0.00000000000E+00  0.88633795086E+02  0.88633795086E+02  0.00000000000E+00 0.  1.
         -4   -1    0    0    0  501 -0.00000000000E+00 -0.00000000000E+00 -0.25367860791E+03  0.25367860791E+03  0.00000000000E+00 0.  1.
         23    2    1    2    0    0  0.12165136283E+02 -0.29042812677E+02 -0.12989818717E+03  0.16025446923E+03  0.88410861155E+02 0.  0.
         23    2    1    2    0    0 -0.23081727352E+02 -0.41634940262E+02 -0.63286579734E+01  0.99031512288E+02  0.86608048853E+02 0.  0.
        -11    1    3    3    0    0 -0.21202201934E+02  0.19682040183E+02 -0.18995207204E+02  0.34608293361E+02  0.00000000000E+00 0. -1.
         11    1    3    3    0    0  0.33367338218E+02 -0.48724852860E+02 -0.11090297997E+03  0.12564617587E+03  0.00000000000E+00 0.  1.
        -13    1    4    4    0    0 -0.39354365572E+02 -0.61197796937E+02  0.20603552280E+00  0.72759733989E+02  0.00000000000E+00 0.  1.
         13    1    4    4    0    0  0.16272638220E+02  0.19562856675E+02 -0.65346934962E+01  0.26271778299E+02  0.00000000000E+00 0. -1.
         21    1    1    2  503  502 -0.10747052905E+02  0.21406033532E+02 -0.70615592381E+01  0.24971644652E+02  0.00000000000E+00 0.  1.
         -4    1    1    2    0  503  0.21663643974E+02  0.49271719407E+02 -0.21756408443E+02  0.58054776822E+02  0.00000000000E+00 0.  1.
<scales pt_clust_5="13000.00000" pt_clust_6="13000.00000" pt_clust_7="13000.00000" pt_clust_8="13000.00000" pt_clust_9="20.54383" pt_clust_10="77.86470"></scales>
<clustering>
<clus scale="   20.544">  9 10 -1 -1</clus>
<clus scale="   77.865">  1  9  2 -1</clus>
<clus scale="   86.608">  7  8 -1 -1</clus>
<clus scale="   88.411">  5  6 -1 -1</clus>
<clus scale="   88.637">  1  7  2 -1</clus>
<clus scale="   77.865">  1  5  2 -1</clus>
</clustering>
</event>
<event>
10    2  0.1671105E-006  0.1719367E+03  0.7546771E-02  0.1200227E+00
         21   -1    0    0  503  502  0.00000000000E+00  0.00000000000E+00  0.12935811913E+03  0.12935811913E+03  0.00000000000E+00 0.  1.
          1   -1    0    0  502    0 -0.00000000000E+00 -0.00000000000E+00 -0.36831850930E+03  0.36831850930E+03  0.00000000000E+00 0. -1.
         23    2    1    2    0    0  0.26175515196E+02  0.22317708162E+02 -0.10172245737E+03  0.14273742028E+03  0.94038689482E+02 0.  0.
         23    2    1    2    0    0  0.10303720841E+03 -0.95905127141E+02 -0.86061264245E+02  0.18966729318E+03  0.93555765038E+02 0.  0.
        -11    1    3    3    0    0  0.15665022675E+02 -0.35518416971E+02 -0.56597409461E+02  0.68631025325E+02  0.00000000000E+00 0. -1.
         11    1    3    3    0    0  0.10510492521E+02  0.57836125133E+02 -0.45125047913E+02  0.74106394950E+02  0.00000000000E+00 0.  1.
        -13    1    4    4    0    0  0.47671621201E+01 -0.66168880241E+02 -0.32926120555E+02  0.74061973791E+02  0.00000000000E+00 0. -1.
         13    1    4    4    0    0  0.98270046286E+02 -0.29736246900E+02 -0.53135143690E+02  0.11560531939E+03  0.00000000000E+00 0.  1.
         21    1    1    2  503  501 -0.10344389960E+03  0.75593986058E+02 -0.29345582597E+02  0.13143916581E+03  0.00000000000E+00 0.  1.
          1    1    1    2  501    0 -0.25768824007E+02 -0.20065670781E+01 -0.21831085951E+02  0.33832749164E+02  0.00000000000E+00 0. -1.
<scales pt_clust_5="13000.00000" pt_clust_6="13000.00000" pt_clust_7="13000.00000" pt_clust_8="13000.00000" pt_clust_9="22.83492" pt_clust_10="152.95180"></scales>
<clustering>
<clus scale="   22.835">  9 10 -1 -1</clus>
<clus scale="   93.556">  7  8 -1 -1</clus>
<clus scale="   94.039">  5  6 -1 -1</clus>
<clus scale="  100.132">  2  5  1 -1</clus>
<clus scale="  152.952">  1  9  2 -1</clus>
<clus scale="  152.952">  1  5  2 -1</clus>
</clustering>
</event>
<event>
10    2  0.1671105E-006  0.1409042E+03  0.7546771E-02  0.1212200E+00
         21   -1    0    0  501  502  0.00000000000E+00  0.00000000000E+00  0.77578267516E+03  0.77578267516E+03  0.00000000000E+00 0.  1.
          2   -1    0    0  503    0 -0.00000000000E+00 -0.00000000000E+00 -0.53687841394E+02  0.53687841394E+02  0.00000000000E+00 0. -1.
         23    2    1    2    0    0 -0.51073265329E+02  0.59994550460E+02  0.17789446543E+03  0.21512067674E+03  0.91774943287E+02 0.  0.
         23    2    1    2    0    0  0.79644980312E+02 -0.11168663238E+03  0.33352553586E+03  0.37222091283E+03  0.92151495594E+02 0.  0.
        -11    1    4    4    0    0  0.43870060468E+02 -0.11659268954E+03  0.29028442953E+03  0.31588524418E+03  0.00000000000E+00 0.  1.
         11    1    4    4    0    0  0.35774919844E+02  0.49060571613E+01  0.43241106325E+02  0.56335668656E+02  0.00000000000E+00 0. -1.
        -11    1    3    3    0    0 -0.71918288808E+02  0.39279579601E+02  0.86655327353E+02  0.11926554992E+03  0.00000000000E+00 0.  1.
         11    1    3    3    0    0  0.20845023479E+02  0.20714970859E+02  0.91239138074E+02  0.95855126822E+02  0.00000000000E+00 0. -1.
         21    1    1    2  503  502 -0.46557763161E+02  0.12539263387E+02  0.30912580693E+02  0.57275178585E+02  0.00000000000E+00 0. -1.
          2    1    1    2  501    0  0.17986048178E+02  0.39152818531E+02  0.17976225179E+03  0.18485374840E+03  0.00000000000E+00 0. -1.
<scales pt_clust_5="13000.00000" pt_clust_6="13000.00000" pt_clust_7="13000.00000" pt_clust_8="13000.00000" pt_clust_9="47.78730" pt_clust_10="43.08644"></scales>
<clustering>
<clus scale="   43.086">  1 10  2 -1</clus>
<clus scale="   47.787">  2  9  1 -1</clus>
<clus scale="   91.775">  7  8 -1 -1</clus>
<clus scale="   92.151">  5  6 -1 -1</clus>
<clus scale="  140.658">  2  7  1 -1</clus>
<clus scale="   43.086">  1  5  2 -1</clus>
</clustering>
</event>
<event>
10    2  0.1671105E-006  0.2798423E+03  0.7546771E-02  0.1095861E+00
         21   -1    0    0  503  502  0.00000000000E+00  0.00000000000E+00  0.14293749663E+03  0.14293749663E+03  0.00000000000E+00 0.  1.
          1   -1    0    0  502    0 -0.00000000000E+00 -0.00000000000E+00 -0.90349887106E+03  0.90349887106E+03  0.00000000000E+00 0. -1.
         23    2    1    2    0    0 -0.10573819710E+03  0.20847811705E+03 -0.26121597025E+03  0.36171355847E+03  0.89214481170E+02 0.  0.
         23    2    1    2    0    0  0.41805656767E+02 -0.31092808648E+03 -0.33884705861E+03  0.47069328907E+03  0.91163892798E+02 0.  0.
        -11    1    3    3    0    0 -0.91827336456E+00  0.62063140992E+02 -0.11117025789E+03  0.12732440039E+03  0.00000000000E+00 0. -1.
         11    1    3    3    0    0 -0.10481992373E+03  0.14641497606E+03 -0.15004571236E+03  0.23438915808E+03  0.00000000000E+00 0.  1.
        -13    1    4    4    0    0  0.39132019206E+01 -0.26782910716E+03 -0.26109955569E+03  0.37405978369E+03  0.00000000000E+00 0.  1.
         13    1    4    4    0    0  0.37892454846E+02 -0.43098979320E+02 -0.77747502921E+02  0.96633505386E+02  0.00000000000E+00 0. -1.
         21    1    1    2  503  501 -0.13543459864E+02  0.24558232961E+02 -0.15284776987E+02  0.31939889148E+02  0.00000000000E+00 0. -1.
          1    1    1    2  501    0  0.77476000193E+02  0.77891736466E+02 -0.14521356859E+03  0.18208963100E+03  0.00000000000E+00 0. -1.
<scales pt_clust_5="13000.00000" pt_clust_6="13000.00000" pt_clust_7="13000.00000" pt_clust_8="13000.00000" pt_clust_9="28.04518" pt_clust_10="111.00000"></scales>
<clustering>
<clus scale="   28.045">  1  9  2 -1</clus>
<clus scale="   89.214">  5  6 -1 -1</clus>
<clus scale="   91.164">  7  8 -1 -1</clus>
<clus scale="  111.000">  1 10  2 -1</clus>
<clus scale="  279.213">  2  5  1 -1</clus>
<clus scale="   28.045">  1  5  2 -1</clus>
</clustering>
</event>
<event>
10    2  0.1671105E-006  0.9758862E+02  0.7546771E-02  0.1285541E+00
         21   -1    0    0  501  502  0.00000000000E+00  0.00000000000E+00  0.54788482148E+03  0.54788482148E+03  0.00000000000E+00 0. -1.
          3   -1    0    0  503    0 -0.00000000000E+00 -0.00000000000E+00 -0.21293029561E+03  0.21293029561E+03  0.00000000000E+00 0. -1.
         23    2    1    2    0    0  0.21689854867E+02 -0.38528477957E+02 -0.13365261902E+03  0.16808021375E+03  0.91831597310E+02 0.  0.
         23    2    1    2    0    0 -0.36580162645E+02 -0.43852832544E+02  0.17420926096E+02  0.10968254227E+03  0.92008652806E+02 0.  0.
        -11    1    3    3    0    0 -0.36272007371E+02 -0.16130609730E+02 -0.55477254883E+02  0.68217159852E+02  0.00000000000E+00 0.  1.
         11    1    3    3    0    0  0.57961862238E+02 -0.22397868227E+02 -0.78175364134E+02  0.99863053893E+02  0.00000000000E+00 0. -1.
        -13    1    4    4    0    0  0.30852819570E+02 -0.16686277087E+02  0.69112993250E+00  0.35082844512E+02  0.00000000000E+00 0. -1.
         13    1    4    4    0    0 -0.67432982215E+02 -0.27166555457E+02  0.16729796164E+02  0.74599697757E+02  0.00000000000E+00 0.  1.
         21    1    1    2  503  502 -0.44569462947E+02  0.33891238194E+02  0.51518945205E+02  0.76087152455E+02  0.00000000000E+00 0. -1.
          3    1    1    2  501    0  0.59459770724E+02  0.48490072308E+02  0.39966727359E+03  0.40696520862E+03  0.00000000000E+00 0. -1.
<scales pt_clust_5="13000.00000" pt_clust_6="13000.00000" pt_clust_7="13000.00000" pt_clust_8="13000.00000" pt_clust_9="55.99154" pt_clust_10="79.90914"></scales>
<clustering>
<clus scale="   55.992">  1  9  2 -1</clus>
<clus scale="   79.909">  1 10  2 -1</clus>
<clus scale="   91.832">  5  6 -1 -1</clus>
<clus scale="   92.009">  7  8 -1 -1</clus>
<clus scale="   97.422">  2  5  1 -1</clus>
<clus scale="   55.992">  1  5  2 -1</clus>
</clustering>
</event>
<event>
10    2  0.1671105E-006  0.1139544E+03  0.7546771E-02  0.1259616E+00
         21   -1    0    0  501  502  0.00000000000E+00  0.00000000000E+00  0.19685146124E+03  0.19685146124E+03  0.00000000000E+00 0. -1.
          2   -1    0    0  503    0 -0.00000000000E+00 -0.00000000000E+00 -0.78294904685E+03  0.78294904685E+03  0.00000000000E+00 0. -1.
         23    2    1    2    0    0  0.36867816486E+02 -0.44893052233E+01 -0.46560117814E+03  0.47581026203E+03  0.90727937371E+02 0.  0.
         23    2    1    2    0    0 -0.63855723805E+02 -0.36611710652E+02 -0.25151255358E+03  0.28236554245E+03  0.10513688286E+03 0.  0.
        -13    1    3    3    0    0  0.66981960981E+02 -0.79805931334E+01 -0.33690118168E+03  0.34358794970E+03  0.00000000000E+00 0. -1.
         13    1    3    3    0    0 -0.30114144495E+02  0.34912879101E+01 -0.12869999646E+03  0.13222231233E+03  0.00000000000E+00 0.  1.
        -13    1    4    4    0    0 -0.31660120363E+02  0.36537927845E+02 -0.99493964519E+02  0.11061840881E+03  0.00000000000E+00 0.  1.
         13    1    4    4    0    0 -0.32195603442E+02 -0.73149638497E+02 -0.15201858906E+03  0.17174713364E+03  0.00000000000E+00 0. -1.
         21    1    1    2  503  502  0.34357611185E+02  0.99004719639E+02  0.12473836207E+03  0.16291727634E+03  0.00000000000E+00 0. -1.
          2    1    1    2  501    0 -0.73697038668E+01 -0.57903703764E+02  0.62777840284E+01  0.58707427273E+02  0.00000000000E+00 0. -1.
<scales pt_clust_5="13000.00000" pt_clust_6="13000.00000" pt_clust_7="13000.00000" pt_clust_8="13000.00000" pt_clust_9="55.81282" pt_clust_10="58.37081"></scales>
<clustering>
<clus scale="   58.371">  1 10  2 -1</clus>
<clus scale="   55.813">  1  9  2 -1</clus>
<clus scale="   90.728">  5  6 -1 -1</clus>
<clus scale="  100.814">  2  5  1 -1</clus>
<clus scale="  105.137">  7  8 -1 -1</clus>
<clus scale="   58.371">  1  5  2 -1</clus>
</clustering>
</event>
<event>
10    2  0.1671105E-006  0.1414410E+03  0.7546771E-02  0.1224115E+00
          1   -1    0    0  502    0 -0.00000000000E+00  0.00000000000E+00  0.54996726426E+03  0.54996726426E+03  0.00000000000E+00 0. -1.
         21   -1    0    0  503  502  0.00000000000E+00 -0.00000000000E+00 -0.17761566094E+03  0.17761566094E+03  0.00000000000E+00 0. -1.
         23    2    1    2    0    0 -0.44515702952E+02  0.38997337660E+02  0.22016797527E+02  0.11041502100E+03  0.90577576333E+02 0.  0.
         23    2    1    2    0    0  0.10214314662E+03 -0.12705442971E+03  0.43862306140E+03  0.47669641263E+03  0.90957293926E+02 0.  0.
        -11    1    4    4    0    0  0.42976763725E+02 -0.63617436140E+02  0.32386960809E+03  0.33284486393E+03  0.00000000000E+00 0.  1.
         11    1    4    4    0    0  0.59166382893E+02 -0.63436993571E+02  0.11475345330E+03  0.14385154870E+03  0.00000000000E+00 0. -1.
        -13    1    3    3    0    0 -0.39933055144E+01  0.60109213449E+02  0.13257017729E+01  0.60256298555E+02  0.00000000000E+00 0. -1.
         13    1    3    3    0    0 -0.40522397437E+02 -0.21111875789E+02  0.20691095754E+02  0.50158722441E+02  0.00000000000E+00 0.  1.
         21    1    1    2  503  501 -0.14768322818E+02  0.30197226874E+02 -0.12320860296E+02  0.35801947826E+02  0.00000000000E+00 0.  1.
          1    1    1    2  501    0 -0.42859120848E+02  0.57859865177E+02 -0.75967395307E+02  0.10466954375E+03  0.00000000000E+00 0. -1.
<scales pt_clust_5="13000.00000" pt_clust_6="13000.00000" pt_clust_7="13000.00000" pt_clust_8="13000.00000" pt_clust_9="20.06569" pt_clust_10="112.22643"></scales>
<clustering>
<clus scale="   20.066">  9 10 -1 -1</clus>
<clus scale="   90.578">  7  8 -1 -1</clus>
<clus scale="   90.957">  5  6 -1 -1</clus>
<clus scale="  108.198">  1  7  2 -1</clus>
<clus scale="  112.226">  2  9  1 -1</clus>
<clus scale="  112.226">  2  5  1 -1</clus>
</clustering>
</event>
<event>
10    2  0.1671105E-006  0.1199436E+03  0.7546771E-02  0.1244440E+00
         21   -1    0    0  501  502  0.00000000000E+00  0.00000000000E+00  0.61267715836E+02  0.61267715836E+02  0.00000000000E+00 0.  1.
          2   -1    0    0  503    0 -0.00000000000E+00 -0.00000000000E+00 -0.76664299348E+03  0.76664299348E+03  0.00000000000E+00 0. -1.
         23    2    1    2    0    0  0.60051351712E+02  0.47150326308E+02 -0.58710214941E+03  0.59911381281E+03  0.91755701467E+02 0.  0.
         23    2    1    2    0    0 -0.84419107229E+02 -0.23668019115E+02 -0.84959502358E+02  0.15038696821E+03  0.87814363124E+02 0.  0.
        -11    1    3    3    0    0  0.26612105612E+02  0.72348473291E+02 -0.40352804332E+03  0.41082525178E+03  0.00000000000E+00 0. -1.
         11    1    3    3    0    0  0.33439246099E+02 -0.25198146983E+02 -0.18357410609E+03  0.18828856104E+03  0.00000000000E+00 0.  1.
        -13    1    4    4    0    0 -0.38302880761E+02 -0.51728967306E+02 -0.23343437966E+02  0.68468334500E+02  0.00000000000E+00 0.  1.
         13    1    4    4    0    0 -0.46116226468E+02  0.28060948191E+02 -0.61616064392E+02  0.81918633705E+02  0.00000000000E+00 0. -1.
         21    1    1    2  503  502  0.43581384239E+02 -0.17194055469E+02 -0.34463120756E+02  0.58160805427E+02  0.00000000000E+00 0.  1.
          2    1    1    2  501    0 -0.19213628722E+02 -0.62882517244E+01  0.11494948809E+01  0.20249122867E+02  0.00000000000E+00 0. -1.
<scales pt_clust_5="13000.00000" pt_clust_6="13000.00000" pt_clust_7="13000.00000" pt_clust_8="13000.00000" pt_clust_9="43.30903" pt_clust_10="20.21647"></scales>
<clustering>
<clus scale="   20.216">  1 10  2 -1</clus>
<clus scale="   43.309">  1  9  2 -1</clus>
<clus scale="   87.814">  7  8 -1 -1</clus>
<clus scale="   91.756">  5  6 -1 -1</clus>
<clus scale="  116.956">  1  7  2 -1</clus>
<clus scale="   20.216">  1  5  2 -1</clus>
</clustering>
</event>
<event>
10    2  0.1671105E-006  0.1019431E+03  0.7546771E-02  0.1279299E+00
         -2   -1    0    0    0  501 -0.00000000000E+00  0.00000000000E+00  0.45350385360E+02  0.45350385360E+02  0.00000000000E+00 0.  1.
         21   -1    0    0  503  502  0.00000000000E+00 -0.00000000000E+00 -0.42650202949E+03  0.42650202949E+03  0.00000000000E+00 0. -1.
         23    2    1    2    0    0  0.14670608134E+02 -0.49631854528E+02 -0.14929547539E+03  0.18031270068E+03  0.86861863478E+02 0.  0.
         23    2    1    2    0    0  0.42658030403E+02  0.28294826533E+02 -0.15378186793E+03  0.18695513894E+03  0.93182918535E+02 0.  0.
        -13    1    3    3    0    0 -0.26557816203E+02 -0.50106396564E+02 -0.10785344158E+03  0.12185373789E+03  0.00000000000E+00 0. -1.
         13    1    3    3    0    0  0.41228424337E+02  0.47454203673E+00 -0.41442033810E+02  0.58458962784E+02  0.00000000000E+00 0.  1.
        -13    1    4    4    0    0 -0.94383839204E+01  0.18660064080E+02 -0.12485227167E+03  0.12659135367E+03  0.00000000000E+00 0. -1.
         13    1    4    4    0    0  0.52096414323E+02  0.96347624521E+01 -0.28929596259E+02  0.60363785274E+02  0.00000000000E+00 0.  1.
         21    1    1    2  503  501 -0.24910287056E+02  0.20763633465E+02 -0.20081738044E+02  0.38143506377E+02  0.00000000000E+00 0. -1.
         -2    1    1    2    0  502 -0.32418351481E+02  0.57339453012E+00 -0.57992562773E+02  0.66441068858E+02  0.00000000000E+00 0.  1.
<scales pt_clust_5="13000.00000" pt_clust_6="13000.00000" pt_clust_7="13000.00000" pt_clust_8="13000.00000" pt_clust_9="34.48684" pt_clust_10="32.42342"></scales>
<clustering>
<clus scale="   32.423">  2 10  1 -1</clus>
<clus scale="   34.487">  1  9  2 -1</clus>
<clus scale="   86.862">  5  6 -1 -1</clus>
<clus scale="   93.183">  7  8 -1 -1</clus>
<clus scale="   96.199">  1  5  2 -1</clus>
<clus scale="   32.423">  2  5  1 -1</clus>
</clustering>
</event>
<event>
10    2  0.1671105E-006  0.1982833E+03  0.7546771E-02  0.1151576E+00
          3   -1    0    0  503    0 -0.00000000000E+00  0.00000000000E+00  0.41302398769E+03  0.41302398769E+03  0.00000000000E+00 0. -1.
         21   -1    0    0  501  502  0.00000000000E+00 -0.00000000000E+00 -0.24849062187E+03  0.24849062187E+03  0.00000000000E+00 0. -1.
         23    2    1    2    0    0 -0.23420253579E+02 -0.20396923624E+03  0.26366289673E+03  0.34633622746E+03  0.90987371259E+02 0.  0.
         23    2    1    2    0    0  0.81207740526E+02  0.11653415030E+03 -0.82198009150E+02  0.18950374638E+03  0.94764190889E+02 0.  0.
        -13    1    3    3    0    0  0.29484798351E+02 -0.12214122518E+03  0.16795326280E+03  0.20975254636E+03  0.00000000000E+00 0.  1.
         13    1    3    3    0    0 -0.52905051930E+02 -0.81828011060E+02  0.95709633929E+02  0.13658368109E+03  0.00000000000E+00 0. -1.
        -13    1    4    4    0    0  0.87958668553E+02  0.47774438469E+02 -0.35915531180E+02  0.10634401593E+03  0.00000000000E+00 0. -1.
         13    1    4    4    0    0 -0.67509280267E+01  0.68759711836E+02 -0.46282477970E+02  0.83159730447E+02  0.00000000000E+00 0.  1.
         21    1    1    2  503  502 -0.41014220420E+02  0.32211058950E+02  0.21420617721E+02  0.56378732328E+02  0.00000000000E+00 0. -1.
          3    1    1    2  501    0 -0.16773266528E+02  0.55224026985E+02 -0.38352139477E+02  0.69295903406E+02  0.00000000000E+00 0. -1.
<scales pt_clust_5="13000.00000" pt_clust_6="13000.00000" pt_clust_7="13000.00000" pt_clust_8="13000.00000" pt_clust_9="52.15092" pt_clust_10="59.49549"></scales>
<clustering>
<clus scale="   52.151">  1  9  2 -1</clus>
<clus scale="   59.495">  2 10  1 -1</clus>
<clus scale="   90.987">  5  6 -1 -1</clus>
<clus scale="   94.764">  7  8 -1 -1</clus>
<clus scale="  196.506">  1  5  2 -1</clus>
<clus scale="   59.495">  2  5  1 -1</clus>
</clustering>
</event>
<event>
10    2  0.1671105E-006  0.9801559E+02  0.7546771E-02  0.1286128E+00
          1   -1    0    0  503    0 -0.00000000000E+00  0.00000000000E+00  0.21668560585E+03  0.21668560585E+03  0.00000000000E+00 0. -1.
         21   -1    0    0  501  502  0.00000000000E+00 -0.00000000000E+00 -0.17262708427E+03  0.17262708427E+03  0.00000000000E+00 0.  1.
         23    2    1    2    0    0 -0.28226229754E+02  0.11008481359E+02  0.15994461909E+03  0.18824268490E+03  0.94525766513E+02 0.  0.
         23    2    1    2    0    0 -0.21332840448E+02 -0.32932380051E+02 -0.72259578007E+02  0.12301364072E+03  0.91494685375E+02 0.  0.
        -11    1    3    3    0    0 -0.13548905654E+02  0.47751685571E+02  0.12833692900E+03  0.13760146679E+03  0.00000000000E+00 0. -1.
         11    1    3    3    0    0 -0.14677324100E+02 -0.36743204212E+02  0.31607690096E+02  0.50641218110E+02  0.00000000000E+00 0.  1.
        -13    1    4    4    0    0 -0.56237472054E+02 -0.18313379177E+02 -0.57217041630E+02  0.82291086837E+02  0.00000000000E+00 0.  1.
         13    1    4    4    0    0  0.34904631606E+02 -0.14619000874E+02 -0.15042536377E+02  0.40722553883E+02  0.00000000000E+00 0. -1.
         21    1    1    2  503  502  0.23446093511E+02 -0.81691867026E+01 -0.15195586498E+02  0.29109461715E+02  0.00000000000E+00 0. -1.
          1    1    1    2  501    0  0.26112976691E+02  0.30093085394E+02 -0.28430933004E+02  0.48946902779E+02  0.00000000000E+00 0. -1.
<scales pt_clust_5="13000.00000" pt_clust_6="13000.00000" pt_clust_7="13000.00000" pt_clust_8="13000.00000" pt_clust_9="24.82851" pt_clust_10="42.62219"></scales>
<clustering>
<clus scale="   24.829">  2  9  1 -1</clus>
<clus scale="   42.622">  2 10  1 -1</clus>
<clus scale="   91.495">  7  8 -1 -1</clus>
<clus scale="   94.526">  5  6 -1 -1</clus>
<clus scale="   95.096">  2  7  1 -1</clus>
<clus scale="   24.829">  2  5  1 -1</clus>
</clustering>
</event>
<event>
10    2  0.1671105E-006  0.1552852E+03  0.7546771E-02  0.1195769E+00
         21   -1    0    0  503  502  0.00000000000E+00  0.00000000000E+00  0.25393920993E+03  0.25393920993E+03  0.00000000000E+00 0.  1.
         -1   -1    0    0    0  501 -0.00000000000E+00 -0.00000000000E+00 -0.28395723354E+03  0.28395723354E+03  0.00000000000E+00 0.  1.
         23    2    1    2    0    0  0.97385429408E+02  0.12726947485E+03 -0.16998859057E+03  0.24727642032E+03  0.81043605767E+02 0.  0.
         23    2    1    2    0    0 -0.83647359400E+02 -0.33375547580E+02  0.43060398384E+02  0.13494098133E+03  0.90796820546E+02 0.  0.
        -11    1    3    3    0    0  0.57314007679E+02  0.53117818717E+02 -0.29664598396E+02  0.83584607073E+02  0.00000000000E+00 0. -1.
         11    1    3    3    0    0  0.40071421729E+02  0.74151656131E+02 -0.14032399217E+03  0.16369181325E+03  0.00000000000E+00 0.  1.
        -13    1    4    4    0    0 -0.76278858316E+02 -0.57599725499E+02  0.14340164749E+02  0.96653157882E+02  0.00000000000E+00 0.  1.
         13    1    4    4    0    0 -0.73685010847E+01  0.24224177918E+02  0.28720233635E+02  0.38287823444E+02  0.00000000000E+00 0. -1.
         21    1    1    2  503  501  0.91878409589E+01 -0.35505654868E+02 -0.39672706489E+01  0.36889120150E+02  0.00000000000E+00 0.  1.
         -1    1    1    2    0  502 -0.22925910967E+02 -0.58388272400E+02  0.10087743922E+03  0.11878992168E+03  0.00000000000E+00 0.  1.
<scales pt_clust_5="13000.00000" pt_clust_6="13000.00000" pt_clust_7="13000.00000" pt_clust_8="13000.00000" pt_clust_9="36.67517" pt_clust_10="63.74117"></scales>
<clustering>
<clus scale="   36.675">  2  9  1 -1</clus>
<clus scale="   63.741">  1 10  2 -1</clus>
<clus scale="   81.044">  5  6 -1 -1</clus>
<clus scale="   90.797">  7  8 -1 -1</clus>
<clus scale="  149.792">  2  5  1 -1</clus>
<clus scale="   63.741">  1  5  2 -1</clus>
</clustering>
</event>
<event>
10    2  0.1671105E-006  0.9700435E+02  0.7546771E-02  0.1288128E+00
         21   -1    0    0  501  502  0.00000000000E+00  0.00000000000E+00  0.16435187797E+03  0.16435187797E+03  0.00000000000E+00 0. -1.
          1   -1    0    0  503    0 -0.00000000000E+00 -0.00000000000E+00 -0.28429145953E+03  0.28429145953E+03  0.00000000000E+00 0. -1.
         23    2    1    2    0    0  0.33502725971E+02  0.40153316519E+02 -0.12853644419E+03  0.16674430862E+03  0.92451746852E+02 0.  0.
         23    2    1    2    0    0  0.25637649907E+02  0.26096431197E+01 -0.93551352312E+02  0.13582060789E+03  0.95033060973E+02 0.  0.
        -13    1    4    4    0    0  0.28976376238E+02  0.26298768225E+02 -0.10293560436E+03  0.11012263271E+03  0.00000000000E+00 0. -1.
         13    1    4    4    0    0 -0.33387263310E+01 -0.23689125105E+02  0.93842520487E+01  0.25697975178E+02  0.00000000000E+00 0.  1.
        -13    1    3    3    0    0 -0.31837599071E+02  0.94207940085E+01 -0.50393265024E+02  0.60347868514E+02  0.00000000000E+00 0. -1.
         13    1    3    3    0    0  0.65340325042E+02  0.30732522511E+02 -0.78143179170E+02  0.10639644011E+03  0.00000000000E+00 0.  1.
         21    1    1    2  503  502 -0.19483213272E+02 -0.99451636665E+01 -0.89497635271E+01  0.23634723331E+02  0.00000000000E+00 0. -1.
          1    1    1    2  501    0 -0.39657162605E+02 -0.32817795972E+02  0.11109797846E+03  0.12244369766E+03  0.00000000000E+00 0. -1.
<scales pt_clust_5="13000.00000" pt_clust_6="13000.00000" pt_clust_7="13000.00000" pt_clust_8="13000.00000" pt_clust_9="21.87469" pt_clust_10="51.92726"></scales>
<clustering>
<clus scale="   21.875">  2  9  1 -1</clus>
<clus scale="   51.927">  1 10  2 -1</clus>
<clus scale="   92.452">  7  8 -1 -1</clus>
<clus scale="   94.477">  2  7  1 -1</clus>
<clus scale="   95.033">  5  6 -1 -1</clus>
<clus scale="   51.927">  1  5  2 -1</clus>
</clustering>
</event>
<event>
10    2  0.1671105E-006  0.1021661E+03  0.7546771E-02  0.1277093E+00
         21   -1    0    0  503  502  0.00000000000E+00  0.00000000000E+00  0.13390011173E+03  0.13390011173E+03  0.00000000000E+00 0.  1.
          1   -1    0    0  502    0 -0.00000000000E+00 -0.00000000000E+00 -0.47953759193E+03  0.47953759193E+03  0.00000000000E+00 0. -1.
         23    2    1    2    0    0  0.30369015545E+02 -0.35066110593E+02 -0.33756805778E+03  0.35248296911E+03  0.90222728093E+02 0.  0.
         23    2    1    2    0    0  0.38566776056E+02  0.10387533250E+03  0.12487822072E+01  0.14112818452E+03  0.87396362004E+02 0.  0.
        -11    1    3    3    0    0 -0.54120505187E+01 -0.54302414447E+02 -0.13021311566E+03  0.14118604037E+03  0.00000000000E+00 0.  1.
         11    1    3    3    0    0  0.35781066064E+02  0.19236303854E+02 -0.20735494212E+03  0.21129692875E+03  0.00000000000E+00 0. -1.
        -13    1    4    4    0    0  0.64861623863E+02  0.89376923654E+02  0.65949990371E+01  0.11062892363E+03  0.00000000000E+00 0.  1.
         13    1    4    4    0    0 -0.26294847807E+02  0.14498408849E+02 -0.53462168299E+01  0.30499260889E+02  0.00000000000E+00 0. -1.
         21    1    1    2  503  501 -0.37901518680E+02 -0.17022104551E+02  0.26829748136E+02  0.49458189884E+02  0.00000000000E+00 0.  1.
          1    1    1    2  501    0 -0.31034272921E+02 -0.51787117358E+02 -0.36147952766E+02  0.70368360143E+02  0.00000000000E+00 0. -1.
<scales pt_clust_5="13000.00000" pt_clust_6="13000.00000" pt_clust_7="13000.00000" pt_clust_8="13000.00000" pt_clust_9="41.54849" pt_clust_10="66.59982"></scales>
<clustering>
<clus scale="   41.548">  1  9  2 -1</clus>
<clus scale="   66.600">  1 10  2 -1</clus>
<clus scale="   87.396">  7  8 -1 -1</clus>
<clus scale="   90.223">  5  6 -1 -1</clus>
<clus scale="   99.679">  1  7  2 -1</clus>
<clus scale="   41.548">  1  5  2 -1</clus>
</clustering>
</event>
<event>
10    2  0.1671105E-006  0.1594154E+03  0.7546771E-02  0.1189705E+00
          3   -1    0    0  502    0 -0.00000000000E+00  0.00000000000E+00  0.89327169945E+03  0.89327169945E+03  0.00000000000E+00 0. -1.
         21   -1    0    0  503  502  0.00000000000E+00 -0.00000000000E+00 -0.22190096133E+03  0.22190096133E+03  0.00000000000E+00 0. -1.
         23    2    1    2    0    0 -0.40269451675E+02 -0.81309688130E+02  0.27973944459E+03  0.30739561795E+03  0.89470749156E+02 0.  0.
         23    2    1    2    0    0  0.39435634078E+02  0.18068699376E+03  0.56684992248E+03  0.60325212701E+03  0.91604231155E+02 0.  0.
        -11    1    4    4    0    0  0.62718334832E+01  0.16455467500E+03  0.40387527401E+03  0.43615686847E+03  0.00000000000E+00 0. -1.
         11    1    4    4    0    0  0.33163800595E+02  0.16132318763E+02  0.16297464847E+03  0.16709525853E+03  0.00000000000E+00 0.  1.
        -13    1    3    3    0    0 -0.61511569773E+02 -0.85102145774E+02  0.21747731699E+03  0.24150037647E+03  0.00000000000E+00 0.  1.
         13    1    3    3    0    0  0.21242118098E+02  0.37924576447E+01  0.62262127601E+02  0.65895241480E+02  0.00000000000E+00 0. -1.
         21    1    1    2  503  501 -0.37788335172E+01 -0.50345155119E+02 -0.12190244104E+03  0.13194362189E+03  0.00000000000E+00 0. -1.
          3    1    1    2  501    0  0.46126511134E+01 -0.49032150514E+02 -0.53316187915E+02  0.72581293927E+02  0.00000000000E+00 0. -1.
<scales pt_clust_5="13000.00000" pt_clust_6="13000.00000" pt_clust_7="13000.00000" pt_clust_8="13000.00000" pt_clust_9="34.95164" pt_clust_10="105.49347"></scales>
<clustering>
<clus scale="   34.952">  9 10 -1 -1</clus>
<clus scale="   89.471">  7  8 -1 -1</clus>
<clus scale="   91.604">  5  6 -1 -1</clus>
<clus scale="  105.493">  2  9  1 -1</clus>
<clus scale="  158.199">  1  7  2 -1</clus>
<clus scale="  105.493">  2  5  1 -1</clus>
</clustering>
</event>
<event>
10    2  0.1671105E-006  0.1574037E+03  0.7546771E-02  0.1191824E+00
         21   -1    0    0  501  502  0.00000000000E+00  0.00000000000E+00  0.19689602089E+03  0.19689602089E+03  0.00000000000E+00 0. -1.
          1   -1    0    0  503    0 -0.00000000000E+00 -0.00000000000E+00 -0.34202554603E+03  0.34202554603E+03  0.00000000000E+00 0. -1.
         23    2    1    2    0    0 -0.11818559048E+01  0.13389722811E+03 -0.15014509892E+03  0.22104165376E+03  0.91575092084E+02 0.  0.
         23    2    1    2    0    0 -0.15300422491E+02 -0.10334748722E+03  0.94103301206E+02  0.16832989719E+03  0.92545755959E+02 0.  0.
        -13    1    3    3    0    0  0.42267420111E+02  0.38314061330E+02 -0.47959915423E+02  0.74529561825E+02  0.00000000000E+00 0.  1.
         13    1    3    3    0    0 -0.43449276016E+02  0.95583166783E+02 -0.10218518349E+03  0.14651209194E+03  0.00000000000E+00 0. -1.
        -13    1    4    4    0    0 -0.36810149726E+02 -0.85150943989E+02  0.28681666931E+02  0.97099476843E+02  0.00000000000E+00 0. -1.
         13    1    4    4    0    0  0.21509727235E+02 -0.18196543231E+02  0.65421634275E+02  0.71230420345E+02  0.00000000000E+00 0.  1.
         21    1    1    2  503  502 -0.48471100755E+02 -0.53935258392E+00 -0.33093335095E+02  0.58693332989E+02  0.00000000000E+00 0. -1.
          1    1    1    2  501    0  0.64953379151E+02 -0.30010388308E+02 -0.55994392339E+02  0.90856682985E+02  0.00000000000E+00 0. -1.
<scales pt_clust_5="13000.00000" pt_clust_6="13000.00000" pt_clust_7="13000.00000" pt_clust_8="13000.00000" pt_clust_9="48.47410" pt_clust_10="60.91626"></scales>
<clustering>
<clus scale="   48.474">  2  9  1 -1</clus>
<clus scale="   60.916">  1 10  2 -1</clus>
<clus scale="   91.575">  5  6 -1 -1</clus>
<clus scale="   92.546">  7  8 -1 -1</clus>
<clus scale="  156.835">  2  5  1 -1</clus>
<clus scale="   60.916">  1  5  2 -1</clus>
</clustering>
</event>
<event>
10    2  0.1671105E-006  0.9416255E+02  0.7546771E-02  0.1295750E+00
         21   -1    0    0  501  502  0.00000000000E+00  0.00000000000E+00  0.13937865508E+03  0.13937865508E+03  0.00000000000E+00 0.  1.
          3   -1    0    0  503    0 -0.00000000000E+00 -0.00000000000E+00 -0.18332990982E+03  0.18332990982E+03  0.00000000000E+00 0. -1.
         23    2    1    2    0    0 -0.24696448355E+02 -0.10363609521E+02 -0.98869955469E+02  0.13726512375E+03  0.91373558208E+02 0.  0.
         23    2    1    2    0    0  0.18875683959E+02 -0.24997361237E+02 -0.23990914194E+02  0.95214007073E+02  0.86654392072E+02 0.  0.
        -11    1    4    4    0    0 -0.19921233817E+02  0.13969094181E+02  0.14287190062E+02  0.28215509014E+02  0.00000000000E+00 0.  1.
         11    1    4    4    0    0  0.38796917777E+02 -0.38966455418E+02 -0.38278104256E+02  0.66998498060E+02  0.00000000000E+00 0. -1.
        -13    1    3    3    0    0 -0.32722458827E+02  0.33131422884E+02 -0.29925968953E+02  0.55353537482E+02  0.00000000000E+00 0.  1.
         13    1    3    3    0    0  0.80260104720E+01 -0.43495032405E+02 -0.68943986515E+02  0.81911586266E+02  0.00000000000E+00 0. -1.
         21    1    1    2  503  502  0.14904193519E+02  0.15021964375E+02  0.33012614907E+02  0.39212589064E+02  0.00000000000E+00 0.  1.
          3    1    1    2  501    0 -0.90834291228E+01  0.20339006383E+02  0.45897000018E+02  0.51016845021E+02  0.00000000000E+00 0. -1.
<scales pt_clust_5="13000.00000" pt_clust_6="13000.00000" pt_clust_7="13000.00000" pt_clust_8="13000.00000" pt_clust_9="21.16115" pt_clust_10="27.46757"></scales>
<clustering>
<clus scale="   21.161">  1  9  2 -1</clus>
<clus scale="   27.468">  1 10  2 -1</clus>
<clus scale="   86.654">  5  6 -1 -1</clus>
<clus scale="   89.590">  1  5  2 -1</clus>
<clus scale="   91.374">  7  8 -1 -1</clus>
<clus scale="   21.161">  1  5  2 -1</clus>
</clustering>
</event>
<event>
10    2  0.1671105E-006  0.9465597E+02  0.7546771E-02  0.1293030E+00
         21   -1    0    0  501  502  0.00000000000E+00  0.00000000000E+00  0.62636180002E+03  0.62636180002E+03  0.00000000000E+00 0. -1.
          2   -1    0    0  503    0 -0.00000000000E+00 -0.00000000000E+00 -0.21230930756E+03  0.21230930756E+03  0.00000000000E+00 0. -1.
         23    2    1    2    0    0  0.13261273149E+02 -0.24525567408E+02 -0.14486491377E+03  0.17288657882E+03  0.90147440737E+02 0.  0.
         23    2    1    2    0    0 -0.36962967045E+02 -0.35262192328E+02  0.47947905613E+01  0.10541416873E+03  0.92084058399E+02 0.  0.
        -11    1    4    4    0    0  0.92664494234E+01 -0.53295516247E+02  0.11607772574E+02  0.55326481192E+02  0.00000000000E+00 0. -1.
         11    1    4    4    0    0 -0.46229416469E+02  0.18033323919E+02 -0.68129820127E+01  0.50087687534E+02  0.00000000000E+00 0.  1.
        -13    1    3    3    0    0  0.31116014035E+02  0.26080797916E+02 -0.58550187728E+02  0.71249833911E+02  0.00000000000E+00 0.  1.
         13    1    3    3    0    0 -0.17854740887E+02 -0.50606365324E+02 -0.86314726047E+02  0.10163674491E+03  0.00000000000E+00 0. -1.
         21    1    1    2  503  502  0.28292772457E+01  0.62193887824E+02  0.39790894807E+03  0.40275006573E+03  0.00000000000E+00 0. -1.
          2    1    1    2  501    0  0.20872416651E+02 -0.24061280888E+01  0.15621366760E+03  0.15762029430E+03  0.00000000000E+00 0. -1.
<scales pt_clust_5="13000.00000" pt_clust_6="13000.00000" pt_clust_7="13000.00000" pt_clust_8="13000.00000" pt_clust_9="63.58148" pt_clust_10="21.01065"></scales>
<clustering>
<clus scale="   21.011">  1 10  2 -1</clus>
<clus scale="   63.581">  1  9  2 -1</clus>
<clus scale="   90.147">  7  8 -1 -1</clus>
<clus scale="   92.084">  5  6 -1 -1</clus>
<clus scale="   92.773">  2  7  1 -1</clus>
<clus scale="   21.011">  1  5  2 -1</clus>
</clustering>
</event>
<event>
10    2  0.1671105E-006  0.2502203E+03  0.7546771E-02  0.1125445E+00
         21   -1    0    0  503  502  0.00000000000E+00  0.00000000000E+00  0.93559401935E+03  0.93559401935E+03  0.00000000000E+00 0.  1.
          2   -1    0    0  502    0 -0.00000000000E+00 -0.00000000000E+00 -0.15002777637E+03  0.15002777637E+03  0.00000000000E+00 0. -1.
         23    2    1    2    0    0  0.12902332987E+03  0.94784844104E+02  0.58563778724E+02  0.19308101773E+03  0.90660779307E+02 0.  0.
         23    2    1    2    0    0 -0.30522201141E+03 -0.78463295075E+02  0.52835697707E+03  0.62159411670E+03  0.88888614407E+02 0.  0.
        -11    1    3    3    0    0  0.20196620040E+02 -0.17456786777E+02  0.15716314461E+02  0.30978144003E+02  0.00000000000E+00 0.  1.
         11    1    3    3    0    0  0.10882670983E+03  0.11224163088E+03  0.42847464263E+02  0.16210287373E+03  0.00000000000E+00 0. -1.
        -13    1    4    4    0    0 -0.18287074934E+03 -0.77908606043E+02  0.38371090573E+03  0.43214062646E+03  0.00000000000E+00 0.  1.
         13    1    4    4    0    0 -0.12235126206E+03 -0.55468903225E+00  0.14464607134E+03  0.18945349024E+03  0.00000000000E+00 0. -1.
         21    1    1    2  503  501  0.25483062073E+02 -0.10254400971E+02  0.60345901414E+02  0.66303597258E+02  0.00000000000E+00 0. -1.
          2    1    1    2  501    0  0.15071561946E+03 -0.60671480588E+01  0.13829958576E+03  0.20464306403E+03  0.00000000000E+00 0. -1.
<scales pt_clust_5="13000.00000" pt_clust_6="13000.00000" pt_clust_7="13000.00000" pt_clust_8="13000.00000" pt_clust_9="21.92514" pt_clust_10="239.47593"></scales>
<clustering>
<clus scale="   21.925">  9 10 -1 -1</clus>
<clus scale="   88.889">  7  8 -1 -1</clus>
<clus scale="   90.661">  5  6 -1 -1</clus>
<clus scale="  183.985">  2  5  1 -1</clus>
<clus scale="  239.476">  1  9  2 -1</clus>
<clus scale="  239.476">  1  5  2 -1</clus>
</clustering>
</event>
<event>
10    2  0.1671105E-006  0.2654190E+03  0.7546771E-02  0.1104061E+00
          2   -1    0    0  502    0 -0.00000000000E+00  0.00000000000E+00  0.77597830918E+03  0.77597830918E+03  0.00000000000E+00 0. -1.
         21   -1    0    0  503  502  0.00000000000E+00 -0.00000000000E+00 -0.18795594045E+03  0.18795594045E+03  0.00000000000E+00 0. -1.
         23    2    1    2    0    0 -0.13256037530E+03  0.12679062156E+03  0.17102894561E+03  0.26620418813E+03  0.89250516653E+02 0.  0.
         23    2    1    2    0    0  0.25816363682E+03 -0.22027631862E+03  0.40719447054E+03  0.53797308392E+03  0.91856313166E+02 0.  0.
        -13    1    4    4    0    0  0.22553734240E+02 -0.51537661089E+02  0.10596938827E+03  0.11997630053E+03  0.00000000000E+00 0.  1.
         13    1    4    4    0    0  0.23560990258E+03 -0.16873865753E+03  0.30122508227E+03  0.41799678339E+03  0.00000000000E+00 0. -1.
        -13    1    3    3    0    0 -0.39347683010E+02  0.10083762621E+01  0.79774271504E+01  0.40160880529E+02  0.00000000000E+00 0.  1.
         13    1    3    3    0    0 -0.93212692289E+02  0.12578224530E+03  0.16305151846E+03  0.22604330760E+03  0.00000000000E+00 0. -1.
         21    1    1    2  503  501 -0.54816612634E+02  0.23136931468E+02  0.71074214923E+01  0.59922400309E+02  0.00000000000E+00 0.  1.
          2    1    1    2  501    0 -0.70786648884E+02  0.70348765587E+02  0.26915310760E+01  0.99834577273E+02  0.00000000000E+00 0. -1.
<scales pt_clust_5="13000.00000" pt_clust_6="13000.00000" pt_clust_7="13000.00000" pt_clust_8="13000.00000" pt_clust_9="23.29909" pt_clust_10="159.45618"></scales>
<clustering>
<clus scale="   23.299">  9 10 -1 -1</clus>
<clus scale="   89.251">  7  8 -1 -1</clus>
<clus scale="   91.856">  5  6 -1 -1</clus>
<clus scale="  159.456">  2  9  1 -1</clus>
<clus scale="  264.528">  1  7  2 -1</clus>
<clus scale="  159.456">  2  5  1 -1</clus>
</clustering>
</event>
<event>
10    2  0.1671105E-006  0.1130300E+03  0.7546771E-02  0.1255411E+00
         21   -1    0    0  503  502  0.00000000000E+00  0.00000000000E+00  0.54954917819E+02  0.54954917819E+02  0.00000000000E+00 0. -1.
         -2   -1    0    0    0  501 -0.00000000000E+00 -0.00000000000E+00 -0.48506823154E+03  0.48506823154E+03  0.00000000000E+00 0.  1.
         23    2    1    2    0    0 -0.38846496626E+02 -0.38058107216E+02 -0.21610402262E+03  0.24030020097E+03  0.89920899508E+02 0.  0.
         23    2    1    2    0    0  0.59794737241E+02  0.62071048214E+02 -0.20057654372E+03  0.23647773303E+03  0.90898529687E+02 0.  0.
        -13    1    4    4    0    0 -0.21433969550E+02 -0.20435012569E+01 -0.29176860569E+02  0.36261276050E+02  0.00000000000E+00 0.  1.
         13    1    4    4    0    0  0.81228706791E+02  0.64114549471E+02 -0.17139968316E+03  0.20021645698E+03  0.00000000000E+00 0. -1.
        -13    1    3    3    0    0  0.22767256361E+02 -0.16472311808E+02 -0.22543888648E+02  0.36026544851E+02  0.00000000000E+00 0. -1.
         13    1    3    3    0    0 -0.61613752987E+02 -0.21585795408E+02 -0.19356013398E+03  0.20427365612E+03  0.00000000000E+00 0.  1.
         21    1    1    2  503  501 -0.14060253240E+02  0.15884591535E+02 -0.63425764698E+01  0.22141346971E+02  0.00000000000E+00 0. -1.
         -2    1    1    2    0  502 -0.68879873747E+01 -0.39897532533E+02 -0.70901708977E+01  0.41103868378E+02  0.00000000000E+00 0.  1.
<scales pt_clust_5="13000.00000" pt_clust_6="13000.00000" pt_clust_7="13000.00000" pt_clust_8="13000.00000" pt_clust_9="21.21346" pt_clust_10="36.19309"></scales>
<clustering>
<clus scale="   21.213">  1  9  2 -1</clus>
<clus scale="   36.193">  1 10  2 -1</clus>
<clus scale="   89.921">  7  8 -1 -1</clus>
<clus scale="   90.899">  5  6 -1 -1</clus>
<clus scale="  112.245">  2  7  1 -1</clus>
<clus scale="   21.213">  1  5  2 -1</clus>
</clustering>
</event>
<event>
10    2  0.1671105E-006  0.1087142E+03  0.7546771E-02  0.1267028E+00
         21   -1    0    0  503  502  0.00000000000E+00  0.00000000000E+00  0.10402533452E+03  0.10402533452E+03  0.00000000000E+00 0. -1.
         -3   -1    0    0    0  501 -0.00000000000E+00 -0.00000000000E+00 -0.21610852013E+03  0.21610852013E+03  0.00000000000E+00 0.  1.
         23    2    1    2    0    0 -0.10564993141E+02 -0.66301541301E+02 -0.12208200396E+03  0.16843948359E+03  0.94659022192E+02 0.  0.
         23    2    1    2    0    0 -0.44441265560E+00  0.29216579438E+02 -0.67786336597E+01  0.90169171005E+02  0.85033661033E+02 0.  0.
        -13    1    4    4    0    0  0.11767830381E+02  0.45767346014E+02 -0.32412322011E+02  0.57303493883E+02  0.00000000000E+00 0.  1.
         13    1    4    4    0    0 -0.12212243037E+02 -0.16550766576E+02  0.25633688351E+02  0.32865677122E+02  0.00000000000E+00 0. -1.
        -13    1    3    3    0    0 -0.48527358977E+02 -0.58599328786E+02 -0.68893165476E+02  0.10264041189E+03  0.00000000000E+00 0. -1.
         13    1    3    3    0    0  0.37962365836E+02 -0.77022125155E+01 -0.53188838486E+02  0.65799071703E+02  0.00000000000E+00 0.  1.
         21    1    1    2  503  501 -0.71281461893E+01  0.28220440595E+02  0.26277573604E+02  0.39213704365E+02  0.00000000000E+00 0. -1.
         -3    1    1    2    0  502  0.18137551986E+02  0.88645212677E+01 -0.95001215899E+01  0.22311495682E+02  0.00000000000E+00 0.  1.
<scales pt_clust_5="13000.00000" pt_clust_6="13000.00000" pt_clust_7="13000.00000" pt_clust_8="13000.00000" pt_clust_9="31.21143" pt_clust_10="20.18789"></scales>
<clustering>
<clus scale="   20.188">  1 10  2 -1</clus>
<clus scale="   31.211">  1  9  2 -1</clus>
<clus scale="   85.034">  5  6 -1 -1</clus>
<clus scale="   94.659">  7  8 -1 -1</clus>
<clus scale="  100.445">  1  5  2 -1</clus>
<clus scale="   20.188">  1  5  2 -1</clus>
</clustering>
</event>
<event>
10    2  0.1671105E-006  0.9470559E+02  0.7546771E-02  0.1292794E+00
          1   -1    0    0  503    0 -0.00000000000E+00  0.00000000000E+00  0.26734513287E+03  0.26734513287E+03  0.00000000000E+00 0. -1.
         21   -1    0    0  501  502  0.00000000000E+00 -0.00000000000E+00 -0.59073088120E+03  0.59073088120E+03  0.00000000000E+00 0. -1.
         23    2    1    2    0    0  0.22063106117E+02  0.14606183004E+02  0.23176348173E+03  0.25079885728E+03  0.92117501691E+02 0.  0.
         23    2    1    2    0    0  0.59077950349E+02  0.17701741622E+02 -0.15423171011E+03  0.18911081996E+03  0.90398705457E+02 0.  0.
        -11    1    4    4    0    0  0.72267794059E+02 -0.15206466543E+02 -0.99842004528E+02  0.12418653933E+03  0.00000000000E+00 0. -1.
         11    1    4    4    0    0 -0.13189843710E+02  0.32908208165E+02 -0.54389705579E+02  0.64924280625E+02  0.00000000000E+00 0.  1.
        -11    1    3    3    0    0  0.44441823126E+01 -0.29903587585E+02  0.27063198716E+02  0.40575756698E+02  0.00000000000E+00 0.  1.
         11    1    3    3    0    0  0.17618923804E+02  0.44509770589E+02  0.20470028301E+03  0.21022310059E+03  0.00000000000E+00 0. -1.
         21    1    1    2  503  502 -0.50032530541E+02  0.16672340353E+02 -0.11635943494E+03  0.12775264828E+03  0.00000000000E+00 0. -1.
          1    1    1    2  501    0 -0.31108525925E+02 -0.48980264979E+02 -0.28455808502E+03  0.29041368854E+03  0.00000000000E+00 0. -1.
<scales pt_clust_5="13000.00000" pt_clust_6="13000.00000" pt_clust_7="13000.00000" pt_clust_8="13000.00000" pt_clust_9="52.73728" pt_clust_10="72.94443"></scales>
<clustering>
<clus scale="   52.737">  2  9  1 -1</clus>
<clus scale="   72.944">  2 10  1 -1</clus>
<clus scale="   90.399">  5  6 -1 -1</clus>
<clus scale="   92.118">  7  8 -1 -1</clus>
<clus scale="   93.035">  2  5  1 -1</clus>
<clus scale="   52.737">  2  5  1 -1</clus>
</clustering>
</event>
<event>
10    2  0.1671105E-006  0.1212209E+03  0.7546771E-02  0.1242793E+00
         -3   -1    0    0    0  501 -0.00000000000E+00  0.00000000000E+00  0.51560760945E+03  0.51560760945E+03  0.00000000000E+00 0.  1.
         21   -1    0    0  503  502  0.00000000000E+00 -0.00000000000E+00 -0.58377085873E+02  0.58377085873E+02  0.00000000000E+00 0. -1.
         23    2    1    2    0    0 -0.82766200359E+02 -0.20546500764E+02  0.25550536232E+03  0.28366687134E+03  0.88946619419E+02 0.  0.
         23    2    1    2    0    0  0.41944378064E+02  0.64093321575E+02  0.17337185973E+03  0.21168921841E+03  0.94272152430E+02 0.  0.
        -11    1    3    3    0    0 -0.10069523962E+03 -0.11365648939E+02  0.19284291288E+03  0.21784650171E+03  0.00000000000E+00 0. -1.
         11    1    3    3    0    0  0.17929039259E+02 -0.91808518252E+01  0.62662449435E+02  0.65820369630E+02  0.00000000000E+00 0.  1.
        -11    1    4    4    0    0  0.56549133436E+02  0.15745918133E+02  0.13818284535E+03  0.15013406402E+03  0.00000000000E+00 0.  1.
         11    1    4    4    0    0 -0.14604755372E+02  0.48347403442E+02  0.35189014379E+02  0.61555154391E+02  0.00000000000E+00 0. -1.
         21    1    1    2  503  501 -0.42969295703E+01 -0.19565823133E+02  0.17030888197E+02  0.26293272740E+02  0.00000000000E+00 0.  1.
         -3    1    1    2    0  502  0.45118751866E+02 -0.23980997678E+02  0.11322413339E+02  0.52335332839E+02  0.00000000000E+00 0.  1.
<scales pt_clust_5="13000.00000" pt_clust_6="13000.00000" pt_clust_7="13000.00000" pt_clust_8="13000.00000" pt_clust_9="20.03210" pt_clust_10="53.65923"></scales>
<clustering>
<clus scale="   20.032">  2  9  1 -1</clus>
<clus scale="   53.659">  2 10  1 -1</clus>
<clus scale="   88.947">  5  6 -1 -1</clus>
<clus scale="   94.272">  7  8 -1 -1</clus>
<clus scale="  117.127">  1  5  2 -1</clus>
<clus scale="   20.032">  2  5  1 -1</clus>
</clustering>
</event>
<event>
10    2  0.1671105E-006  0.9662427E+02  0.7546771E-02  0.1289458E+00
          1   -1    0    0  502    0 -0.00000000000E+00  0.00000000000E+00  0.23194079978E+03  0.23194079978E+03  0.00000000000E+00 0. -1.
         21   -1    0    0  503  502  0.00000000000E+00 -0.00000000000E+00 -0.18708988003E+03  0.18708988003E+03  0.00000000000E+00 0.  1.
         23    2    1    2    0    0 -0.10609853142E+02 -0.34436371777E+01  0.14163810916E+03  0.17036266033E+03  0.94008799854E+02 0.  0.
         23    2    1    2    0    0  0.93575420615E+02 -0.72912595526E+01 -0.39768305223E+02  0.13633110999E+03  0.90526966376E+02 0.  0.
        -11    1    4    4    0    0  0.54039846734E+02 -0.10621663656E+01 -0.68358301341E+02  0.87145227033E+02  0.00000000000E+00 0.  1.
         11    1    4    4    0    0  0.39535573881E+02 -0.62290931870E+01  0.28589996118E+02  0.49185882955E+02  0.00000000000E+00 0. -1.
        -13    1    3    3    0    0 -0.42261724647E+02  0.59580759373E+01  0.25712734538E+02  0.49826667122E+02  0.00000000000E+00 0. -1.
         13    1    3    3    0    0  0.31651871505E+02 -0.94017131150E+01  0.11592537462E+03  0.12053599321E+03  0.00000000000E+00 0.  1.
         21    1    1    2  503  501 -0.19798559148E+02 -0.17483185257E+02 -0.81758195800E+01  0.27649389449E+02  0.00000000000E+00 0.  1.
          1    1    1    2  501    0 -0.63167008325E+02  0.28218081987E+02 -0.48843064593E+02  0.84687520040E+02  0.00000000000E+00 0. -1.
<scales pt_clust_5="13000.00000" pt_clust_6="13000.00000" pt_clust_7="13000.00000" pt_clust_8="13000.00000" pt_clust_9="26.41296" pt_clust_10="74.11274"></scales>
<clustering>
<clus scale="   26.413">  2  9  1 -1</clus>
<clus scale="   74.113">  2 10  1 -1</clus>
<clus scale="   90.527">  5  6 -1 -1</clus>
<clus scale="   93.240">  2  5  1 -1</clus>
<clus scale="   94.009">  7  8 -1 -1</clus>
<clus scale="   26.413">  2  5  1 -1</clus>
</clustering>
</event>
<event>
10    2  0.1671105E-006  0.1567151E+03  0.7546771E-02  0.1192494E+00
         21   -1    0    0  503  502  0.00000000000E+00  0.00000000000E+00  0.17587673566E+03  0.17587673566E+03  0.00000000000E+00 0. -1.
          1   -1    0    0  502    0 -0.00000000000E+00 -0.00000000000E+00 -0.33327605387E+03  0.33327605387E+03  0.00000000000E+00 0. -1.
         23    2    1    2    0    0  0.99733931871E+02  0.43129346912E+02 -0.68086437832E+02  0.15750878644E+03  0.91467245825E+02 0.  0.
         23    2    1    2    0    0 -0.17669431557E+03  0.47341057461E+02 -0.43652396616E+02  0.20902885064E+03  0.91244023311E+02 0.  0.
        -11    1    4    4    0    0 -0.13703123664E+03  0.68715767172E+02 -0.11596662023E+02  0.15373320735E+03  0.00000000000E+00 0. -1.
         11    1    4    4    0    0 -0.39663078938E+02 -0.21374709711E+02 -0.32055734593E+02  0.55295643285E+02  0.00000000000E+00 0.  1.
        -11    1    3    3    0    0  0.25081790420E+02 -0.28633140739E+02 -0.23741373743E+02  0.44862075146E+02  0.00000000000E+00 0.  1.
         11    1    3    3    0    0  0.74652141451E+02  0.71762487651E+02 -0.44345064089E+02  0.11264671130E+03  0.00000000000E+00 0. -1.
         21    1    1    2  503  501  0.37484368639E+02 -0.43900966843E+01 -0.61089603443E+00  0.37745516756E+02  0.00000000000E+00 0. -1.
          1    1    1    2  501    0  0.39476015065E+02 -0.86080307689E+02 -0.45049587729E+02  0.10486963570E+03  0.00000000000E+00 0. -1.
<scales pt_clust_5="13000.00000" pt_clust_6="13000.00000" pt_clust_7="13000.00000" pt_clust_8="13000.00000" pt_clust_9="37.74057" pt_clust_10="98.62089"></scales>
<clustering>
<clus scale="   37.741">  1  9  2 -1</clus>
<clus scale="   91.244">  5  6 -1 -1</clus>
<clus scale="   91.467">  7  8 -1 -1</clus>
<clus scale="   98.621">  1 10  2 -1</clus>
<clus scale="  156.585">  1  5  2 -1</clus>
<clus scale="   37.741">  1  5  2 -1</clus>
</clustering>
</event>
<event>
10    2  0.1671105E-006  0.2106315E+03  0.7546771E-02  0.1161193E+00
          1   -1    0    0  503    0 -0.00000000000E+00  0.00000000000E+00  0.48452407946E+03  0.48452407946E+03  0.00000000000E+00 0. -1.
         21   -1    0    0  501  502  0.00000000000E+00 -0.00000000000E+00 -0.17375564340E+03  0.17375564340E+03  0.00000000000E+00 0. -1.
         23    2    1    2    0    0  0.69957695322E+02 -0.54688847939E+02  0.87299245677E+02  0.15457320838E+03  0.91579305685E+02 0.  0.
         23    2    1    2    0    0  0.11782831749E+03  0.13107754749E+03  0.17896176021E+03  0.27139294862E+03  0.10277151884E+03 0.  0.
        -11    1    3    3    0    0  0.42922032049E+02 -0.79732664824E+02  0.65471937667E+02  0.11174154687E+03  0.00000000000E+00 0. -1.
         11    1    3    3    0    0  0.27035663273E+02  0.25043816885E+02  0.21827308010E+02  0.42831661511E+02  0.00000000000E+00 0.  1.
        -13    1    4    4    0    0  0.51353537496E+02 -0.56030624522E+01  0.52766461740E+02  0.73843615884E+02  0.00000000000E+00 0.  1.
         13    1    4    4    0    0  0.66474779995E+02  0.13668060994E+03  0.12619529847E+03  0.19754933274E+03  0.00000000000E+00 0. -1.
         21    1    1    2  503  502  0.42879380492E+01 -0.29852275028E+02  0.24582140901E+01  0.30258677327E+02  0.00000000000E+00 0.  1.
          1    1    1    2  501    0 -0.19207395086E+03 -0.46536424521E+02  0.42049216082E+02  0.20205488853E+03  0.00000000000E+00 0. -1.
<scales pt_clust_5="13000.00000" pt_clust_6="13000.00000" pt_clust_7="13000.00000" pt_clust_8="13000.00000" pt_clust_9="30.15866" pt_clust_10="183.85769"></scales>
<clustering>
<clus scale="   30.159">  2  9  1 -1</clus>
<clus scale="   91.579">  5  6 -1 -1</clus>
<clus scale="  102.772">  7  8 -1 -1</clus>
<clus scale="  130.864">  1  5  2 -1</clus>
<clus scale="  183.858">  2 10  1 -1</clus>
<clus scale="   30.159">  2  5  1 -1</clus>
</clustering>
</event>
<event>
10    2  0.1671105E-006  0.1019705E+03  0.7546771E-02  0.1284032E+00
         -3   -1    0    0    0  501 -0.00000000000E+00  0.00000000000E+00  0.22845530239E+03  0.22845530239E+03  0.00000000000E+00 0.  1.
         21   -1    0    0  503  502  0.00000000000E+00 -0.00000000000E+00 -0.15399104910E+03  0.15399104910E+03  0.00000000000E+00 0.  1.
         23    2    1    2    0    0 -0.22521846417E+02  0.21746077743E+02  0.13066316168E+03  0.16238896169E+03  0.91198616195E+02 0.  0.
         23    2    1    2    0    0  0.60162069137E+02 -0.38427432319E+02 -0.12091018993E+02  0.10431449276E+03  0.75094464123E+02 0.  0.
        -11    1    3    3    0    0 -0.52551642657E+01  0.50629239562E+02  0.37181069304E+02  0.63034661613E+02  0.00000000000E+00 0.  1.
         11    1    3    3    0    0 -0.17266682151E+02 -0.28883161820E+02  0.93482092372E+02  0.99354300075E+02  0.00000000000E+00 0. -1.
        -13    1    4    4    0    0  0.27540648507E+02 -0.14608733270E+02 -0.43240361737E+02  0.53306953496E+02  0.00000000000E+00 0. -1.
         13    1    4    4    0    0  0.32621420630E+02 -0.23818699049E+02  0.31149342744E+02  0.51007539263E+02  0.00000000000E+00 0.  1.
         21    1    1    2  503  501 -0.18988132646E+02 -0.16095988907E+02  0.26087566486E+02  0.36058163645E+02  0.00000000000E+00 0. -1.
         -3    1    1    2    0  502 -0.18652090074E+02  0.32777343483E+02 -0.70195455880E+02  0.79684733394E+02  0.00000000000E+00 0.  1.
<scales pt_clust_5="13000.00000" pt_clust_6="13000.00000" pt_clust_7="13000.00000" pt_clust_8="13000.00000" pt_clust_9="24.89237" pt_clust_10="37.60686"></scales>
<clustering>
<clus scale="   24.892">  1  9  2 -1</clus>
<clus scale="   37.607">  2 10  1 -1</clus>
<clus scale="   75.094">  7  8 -1 -1</clus>
<clus scale="   87.863">  2  7  1 -1</clus>
<clus scale="   91.199">  5  6 -1 -1</clus>
<clus scale="   37.607">  2  5  1 -1</clus>
</clustering>
</event>
<event>
10    2  0.1671105E-006  0.1083600E+03  0.7546771E-02  0.1265125E+00
          1   -1    0    0  503    0 -0.00000000000E+00  0.00000000000E+00  0.31987543392E+03  0.31987543392E+03  0.00000000000E+00 0. -1.
         21   -1    0    0  501  502  0.00000000000E+00 -0.00000000000E+00 -0.12054576668E+03  0.12054576668E+03  0.00000000000E+00 0. -1.
         23    2    1    2    0    0  0.49447216456E+02 -0.90441963430E+01  0.79473831681E+02  0.13062839787E+03  0.90668978734E+02 0.  0.
         23    2    1    2    0    0 -0.69396772027E+02  0.64813526858E+01 -0.57480387427E+02  0.12538106669E+03  0.86939617243E+02 0.  0.
        -13    1    3    3    0    0  0.12517672383E+02 -0.24010906803E+02 -0.12924360841E+02  0.30004247542E+02  0.00000000000E+00 0. -1.
         13    1    3    3    0    0  0.36929544074E+02  0.14966710460E+02  0.92398192522E+02  0.10062415033E+03  0.00000000000E+00 0.  1.
        -13    1    4    4    0    0 -0.36708930468E+02 -0.40189391055E+02 -0.29227344032E+02  0.61781634558E+02  0.00000000000E+00 0. -1.
         13    1    4    4    0    0 -0.32687841559E+02  0.46670743741E+02 -0.28253043395E+02  0.63599432137E+02  0.00000000000E+00 0.  1.
         21    1    1    2  503  502  0.90863936743E+01 -0.21245499379E+02  0.10429149179E+03  0.10682063965E+03  0.00000000000E+00 0. -1.
          1    1    1    2  501    0  0.10863161896E+02  0.23808343037E+02  0.73044731189E+02  0.77591096390E+02  0.00000000000E+00 0. -1.
<scales pt_clust_5="13000.00000" pt_clust_6="13000.00000" pt_clust_7="13000.00000" pt_clust_8="13000.00000" pt_clust_9="23.10701" pt_clust_10="21.55564"></scales>
<clustering>
<clus scale="   23.107">  1  9  2 -1</clus>
<clus scale="   21.556">  2 10  1 -1</clus>
<clus scale="   86.940">  7  8 -1 -1</clus>
<clus scale="   90.669">  5  6 -1 -1</clus>
<clus scale="  105.259">  2  7  1 -1</clus>
<clus scale="   21.556">  2  5  1 -1</clus>
</clustering>
</event>
<event>
10    2  0.1671105E-006  0.1025530E+03  0.7546771E-02  0.1276040E+00
          1   -1    0    0  503    0 -0.00000000000E+00  0.00000000000E+00  0.34380813590E+03  0.34380813590E+03  0.00000000000E+00 0. -1.
         21   -1    0    0  501  502  0.00000000000E+00 -0.00000000000E+00 -0.12320842136E+03  0.12320842136E+03  0.00000000000E+00 0. -1.
         23    2    1    2    0    0 -0.65878381039E+02  0.23136292517E+02  0.18346906569E+03  0.21547563374E+03  0.88845942790E+02 0.  0.
         23    2    1    2    0    0  0.12585140840E+02 -0.20378183374E+02  0.95688513842E+02  0.13426870538E+03  0.91094113070E+02 0.  0.
        -11    1    3    3    0    0 -0.27916394957E+02  0.25083912310E+02  0.17159648331E+03  0.17565272799E+03  0.00000000000E+00 0. -1.
         11    1    3    3    0    0 -0.37961986082E+02 -0.19476197932E+01  0.11872582377E+02  0.39822905750E+02  0.00000000000E+00 0.  1.
        -13    1    4    4    0    0  0.37345743173E+02 -0.45524145441E+02  0.58578485974E+02  0.83057759242E+02  0.00000000000E+00 0.  1.
         13    1    4    4    0    0 -0.24760602333E+02  0.25145962067E+02  0.37110027867E+02  0.51210946140E+02  0.00000000000E+00 0. -1.
         21    1    1    2  503  502  0.54167428814E+02  0.34517375458E+02 -0.39410364164E+02  0.75357390855E+02  0.00000000000E+00 0. -1.
          1    1    1    2  501    0 -0.87418861492E+00 -0.37275484601E+02 -0.19147500828E+02  0.41914827280E+02  0.00000000000E+00 0. -1.
<scales pt_clust_5="13000.00000" pt_clust_6="13000.00000" pt_clust_7="13000.00000" pt_clust_8="13000.00000" pt_clust_9="54.83222" pt_clust_10="37.28573"></scales>
<clustering>
<clus scale="   37.286">  2 10  1 -1</clus>
<clus scale="   54.832">  2  9  1 -1</clus>
<clus scale="   88.846">  5  6 -1 -1</clus>
<clus scale="   91.094">  7  8 -1 -1</clus>
<clus scale="  100.561">  1  5  2 -1</clus>
<clus scale="   37.286">  2  5  1 -1</clus>
</clustering>
</event>
<event>
10    2  0.1671105E-006  0.1689449E+03  0.7546771E-02  0.1210477E+00
          1   -1    0    0  502    0 -0.00000000000E+00  0.00000000000E+00  0.55001725736E+03  0.55001725736E+03  0.00000000000E+00 0. -1.
         21   -1    0    0  503  502  0.00000000000E+00 -0.00000000000E+00 -0.99961915831E+02  0.99961915831E+02  0.00000000000E+00 0. -1.
         23    2    1    2    0    0  0.22789462482E+02 -0.11583656500E+02 -0.71172570915E+01  0.84951413065E+02  0.80700350279E+02 0.  0.
         23    2    1    2    0    0 -0.15294400373E+03 -0.23084090150E+02  0.32822549999E+03  0.37468811804E+03  0.93458351451E+02 0.  0.
        -13    1    3    3    0    0  0.44113684412E+02  0.67568143767E+01 -0.25452880922E+02  0.51376267285E+02  0.00000000000E+00 0. -1.
         13    1    3    3    0    0 -0.21324221930E+02 -0.18340470877E+02  0.18335623830E+02  0.33575145780E+02  0.00000000000E+00 0.  1.
        -13    1    4    4    0    0 -0.10361767883E+03 -0.59197402339E+02  0.20756802621E+03  0.23942731949E+03  0.00000000000E+00 0.  1.
         13    1    4    4    0    0 -0.49326324901E+02  0.36113312189E+02  0.12065747378E+03  0.13526079855E+03  0.00000000000E+00 0. -1.
         21    1    1    2  503  501  0.67866178613E+02  0.27325524378E+01  0.79902765337E+02  0.10487009560E+03  0.00000000000E+00 0. -1.
          1    1    1    2  501    0  0.62288362638E+02  0.31935194212E+02  0.49044333290E+02  0.85469546491E+02  0.00000000000E+00 0. -1.
<scales pt_clust_5="13000.00000" pt_clust_6="13000.00000" pt_clust_7="13000.00000" pt_clust_8="13000.00000" pt_clust_9="37.63589" pt_clust_10="145.83445"></scales>
<clustering>
<clus scale="   37.636">  9 10 -1 -1</clus>
<clus scale="   80.700">  5  6 -1 -1</clus>
<clus scale="   84.653">  1  5  2 -1</clus>
<clus scale="   93.458">  7  8 -1 -1</clus>
<clus scale="  145.834">  2  9  1 -1</clus>
<clus scale="  145.834">  2  5  1 -1</clus>
</clustering>
</event>
<event>
10    2  0.1671105E-006  0.1017654E+03  0.7546771E-02  0.1276850E+00
         21   -1    0    0  503  502  0.00000000000E+00  0.00000000000E+00  0.10219165250E+03  0.10219165250E+03  0.00000000000E+00 0.  1.
         -3   -1    0    0    0  501 -0.00000000000E+00 -0.00000000000E+00 -0.35231945273E+03  0.35231945273E+03  0.00000000000E+00 0.  1.
         23    2    1    2    0    0  0.46413083640E+02 -0.42535697757E+02 -0.17701921651E+03  0.20896151188E+03  0.91463930157E+02 0.  0.
         23    2    1    2    0    0 -0.15000559469E+02  0.19530964902E+02 -0.10821808457E+03  0.14351002938E+03  0.90980763514E+02 0.  0.
        -11    1    3    3    0    0 -0.26877970205E+02 -0.12446240339E+01 -0.41855181668E+02  0.49757719037E+02  0.00000000000E+00 0. -1.
         11    1    3    3    0    0  0.73291053846E+02 -0.41291073723E+02 -0.13516403484E+03  0.15920379285E+03  0.00000000000E+00 0.  1.
        -11    1    4    4    0    0  0.27005216762E+02 -0.88752934986E+01 -0.54950410477E+01  0.28952513590E+02  0.00000000000E+00 0. -1.
         11    1    4    4    0    0 -0.42005776231E+02  0.28406258400E+02 -0.10272304352E+03  0.11455751579E+03  0.00000000000E+00 0.  1.
         21    1    1    2  503  501 -0.43788068409E+02 -0.22035685235E+02  0.15901244760E+02  0.51534609183E+02  0.00000000000E+00 0.  1.
         -3    1    1    2    0  502  0.12375544237E+02  0.45040418090E+02  0.19208256086E+02  0.50504954794E+02  0.00000000000E+00 0.  1.
<scales pt_clust_5="13000.00000" pt_clust_6="13000.00000" pt_clust_7="13000.00000" pt_clust_8="13000.00000" pt_clust_9="37.59460" pt_clust_10="46.70967"></scales>
<clustering>
<clus scale="   46.710">  1 10  2 -1</clus>
<clus scale="   37.595">  1  9  2 -1</clus>
<clus scale="   90.981">  7  8 -1 -1</clus>
<clus scale="   91.464">  5  6 -1 -1</clus>
<clus scale="  101.331">  1  7  2 -1</clus>
<clus scale="   46.710">  1  5  2 -1</clus>
</clustering>
</event>
<event>
10    2  0.1671105E-006  0.9140850E+02  0.7546771E-02  0.1300917E+00
         21   -1    0    0  503  502  0.00000000000E+00  0.00000000000E+00  0.27470939073E+03  0.27470939073E+03  0.00000000000E+00 0. -1.
          3   -1    0    0  502    0 -0.00000000000E+00 -0.00000000000E+00 -0.82036392504E+02  0.82036392504E+02  0.00000000000E+00 0. -1.
         23    2    1    2    0    0 -0.24792713230E+02 -0.58891456222E+01  0.14754731940E+02  0.93572297165E+02  0.88818421607E+02 0.  0.
         23    2    1    2    0    0 -0.51896034048E+02 -0.39964586898E+01  0.13633865288E+03  0.17209961680E+03  0.91218856617E+02 0.  0.
        -11    1    4    4    0    0 -0.55694449221E+02  0.34129592398E+02  0.98946917674E+02  0.11856303500E+03  0.00000000000E+00 0. -1.
         11    1    4    4    0    0  0.37984151735E+01 -0.38126051088E+02  0.37391735209E+02  0.53536581804E+02  0.00000000000E+00 0.  1.
        -13    1    3    3    0    0  0.27727082656E+02  0.18741120508E+02  0.11809196605E+02  0.35489122769E+02  0.00000000000E+00 0.  1.
         13    1    3    3    0    0 -0.52519795885E+02 -0.24630266130E+02  0.29455353348E+01  0.58083174396E+02  0.00000000000E+00 0. -1.
         21    1    1    2  503  501  0.36854893123E+02  0.39496897603E+01  0.33576586567E+02  0.50012702005E+02  0.00000000000E+00 0.  1.
          3    1    1    2  501    0  0.39833854155E+02  0.59359145517E+01  0.80030268397E+01  0.41061167263E+02  0.00000000000E+00 0. -1.
<scales pt_clust_5="13000.00000" pt_clust_6="13000.00000" pt_clust_7="13000.00000" pt_clust_8="13000.00000" pt_clust_9="23.23718" pt_clust_10="81.02834"></scales>
<clustering>
<clus scale="   23.237">  9 10 -1 -1</clus>
<clus scale="   81.028">  1  9  2 -1</clus>
<clus scale="   88.818">  7  8 -1 -1</clus>
<clus scale="   89.013">  2  7  1 -1</clus>
<clus scale="   91.219">  5  6 -1 -1</clus>
<clus scale="   81.028">  1  5  2 -1</clus>
</clustering>
</event>
<event>
10    2  0.1671105E-006  0.1558062E+03  0.7546771E-02  0.1194316E+00
         21   -1    0    0  503  502  0.00000000000E+00  0.00000000000E+00  0.26629366095E+03  0.26629366095E+03  0.00000000000E+00 0. -1.
         -2   -1    0    0    0  501 -0.00000000000E+00 -0.00000000000E+00 -0.13773510057E+03  0.13773510057E+03  0.00000000000E+00 0.  1.
         23    2    1    2    0    0 -0.55548835876E+02 -0.11888549577E+03  0.32550837293E+02  0.16363089043E+03  0.92174166790E+02 0.  0.
         23    2    1    2    0    0  0.12660990241E+02  0.11776781034E+03  0.64420292578E+02  0.16587516474E+03  0.96618002221E+02 0.  0.
        -13    1    3    3    0    0 -0.81480183923E+02 -0.93779966376E+02  0.23793729839E+02  0.12649048994E+03  0.00000000000E+00 0. -1.
         13    1    3    3    0    0  0.25931348047E+02 -0.25105529393E+02  0.87571074537E+01  0.37140400491E+02  0.00000000000E+00 0.  1.
        -13    1    4    4    0    0  0.23631193053E+02  0.70951959498E+01 -0.15306307997E+02  0.29035463750E+02  0.00000000000E+00 0.  1.
         13    1    4    4    0    0 -0.10970202812E+02  0.11067261439E+03  0.79726600575E+02  0.13683970099E+03  0.00000000000E+00 0. -1.
         21    1    1    2  503  501  0.18155167547E+02  0.93904160302E+01 -0.12019652927E+02  0.23712066092E+02  0.00000000000E+00 0. -1.
         -2    1    1    2    0  502  0.24732678088E+02 -0.82727306048E+01  0.43607083439E+02  0.50810640255E+02  0.00000000000E+00 0.  1.
<scales pt_clust_5="13000.00000" pt_clust_6="13000.00000" pt_clust_7="13000.00000" pt_clust_8="13000.00000" pt_clust_9="20.43991" pt_clust_10="26.51106"></scales>
<clustering>
<clus scale="   20.440">  2  9  1 -1</clus>
<clus scale="   26.511">  1 10  2 -1</clus>
<clus scale="   92.174">  5  6 -1 -1</clus>
<clus scale="   96.618">  7  8 -1 -1</clus>
<clus scale="  153.090">  2  5  1 -1</clus>
<clus scale="   26.511">  1  5  2 -1</clus>
</clustering>
</event>
<event>
10    2  0.1671105E-006  0.1935756E+03  0.7546771E-02  0.1177711E+00
          1   -1    0    0  503    0 -0.00000000000E+00  0.00000000000E+00  0.51702446177E+03  0.51702446177E+03  0.00000000000E+00 0. -1.
         21   -1    0    0  501  502  0.00000000000E+00 -0.00000000000E+00 -0.14323655798E+03  0.14323655798E+03  0.00000000000E+00 0.  1.
         23    2    1    2    0    0 -0.32977190129E+02 -0.54096875879E+02  0.17326814559E+03  0.20573576113E+03  0.91057048520E+02 0.  0.
         23    2    1    2    0    0  0.18602302839E+03 -0.34448816681E+02  0.14178200318E+03  0.25350040073E+03  0.91482395487E+02 0.  0.
        -11    1    4    4    0    0  0.11491346367E+03  0.12770346445E+01  0.34620850937E+02  0.12002224073E+03  0.00000000000E+00 0.  1.
         11    1    4    4    0    0  0.71109564714E+02 -0.35725851326E+02  0.10716115224E+03  0.13347816000E+03  0.00000000000E+00 0. -1.
        -13    1    3    3    0    0 -0.44095639031E+02  0.45001148570E+01  0.11094779144E+03  0.11947421831E+03  0.00000000000E+00 0. -1.
         13    1    3    3    0    0  0.11118448902E+02 -0.58596990736E+02  0.62320354147E+02  0.86261542824E+02  0.00000000000E+00 0.  1.
         21    1    1    2  503  502 -0.19061839196E+02 -0.11511836118E+02  0.18694797670E+02  0.29075273761E+02  0.00000000000E+00 0. -1.
          1    1    1    2  501    0 -0.13398399906E+03  0.10005752868E+03  0.40042957356E+02  0.17194958413E+03  0.00000000000E+00 0. -1.
<scales pt_clust_5="13000.00000" pt_clust_6="13000.00000" pt_clust_7="13000.00000" pt_clust_8="13000.00000" pt_clust_9="22.26828" pt_clust_10="170.59447"></scales>
<clustering>
<clus scale="   22.268">  1  9  2 -1</clus>
<clus scale="   91.057">  7  8 -1 -1</clus>
<clus scale="   91.482">  5  6 -1 -1</clus>
<clus scale="  115.500">  1  7  2 -1</clus>
<clus scale="  170.594">  2 10  1 -1</clus>
<clus scale="  170.594">  2  5  1 -1</clus>
</clustering>
</event>
<event>
10    2  0.1671105E-006  0.2696585E+03  0.7546771E-02  0.1120527E+00
         -4   -1    0    0    0  501 -0.00000000000E+00  0.00000000000E+00  0.11778993607E+03  0.11778993607E+03  0.00000000000E+00 0.  1.
         21   -1    0    0  501  502  0.00000000000E+00 -0.00000000000E+00 -0.11805884365E+04  0.11805884365E+04  0.00000000000E+00 0.  1.
         23    2    1    2    0    0  0.11447732685E+02 -0.11656614220E+03 -0.29696335109E+03  0.34027056098E+03  0.11780537631E+03 0.  0.
         23    2    1    2    0    0 -0.25275947072E+03  0.15708418874E+02 -0.20555164644E+03  0.33899444757E+03  0.92366940332E+02 0.  0.
        -11    1    4    4    0    0 -0.22053344761E+03 -0.12823634230E+02 -0.19504312526E+03  0.29468842499E+03  0.00000000000E+00 0.  1.
         11    1    4    4    0    0 -0.32226023101E+02  0.28532053104E+02 -0.10508521182E+02  0.44306022578E+02  0.00000000000E+00 0. -1.
        -13    1    3    3    0    0 -0.38327579960E+02 -0.94934341551E+02 -0.24322752100E+03  0.26389611510E+03  0.00000000000E+00 0.  1.
         13    1    3    3    0    0  0.49775312645E+02 -0.21631800649E+02 -0.53735830081E+02  0.76374445876E+02  0.00000000000E+00 0. -1.
         21    1    1    2  503  502  0.13726485554E+03  0.46724790779E+02 -0.33787223629E+03  0.36767172136E+03  0.00000000000E+00 0.  1.
         -4    1    1    2    0  503  0.10404688249E+03  0.54132932548E+02 -0.22241126666E+03  0.25144164269E+03  0.00000000000E+00 0.  1.
<scales pt_clust_5="13000.00000" pt_clust_6="13000.00000" pt_clust_7="13000.00000" pt_clust_8="13000.00000" pt_clust_9="28.15660" pt_clust_10="255.27278"></scales>
<clustering>
<clus scale="   28.157">  9 10 -1 -1</clus>
<clus scale="   92.367">  5  6 -1 -1</clus>
<clus scale="  117.805">  7  8 -1 -1</clus>
<clus scale="  166.123">  1  7  2 -1</clus>
<clus scale="  255.273">  2  9  1 -1</clus>
<clus scale="  255.273">  2  5  1 -1</clus>
</clustering>
</event>
<event>
10    2  0.1671105E-006  0.1300403E+03  0.7546771E-02  0.1227488E+00
          2   -1    0    0  503    0 -0.00000000000E+00  0.00000000000E+00  0.53433979922E+03  0.53433979922E+03  0.00000000000E+00 0. -1.
         21   -1    0    0  501  502  0.00000000000E+00 -0.00000000000E+00 -0.17959770437E+03  0.17959770437E+03  0.00000000000E+00 0. -1.
         23    2    1    2    0    0 -0.82256538180E+02 -0.47117249060E+02  0.46654567539E+03  0.48497219274E+03  0.92449917646E+02 0.  0.
         23    2    1    2    0    0  0.32502479624E+02  0.36581858001E+02 -0.86411484630E+02  0.13591609555E+03  0.92798689847E+02 0.  0.
        -11    1    4    4    0    0 -0.29700484409E+02  0.40364892403E+01 -0.46027602258E+02  0.54926789357E+02  0.00000000000E+00 0. -1.
         11    1    4    4    0    0  0.62202964033E+02  0.32545368760E+02 -0.40383882372E+02  0.80989306193E+02  0.00000000000E+00 0.  1.
        -13    1    3    3    0    0  0.22569660196E+01  0.22369369998E+02  0.64562502422E+02  0.68365190914E+02  0.00000000000E+00 0.  1.
         13    1    3    3    0    0 -0.84513504200E+02 -0.69486619058E+02  0.40198317297E+03  0.41660700183E+03  0.00000000000E+00 0. -1.
         21    1    1    2  503  502 -0.14554336626E+02 -0.14456234008E+02 -0.52350063381E+01  0.21171129107E+02  0.00000000000E+00 0.  1.
          2    1    1    2  501    0  0.64308395183E+02  0.24991625067E+02 -0.20157089582E+02  0.71878086193E+02  0.00000000000E+00 0. -1.
<scales pt_clust_5="13000.00000" pt_clust_6="13000.00000" pt_clust_7="13000.00000" pt_clust_8="13000.00000" pt_clust_9="20.51369" pt_clust_10="63.83423"></scales>
<clustering>
<clus scale="   20.514">  2  9  1 -1</clus>
<clus scale="   63.834">  2 10  1 -1</clus>
<clus scale="   92.450">  7  8 -1 -1</clus>
<clus scale="   92.799">  5  6 -1 -1</clus>
<clus scale="  129.792">  1  7  2 -1</clus>
<clus scale="   20.514">  2  5  1 -1</clus>
</clustering>
</event>
<event>
10    2  0.1671105E-006  0.1133924E+03  0.7546771E-02  0.1255594E+00
          2   -1    0    0  503    0 -0.00000000000E+00  0.00000000000E+00  0.91900304368E+03  0.91900304368E+03  0.00000000000E+00 0. -1.
         21   -1    0    0  501  502  0.00000000000E+00 -0.00000000000E+00 -0.15115434051E+03  0.15115434051E+03  0.00000000000E+00 0. -1.
         23    2    1    2    0    0 -0.25568435641E+02  0.10619629114E+03  0.46698316655E+03  0.48845689888E+03  0.92657795519E+02 0.  0.
         23    2    1    2    0    0 -0.25131094833E+02  0.32532235291E+00 -0.98226332725E+02  0.13519552159E+03  0.89430078026E+02 0.  0.
        -11    1    4    4    0    0  0.24865090976E+02  0.86730369963E+00  0.10730378649E+00  0.24880443707E+02  0.00000000000E+00 0.  1.
         11    1    4    4    0    0 -0.49996185809E+02 -0.54198134672E+00 -0.98333636512E+02  0.11031507789E+03  0.00000000000E+00 0. -1.
        -13    1    3    3    0    0 -0.44860683433E+02  0.11358826330E+03  0.38470060918E+03  0.40362028341E+03  0.00000000000E+00 0. -1.
         13    1    3    3    0    0  0.19292247792E+02 -0.73919721556E+01  0.82282557367E+02  0.84836615468E+02  0.00000000000E+00 0.  1.
         21    1    1    2  503  502 -0.32966004477E+02 -0.67376503329E+02  0.30714976090E+03  0.31617610009E+03  0.00000000000E+00 0. -1.
          2    1    1    2  501    0  0.83665534951E+02 -0.39145110164E+02  0.91942108458E+02  0.13032886363E+03  0.00000000000E+00 0. -1.
<scales pt_clust_5="13000.00000" pt_clust_6="13000.00000" pt_clust_7="13000.00000" pt_clust_8="13000.00000" pt_clust_9="75.00900" pt_clust_10="93.14777"></scales>
<clustering>
<clus scale="   75.009">  1  9  2 -1</clus>
<clus scale="   89.430">  5  6 -1 -1</clus>
<clus scale="   92.658">  7  8 -1 -1</clus>
<clus scale="   93.148">  2 10  1 -1</clus>
<clus scale="  110.771">  2  5  1 -1</clus>
<clus scale="   93.148">  2  5  1 -1</clus>
</clustering>
</event>
<event>
10    2  0.1671105E-006  0.1016985E+03  0.7546771E-02  0.1280369E+00
          1   -1    0    0  503    0 -0.00000000000E+00  0.00000000000E+00  0.14344994465E+03  0.14344994465E+03  0.00000000000E+00 0. -1.
         21   -1    0    0  501  502  0.00000000000E+00 -0.00000000000E+00 -0.34209470038E+03  0.34209470038E+03  0.00000000000E+00 0.  1.
         23    2    1    2    0    0 -0.22188161364E+02  0.12339238124E+02  0.51712920919E+02  0.11196212853E+03  0.96003753745E+02 0.  0.
         23    2    1    2    0    0  0.98827407529E+02 -0.52074603995E+01 -0.10755959899E+03  0.17102926510E+03  0.88814233449E+02 0.  0.
        -11    1    4    4    0    0  0.72271849557E+02 -0.15985136055E+01 -0.13903732145E+02  0.73614463603E+02  0.00000000000E+00 0. -1.
         11    1    4    4    0    0  0.26555557972E+02 -0.36089467940E+01 -0.93655866844E+02  0.97414801496E+02  0.00000000000E+00 0.  1.
        -13    1    3    3    0    0  0.47109594743E+01  0.21894088928E+02  0.72996893894E+02  0.76355031186E+02  0.00000000000E+00 0. -1.
         13    1    3    3    0    0 -0.26899120838E+02 -0.95548508046E+01 -0.21283972976E+02  0.35607097345E+02  0.00000000000E+00 0.  1.
         21    1    1    2  503  502  0.15898915563E+02 -0.32784785687E+02 -0.84311848842E+01  0.37399232173E+02  0.00000000000E+00 0.  1.
          1    1    1    2  501    0 -0.92538161729E+02  0.25653007962E+02 -0.13436689277E+03  0.16515401923E+03  0.00000000000E+00 0. -1.
<scales pt_clust_5="13000.00000" pt_clust_6="13000.00000" pt_clust_7="13000.00000" pt_clust_8="13000.00000" pt_clust_9="36.43649" pt_clust_10="93.21109"></scales>
<clustering>
<clus scale="   36.436">  1  9  2 -1</clus>
<clus scale="   88.814">  5  6 -1 -1</clus>
<clus scale="   93.211">  2 10  1 -1</clus>
<clus scale="   94.941">  2  5  1 -1</clus>
<clus scale="   96.004">  7  8 -1 -1</clus>
<clus scale="   93.211">  2  5  1 -1</clus>
</clustering>
</event>
<event>
10    2  0.1671105E-006  0.1231760E+03  0.7546771E-02  0.1241350E+00
          1   -1    0    0  503    0 -0.00000000000E+00  0.00000000000E+00  0.45366210967E+03  0.45366210967E+03  0.00000000000E+00 0. -1.
         21   -1    0    0  501  502  0.00000000000E+00 -0.00000000000E+00 -0.77770551278E+02  0.77770551278E+02  0.00000000000E+00 0. -1.
         23    2    1    2    0    0 -0.21593319550E+02 -0.10910448728E+03  0.25925808421E+03  0.29188310705E+03  0.74906163682E+02 0.  0.
         23    2    1    2    0    0 -0.54011284226E+01  0.59046109742E+02  0.11787103421E+03  0.15804852831E+03  0.87006559124E+02 0.  0.
        -11    1    4    4    0    0 -0.31380273427E+02  0.64937272397E+02  0.58110665707E+02  0.92619762338E+02  0.00000000000E+00 0.  1.
         11    1    4    4    0    0  0.25979145004E+02 -0.58911626548E+01  0.59760368507E+02  0.65428765972E+02  0.00000000000E+00 0. -1.
        -13    1    3    3    0    0 -0.37819318648E+02 -0.92923706783E+02  0.24537035489E+03  0.26508814987E+03  0.00000000000E+00 0. -1.
         13    1    3    3    0    0  0.16225999098E+02 -0.16180780500E+02  0.13887729323E+02  0.26794957176E+02  0.00000000000E+00 0.  1.
         21    1    1    2  503  502  0.34949764737E+02  0.18627543109E+02  0.18321175921E+02  0.43636417183E+02  0.00000000000E+00 0. -1.
          1    1    1    2  501    0 -0.79553167646E+01  0.31430834431E+02 -0.19558735951E+02  0.37864608408E+02  0.00000000000E+00 0. -1.
<scales pt_clust_5="13000.00000" pt_clust_6="13000.00000" pt_clust_7="13000.00000" pt_clust_8="13000.00000" pt_clust_9="42.39213" pt_clust_10="32.42197"></scales>
<clustering>
<clus scale="   32.422">  2 10  1 -1</clus>
<clus scale="   42.392">  2  9  1 -1</clus>
<clus scale="   74.906">  7  8 -1 -1</clus>
<clus scale="   87.007">  5  6 -1 -1</clus>
<clus scale="  114.948">  1  7  2 -1</clus>
<clus scale="   32.422">  2  5  1 -1</clus>
</clustering>
</event>
<event>
10    2  0.1671105E-006  0.1703972E+03  0.7546771E-02  0.1197897E+00
          2   -1    0    0  502    0 -0.00000000000E+00  0.00000000000E+00  0.87692162961E+03  0.87692162961E+03  0.00000000000E+00 0. -1.
         21   -1    0    0  503  502  0.00000000000E+00 -0.00000000000E+00 -0.63121677861E+02  0.63121677861E+02  0.00000000000E+00 0. -1.
         23    2    1    2    0    0 -0.51051225148E+02 -0.33697976780E+02  0.21668005937E+03  0.24220192701E+03  0.89273423184E+02 0.  0.
         23    2    1    2    0    0 -0.16800535875E+02  0.15844597095E+03  0.45464173134E+03  0.49018580922E+03  0.90529773950E+02 0.  0.
        -11    1    3    3    0    0 -0.52221216570E+01 -0.28455878549E+02  0.10269145684E+02  0.30699559145E+02  0.00000000000E+00 0.  1.
         11    1    3    3    0    0 -0.45829103491E+02 -0.52420982303E+01  0.20641091369E+03  0.21150236786E+03  0.00000000000E+00 0. -1.
        -11    1    4    4    0    0 -0.45669378165E+02  0.11746888824E+03  0.25635446434E+03  0.28566106349E+03  0.00000000000E+00 0. -1.
         11    1    4    4    0    0  0.28868842290E+02  0.40977082701E+02  0.19828726700E+03  0.20452474573E+03  0.00000000000E+00 0.  1.
         21    1    1    2  503  501 -0.29092872020E+01 -0.34513230468E+02  0.47334348574E+02  0.58652941821E+02  0.00000000000E+00 0. -1.
          2    1    1    2  501    0  0.70761048225E+02 -0.90234763698E+02  0.95143812465E+02  0.14900262943E+03  0.00000000000E+00 0. -1.
<scales pt_clust_5="13000.00000" pt_clust_6="13000.00000" pt_clust_7="13000.00000" pt_clust_8="13000.00000" pt_clust_9="28.31768" pt_clust_10="153.27895"></scales>
<clustering>
<clus scale="   28.318">  9 10 -1 -1</clus>
<clus scale="   89.273">  5  6 -1 -1</clus>
<clus scale="   90.530">  7  8 -1 -1</clus>
<clus scale="  108.220">  1  5  2 -1</clus>
<clus scale="  153.279">  2  9  1 -1</clus>
<clus scale="  153.279">  2  5  1 -1</clus>
</clustering>
</event>
<event>
10    2  0.1671105E-006  0.9527179E+02  0.7546771E-02  0.1291947E+00
          1   -1    0    0  503    0 -0.00000000000E+00  0.00000000000E+00  0.39084876077E+03  0.39084876077E+03  0.00000000000E+00 0. -1.
         21   -1    0    0  501  502  0.00000000000E+00 -0.00000000000E+00 -0.75232786808E+02  0.75232786808E+02  0.00000000000E+00 0. -1.
         23    2    1    2    0    0 -0.90816126733E+01 -0.25438325250E+02  0.21570798148E+03  0.23613337127E+03  0.92192470804E+02 0.  0.
         23    2    1    2    0    0  0.38072967289E+02 -0.59638966982E+01  0.10272810622E+03  0.14170579786E+03  0.89679152751E+02 0.  0.
        -11    1    4    4    0    0  0.22809178181E+02  0.41577870853E+02  0.44947147056E+02  0.65339298913E+02  0.00000000000E+00 0.  1.
         11    1    4    4    0    0  0.15263789107E+02 -0.47541767551E+02  0.57780959163E+02  0.76366498948E+02  0.00000000000E+00 0. -1.
        -13    1    3    3    0    0 -0.42472180352E+02  0.10763555734E+02  0.72698055489E+02  0.84880784090E+02  0.00000000000E+00 0. -1.
         13    1    3    3    0    0  0.33390567678E+02 -0.36201880984E+02  0.14300992599E+03  0.15125258718E+03  0.00000000000E+00 0.  1.
         21    1    1    2  503  502 -0.22518663257E+02 -0.16050290925E+02  0.21029049049E+02  0.34740796444E+02  0.00000000000E+00 0.  1.
          1    1    1    2  501    0 -0.64726913586E+01  0.47452512873E+02 -0.23849162786E+02  0.53501582004E+02  0.00000000000E+00 0. -1.
<scales pt_clust_5="13000.00000" pt_clust_6="13000.00000" pt_clust_7="13000.00000" pt_clust_8="13000.00000" pt_clust_9="27.65325" pt_clust_10="42.91372"></scales>
<clustering>
<clus scale="   27.653">  2  9  1 -1</clus>
<clus scale="   42.914">  2 10  1 -1</clus>
<clus scale="   89.679">  5  6 -1 -1</clus>
<clus scale="   92.192">  7  8 -1 -1</clus>
<clus scale="   92.842">  2  5  1 -1</clus>
<clus scale="   27.653">  2  5  1 -1</clus>
</clustering>
</event>
<event>
10    2  0.1671105E-006  0.2354512E+03  0.7546771E-02  0.1122883E+00
         21   -1    0    0  501  502  0.00000000000E+00  0.00000000000E+00  0.16193380310E+03  0.16193380310E+03  0.00000000000E+00 0. -1.
          2   -1    0    0  503    0 -0.00000000000E+00 -0.00000000000E+00 -0.13305425215E+04  0.13305425215E+04  0.00000000000E+00 0. -1.
         23    2    1    2    0    0 -0.18931909053E+03 -0.10067029984E+02 -0.41974240821E+03  0.46915389942E+03  0.89323171454E+02 0.  0.
         23    2    1    2    0    0  0.20111630002E+03  0.19156117296E+03 -0.76742314145E+03  0.82097374285E+03  0.88972800948E+02 0.  0.
        -11    1    4    4    0    0  0.53106336699E+02  0.35180943690E+02 -0.90801492915E+02  0.11091840655E+03  0.00000000000E+00 0.  1.
         11    1    4    4    0    0  0.14800996332E+03  0.15638022927E+03 -0.67662164853E+03  0.71005533630E+03  0.00000000000E+00 0. -1.
        -13    1    3    3    0    0 -0.10967022040E+03  0.37534912547E+02 -0.21171291270E+03  0.24136856529E+03  0.00000000000E+00 0. -1.
         13    1    3    3    0    0 -0.79648870129E+02 -0.47601942532E+02 -0.20802949551E+03  0.22778533413E+03  0.00000000000E+00 0.  1.
         21    1    1    2  503  502  0.16762751803E+02 -0.52509236142E+02 -0.28571763943E+02  0.62085066023E+02  0.00000000000E+00 0. -1.
          2    1    1    2  501    0 -0.28559961290E+02 -0.12898490683E+03  0.47128595177E+02  0.14026361632E+03  0.00000000000E+00 0. -1.
<scales pt_clust_5="13000.00000" pt_clust_6="13000.00000" pt_clust_7="13000.00000" pt_clust_8="13000.00000" pt_clust_9="55.11996" pt_clust_10="163.83734"></scales>
<clustering>
<clus scale="   55.120">  1  9  2 -1</clus>
<clus scale="   88.973">  5  6 -1 -1</clus>
<clus scale="   89.323">  7  8 -1 -1</clus>
<clus scale="  163.837">  1 10  2 -1</clus>
<clus scale="  235.319">  1  5  2 -1</clus>
<clus scale="   55.120">  1  5  2 -1</clus>
</clustering>
</event>
<event>
10    2  0.1671105E-006  0.1122975E+03  0.7546771E-02  0.1256449E+00
         -2   -1    0    0    0  501 -0.00000000000E+00  0.00000000000E+00  0.10392633024E+04  0.10392633024E+04  0.00000000000E+00 0.  1.
         21   -1    0    0  503  502  0.00000000000E+00 -0.00000000000E+00 -0.68022826337E+02  0.68022826337E+02  0.00000000000E+00 0. -1.
         23    2    1    2    0    0  0.98451824424E+02 -0.69280069819E+02  0.71497381287E+03  0.73078537641E+03  0.91472528541E+02 0.  0.
         23    2    1    2    0    0 -0.51332695401E+02 -0.37708291930E+02  0.10108456694E+03  0.15059781007E+03  0.91676877272E+02 0.  0.
        -11    1    3    3    0    0 -0.13805766635E+01 -0.49065696423E+02  0.21320160584E+03  0.21877905130E+03  0.00000000000E+00 0.  1.
         11    1    3    3    0    0  0.99832401088E+02 -0.20214373395E+02  0.50177220704E+03  0.51200632511E+03  0.00000000000E+00 0. -1.
        -13    1    4    4    0    0 -0.88135687319E+01 -0.31469908759E+02 -0.77490356848E+01  0.33586927593E+02  0.00000000000E+00 0. -1.
         13    1    4    4    0    0 -0.42519126669E+02 -0.62383831711E+01  0.10883360263E+03  0.11701088248E+03  0.00000000000E+00 0.  1.
         21    1    1    2  503  501 -0.43052386783E+02  0.37421893552E+02  0.14456675692E+03  0.15541381319E+03  0.00000000000E+00 0.  1.
         -2    1    1    2    0  502 -0.40667422397E+01  0.69566468197E+02  0.10615339352E+02  0.70489129087E+02  0.00000000000E+00 0.  1.
<scales pt_clust_5="13000.00000" pt_clust_6="13000.00000" pt_clust_7="13000.00000" pt_clust_8="13000.00000" pt_clust_9="57.04302" pt_clust_10="71.52759"></scales>
<clustering>
<clus scale="   57.043">  1  9  2 -1</clus>
<clus scale="   71.528">  2 10  1 -1</clus>
<clus scale="   91.473">  5  6 -1 -1</clus>
<clus scale="   91.677">  7  8 -1 -1</clus>
<clus scale="  112.131">  1  5  2 -1</clus>
<clus scale="   71.528">  2  5  1 -1</clus>
</clustering>
</event>
<event>
10    2  0.1671105E-006  0.1286808E+03  0.7546771E-02  0.1229431E+00
         -1   -1    0    0    0  501 -0.00000000000E+00  0.00000000000E+00  0.10339876567E+03  0.10339876567E+03  0.00000000000E+00 0.  1.
         21   -1    0    0  501  502  0.00000000000E+00 -0.00000000000E+00 -0.50463028467E+03  0.50463028467E+03  0.00000000000E+00 0. -1.
         23    2    1    2    0    0 -0.78897808388E+02  0.29283923031E+02 -0.14279979323E+03  0.18872262822E+03  0.90233237444E+02 0.  0.
         23    2    1    2    0    0  0.47325547267E+02 -0.12009233272E+03 -0.27131955844E+03  0.31372212597E+03  0.90251835010E+02 0.  0.
        -11    1    3    3    0    0 -0.81628788353E+02 -0.33767362212E+01 -0.65336893569E+02  0.10461152468E+03  0.00000000000E+00 0.  1.
         11    1    3    3    0    0  0.27309799644E+01  0.32660659253E+02 -0.77462899662E+02  0.84111103538E+02  0.00000000000E+00 0. -1.
        -13    1    4    4    0    0  0.66077523136E+01 -0.10994730055E+03 -0.22906677447E+03  0.25417249745E+03  0.00000000000E+00 0. -1.
         13    1    4    4    0    0  0.40717794954E+02 -0.10145032170E+02 -0.42252783969E+02  0.59549628519E+02  0.00000000000E+00 0.  1.
         21    1    1    2  503  502  0.28618653282E+02  0.25320086169E+02 -0.23424632860E+01  0.38283432625E+02  0.00000000000E+00 0.  1.
         -1    1    1    2    0  503  0.29536078387E+01  0.65488323524E+02  0.15230295958E+02  0.67300863533E+02  0.00000000000E+00 0.  1.
<scales pt_clust_5="13000.00000" pt_clust_6="13000.00000" pt_clust_7="13000.00000" pt_clust_8="13000.00000" pt_clust_9="31.83772" pt_clust_10="104.79484"></scales>
<clustering>
<clus scale="   31.838">  9 10 -1 -1</clus>
<clus scale="   90.233">  5  6 -1 -1</clus>
<clus scale="   90.252">  7  8 -1 -1</clus>
<clus scale="  104.795">  2  9  1 -1</clus>
<clus scale="  128.668">  1  5  2 -1</clus>
<clus scale="  104.795">  2  5  1 -1</clus>
</clustering>
</event>
<event>
10    2  0.1671105E-006  0.1098396E+03  0.7546771E-02  0.1264812E+00
          2   -1    0    0  503    0 -0.00000000000E+00  0.00000000000E+00  0.19869298377E+03  0.19869298377E+03  0.00000000000E+00 0. -1.
         21   -1    0    0  501  502  0.00000000000E+00 -0.00000000000E+00 -0.20117141785E+03  0.20117141785E+03  0.00000000000E+00 0. -1.
         23    2    1    2    0    0 -0.21998113370E+02  0.54514336834E+02  0.10575157834E+03  0.15095005098E+03  0.90259579312E+02 0.  0.
         23    2    1    2    0    0 -0.86555406337E+01 -0.54720606951E+02  0.43351370099E+01  0.97515241507E+02  0.80132176462E+02 0.  0.
        -11    1    4    4    0    0 -0.24655665772E+02  0.12039524315E+02 -0.60122022420E+01  0.28089118465E+02  0.00000000000E+00 0.  1.
         11    1    4    4    0    0  0.16000125138E+02 -0.66760131266E+02  0.10347339252E+02  0.69426123042E+02  0.00000000000E+00 0. -1.
        -13    1    3    3    0    0 -0.28087073518E+02 -0.16077465822E+02  0.54927990466E+02  0.63753060654E+02  0.00000000000E+00 0. -1.
         13    1    3    3    0    0  0.60889601484E+01  0.70591802656E+02  0.50823587876E+02  0.87196990329E+02  0.00000000000E+00 0.  1.
         21    1    1    2  503  502  0.14555711097E+02  0.28848963503E+02  0.18439022170E+01  0.32365589692E+02  0.00000000000E+00 0.  1.
          2    1    1    2  501    0  0.16097942907E+02 -0.28642693386E+02 -0.11440905165E+03  0.11903351944E+03  0.00000000000E+00 0. -1.
<scales pt_clust_5="13000.00000" pt_clust_6="13000.00000" pt_clust_7="13000.00000" pt_clust_8="13000.00000" pt_clust_9="32.31302" pt_clust_10="32.62883"></scales>
<clustering>
<clus scale="   32.313">  1  9  2 -1</clus>
<clus scale="   32.629">  2 10  1 -1</clus>
<clus scale="   80.132">  5  6 -1 -1</clus>
<clus scale="   90.260">  7  8 -1 -1</clus>
<clus scale="  101.681">  2  5  1 -1</clus>
<clus scale="   32.629">  2  5  1 -1</clus>
</clustering>
</event>
<event>
10    2  0.1671105E-006  0.1138088E+03  0.7546771E-02  0.1262549E+00
         21   -1    0    0  501  502  0.00000000000E+00  0.00000000000E+00  0.66698124434E+03  0.66698124434E+03  0.00000000000E+00 0. -1.
          1   -1    0    0  503    0 -0.00000000000E+00 -0.00000000000E+00 -0.28028977838E+03  0.28028977838E+03  0.00000000000E+00 0. -1.
         23    2    1    2    0    0  0.20902512658E+02  0.14277479373E+02 -0.71166994377E+02  0.11913418666E+03  0.92127367751E+02 0.  0.
         23    2    1    2    0    0 -0.22548476083E+02  0.29566285721E+02 -0.14926423354E+03  0.17824611508E+03  0.90051469175E+02 0.  0.
        -11    1    3    3    0    0  0.45495883476E+02  0.15991402447E+02 -0.49512305172E+01  0.48477985201E+02  0.00000000000E+00 0.  1.
         11    1    3    3    0    0 -0.24593370818E+02 -0.17139230744E+01 -0.66215763860E+02  0.70656201455E+02  0.00000000000E+00 0. -1.
        -11    1    4    4    0    0 -0.50758988793E+02  0.24470729185E+02 -0.13486955688E+03  0.14616801601E+03  0.00000000000E+00 0. -1.
         11    1    4    4    0    0  0.28210512711E+02  0.50955565354E+01 -0.14394676660E+02  0.32078099070E+02  0.00000000000E+00 0.  1.
         21    1    1    2  503  502 -0.11133769298E+03 -0.32123439503E+01  0.27290096403E+03  0.29475640315E+03  0.00000000000E+00 0. -1.
          1    1    1    2  501    0  0.11298365640E+03 -0.40631421143E+02  0.33422172985E+03  0.35513431783E+03  0.00000000000E+00 0. -1.
<scales pt_clust_5="13000.00000" pt_clust_6="13000.00000" pt_clust_7="13000.00000" pt_clust_8="13000.00000" pt_clust_9="113.80884" pt_clust_10="13000.00000"></scales>
<clustering>
<clus scale="   90.051">  7  8 -1 -1</clus>
<clus scale="   92.127">  5  6 -1 -1</clus>
<clus scale="   95.542">  2  5  1 -1</clus>
<clus scale="   99.530">  2  7  1 -1</clus>
<clus scale="  113.809">  2  9  1 -1</clus>
<clus scale="  113.809">  1  5  2 -1</clus>
</clustering>
</event>
<event>
10    2  0.1671105E-006  0.1470316E+03  0.7546771E-02  0.1217928E+00
          1   -1    0    0  503    0 -0.00000000000E+00  0.00000000000E+00  0.32036083922E+03  0.32036083922E+03  0.00000000000E+00 0. -1.
         21   -1    0    0  501  502  0.00000000000E+00 -0.00000000000E+00 -0.45776523364E+03  0.45776523364E+03  0.00000000000E+00 0. -1.
         23    2    1    2    0    0  0.50007606626E+02 -0.27166514196E+02  0.13608349404E+03  0.17348899909E+03  0.91328720795E+02 0.  0.
         23    2    1    2    0    0  0.71185122701E+02 -0.49406079112E+01  0.61023432260E+02  0.13052508314E+03  0.90670870419E+02 0.  0.
        -11    1    4    4    0    0  0.22906742857E+02 -0.33872025605E+01  0.76401036229E+02  0.79833015391E+02  0.00000000000E+00 0. -1.
         11    1    4    4    0    0  0.48278379844E+02 -0.15534053508E+01 -0.15377603969E+02  0.50692067746E+02  0.00000000000E+00 0.  1.
        -13    1    3    3    0    0 -0.38060720169E+01 -0.36855831659E+02  0.13801738202E+02  0.39538923719E+02  0.00000000000E+00 0.  1.
         13    1    3    3    0    0  0.53813678643E+02  0.96893174626E+01  0.12228175584E+03  0.13395007537E+03  0.00000000000E+00 0. -1.
         21    1    1    2  503  502 -0.16946941635E+03  0.11234289260E+03 -0.32032161893E+03  0.37940314726E+03  0.00000000000E+00 0. -1.
          1    1    1    2  501    0  0.48276687024E+02 -0.80235770492E+02 -0.14189701781E+02  0.94708843373E+02  0.00000000000E+00 0. -1.
<scales pt_clust_5="13000.00000" pt_clust_6="13000.00000" pt_clust_7="13000.00000" pt_clust_8="13000.00000" pt_clust_9="115.74580" pt_clust_10="93.63987"></scales>
<clustering>
<clus scale="   90.671">  5  6 -1 -1</clus>
<clus scale="   91.329">  7  8 -1 -1</clus>
<clus scale="   93.640">  2 10  1 -1</clus>
<clus scale="  109.657">  1  7  2 -1</clus>
<clus scale="  115.746">  2  9  1 -1</clus>
<clus scale="   93.640">  2  5  1 -1</clus>
</clustering>
</event>
<event>
10    2  0.1671105E-006  0.9743413E+02  0.7546771E-02  0.1285819E+00
         21   -1    0    0  501  502  0.00000000000E+00  0.00000000000E+00  0.70063807724E+03  0.70063807724E+03  0.00000000000E+00 0. -1.
          2   -1    0    0  503    0 -0.00000000000E+00 -0.00000000000E+00 -0.12179323718E+03  0.12179323718E+03  0.00000000000E+00 0. -1.
         23    2    1    2    0    0  0.27039697429E+02  0.11933566491E+02 -0.55254389190E+02  0.11102109975E+03  0.91646504672E+02 0.  0.
         23    2    1    2    0    0  0.23744363060E+01 -0.14361620236E+03  0.32041901592E+03  0.36288691375E+03  0.91582284736E+02 0.  0.
        -13    1    4    4    0    0 -0.29157566294E+02 -0.73863554328E+01  0.47306509133E+02  0.56059144884E+02  0.00000000000E+00 0.  1.
         13    1    4    4    0    0  0.31532002600E+02 -0.13622984693E+03  0.27311250679E+03  0.30682776886E+03  0.00000000000E+00 0. -1.
        -13    1    3    3    0    0  0.25358370705E+02 -0.38053271149E+02 -0.32327817356E+02  0.56001662341E+02  0.00000000000E+00 0.  1.
         13    1    3    3    0    0  0.16813267245E+01  0.49986837640E+02 -0.22926571834E+02  0.55019437409E+02  0.00000000000E+00 0. -1.
         21    1    1    2  503  502 -0.16115448037E+02  0.60998637820E+02  0.22844394988E+03  0.23699615971E+03  0.00000000000E+00 0. -1.
          2    1    1    2  501    0 -0.13298685698E+02  0.70683998047E+02  0.85236263448E+02  0.11152714122E+03  0.00000000000E+00 0. -1.
<scales pt_clust_5="13000.00000" pt_clust_6="13000.00000" pt_clust_7="13000.00000" pt_clust_8="13000.00000" pt_clust_9="63.09153" pt_clust_10="85.16012"></scales>
<clustering>
<clus scale="   63.092">  1  9  2 -1</clus>
<clus scale="   85.160">  1 10  2 -1</clus>
<clus scale="   91.582">  5  6 -1 -1</clus>
<clus scale="   91.647">  7  8 -1 -1</clus>
<clus scale="   97.374">  1  5  2 -1</clus>
<clus scale="   63.092">  1  5  2 -1</clus>
</clustering>
</event>
<event>
10    2  0.1671105E-006  0.1599983E+03  0.7546771E-02  0.1189004E+00
         21   -1    0    0  501  502  0.00000000000E+00  0.00000000000E+00  0.78348330442E+02  0.78348330442E+02  0.00000000000E+00 0. -1.
          2   -1    0    0  503    0 -0.00000000000E+00 -0.00000000000E+00 -0.96067379892E+03  0.96067379892E+03  0.00000000000E+00 0. -1.
         23    2    1    2    0    0 -0.86077184549E+02  0.70592067152E+02 -0.75992143523E+03  0.77369989173E+03  0.93479479507E+02 0.  0.
         23    2    1    2    0    0  0.61254615567E+02 -0.84345576939E+02 -0.22601569640E+02  0.14061390974E+03  0.91624976859E+02 0.  0.
        -11    1    3    3    0    0  0.19387539619E+02  0.21758177665E+02 -0.15279716470E+03  0.15555149799E+03  0.00000000000E+00 0.  1.
         11    1    3    3    0    0 -0.10546472417E+03  0.48833889487E+02 -0.60712427054E+03  0.61814839374E+03  0.00000000000E+00 0. -1.
        -11    1    4    4    0    0  0.63225935497E+02 -0.15069140364E+02 -0.28680316273E+02  0.71043356145E+02  0.00000000000E+00 0.  1.
         11    1    4    4    0    0 -0.19713199295E+01 -0.69276436575E+02  0.60787466327E+01  0.69570553594E+02  0.00000000000E+00 0. -1.
         21    1    1    2  503  502 -0.12134410760E+02  0.29990473922E+02 -0.59146075133E+02  0.67416100852E+02  0.00000000000E+00 0. -1.
          2    1    1    2  501    0  0.36956979741E+02 -0.16236964134E+02 -0.40656388469E+02  0.57292227040E+02  0.00000000000E+00 0. -1.
<scales pt_clust_5="13000.00000" pt_clust_6="13000.00000" pt_clust_7="13000.00000" pt_clust_8="13000.00000" pt_clust_9="32.35232" pt_clust_10="39.12131"></scales>
<clustering>
<clus scale="   32.352">  2  9  1 -1</clus>
<clus scale="   39.121">  1 10  2 -1</clus>
<clus scale="   91.625">  7  8 -1 -1</clus>
<clus scale="   93.479">  5  6 -1 -1</clus>
<clus scale="  158.922">  1  7  2 -1</clus>
<clus scale="   39.121">  1  5  2 -1</clus>
</clustering>
</event>
<event>
10    2  0.1671105E-006  0.1920474E+03  0.7546771E-02  0.1180200E+00
         -1   -1    0    0    0  501 -0.00000000000E+00  0.00000000000E+00  0.50386528959E+03  0.50386528959E+03  0.00000000000E+00 0.  1.
         21   -1    0    0  501  502  0.00000000000E+00 -0.00000000000E+00 -0.25877934194E+03  0.25877934194E+03  0.00000000000E+00 0.  1.
         23    2    1    2    0    0  0.17558316267E+01  0.63170014595E+02  0.34386456288E+03  0.36159286304E+03  0.92266067997E+02 0.  0.
         23    2    1    2    0    0 -0.49863868340E+02 -0.20514240413E+03 -0.22856188891E+02  0.23129785175E+03  0.91686855751E+02 0.  0.
        -11    1    3    3    0    0  0.44686883862E+02  0.47789424785E+02  0.18091677859E+03  0.19238406245E+03  0.00000000000E+00 0.  1.
         11    1    3    3    0    0 -0.42931052235E+02  0.15380589810E+02  0.16294778429E+03  0.16920880058E+03  0.00000000000E+00 0. -1.
        -13    1    4    4    0    0 -0.25880519326E+02 -0.38540944243E+02  0.29524002688E+02  0.55017019171E+02  0.00000000000E+00 0. -1.
         13    1    4    4    0    0 -0.23983349014E+02 -0.16660145989E+03 -0.52380191579E+02  0.17628083258E+03  0.00000000000E+00 0.  1.
         21    1    1    2  503  502  0.36802380751E+02  0.76412860258E+02 -0.49273286698E+02  0.98087701695E+02  0.00000000000E+00 0.  1.
         -1    1    1    2    0  503  0.11305655962E+02  0.65559529277E+02 -0.26649139641E+02  0.71666215048E+02  0.00000000000E+00 0.  1.
<scales pt_clust_5="13000.00000" pt_clust_6="13000.00000" pt_clust_7="13000.00000" pt_clust_8="13000.00000" pt_clust_9="21.35956" pt_clust_10="170.46222"></scales>
<clustering>
<clus scale="   21.360">  9 10 -1 -1</clus>
<clus scale="   91.687">  7  8 -1 -1</clus>
<clus scale="   92.266">  5  6 -1 -1</clus>
<clus scale="  111.833">  1  5  2 -1</clus>
<clus scale="  170.462">  2  9  1 -1</clus>
<clus scale="  170.462">  2  5  1 -1</clus>
</clustering>
</event>
<event>
10    2  0.1671105E-006  0.9469009E+02  0.7546771E-02  0.1291983E+00
         -1   -1    0    0    0  501 -0.00000000000E+00  0.00000000000E+00  0.30332451985E+03  0.30332451985E+03  0.00000000000E+00 0.  1.
         21   -1    0    0  503  502  0.00000000000E+00 -0.00000000000E+00 -0.17140790536E+03  0.17140790536E+03  0.00000000000E+00 0.  1.
         23    2    1    2    0    0 -0.24956968633E+02  0.10591817455E+02  0.12399079330E+03  0.15625957285E+03  0.91149878782E+02 0.  0.
         23    2    1    2    0    0 -0.25138167776E+02 -0.46276694065E+02  0.96674854098E+02  0.14280008480E+03  0.90952608046E+02 0.  0.
        -11    1    4    4    0    0 -0.16272848940E+02 -0.17283543466E+02 -0.14330503839E+02  0.27728862718E+02  0.00000000000E+00 0. -1.
         11    1    4    4    0    0 -0.88653188358E+01 -0.28993150599E+02  0.11100535794E+03  0.11507122208E+03  0.00000000000E+00 0.  1.
        -13    1    3    3    0    0  0.17013375265E+02  0.19350463791E+02  0.75349991961E+00  0.25777182720E+02  0.00000000000E+00 0. -1.
         13    1    3    3    0    0 -0.41970343898E+02 -0.87586463370E+01  0.12323729338E+03  0.13048239013E+03  0.00000000000E+00 0.  1.
         21    1    1    2  503  501 -0.37092637327E+02 -0.17878159645E+02 -0.15070562563E+01  0.41203926448E+02  0.00000000000E+00 0.  1.
         -1    1    1    2    0  502  0.87187773735E+02  0.53563036255E+02 -0.87241976654E+02  0.13446884112E+03  0.00000000000E+00 0.  1.
<scales pt_clust_5="13000.00000" pt_clust_6="13000.00000" pt_clust_7="13000.00000" pt_clust_8="13000.00000" pt_clust_9="41.17636" pt_clust_10="72.12990"></scales>
<clustering>
<clus scale="   41.176">  2  9  1 -1</clus>
<clus scale="   72.130">  2 10  1 -1</clus>
<clus scale="   90.953">  5  6 -1 -1</clus>
<clus scale="   91.150">  7  8 -1 -1</clus>
<clus scale="   94.500">  2  5  1 -1</clus>
<clus scale="   41.176">  2  5  1 -1</clus>
</clustering>
</event>
<event>
10    2  0.1671105E-006  0.1202789E+03  0.7546771E-02  0.1256883E+00
         -2   -1    0    0    0  501 -0.00000000000E+00  0.00000000000E+00  0.54447426233E+03  0.54447426233E+03  0.00000000000E+00 0.  1.
         21   -1    0    0  501  502  0.00000000000E+00 -0.00000000000E+00 -0.89391718148E+02  0.89391718148E+02  0.00000000000E+00 0.  1.
         23    2    1    2    0    0 -0.67622679902E+01 -0.17385873879E+02  0.42122515168E+03  0.43824912488E+03  0.11951430948E+03 0.  0.
         23    2    1    2    0    0 -0.26283037332E+02  0.24083105319E+01  0.69971822925E+02  0.11659987691E+03  0.89458802143E+02 0.  0.
        -11    1    4    4    0    0  0.18247337640E+01 -0.40398821940E+02  0.20267770785E+02  0.45234688018E+02  0.00000000000E+00 0.  1.
         11    1    4    4    0    0 -0.28107771096E+02  0.42807132472E+02  0.49704052140E+02  0.71365188892E+02  0.00000000000E+00 0. -1.
        -13    1    3    3    0    0  0.40885895457E+02 -0.39570694008E+02  0.31065190163E+03  0.31581972746E+03  0.00000000000E+00 0. -1.
         13    1    3    3    0    0 -0.47648163447E+02  0.22184820129E+02  0.11057325005E+03  0.12242939741E+03  0.00000000000E+00 0.  1.
         21    1    1    2  503  502  0.11911266955E+02 -0.20574234077E+02 -0.28240826986E+02  0.36915060574E+02  0.00000000000E+00 0.  1.
         -2    1    1    2    0  503  0.21134038367E+02  0.35551797424E+02 -0.78736034369E+01  0.42101918114E+02  0.00000000000E+00 0.  1.
<scales pt_clust_5="13000.00000" pt_clust_6="13000.00000" pt_clust_7="13000.00000" pt_clust_8="13000.00000" pt_clust_9="23.77346" pt_clust_10="37.38888"></scales>
<clustering>
<clus scale="   23.773">  2  9  1 -1</clus>
<clus scale="   37.389">  2 10  1 -1</clus>
<clus scale="   89.459">  5  6 -1 -1</clus>
<clus scale="   90.478">  2  5  1 -1</clus>
<clus scale="  119.514">  7  8 -1 -1</clus>
<clus scale="   23.773">  2  5  1 -1</clus>
</clustering>
</event>
<event>
10    2  0.1671105E-006  0.1284795E+03  0.7546771E-02  0.1233349E+00
         21   -1    0    0  501  502  0.00000000000E+00  0.00000000000E+00  0.35659240815E+02  0.35659240815E+02  0.00000000000E+00 0. -1.
          1   -1    0    0  503    0 -0.00000000000E+00 -0.00000000000E+00 -0.15296245115E+04  0.15296245115E+04  0.00000000000E+00 0. -1.
         23    2    1    2    0    0  0.94681462508E+02 -0.44410502847E+02 -0.52708857441E+03  0.54495239275E+03  0.90630419712E+02 0.  0.
         23    2    1    2    0    0 -0.73778888461E+02 -0.76391109086E+02 -0.30817239628E+03  0.34168633707E+03  0.10247146523E+03 0.  0.
        -11    1    4    4    0    0 -0.28060957588E+01 -0.74024213734E+02 -0.18846776286E+03  0.20250322474E+03  0.00000000000E+00 0. -1.
         11    1    4    4    0    0 -0.70972792702E+02 -0.23668953524E+01 -0.11970463342E+03  0.13918311233E+03  0.00000000000E+00 0.  1.
        -13    1    3    3    0    0  0.15652528449E+02 -0.28595689069E+02 -0.41760946231E+02  0.52978219207E+02  0.00000000000E+00 0. -1.
         13    1    3    3    0    0  0.79028934059E+02 -0.15814813778E+02 -0.48532762818E+03  0.49197417354E+03  0.00000000000E+00 0.  1.
         21    1    1    2  503  502 -0.42908117562E+02  0.54049956156E+02 -0.50425320213E+03  0.50895362870E+03  0.00000000000E+00 0.  1.
          1    1    1    2  501    0  0.22005543514E+02  0.66751655777E+02 -0.15445109783E+03  0.16969139376E+03  0.00000000000E+00 0. -1.
<scales pt_clust_5="13000.00000" pt_clust_6="13000.00000" pt_clust_7="13000.00000" pt_clust_8="13000.00000" pt_clust_9="69.01090" pt_clust_10="76.83456"></scales>
<clustering>
<clus scale="   69.011">  2  9  1 -1</clus>
<clus scale="   76.835">  1 10  2 -1</clus>
<clus scale="   90.630">  7  8 -1 -1</clus>
<clus scale="  102.471">  5  6 -1 -1</clus>
<clus scale="  119.250">  2  7  1 -1</clus>
<clus scale="   76.835">  1  5  2 -1</clus>
</clustering>
</event>
<event>
10    2  0.1671105E-006  0.9438523E+02  0.7546771E-02  0.1299484E+00
          4   -1    0    0  503    0 -0.00000000000E+00  0.00000000000E+00  0.44608939656E+02  0.44608939656E+02  0.00000000000E+00 0. -1.
         21   -1    0    0  501  502  0.00000000000E+00 -0.00000000000E+00 -0.45268371986E+03  0.45268371986E+03  0.00000000000E+00 0.  1.
         23    2    1    2    0    0  0.14465010587E+02 -0.49092236987E+02 -0.70961968086E+02  0.11673532028E+03  0.77280332697E+02 0.  0.
         23    2    1    2    0    0  0.75749995737E+01  0.56956798309E+01 -0.10194884194E+03  0.13591300985E+03  0.89380973847E+02 0.  0.
        -11    1    3    3    0    0 -0.15297109213E+02  0.13289824005E+02 -0.43130658798E+01  0.20717710048E+02  0.00000000000E+00 0. -1.
         11    1    3    3    0    0  0.29762119800E+02 -0.62382060992E+02 -0.66648902206E+02  0.96017610227E+02  0.00000000000E+00 0.  1.
        -13    1    4    4    0    0  0.47577755139E+01  0.47331960880E+02 -0.46572693539E+02  0.66573018049E+02  0.00000000000E+00 0. -1.
         13    1    4    4    0    0  0.28172240598E+01 -0.41636281049E+02 -0.55376148399E+02  0.69339991798E+02  0.00000000000E+00 0.  1.
         21    1    1    2  503  502 -0.23783528961E+02  0.80807264084E+01 -0.48057613261E+02  0.54226272060E+02  0.00000000000E+00 0.  1.
          4    1    1    2  501    0  0.17435188010E+01  0.35315830747E+02 -0.18710635692E+03  0.19041805734E+03  0.00000000000E+00 0. -1.
<scales pt_clust_5="13000.00000" pt_clust_6="13000.00000" pt_clust_7="13000.00000" pt_clust_8="13000.00000" pt_clust_9="25.11881" pt_clust_10="40.23683"></scales>
<clustering>
<clus scale="   25.119">  2  9  1 -1</clus>
<clus scale="   40.237">  2 10  1 -1</clus>
<clus scale="   77.280">  5  6 -1 -1</clus>
<clus scale="   83.017">  1  5  2 -1</clus>
<clus scale="   89.381">  7  8 -1 -1</clus>
<clus scale="   25.119">  2  5  1 -1</clus>
</clustering>
</event>
<event>
10    2  0.1671105E-006  0.9510840E+02  0.7546771E-02  0.1291174E+00
          2   -1    0    0  503    0 -0.00000000000E+00  0.00000000000E+00  0.26377105731E+03  0.26377105731E+03  0.00000000000E+00 0. -1.
         21   -1    0    0  501  502  0.00000000000E+00 -0.00000000000E+00 -0.17568102008E+03  0.17568102008E+03  0.00000000000E+00 0. -1.
         23    2    1    2    0    0  0.31194213887E+02  0.71945897066E+01  0.15938979562E+03  0.18693134206E+03  0.92267971654E+02 0.  0.
         23    2    1    2    0    0  0.13811177475E+02 -0.34023488220E+02  0.53333218182E+02  0.11235919629E+03  0.91824890170E+02 0.  0.
        -11    1    3    3    0    0  0.57283018120E+02 -0.31533247657E+01  0.57416128977E+02  0.81165876381E+02  0.00000000000E+00 0. -1.
         11    1    3    3    0    0 -0.26088804233E+02  0.10347914472E+02  0.10197366665E+03  0.10576546567E+03  0.00000000000E+00 0.  1.
        -13    1    4    4    0    0  0.43146301921E+02  0.11536296360E+02  0.25797518874E+02  0.51577141092E+02  0.00000000000E+00 0.  1.
         13    1    4    4    0    0 -0.29335124447E+02 -0.45559784580E+02  0.27535699308E+02  0.60782055195E+02  0.00000000000E+00 0. -1.
         21    1    1    2  503  502 -0.25017496296E+02  0.29731584651E+02 -0.52886979482E+02  0.65626784513E+02  0.00000000000E+00 0.  1.
          2    1    1    2  501    0 -0.19987895066E+02 -0.29026861380E+01 -0.71745997090E+02  0.74534754541E+02  0.00000000000E+00 0. -1.
<scales pt_clust_5="13000.00000" pt_clust_6="13000.00000" pt_clust_7="13000.00000" pt_clust_8="13000.00000" pt_clust_9="46.08982" pt_clust_10="20.19756"></scales>
<clustering>
<clus scale="   20.198">  2 10  1 -1</clus>
<clus scale="   46.090">  2  9  1 -1</clus>
<clus scale="   91.825">  7  8 -1 -1</clus>
<clus scale="   92.268">  5  6 -1 -1</clus>
<clus scale="   94.679">  2  7  1 -1</clus>
<clus scale="   20.198">  2  5  1 -1</clus>
</clustering>
</event>
<event>
10    2  0.1671105E-006  0.1177893E+03  0.7546771E-02  0.1247556E+00
          3   -1    0    0  503    0 -0.00000000000E+00  0.00000000000E+00  0.76098408193E+02  0.76098408193E+02  0.00000000000E+00 0. -1.
         21   -1    0    0  501  502  0.00000000000E+00 -0.00000000000E+00 -0.45649005389E+03  0.45649005389E+03  0.00000000000E+00 0.  1.
         23    2    1    2    0    0 -0.19390162252E+02  0.49986240248E+02 -0.43034143149E+02  0.11387466479E+03  0.90779398535E+02 0.  0.
         23    2    1    2    0    0  0.21165130057E+02 -0.11638944858E+03 -0.16007203182E+03  0.21972523029E+03  0.93068012675E+02 0.  0.
        -11    1    4    4    0    0 -0.19178026213E+02 -0.10699459220E+03 -0.12284924262E+03  0.16403528846E+03  0.00000000000E+00 0.  1.
         11    1    4    4    0    0  0.40343156270E+02 -0.93948563744E+01 -0.37222789203E+02  0.55689941822E+02  0.00000000000E+00 0. -1.
        -11    1    3    3    0    0 -0.20615596537E+02 -0.23855808755E+02 -0.11302278632E+02  0.33493938769E+02  0.00000000000E+00 0.  1.
         11    1    3    3    0    0  0.12254342853E+01  0.73842049004E+02 -0.31731864517E+02  0.80380726023E+02  0.00000000000E+00 0. -1.
         21    1    1    2  503  502 -0.21837045720E+02  0.64339382401E+02 -0.11558671990E+03  0.13407722592E+03  0.00000000000E+00 0. -1.
          3    1    1    2  501    0  0.20062077915E+02  0.20638259267E+01 -0.61698750825E+02  0.64911341082E+02  0.00000000000E+00 0. -1.
<scales pt_clust_5="13000.00000" pt_clust_6="13000.00000" pt_clust_7="13000.00000" pt_clust_8="13000.00000" pt_clust_9="66.80978" pt_clust_10="20.16795"></scales>
<clustering>
<clus scale="   20.168">  2 10  1 -1</clus>
<clus scale="   66.810">  2  9  1 -1</clus>
<clus scale="   90.779">  7  8 -1 -1</clus>
<clus scale="   93.068">  5  6 -1 -1</clus>
<clus scale="  115.990">  1  7  2 -1</clus>
<clus scale="   20.168">  2  5  1 -1</clus>
</clustering>
</event>
<event>
10    2  0.1671105E-006  0.1121455E+03  0.7546771E-02  0.1257324E+00
          2   -1    0    0  503    0 -0.00000000000E+00  0.00000000000E+00  0.27672958717E+03  0.27672958717E+03  0.00000000000E+00 0. -1.
         21   -1    0    0  501  502  0.00000000000E+00 -0.00000000000E+00 -0.97453043226E+02  0.97453043226E+02  0.00000000000E+00 0. -1.
         23    2    1    2    0    0  0.60563173058E+02  0.24509505107E+02  0.16049468551E+03  0.19679418792E+03  0.93278049683E+02 0.  0.
         23    2    1    2    0    0 -0.58976542848E+02 -0.18253262707E+01  0.54017353172E+02  0.12152545885E+03  0.91482229325E+02 0.  0.
        -13    1    3    3    0    0  0.68969673078E+02 -0.44010301471E+01  0.14957160225E+03  0.16476604344E+03  0.00000000000E+00 0. -1.
         13    1    3    3    0    0 -0.84065000202E+01  0.28910535254E+02  0.10923083258E+02  0.32028144485E+02  0.00000000000E+00 0.  1.
        -13    1    4    4    0    0  0.97674086337E+01  0.29625387385E+02  0.26967714175E+02  0.41234978562E+02  0.00000000000E+00 0.  1.
         13    1    4    4    0    0 -0.68743951482E+02 -0.31450713656E+02  0.27049638996E+02  0.80290480287E+02  0.00000000000E+00 0. -1.
         21    1    1    2  503  502  0.17432567420E+02 -0.14252950631E+02 -0.19301770820E+02  0.29658040484E+02  0.00000000000E+00 0.  1.
          2    1    1    2  501    0 -0.19019197630E+02 -0.84312282053E+01 -0.15933723911E+02  0.26204943144E+02  0.00000000000E+00 0. -1.
<scales pt_clust_5="13000.00000" pt_clust_6="13000.00000" pt_clust_7="13000.00000" pt_clust_8="13000.00000" pt_clust_9="20.39620" pt_clust_10="20.80422"></scales>
<clustering>
<clus scale="   20.804">  2 10  1 -1</clus>
<clus scale="   20.396">  2  9  1 -1</clus>
<clus scale="   91.482">  7  8 -1 -1</clus>
<clus scale="   93.278">  5  6 -1 -1</clus>
<clus scale="  110.656">  2  7  1 -1</clus>
<clus scale="   20.804">  2  5  1 -1</clus>
</clustering>
</event>
<event>
10    2  0.1671105E-006  0.5206803E+03  0.7546771E-02  0.1043827E+00
          1   -1    0    0  502    0 -0.00000000000E+00  0.00000000000E+00  0.14660318217E+04  0.14660318217E+04  0.00000000000E+00 0. -1.
         21   -1    0    0  503  502  0.00000000000E+00 -0.00000000000E+00 -0.67331590856E+03  0.67331590856E+03  0.00000000000E+00 0. -1.
         23    2    1    2    0    0  0.71361148079E+02  0.13404425240E+03  0.16693811142E+03  0.24630731218E+03  0.98684770507E+02 0.  0.
         23    2    1    2    0    0 -0.57694453990E+03 -0.14400682512E+03  0.10642400904E+04  0.12225031281E+04  0.91126068109E+02 0.  0.
        -11    1    4    4    0    0 -0.51630646804E+03 -0.12756586729E+03  0.10001166749E+04  0.11327306753E+04  0.00000000000E+00 0. -1.
         11    1    4    4    0    0 -0.60638071857E+02 -0.16440957830E+02  0.64123415553E+02  0.89772452763E+02  0.00000000000E+00 0.  1.
        -13    1    3    3    0    0  0.93062243970E+02  0.10096822171E+03  0.10519163279E+03  0.17297526602E+03  0.00000000000E+00 0.  1.
         13    1    3    3    0    0 -0.21701095891E+02  0.33076030691E+02  0.61746478636E+02  0.73332046154E+02  0.00000000000E+00 0. -1.
         21    1    1    2  503  501  0.15067289653E+03 -0.48622388689E+01 -0.10876886391E+03  0.18589413350E+03  0.00000000000E+00 0. -1.
          1    1    1    2  501    0  0.35491049529E+03  0.14824811592E+02 -0.32969342485E+03  0.48464315645E+03  0.00000000000E+00 0. -1.
<scales pt_clust_5="13000.00000" pt_clust_6="13000.00000" pt_clust_7="13000.00000" pt_clust_8="13000.00000" pt_clust_9="26.52022" pt_clust_10="514.25802"></scales>
<clustering>
<clus scale="   26.520">  9 10 -1 -1</clus>
<clus scale="   91.126">  5  6 -1 -1</clus>
<clus scale="   98.685">  7  8 -1 -1</clus>
<clus scale="  181.105">  1  7  2 -1</clus>
<clus scale="  514.258">  2  9  1 -1</clus>
<clus scale="  514.258">  2  5  1 -1</clus>
</clustering>
</event>
<event>
10    2  0.1671105E-006  0.1668233E+03  0.7546771E-02  0.1200664E+00
          2   -1    0    0  502    0 -0.00000000000E+00  0.00000000000E+00  0.48089420264E+03  0.48089420264E+03  0.00000000000E+00 0. -1.
         21   -1    0    0  503  502  0.00000000000E+00 -0.00000000000E+00 -0.14879989484E+03  0.14879989484E+03  0.00000000000E+00 0.  1.
         23    2    1    2    0    0 -0.27092612170E+02  0.47895653704E+02 -0.44433057749E+02  0.11732958595E+03  0.93615873865E+02 0.  0.
         23    2    1    2    0    0 -0.89855944147E+02  0.52589124111E+02  0.31074585219E+03  0.33988184304E+03  0.90094261226E+02 0.  0.
        -11    1    4    4    0    0 -0.83822078355E+02  0.74090224983E+02  0.28270141149E+03  0.30403221921E+03  0.00000000000E+00 0.  1.
         11    1    4    4    0    0 -0.60338657923E+01 -0.21501100872E+02  0.28044440691E+02  0.35849623830E+02  0.00000000000E+00 0. -1.
        -13    1    3    3    0    0  0.11406937991E+02  0.51380169721E+02 -0.56126295077E+02  0.76942842903E+02  0.00000000000E+00 0.  1.
         13    1    3    3    0    0 -0.38499550161E+02 -0.34845160168E+01  0.11693237328E+02  0.40386743044E+02  0.00000000000E+00 0. -1.
         21    1    1    2  503  501  0.24316647303E+02 -0.38930688157E+02  0.62229428522E+01  0.46320868236E+02  0.00000000000E+00 0.  1.
          2    1    1    2  501    0  0.92631909014E+02 -0.61554089658E+02  0.59558570509E+02  0.12616180025E+03  0.00000000000E+00 0. -1.
<scales pt_clust_5="13000.00000" pt_clust_6="13000.00000" pt_clust_7="13000.00000" pt_clust_8="13000.00000" pt_clust_9="26.08677" pt_clust_10="146.15726"></scales>
<clustering>
<clus scale="   26.087">  9 10 -1 -1</clus>
<clus scale="   90.094">  5  6 -1 -1</clus>
<clus scale="   93.616">  7  8 -1 -1</clus>
<clus scale="  108.591">  1  7  2 -1</clus>
<clus scale="  146.157">  2  9  1 -1</clus>
<clus scale="  146.157">  2  5  1 -1</clus>
</clustering>
</event>
<event>
10    2  0.1671105E-006  0.1929723E+03  0.7546771E-02  0.1178923E+00
          2   -1    0    0  503    0 -0.00000000000E+00  0.00000000000E+00  0.39702405593E+03  0.39702405593E+03  0.00000000000E+00 0. -1.
         21   -1    0    0  501  502  0.00000000000E+00 -0.00000000000E+00 -0.45950982710E+03  0.45950982710E+03  0.00000000000E+00 0. -1.
         23    2    1    2    0    0  0.69409366818E+02 -0.30365037096E+02  0.20828085013E+03  0.23767619612E+03  0.85845011449E+02 0.  0.
         23    2    1    2    0    0  0.74015866413E+02  0.11422838018E+03  0.47828828934E+02  0.17339898218E+03  0.96193236901E+02 0.  0.
        -11    1    4    4    0    0  0.42658092736E+02  0.83080593756E+02  0.76492709599E+02  0.12071964445E+03  0.00000000000E+00 0. -1.
         11    1    4    4    0    0  0.31357773677E+02  0.31147786428E+02 -0.28663880665E+02  0.52679337734E+02  0.00000000000E+00 0.  1.
        -11    1    3    3    0    0  0.59295793810E+02 -0.12191183779E+02  0.20825791291E+03  0.21687778682E+03  0.00000000000E+00 0. -1.
         11    1    3    3    0    0  0.10113573008E+02 -0.18173853317E+02  0.22937221964E-01  0.20798409302E+02  0.00000000000E+00 0.  1.
         21    1    1    2  503  502 -0.27419490855E+01  0.87230237772E+02 -0.11688619851E+03  0.14587328771E+03  0.00000000000E+00 0. -1.
          2    1    1    2  501    0 -0.14068328415E+03 -0.17109358086E+03 -0.20170925172E+03  0.29958541700E+03  0.00000000000E+00 0. -1.
<scales pt_clust_5="13000.00000" pt_clust_6="13000.00000" pt_clust_7="13000.00000" pt_clust_8="13000.00000" pt_clust_9="87.27332" pt_clust_10="167.28768"></scales>
<clustering>
<clus scale="   85.845">  7  8 -1 -1</clus>
<clus scale="   87.273">  2  9  1 -1</clus>
<clus scale="   96.193">  5  6 -1 -1</clus>
<clus scale="  113.446">  1  7  2 -1</clus>
<clus scale="  167.288">  2 10  1 -1</clus>
<clus scale="   87.273">  2  5  1 -1</clus>
</clustering>
</event>
<event>
10    2  0.1671105E-006  0.1173764E+03  0.7546771E-02  0.1247739E+00
          3   -1    0    0  503    0 -0.00000000000E+00  0.00000000000E+00  0.54896908727E+03  0.54896908727E+03  0.00000000000E+00 0. -1.
         21   -1    0    0  501  502  0.00000000000E+00 -0.00000000000E+00 -0.65654603717E+02  0.65654603717E+02  0.00000000000E+00 0. -1.
         23    2    1    2    0    0  0.46711921936E+02 -0.51133507758E+02  0.21519226039E+03  0.24393262351E+03  0.91644839548E+02 0.  0.
         23    2    1    2    0    0 -0.72913213950E+02  0.38012164055E+02  0.20575436650E+03  0.24006702751E+03  0.92390784060E+02 0.  0.
        -11    1    3    3    0    0  0.69944661202E+02 -0.39676368722E+02  0.19550283414E+03  0.21139495742E+03  0.00000000000E+00 0.  1.
         11    1    3    3    0    0 -0.23232739266E+02 -0.11457139036E+02  0.19689426244E+02  0.32537666089E+02  0.00000000000E+00 0. -1.
        -13    1    4    4    0    0 -0.31219260419E+02 -0.28855423843E+02  0.50919503149E+02  0.66333049886E+02  0.00000000000E+00 0.  1.
         13    1    4    4    0    0 -0.41693953532E+02  0.66867587898E+02  0.15483486335E+03  0.17373397762E+03  0.00000000000E+00 0. -1.
         21    1    1    2  503  502  0.49075807948E+00  0.26657299768E+02  0.87955300716E+02  0.91907493701E+02  0.00000000000E+00 0. -1.
          3    1    1    2  501    0  0.25710533935E+02 -0.13535956065E+02 -0.25587444049E+02  0.38716546266E+02  0.00000000000E+00 0. -1.
<scales pt_clust_5="13000.00000" pt_clust_6="13000.00000" pt_clust_7="13000.00000" pt_clust_8="13000.00000" pt_clust_9="26.66182" pt_clust_10="28.88667"></scales>
<clustering>
<clus scale="   26.662">  1  9  2 -1</clus>
<clus scale="   28.887">  2 10  1 -1</clus>
<clus scale="   91.645">  5  6 -1 -1</clus>
<clus scale="   92.391">  7  8 -1 -1</clus>
<clus scale="  116.790">  1  5  2 -1</clus>
<clus scale="   28.887">  2  5  1 -1</clus>
</clustering>
</event>
<event>
10    2  0.1671105E-006  0.3660322E+03  0.7546771E-02  0.1056307E+00
         -3   -1    0    0    0  501 -0.00000000000E+00  0.00000000000E+00  0.10321280502E+04  0.10321280502E+04  0.00000000000E+00 0.  1.
         21   -1    0    0  503  502  0.00000000000E+00 -0.00000000000E+00 -0.28399231076E+03  0.28399231076E+03  0.00000000000E+00 0.  1.
         23    2    1    2    0    0  0.25947425172E+03 -0.17584251029E+03  0.37146570327E+03  0.49382772931E+03  0.87358925122E+02 0.  0.
         23    2    1    2    0    0 -0.29790864649E+03  0.36518675066E+03  0.15288946590E+03  0.50375323844E+03  0.91001164535E+02 0.  0.
        -11    1    4    4    0    0 -0.26981874627E+03  0.36232641099E+03  0.14420600689E+03  0.47421298629E+03  0.00000000000E+00 0.  1.
         11    1    4    4    0    0 -0.28089900213E+02  0.28603396755E+01  0.86834590050E+01  0.29540252155E+02  0.00000000000E+00 0. -1.
        -13    1    3    3    0    0  0.21996187746E+03 -0.17609917239E+03  0.34837721313E+03  0.44806342038E+03  0.00000000000E+00 0.  1.
         13    1    3    3    0    0  0.39512374261E+02  0.25666209889E+00  0.23088490140E+02  0.45764308933E+02  0.00000000000E+00 0. -1.
         21    1    1    2  503  501 -0.38904321961E+02 -0.49107516585E+02  0.91128307574E+02  0.11058690200E+03  0.00000000000E+00 0. -1.
         -3    1    1    2    0  502  0.77338716729E+02 -0.14023672379E+03  0.13265226270E+03  0.20795249122E+03  0.00000000000E+00 0.  1.
<scales pt_clust_5="13000.00000" pt_clust_6="13000.00000" pt_clust_7="13000.00000" pt_clust_8="13000.00000" pt_clust_9="62.65057" pt_clust_10="164.91575"></scales>
<clustering>
<clus scale="   62.651">  1  9  2 -1</clus>
<clus scale="   87.359">  7  8 -1 -1</clus>
<clus scale="   91.001">  5  6 -1 -1</clus>
<clus scale="  164.916">  2 10  1 -1</clus>
<clus scale="  365.144">  1  7  2 -1</clus>
<clus scale="  164.916">  2  5  1 -1</clus>
</clustering>
</event>
<event>
10    2  0.1671105E-006  0.1120038E+03  0.7546771E-02  0.1256976E+00
         21   -1    0    0  501  502  0.00000000000E+00  0.00000000000E+00  0.80289011909E+02  0.80289011909E+02  0.00000000000E+00 0. -1.
          2   -1    0    0  503    0 -0.00000000000E+00 -0.00000000000E+00 -0.25099117239E+03  0.25099117239E+03  0.00000000000E+00 0. -1.
         23    2    1    2    0    0  0.75108217734E+02 -0.15423234962E+02 -0.92522155237E+02  0.15026635353E+03  0.90224759601E+02 0.  0.
         23    2    1    2    0    0 -0.54066668310E+02  0.18336799338E+02 -0.38980291498E+02  0.11382031986E+03  0.90422117076E+02 0.  0.
        -11    1    4    4    0    0 -0.12933848960E+02  0.51975165496E+02 -0.15748904579E+02  0.55827683748E+02  0.00000000000E+00 0.  1.
         11    1    4    4    0    0 -0.41132819350E+02 -0.33638366158E+02 -0.23231386919E+02  0.57992636116E+02  0.00000000000E+00 0. -1.
        -13    1    3    3    0    0  0.55863310614E+02 -0.50355766012E+02 -0.76520611818E+02  0.10729313434E+03  0.00000000000E+00 0. -1.
         13    1    3    3    0    0  0.19244907120E+02  0.34932531050E+02 -0.16001543419E+02  0.42973219188E+02  0.00000000000E+00 0.  1.
         21    1    1    2  503  502 -0.19307273138E+02 -0.22980435990E+02 -0.35882327967E+02  0.46780473434E+02  0.00000000000E+00 0. -1.
          2    1    1    2  501    0 -0.17342762862E+01  0.20066871615E+02 -0.33173857820E+01  0.20413037478E+02  0.00000000000E+00 0. -1.
<scales pt_clust_5="13000.00000" pt_clust_6="13000.00000" pt_clust_7="13000.00000" pt_clust_8="13000.00000" pt_clust_9="28.95248" pt_clust_10="20.14167"></scales>
<clustering>
<clus scale="   20.142">  1 10  2 -1</clus>
<clus scale="   28.952">  2  9  1 -1</clus>
<clus scale="   90.225">  7  8 -1 -1</clus>
<clus scale="   90.422">  5  6 -1 -1</clus>
<clus scale="  111.845">  2  7  1 -1</clus>
<clus scale="   20.142">  1  5  2 -1</clus>
</clustering>
</event>
<event>
10    2  0.1671105E-006  0.1427289E+03  0.7546771E-02  0.1222743E+00
          2   -1    0    0  502    0 -0.00000000000E+00  0.00000000000E+00  0.12489858617E+04  0.12489858617E+04  0.00000000000E+00 0. -1.
         21   -1    0    0  503  502  0.00000000000E+00 -0.00000000000E+00 -0.29938858464E+02  0.29938858464E+02  0.00000000000E+00 0. -1.
         23    2    1    2    0    0  0.21094970787E+02  0.50239128700E+02  0.43893230091E+03  0.45210858425E+03  0.93657030302E+02 0.  0.
         23    2    1    2    0    0 -0.12310220498E+03 -0.25793384580E+02  0.52355265627E+03  0.54621056889E+03  0.91755926882E+02 0.  0.
        -11    1    4    4    0    0 -0.15893602573E+02 -0.29420559670E+02  0.46675970344E+02  0.57417960096E+02  0.00000000000E+00 0.  1.
         11    1    4    4    0    0 -0.10720860240E+03  0.36271750902E+01  0.47687668593E+03  0.48879260879E+03  0.00000000000E+00 0. -1.
        -13    1    3    3    0    0  0.20350244547E+02  0.73482018601E+02  0.39608653016E+03  0.40335874713E+03  0.00000000000E+00 0. -1.
         13    1    3    3    0    0  0.74472624019E+00 -0.23242889901E+02  0.42845770745E+02  0.48749837117E+02  0.00000000000E+00 0.  1.
         21    1    1    2  503  501  0.15783080002E+02 -0.17377989035E+02  0.30038328400E+02  0.38123500499E+02  0.00000000000E+00 0. -1.
          2    1    1    2  501    0  0.86224154186E+02 -0.70677550847E+01  0.22652371767E+03  0.24248206654E+03  0.00000000000E+00 0. -1.
<scales pt_clust_5="13000.00000" pt_clust_6="13000.00000" pt_clust_7="13000.00000" pt_clust_8="13000.00000" pt_clust_9="22.77968" pt_clust_10="117.74856"></scales>
<clustering>
<clus scale="   22.780">  9 10 -1 -1</clus>
<clus scale="   91.756">  5  6 -1 -1</clus>
<clus scale="   93.657">  7  8 -1 -1</clus>
<clus scale="  108.354">  1  7  2 -1</clus>
<clus scale="  117.749">  2  9  1 -1</clus>
<clus scale="  117.749">  2  5  1 -1</clus>
</clustering>
</event>
<event>
10    2  0.1671105E-006  0.2431992E+03  0.7546771E-02  0.1128053E+00
         21   -1    0    0  501  502  0.00000000000E+00  0.00000000000E+00  0.44920157964E+03  0.44920157964E+03  0.00000000000E+00 0. -1.
          2   -1    0    0  503    0 -0.00000000000E+00 -0.00000000000E+00 -0.14410110418E+04  0.14410110418E+04  0.00000000000E+00 0. -1.
         23    2    1    2    0    0  0.10447543915E+03  0.13239532024E+03 -0.34244119140E+03  0.39236911480E+03  0.90796004710E+02 0.  0.
         23    2    1    2    0    0  0.12857093774E+03 -0.19841486168E+03 -0.10122019061E+04  0.10431823277E+04  0.88191420786E+02 0.  0.
        -13    1    4    4    0    0  0.11810127620E+03 -0.11633592676E+03 -0.75550631191E+03  0.77348028199E+03  0.00000000000E+00 0. -1.
         13    1    4    4    0    0  0.10469661539E+02 -0.82078934918E+02 -0.25669559418E+03  0.26970204567E+03  0.00000000000E+00 0.  1.
        -13    1    3    3    0    0  0.88575076781E+02  0.42359442061E+02 -0.14944850455E+03  0.17881477028E+03  0.00000000000E+00 0. -1.
         13    1    3    3    0    0  0.15900362365E+02  0.90035878183E+02 -0.19299268686E+03  0.21355434452E+03  0.00000000000E+00 0.  1.
         21    1    1    2  503  502 -0.12587083935E+03  0.59032147823E+02  0.29894788222E+03  0.32969394741E+03  0.00000000000E+00 0. -1.
          2    1    1    2  501    0 -0.10717553754E+03  0.69873936110E+01  0.63885753113E+02  0.12496723157E+03  0.00000000000E+00 0. -1.
<scales pt_clust_5="13000.00000" pt_clust_6="13000.00000" pt_clust_7="13000.00000" pt_clust_8="13000.00000" pt_clust_9="226.64537" pt_clust_10="107.40307"></scales>
<clustering>
<clus scale="   88.191">  5  6 -1 -1</clus>
<clus scale="   90.796">  7  8 -1 -1</clus>
<clus scale="  107.403">  1 10  2 -1</clus>
<clus scale="  187.880">  2  7  1 -1</clus>
<clus scale="  226.645">  1  9  2 -1</clus>
<clus scale="  107.403">  1  5  2 -1</clus>
</clustering>
</event>
<event>
10    2  0.1671105E-006  0.1353681E+03  0.7546771E-02  0.1221724E+00
         -4   -1    0    0    0  501 -0.00000000000E+00  0.00000000000E+00  0.45080413675E+03  0.45080413675E+03  0.00000000000E+00 0.  1.
         21   -1    0    0  503  502  0.00000000000E+00 -0.00000000000E+00 -0.42393690111E+03  0.42393690111E+03  0.00000000000E+00 0.  1.
         23    2    1    2    0    0  0.67376572738E+02  0.69403307452E+02  0.34975007727E+03  0.37435709519E+03  0.91987480318E+02 0.  0.
         23    2    1    2    0    0  0.84513956953E+02  0.17007572515E+02 -0.53984471217E+02  0.13741728923E+03  0.92397628777E+02 0.  0.
        -13    1    4    4    0    0  0.25365300460E+02  0.50933998734E+02 -0.34325086664E+02  0.66452105075E+02  0.00000000000E+00 0.  1.
         13    1    4    4    0    0  0.59148656493E+02 -0.33926426219E+02 -0.19659384554E+02  0.70965184154E+02  0.00000000000E+00 0. -1.
        -13    1    3    3    0    0  0.35775951917E+02  0.77171729641E+02  0.31690158949E+03  0.32811889920E+03  0.00000000000E+00 0.  1.
         13    1    3    3    0    0  0.31600620821E+02 -0.77684221889E+01  0.32848487778E+02  0.46238195995E+02  0.00000000000E+00 0. -1.
         21    1    1    2  503  501 -0.17758893023E+03 -0.46141518671E+02 -0.25317881870E+03  0.31267616174E+03  0.00000000000E+00 0.  1.
         -4    1    1    2    0  502  0.25698400536E+02 -0.40269361295E+02 -0.15719551712E+02  0.50290491698E+02  0.00000000000E+00 0.  1.
<scales pt_clust_5="13000.00000" pt_clust_6="13000.00000" pt_clust_7="13000.00000" pt_clust_8="13000.00000" pt_clust_9="99.31172" pt_clust_10="47.77059"></scales>
<clustering>
<clus scale="   47.771">  2 10  1 -1</clus>
<clus scale="   91.987">  7  8 -1 -1</clus>
<clus scale="   92.398">  5  6 -1 -1</clus>
<clus scale="  129.746">  2  5  1 -1</clus>
<clus scale="   99.312">  2  9  1 -1</clus>
<clus scale="   47.771">  2  5  1 -1</clus>
</clustering>
</event>
<event>
10    2  0.1671105E-006  0.1305864E+03  0.7546771E-02  0.1242488E+00
         21   -1    0    0  503  502  0.00000000000E+00  0.00000000000E+00  0.97385829311E+02  0.97385829311E+02  0.00000000000E+00 0. -1.
          2   -1    0    0  502    0 -0.00000000000E+00 -0.00000000000E+00 -0.80109266071E+03  0.80109266071E+03  0.00000000000E+00 0. -1.
         23    2    1    2    0    0 -0.16007146007E+02 -0.21618225687E+02 -0.50610418584E+02  0.10699787079E+03  0.90352385019E+02 0.  0.
         23    2    1    2    0    0  0.69523120274E+02  0.96148619518E+02 -0.67087642260E+03  0.68737888903E+03  0.91304662531E+02 0.  0.
        -11    1    4    4    0    0 -0.52830414929E+00  0.77071938598E+02 -0.33764327035E+03  0.34632837140E+03  0.00000000000E+00 0.  1.
         11    1    4    4    0    0  0.70051424423E+02  0.19076680919E+02 -0.33323315225E+03  0.34105051764E+03  0.00000000000E+00 0. -1.
        -11    1    3    3    0    0  0.37597017347E+02 -0.11649850926E+02 -0.16467128589E+02  0.42666392676E+02  0.00000000000E+00 0. -1.
         11    1    3    3    0    0 -0.53604163354E+02 -0.99683747616E+01 -0.34143289995E+02  0.64331478111E+02  0.00000000000E+00 0.  1.
         21    1    1    2  503  501 -0.45397324719E+02 -0.27091513511E+02  0.21170942302E+00  0.52866927439E+02  0.00000000000E+00 0.  1.
          2    1    1    2  501    0 -0.81186495485E+01 -0.47438880319E+02  0.17568300361E+02  0.51234802762E+02  0.00000000000E+00 0. -1.
<scales pt_clust_5="13000.00000" pt_clust_6="13000.00000" pt_clust_7="13000.00000" pt_clust_8="13000.00000" pt_clust_9="43.74806" pt_clust_10="104.01232"></scales>
<clustering>
<clus scale="   43.748">  9 10 -1 -1</clus>
<clus scale="   90.352">  7  8 -1 -1</clus>
<clus scale="   91.305">  5  6 -1 -1</clus>
<clus scale="   94.272">  2  7  1 -1</clus>
<clus scale="  104.012">  1  9  2 -1</clus>
<clus scale="  104.012">  1  5  2 -1</clus>
</clustering>
</event>
<event>
10    2  0.1671105E-006  0.2289940E+03  0.7546771E-02  0.1148925E+00
         21   -1    0    0  501  502  0.00000000000E+00  0.00000000000E+00  0.13800037751E+03  0.13800037751E+03  0.00000000000E+00 0.  1.
          1   -1    0    0  503    0 -0.00000000000E+00 -0.00000000000E+00 -0.14421681515E+04  0.14421681515E+04  0.00000000000E+00 0. -1.
         23    2    1    2    0    0  0.82085344461E+02  0.64352185033E+02 -0.48683874984E+03  0.50616155126E+03  0.91150096683E+02 0.  0.
         23    2    1    2    0    0 -0.15119006507E+03  0.11985942228E+03 -0.55347700544E+03  0.59236031474E+03  0.85610922439E+02 0.  0.
        -11    1    3    3    0    0  0.40034553558E+02  0.76708310212E+02 -0.39546099210E+03  0.40481641099E+03  0.00000000000E+00 0. -1.
         11    1    3    3    0    0  0.42050790903E+02 -0.12356125179E+02 -0.91377757747E+02  0.10134514027E+03  0.00000000000E+00 0.  1.
        -11    1    4    4    0    0 -0.81027300910E+02  0.22641951624E+02 -0.15658482385E+03  0.17775513642E+03  0.00000000000E+00 0. -1.
         11    1    4    4    0    0 -0.70162764163E+02  0.97217470654E+02 -0.39689218159E+03  0.41460517831E+03  0.00000000000E+00 0.  1.
         21    1    1    2  503  502  0.16792216046E+03 -0.23529429834E+03 -0.16508630435E+03  0.33288848987E+03  0.00000000000E+00 0.  1.
          1    1    1    2  501    0 -0.98817439845E+02  0.51082691032E+02 -0.98765714335E+02  0.14875817312E+03  0.00000000000E+00 0. -1.
<scales pt_clust_5="13000.00000" pt_clust_6="13000.00000" pt_clust_7="13000.00000" pt_clust_8="13000.00000" pt_clust_9="212.38886" pt_clust_10="111.23996"></scales>
<clustering>
<clus scale="   85.611">  7  8 -1 -1</clus>
<clus scale="   91.150">  5  6 -1 -1</clus>
<clus scale="  111.240">  1 10  2 -1</clus>
<clus scale="  135.842">  2  5  1 -1</clus>
<clus scale="  212.389">  1  9  2 -1</clus>
<clus scale="  111.240">  1  5  2 -1</clus>
</clustering>
</event>
<event>
10    2  0.1671105E-006  0.1079974E+03  0.7546771E-02  0.1265160E+00
         21   -1    0    0  501  502  0.00000000000E+00  0.00000000000E+00  0.65996480217E+02  0.65996480217E+02  0.00000000000E+00 0.  1.
         -4   -1    0    0    0  501 -0.00000000000E+00 -0.00000000000E+00 -0.63858548754E+03  0.63858548754E+03  0.00000000000E+00 0.  1.
         23    2    1    2    0    0  0.42180601365E+02 -0.21547550454E+02 -0.47471483154E+03  0.48655286609E+03  0.95582530578E+02 0.  0.
         23    2    1    2    0    0 -0.67589047724E+02  0.95832502813E+01 -0.78702751948E+02  0.14005693439E+03  0.93603972395E+02 0.  0.
        -11    1    3    3    0    0 -0.24335966127E+02  0.36139821631E+01 -0.47849757345E+02  0.53804269277E+02  0.00000000000E+00 0. -1.
         11    1    3    3    0    0  0.66516567491E+02 -0.25161532617E+02 -0.42686507420E+03  0.43274859681E+03  0.00000000000E+00 0.  1.
        -13    1    4    4    0    0 -0.70941632434E+02  0.41602890742E+02 -0.65991294777E+02  0.10544366608E+03  0.00000000000E+00 0.  1.
         13    1    4    4    0    0  0.33525847107E+01 -0.32019640460E+02 -0.12711457170E+02  0.34613268306E+02  0.00000000000E+00 0. -1.
         21    1    1    2  503  502  0.14155442511E+02 -0.27472364849E+02  0.35161599359E+01  0.31104192061E+02  0.00000000000E+00 0. -1.
         -4    1    1    2    0  503  0.11253003848E+02  0.39436665022E+02 -0.22687583767E+02  0.46867975215E+02  0.00000000000E+00 0.  1.
<scales pt_clust_5="13000.00000" pt_clust_6="13000.00000" pt_clust_7="13000.00000" pt_clust_8="13000.00000" pt_clust_9="30.90481" pt_clust_10="35.80231"></scales>
<clustering>
<clus scale="   30.905">  1  9  2 -1</clus>
<clus scale="   35.802">  1 10  2 -1</clus>
<clus scale="   93.604">  7  8 -1 -1</clus>
<clus scale="   95.583">  5  6 -1 -1</clus>
<clus scale="  106.250">  1  7  2 -1</clus>
<clus scale="   30.905">  1  5  2 -1</clus>
</clustering>
</event>
<event>
10    2  0.1671105E-006  0.1162196E+03  0.7546771E-02  0.1249676E+00
         21   -1    0    0  503  502  0.00000000000E+00  0.00000000000E+00  0.74799537338E+03  0.74799537338E+03  0.00000000000E+00 0. -1.
         -1   -1    0    0    0  501 -0.00000000000E+00 -0.00000000000E+00 -0.39258107290E+02  0.39258107290E+02  0.00000000000E+00 0.  1.
         23    2    1    2    0    0  0.48796951995E+02  0.16387646983E+02  0.12636534392E+03  0.16411525003E+03  0.91191653397E+02 0.  0.
         23    2    1    2    0    0 -0.98374638245E+02  0.75377585135E+01  0.32879939251E+03  0.35503091635E+03  0.90573306225E+02 0.  0.
        -11    1    3    3    0    0  0.82637365327E+01 -0.34902826993E+02  0.25854089923E+02  0.44214597582E+02  0.00000000000E+00 0. -1.
         11    1    3    3    0    0  0.40533215462E+02  0.51290473976E+02  0.10051125400E+03  0.11990065244E+03  0.00000000000E+00 0.  1.
        -13    1    4    4    0    0 -0.11673112808E+02  0.36951961939E+02  0.13903941164E+03  0.14433872330E+03  0.00000000000E+00 0.  1.
         13    1    4    4    0    0 -0.86701525436E+02 -0.29414203426E+02  0.18975998086E+03  0.21069219305E+03  0.00000000000E+00 0. -1.
         21    1    1    2  503  501  0.20027328538E+02  0.18957935795E+02  0.42185601283E+02  0.50399624736E+02  0.00000000000E+00 0.  1.
         -1    1    1    2    0  502  0.29550357712E+02 -0.42883341291E+02  0.21138692838E+03  0.21770768956E+03  0.00000000000E+00 0.  1.
<scales pt_clust_5="13000.00000" pt_clust_6="13000.00000" pt_clust_7="13000.00000" pt_clust_8="13000.00000" pt_clust_9="27.57711" pt_clust_10="51.75503"></scales>
<clustering>
<clus scale="   27.577">  2  9  1 -1</clus>
<clus scale="   51.755">  1 10  2 -1</clus>
<clus scale="   90.573">  7  8 -1 -1</clus>
<clus scale="   91.192">  5  6 -1 -1</clus>
<clus scale="  115.735">  1  7  2 -1</clus>
<clus scale="   51.755">  1  5  2 -1</clus>
</clustering>
</event>
<event>
10    2  0.1671105E-006  0.9415360E+02  0.7546771E-02  0.1293115E+00
          2   -1    0    0  503    0 -0.00000000000E+00  0.00000000000E+00  0.13899187251E+03  0.13899187251E+03  0.00000000000E+00 0. -1.
         21   -1    0    0  501  502  0.00000000000E+00 -0.00000000000E+00 -0.24033544092E+03  0.24033544092E+03  0.00000000000E+00 0. -1.
         23    2    1    2    0    0 -0.26025258412E+02 -0.54484980069E+02  0.30467302847E+02  0.11315596321E+03  0.90719834323E+02 0.  0.
         23    2    1    2    0    0 -0.10549315726E+02 -0.91540814397E+01  0.39816207867E+01  0.91912748191E+02  0.90758000785E+02 0.  0.
        -11    1    3    3    0    0 -0.53793562057E+02 -0.21625596901E+02  0.38219910588E+02  0.69441884518E+02  0.00000000000E+00 0.  1.
         11    1    3    3    0    0  0.27768303644E+02 -0.32859383168E+02 -0.77526077409E+01  0.43714078696E+02  0.00000000000E+00 0. -1.
        -13    1    4    4    0    0  0.24015342619E+02  0.30666187498E+02 -0.87406905637E+00  0.38960438056E+02  0.00000000000E+00 0.  1.
         13    1    4    4    0    0 -0.34564658345E+02 -0.39820268938E+02  0.48556898431E+01  0.52952310135E+02  0.00000000000E+00 0. -1.
         21    1    1    2  503  502  0.40586293096E+02  0.12590954080E+02 -0.18637176295E+02  0.46401763460E+02  0.00000000000E+00 0. -1.
          2    1    1    2  501    0 -0.40117189577E+01  0.51048107429E+02 -0.11715531574E+03  0.12785683856E+03  0.00000000000E+00 0. -1.
<scales pt_clust_5="13000.00000" pt_clust_6="13000.00000" pt_clust_7="13000.00000" pt_clust_8="13000.00000" pt_clust_9="42.49446" pt_clust_10="61.76843"></scales>
<clustering>
<clus scale="   42.494">  2  9  1 -1</clus>
<clus scale="   61.768">  2 10  1 -1</clus>
<clus scale="   90.720">  5  6 -1 -1</clus>
<clus scale="   90.758">  7  8 -1 -1</clus>
<clus scale="   94.117">  1  5  2 -1</clus>
<clus scale="   42.494">  2  5  1 -1</clus>
</clustering>
</event>
<event>
10    2  0.1671105E-006  0.2068275E+03  0.7546771E-02  0.1144193E+00
         21   -1    0    0  503  502  0.00000000000E+00  0.00000000000E+00  0.47539508796E+03  0.47539508796E+03  0.00000000000E+00 0.  1.
          2   -1    0    0  502    0 -0.00000000000E+00 -0.00000000000E+00 -0.12681281480E+03  0.12681281480E+03  0.00000000000E+00 0. -1.
         23    2    1    2    0    0  0.74508912747E+02 -0.18156222584E+03  0.10207354741E+03  0.23893373393E+03  0.90298949051E+02 0.  0.
         23    2    1    2    0    0 -0.10011982455E+03  0.14217815552E+03  0.18647363858E+03  0.27082880313E+03  0.91308354192E+02 0.  0.
        -11    1    4    4    0    0 -0.93843005104E+02  0.60318845558E+02  0.12935445193E+03  0.17081407135E+03  0.00000000000E+00 0. -1.
         11    1    4    4    0    0 -0.62768194422E+01  0.81859309963E+02  0.57119186650E+02  0.10001473178E+03  0.00000000000E+00 0.  1.
        -13    1    3    3    0    0  0.72213852792E+02 -0.58486535563E+02  0.42855017487E+02  0.10233312221E+03  0.00000000000E+00 0.  1.
         13    1    3    3    0    0  0.22950599553E+01 -0.12307569028E+03  0.59218529923E+02  0.13660061172E+03  0.00000000000E+00 0. -1.
         21    1    1    2  503  501 -0.13616084324E+02  0.18701257250E+02  0.33680066955E+02  0.40859291296E+02  0.00000000000E+00 0.  1.
          2    1    1    2  501    0  0.39226996123E+02  0.20682813067E+02  0.26355020213E+02  0.51586074396E+02  0.00000000000E+00 0. -1.
<scales pt_clust_5="13000.00000" pt_clust_6="13000.00000" pt_clust_7="13000.00000" pt_clust_8="13000.00000" pt_clust_9="23.13298" pt_clust_10="44.09720"></scales>
<clustering>
<clus scale="   23.133">  1  9  2 -1</clus>
<clus scale="   44.097">  1 10  2 -1</clus>
<clus scale="   90.299">  7  8 -1 -1</clus>
<clus scale="   91.308">  5  6 -1 -1</clus>
<clus scale="  206.384">  2  7  1 -1</clus>
<clus scale="   23.133">  1  5  2 -1</clus>
</clustering>
</event>
<event>
10    2  0.1671105E-006  0.1405115E+03  0.7546771E-02  0.1232447E+00
          2   -1    0    0  503    0 -0.00000000000E+00  0.00000000000E+00  0.49596951991E+03  0.49596951991E+03  0.00000000000E+00 0. -1.
         21   -1    0    0  501  502  0.00000000000E+00 -0.00000000000E+00 -0.20228908406E+03  0.20228908406E+03  0.00000000000E+00 0. -1.
         23    2    1    2    0    0  0.15984262483E+01  0.16841960448E+02  0.16786404522E+03  0.19201435143E+03  0.91678606440E+02 0.  0.
         23    2    1    2    0    0 -0.30279066649E+02 -0.11144619760E+03  0.24174810404E+03  0.28329263691E+03  0.92062454234E+02 0.  0.
        -11    1    3    3    0    0 -0.19747195048E+02  0.49695636077E+02  0.86229834318E+02  0.10146522697E+03  0.00000000000E+00 0. -1.
         11    1    3    3    0    0  0.21345621296E+02 -0.32853675629E+02  0.81634210899E+02  0.90549124458E+02  0.00000000000E+00 0.  1.
        -11    1    4    4    0    0  0.19883226321E+01 -0.10605614229E+03  0.13526064627E+03  0.17189328426E+03  0.00000000000E+00 0.  1.
         11    1    4    4    0    0 -0.32267389281E+02 -0.53900553147E+01  0.10648745777E+03  0.11139935265E+03  0.00000000000E+00 0. -1.
         21    1    1    2  503  502  0.34789518157E+01  0.11766021674E+03 -0.17805824656E+02  0.11905073331E+03  0.00000000000E+00 0. -1.
          2    1    1    2  501    0  0.25201688585E+02 -0.23055979589E+02 -0.98125888758E+02  0.10390088232E+03  0.00000000000E+00 0. -1.
<scales pt_clust_5="13000.00000" pt_clust_6="13000.00000" pt_clust_7="13000.00000" pt_clust_8="13000.00000" pt_clust_9="106.15079" pt_clust_10="34.15704"></scales>
<clustering>
<clus scale="   34.157">  2 10  1 -1</clus>
<clus scale="   91.679">  5  6 -1 -1</clus>
<clus scale="   92.062">  7  8 -1 -1</clus>
<clus scale="   92.870">  1  5  2 -1</clus>
<clus scale="  106.151">  2  9  1 -1</clus>
<clus scale="   34.157">  2  5  1 -1</clus>
</clustering>
</event>
<event>
10    2  0.1671105E-006  0.1506010E+03  0.7546771E-02  0.1200366E+00
         21   -1    0    0  503  502  0.00000000000E+00  0.00000000000E+00  0.47332482560E+03  0.47332482560E+03  0.00000000000E+00 0.  1.
          1   -1    0    0  502    0 -0.00000000000E+00 -0.00000000000E+00 -0.20738531983E+03  0.20738531983E+03  0.00000000000E+00 0. -1.
         23    2    1    2    0    0 -0.10976799430E+03  0.32026070105E+02 -0.42306821529E+02  0.15244913637E+03  0.91521529123E+02 0.  0.
         23    2    1    2    0    0  0.12973460122E+03 -0.10892885626E+03  0.37328895665E+03  0.41929146321E+03  0.88114263770E+02 0.  0.
        -11    1    4    4    0    0  0.57261104345E+02  0.22549540923E+01  0.94375665685E+02  0.11041143583E+03  0.00000000000E+00 0. -1.
         11    1    4    4    0    0  0.72473496879E+02 -0.11118381035E+03  0.27891329097E+03  0.30888002738E+03  0.00000000000E+00 0.  1.
        -13    1    3    3    0    0 -0.93658800654E+02 -0.48887065850E+01 -0.56798664637E+02  0.10964469297E+03  0.00000000000E+00 0. -1.
         13    1    3    3    0    0 -0.16109193641E+02  0.36914776690E+02  0.14491843108E+02  0.42804443396E+02  0.00000000000E+00 0.  1.
         21    1    1    2  503  501 -0.17840528369E+02  0.10553210915E+02 -0.19554694635E+02  0.28496329507E+02  0.00000000000E+00 0. -1.
          1    1    1    2  501    0 -0.21260785607E+01  0.66349575239E+02 -0.45487934714E+02  0.80473216346E+02  0.00000000000E+00 0. -1.
<scales pt_clust_5="13000.00000" pt_clust_6="13000.00000" pt_clust_7="13000.00000" pt_clust_8="13000.00000" pt_clust_9="20.38718" pt_clust_10="87.42898"></scales>
<clustering>
<clus scale="   20.387">  9 10 -1 -1</clus>
<clus scale="   87.429">  1  9  2 -1</clus>
<clus scale="   88.114">  5  6 -1 -1</clus>
<clus scale="   91.522">  7  8 -1 -1</clus>
<clus scale="  148.555">  1  5  2 -1</clus>
<clus scale="   87.429">  1  5  2 -1</clus>
</clustering>
</event>
<event>
10    2  0.1671105E-006  0.3438861E+03  0.7546771E-02  0.1065177E+00
         21   -1    0    0  501  502  0.00000000000E+00  0.00000000000E+00  0.38676013559E+03  0.38676013559E+03  0.00000000000E+00 0. -1.
          1   -1    0    0  503    0 -0.00000000000E+00 -0.00000000000E+00 -0.54076125146E+03  0.54076125146E+03  0.00000000000E+00 0. -1.
         23    2    1    2    0    0  0.38489970033E+03  0.58115105045E+02 -0.16605663592E+03  0.43301006743E+03  0.91639333308E+02 0.  0.
         23    2    1    2    0    0 -0.26703596731E+03 -0.10358023409E+03  0.71934463298E+02  0.30946540517E+03  0.92505120158E+02 0.  0.
        -11    1    3    3    0    0  0.27603284918E+03  0.70346575649E+02 -0.15107602501E+03  0.32243873816E+03  0.00000000000E+00 0. -1.
         11    1    3    3    0    0  0.10886685116E+03 -0.12231470605E+02 -0.14980610913E+02  0.11057132927E+03  0.00000000000E+00 0.  1.
        -13    1    4    4    0    0 -0.23320098001E+03 -0.54502364709E+02  0.71217853734E+02  0.24985033025E+03  0.00000000000E+00 0. -1.
         13    1    4    4    0    0 -0.33834987308E+02 -0.49077869380E+02  0.71660956452E+00  0.59615074925E+02  0.00000000000E+00 0.  1.
         21    1    1    2  503  502 -0.56901059211E+02 -0.22364304681E+02 -0.70400025177E+02  0.93241923018E+02  0.00000000000E+00 0. -1.
          1    1    1    2  501    0 -0.60962673810E+02  0.67829433726E+02  0.10521081925E+02  0.91803991430E+02  0.00000000000E+00 0. -1.
<scales pt_clust_5="13000.00000" pt_clust_6="13000.00000" pt_clust_7="13000.00000" pt_clust_8="13000.00000" pt_clust_9="61.13831" pt_clust_10="93.23245"></scales>
<clustering>
<clus scale="   61.138">  2  9  1 -1</clus>
<clus scale="   91.639">  5  6 -1 -1</clus>
<clus scale="   92.505">  7  8 -1 -1</clus>
<clus scale="   93.232">  1 10  2 -1</clus>
<clus scale="  343.654">  2  5  1 -1</clus>
<clus scale="   93.232">  1  5  2 -1</clus>
</clustering>
</event>
<event>
10    2  0.1671105E-006  0.9986856E+02  0.7546771E-02  0.1280573E+00
          1   -1    0    0  503    0 -0.00000000000E+00  0.00000000000E+00  0.37967059319E+03  0.37967059319E+03  0.00000000000E+00 0. -1.
         21   -1    0    0  501  502  0.00000000000E+00 -0.00000000000E+00 -0.17585466384E+03  0.17585466384E+03  0.00000000000E+00 0.  1.
         23    2    1    2    0    0 -0.17617321888E+02 -0.35630901385E+02  0.29109951625E+03  0.30760108533E+03  0.91101965795E+02 0.  0.
         23    2    1    2    0    0 -0.82666752873E+01  0.53341385834E+02  0.36287273407E+02  0.11193591570E+03  0.91100173705E+02 0.  0.
        -11    1    4    4    0    0  0.33628447603E+02  0.54194065012E+02  0.25309059107E+02  0.68617910516E+02  0.00000000000E+00 0.  1.
         11    1    4    4    0    0 -0.41895122890E+02 -0.85267917866E+00  0.10978214300E+02  0.43318005182E+02  0.00000000000E+00 0. -1.
        -13    1    3    3    0    0 -0.44342322143E+02  0.38481960396E+01  0.19874056645E+03  0.20366360230E+03  0.00000000000E+00 0. -1.
         13    1    3    3    0    0  0.26725000255E+02 -0.39479097425E+02  0.92358949792E+02  0.10393748303E+03  0.00000000000E+00 0.  1.
         21    1    1    2  503  502  0.27136526408E+02  0.75995186340E+01 -0.42050578871E+02  0.50620104033E+02  0.00000000000E+00 0.  1.
          1    1    1    2  501    0 -0.12525292325E+01 -0.25310003083E+02 -0.81520281435E+02  0.85368151970E+02  0.00000000000E+00 0. -1.
<scales pt_clust_5="13000.00000" pt_clust_6="13000.00000" pt_clust_7="13000.00000" pt_clust_8="13000.00000" pt_clust_9="26.99296" pt_clust_10="25.34098"></scales>
<clustering>
<clus scale="   25.341">  2 10  1 -1</clus>
<clus scale="   26.993">  2  9  1 -1</clus>
<clus scale="   91.100">  5  6 -1 -1</clus>
<clus scale="   91.102">  7  8 -1 -1</clus>
<clus scale="   99.867">  2  5  1 -1</clus>
<clus scale="   25.341">  2  5  1 -1</clus>
</clustering>
</event>
<event>
10    2  0.1671105E-006  0.2184474E+03  0.7546771E-02  0.1166192E+00
         21   -1    0    0  503  502  0.00000000000E+00  0.00000000000E+00  0.22577092629E+03  0.22577092629E+03  0.00000000000E+00 0. -1.
          2   -1    0    0  502    0 -0.00000000000E+00 -0.00000000000E+00 -0.13445846880E+04  0.13445846880E+04  0.00000000000E+00 0. -1.
         23    2    1    2    0    0  0.29193771442E+01  0.55001973228E+02 -0.18064773989E+03  0.20869811670E+03  0.88811925799E+02 0.  0.
         23    2    1    2    0    0 -0.20009429845E+03 -0.73296610052E+02 -0.10786887403E+04  0.11033204837E+04  0.91304819087E+02 0.  0.
        -11    1    4    4    0    0 -0.20291878520E+02 -0.23042405334E+02 -0.57280911280E+02  0.64990888396E+02  0.00000000000E+00 0.  1.
         11    1    4    4    0    0 -0.17980241993E+03 -0.50254204718E+02 -0.10214078290E+04  0.10383295953E+04  0.00000000000E+00 0. -1.
        -13    1    3    3    0    0  0.35219137391E+02 -0.33054916387E+01 -0.42386653614E+02  0.55208172567E+02  0.00000000000E+00 0.  1.
         13    1    3    3    0    0 -0.32299760247E+02  0.58307464866E+02 -0.13826108628E+03  0.15348994413E+03  0.00000000000E+00 0. -1.
         21    1    1    2  503  501  0.13504794635E+03  0.52673943834E+02  0.83633732448E+02  0.16735319948E+03  0.00000000000E+00 0. -1.
          2    1    1    2  501    0  0.62126974952E+02 -0.34379307009E+02  0.56888985986E+02  0.90983814459E+02  0.00000000000E+00 0. -1.
<scales pt_clust_5="13000.00000" pt_clust_6="13000.00000" pt_clust_7="13000.00000" pt_clust_8="13000.00000" pt_clust_9="61.72759" pt_clust_10="217.16678"></scales>
<clustering>
<clus scale="   61.728">  9 10 -1 -1</clus>
<clus scale="   88.812">  7  8 -1 -1</clus>
<clus scale="   91.305">  5  6 -1 -1</clus>
<clus scale="  104.505">  2  7  1 -1</clus>
<clus scale="  217.167">  1  9  2 -1</clus>
<clus scale="  217.167">  1  5  2 -1</clus>
</clustering>
</event>
<event>
10    2  0.1671105E-006  0.9189764E+02  0.7546771E-02  0.1299183E+00
          3   -1    0    0  503    0 -0.00000000000E+00  0.00000000000E+00  0.90998114431E+02  0.90998114431E+02  0.00000000000E+00 0. -1.
         21   -1    0    0  501  502  0.00000000000E+00 -0.00000000000E+00 -0.26088585878E+03  0.26088585878E+03  0.00000000000E+00 0.  1.
         23    2    1    2    0    0 -0.16608796372E+02 -0.21036952350E+02 -0.12987708023E+01  0.93923942647E+02  0.90008970195E+02 0.  0.
         23    2    1    2    0    0 -0.22634991331E+02 -0.11730796831E+02 -0.49915954510E+02  0.10727634455E+03  0.91469432919E+02 0.  0.
        -11    1    3    3    0    0 -0.32678860718E+02  0.27192903095E+02  0.45321553650E+01  0.42753974655E+02  0.00000000000E+00 0. -1.
         11    1    3    3    0    0  0.16070064346E+02 -0.48229855445E+02 -0.58309261672E+01  0.51169967992E+02  0.00000000000E+00 0.  1.
        -13    1    4    4    0    0  0.20191885639E+02  0.24923847474E+02 -0.37876193930E+02  0.49633824003E+02  0.00000000000E+00 0.  1.
         13    1    4    4    0    0 -0.42826876971E+02 -0.36654644305E+02 -0.12039760579E+02  0.57642520547E+02  0.00000000000E+00 0. -1.
         21    1    1    2  503  502  0.59921578240E+02  0.37735810067E+02 -0.82511223155E+02  0.10873218864E+03  0.00000000000E+00 0.  1.
          3    1    1    2  501    0 -0.20677790537E+02 -0.49680608857E+01 -0.36161795887E+02  0.41951497377E+02  0.00000000000E+00 0. -1.
<scales pt_clust_5="13000.00000" pt_clust_6="13000.00000" pt_clust_7="13000.00000" pt_clust_8="13000.00000" pt_clust_9="62.19960" pt_clust_10="21.26623"></scales>
<clustering>
<clus scale="   21.266">  2 10  1 -1</clus>
<clus scale="   62.200">  2  9  1 -1</clus>
<clus scale="   90.009">  5  6 -1 -1</clus>
<clus scale="   90.444">  1  5  2 -1</clus>
<clus scale="   91.469">  7  8 -1 -1</clus>
<clus scale="   21.266">  2  5  1 -1</clus>
</clustering>
</event>
<event>
10    2  0.1671105E-006  0.9152899E+02  0.7546771E-02  0.1299911E+00
         21   -1    0    0  501  502  0.00000000000E+00  0.00000000000E+00  0.71375220079E+02  0.71375220079E+02  0.00000000000E+00 0.  1.
          2   -1    0    0  503    0 -0.00000000000E+00 -0.00000000000E+00 -0.25860759844E+03  0.25860759844E+03  0.00000000000E+00 0. -1.
         23    2    1    2    0    0 -0.35890727022E+00 -0.28156431771E+02 -0.55890646944E+02  0.11079973342E+03  0.91432505416E+02 0.  0.
         23    2    1    2    0    0 -0.92857737379E+01 -0.30240984414E+02 -0.41570314884E+02  0.10425482734E+03  0.90223252056E+02 0.  0.
        -11    1    4    4    0    0 -0.81554583255E+01  0.30450079377E+02 -0.15770919263E+01  0.31562732035E+02  0.00000000000E+00 0. -1.
         11    1    4    4    0    0 -0.11303154124E+01 -0.60691063791E+02 -0.39993222958E+02  0.72692095303E+02  0.00000000000E+00 0.  1.
        -13    1    3    3    0    0  0.33216189620E+02 -0.25281276093E+02  0.41503949474E+01  0.41948587009E+02  0.00000000000E+00 0.  1.
         13    1    3    3    0    0 -0.33575096890E+02 -0.28751556773E+01 -0.60041041891E+02  0.68851146416E+02  0.00000000000E+00 0. -1.
         21    1    1    2  503  502 -0.44542368305E+00  0.25716724522E+02 -0.71849265850E+02  0.76314253751E+02  0.00000000000E+00 0. -1.
          2    1    1    2  501    0  0.10090104691E+02  0.32680691662E+02 -0.17922150682E+02  0.38614004004E+02  0.00000000000E+00 0. -1.
<scales pt_clust_5="13000.00000" pt_clust_6="13000.00000" pt_clust_7="13000.00000" pt_clust_8="13000.00000" pt_clust_9="25.72058" pt_clust_10="37.96690"></scales>
<clustering>
<clus scale="   25.721">  2  9  1 -1</clus>
<clus scale="   37.967">  1 10  2 -1</clus>
<clus scale="   90.223">  5  6 -1 -1</clus>
<clus scale="   90.321">  1  5  2 -1</clus>
<clus scale="   91.433">  7  8 -1 -1</clus>
<clus scale="   37.967">  1  5  2 -1</clus>
</clustering>
</event>
<event>
10    2  0.1671105E-006  0.1949355E+03  0.7546771E-02  0.1154174E+00
          1   -1    0    0  503    0 -0.00000000000E+00  0.00000000000E+00  0.12832473380E+04  0.12832473380E+04  0.00000000000E+00 0. -1.
         21   -1    0    0  501  502  0.00000000000E+00 -0.00000000000E+00 -0.19981685392E+03  0.19981685392E+03  0.00000000000E+00 0. -1.
         23    2    1    2    0    0  0.15457744740E+03  0.41005415419E+02  0.78045794195E+03  0.80177332827E+03  0.90278676522E+02 0.  0.
         23    2    1    2    0    0 -0.15085652706E+03 -0.21482047658E+03  0.35337505832E+03  0.44918655118E+03  0.89381748733E+02 0.  0.
        -13    1    4    4    0    0 -0.60918030061E+02 -0.60922587021E+02  0.56888512211E+02  0.10324180751E+03  0.00000000000E+00 0.  1.
         13    1    4    4    0    0 -0.89938497000E+02 -0.15389788956E+03  0.29648654611E+03  0.34594474367E+03  0.00000000000E+00 0. -1.
        -13    1    3    3    0    0  0.92993586903E+02  0.61815140601E+02  0.59146732079E+03  0.60191570039E+03  0.00000000000E+00 0. -1.
         13    1    3    3    0    0  0.61583860495E+02 -0.20809725182E+02  0.18899062116E+03  0.19985762788E+03  0.00000000000E+00 0.  1.
         21    1    1    2  503  502 -0.11278571949E+02  0.22222657338E+02  0.45985680104E+02  0.52304258516E+02  0.00000000000E+00 0. -1.
          1    1    1    2  501    0  0.75576516119E+01  0.15159240382E+03 -0.96388196331E+02  0.17980005391E+03  0.00000000000E+00 0. -1.
<scales pt_clust_5="13000.00000" pt_clust_6="13000.00000" pt_clust_7="13000.00000" pt_clust_8="13000.00000" pt_clust_9="24.92093" pt_clust_10="152.51235"></scales>
<clustering>
<clus scale="   24.921">  1  9  2 -1</clus>
<clus scale="   89.382">  5  6 -1 -1</clus>
<clus scale="   90.279">  7  8 -1 -1</clus>
<clus scale="  152.512">  2 10  1 -1</clus>
<clus scale="  194.522">  2  5  1 -1</clus>
<clus scale="  152.512">  2  5  1 -1</clus>
</clustering>
</event>
<event>
10    2  0.1671105E-006  0.9318274E+02  0.7546771E-02  0.1298066E+00
         21   -1    0    0  501  502  0.00000000000E+00  0.00000000000E+00  0.92626939592E+03  0.92626939592E+03  0.00000000000E+00 0. -1.
         -1   -1    0    0    0  501 -0.00000000000E+00 -0.00000000000E+00 -0.23217941676E+02  0.23217941676E+02  0.00000000000E+00 0.  1.
         23    2    1    2    0    0 -0.11834960874E+02 -0.15795242275E+02  0.18492970705E+03  0.20711957757E+03  0.91159019769E+02 0.  0.
         23    2    1    2    0    0 -0.64027806114E+02  0.96818317486E+01  0.38193333666E+03  0.39690906804E+03  0.86431688701E+02 0.  0.
        -11    1    4    4    0    0 -0.25063361127E+02  0.44942865550E+02  0.13567177980E+03  0.14510294645E+03  0.00000000000E+00 0.  1.
         11    1    4    4    0    0 -0.38964444987E+02 -0.35261033802E+02  0.24626155687E+03  0.25180612159E+03  0.00000000000E+00 0. -1.
        -13    1    3    3    0    0  0.47258560325E+01  0.31288716508E+02  0.12590678920E+03  0.12982232883E+03  0.00000000000E+00 0.  1.
         13    1    3    3    0    0 -0.16560816906E+02 -0.47083958783E+02  0.59022917853E+02  0.77297248742E+02  0.00000000000E+00 0. -1.
         21    1    1    2  503  502  0.40633526346E+02  0.14563577569E+02  0.19134637089E+03  0.19615456892E+03  0.00000000000E+00 0.  1.
         -1    1    1    2    0  503  0.35229240642E+02 -0.84501670430E+01  0.14484203964E+03  0.14930412307E+03  0.00000000000E+00 0.  1.
<scales pt_clust_5="13000.00000" pt_clust_6="13000.00000" pt_clust_7="13000.00000" pt_clust_8="13000.00000" pt_clust_9="21.02190" pt_clust_10="79.49252"></scales>
<clustering>
<clus scale="   21.022">  9 10 -1 -1</clus>
<clus scale="   79.493">  1  9  2 -1</clus>
<clus scale="   86.432">  5  6 -1 -1</clus>
<clus scale="   88.563">  1  5  2 -1</clus>
<clus scale="   91.159">  7  8 -1 -1</clus>
<clus scale="   79.493">  1  5  2 -1</clus>
</clustering>
</event>
<event>
10    2  0.1671105E-006  0.9464639E+02  0.7546771E-02  0.1292085E+00
          3   -1    0    0  503    0 -0.00000000000E+00  0.00000000000E+00  0.47955228891E+03  0.47955228891E+03  0.00000000000E+00 0. -1.
         21   -1    0    0  501  502  0.00000000000E+00 -0.00000000000E+00 -0.16222155608E+03  0.16222155608E+03  0.00000000000E+00 0. -1.
         23    2    1    2    0    0  0.31484189120E+00  0.24048481553E+02  0.35398926603E+03  0.36635212948E+03  0.91252691569E+02 0.  0.
         23    2    1    2    0    0 -0.45028218718E+02 -0.21002274531E+02  0.78826942208E+02  0.13027791571E+03  0.91049505690E+02 0.  0.
        -11    1    4    4    0    0 -0.24879796388E+02 -0.34150481511E+02 -0.54791175323E+01  0.42606107363E+02  0.00000000000E+00 0.  1.
         11    1    4    4    0    0 -0.20148422330E+02  0.13148206979E+02  0.84306059740E+02  0.87671808343E+02  0.00000000000E+00 0. -1.
        -11    1    3    3    0    0 -0.36430983600E+01 -0.34658490698E+02  0.15353871033E+03  0.15744401772E+03  0.00000000000E+00 0.  1.
         11    1    3    3    0    0  0.39579402512E+01  0.58706972251E+02  0.20045055569E+03  0.20890811176E+03  0.00000000000E+00 0. -1.
         21    1    1    2  503  502  0.10489296421E+02 -0.24086849493E+02 -0.39164620121E+01  0.26562009197E+02  0.00000000000E+00 0. -1.
          3    1    1    2  501    0  0.34224080406E+02  0.21040642471E+02 -0.11156901339E+03  0.11858179061E+03  0.00000000000E+00 0. -1.
<scales pt_clust_5="13000.00000" pt_clust_6="13000.00000" pt_clust_7="13000.00000" pt_clust_8="13000.00000" pt_clust_9="26.27169" pt_clust_10="42.49245"></scales>
<clustering>
<clus scale="   26.272">  2  9  1 -1</clus>
<clus scale="   42.492">  2 10  1 -1</clus>
<clus scale="   91.050">  5  6 -1 -1</clus>
<clus scale="   91.253">  7  8 -1 -1</clus>
<clus scale="   94.451">  2  5  1 -1</clus>
<clus scale="   26.272">  2  5  1 -1</clus>
</clustering>
</event>
<event>
10    2  0.1671105E-006  0.1055683E+03  0.7546771E-02  0.1275663E+00
         -4   -1    0    0    0  501 -0.00000000000E+00  0.00000000000E+00  0.43936763810E+03  0.43936763810E+03  0.00000000000E+00 0.  1.
         21   -1    0    0  503  502  0.00000000000E+00 -0.00000000000E+00 -0.48381399620E+02  0.48381399620E+02  0.00000000000E+00 0. -1.
         23    2    1    2    0    0 -0.28067410061E+02 -0.87826416935E+00  0.27712070336E+03  0.29591121574E+03  0.99895007463E+02 0.  0.
         23    2    1    2    0    0  0.47720353143E+02 -0.45178060413E+01  0.94805835113E+02  0.13690297603E+03  0.86351814102E+02 0.  0.
        -13    1    4    4    0    0 -0.83405775733E+01  0.30664133193E+02  0.22874654275E+02  0.39154873348E+02  0.00000000000E+00 0.  1.
         13    1    4    4    0    0  0.56060930717E+02 -0.35181939234E+02  0.71931180837E+02  0.97748102681E+02  0.00000000000E+00 0. -1.
        -13    1    3    3    0    0 -0.35844895839E+02  0.30007688466E+02  0.24922734884E+03  0.25357363691E+03  0.00000000000E+00 0.  1.
         13    1    3    3    0    0  0.77774857779E+01 -0.30885952636E+02  0.27893354520E+02  0.42337578835E+02  0.00000000000E+00 0. -1.
         21    1    1    2  503  501 -0.19705879609E+02 -0.16130105874E+02 -0.10353688655E+01  0.25486741560E+02  0.00000000000E+00 0. -1.
         -4    1    1    2    0  502  0.52936526590E-01  0.21526176085E+02  0.20095068874E+02  0.29448104390E+02  0.00000000000E+00 0.  1.
<scales pt_clust_5="13000.00000" pt_clust_6="13000.00000" pt_clust_7="13000.00000" pt_clust_8="13000.00000" pt_clust_9="21.90483" pt_clust_10="21.52624"></scales>
<clustering>
<clus scale="   21.526">  2 10  1 -1</clus>
<clus scale="   21.905">  2  9  1 -1</clus>
<clus scale="   86.352">  5  6 -1 -1</clus>
<clus scale="   92.856">  2  5  1 -1</clus>
<clus scale="   99.895">  7  8 -1 -1</clus>
<clus scale="   21.526">  2  5  1 -1</clus>
</clustering>
</event>
<event>
10    2  0.1671105E-006  0.9771547E+02  0.7546771E-02  0.1286804E+00
         -3   -1    0    0    0  501 -0.00000000000E+00  0.00000000000E+00  0.52320597302E+02  0.52320597302E+02  0.00000000000E+00 0.  1.
         21   -1    0    0  503  502  0.00000000000E+00 -0.00000000000E+00 -0.56428270648E+03  0.56428270648E+03  0.00000000000E+00 0.  1.
         23    2    1    2    0    0  0.32335861767E+02  0.30163202796E+02 -0.65243230853E+02  0.11682633916E+03  0.86233912065E+02 0.  0.
         23    2    1    2    0    0  0.69307206340E+01 -0.44178588081E+02 -0.78089826451E+02  0.12689710366E+03  0.89471064529E+02 0.  0.
        -11    1    4    4    0    0 -0.25071254806E+02 -0.42413995623E+02 -0.80901271925E+02  0.94723442935E+02  0.00000000000E+00 0.  1.
         11    1    4    4    0    0  0.32001975440E+02 -0.17645924587E+01  0.28114454745E+01  0.32173660722E+02  0.00000000000E+00 0. -1.
        -13    1    3    3    0    0  0.26342558651E+02 -0.21881099712E+01  0.14793087086E+02  0.30291147999E+02  0.00000000000E+00 0.  1.
         13    1    3    3    0    0  0.59933031156E+01  0.32351312767E+02 -0.80036317939E+02  0.86535191160E+02  0.00000000000E+00 0. -1.
         21    1    1    2  503  501 -0.18653269089E+02 -0.12352793405E+02 -0.16697659071E+03  0.16846874427E+03  0.00000000000E+00 0.  1.
         -3    1    1    2    0  502 -0.20613313312E+02  0.26368178691E+02 -0.20165246117E+03  0.20441111669E+03  0.00000000000E+00 0.  1.
<scales pt_clust_5="13000.00000" pt_clust_6="13000.00000" pt_clust_7="13000.00000" pt_clust_8="13000.00000" pt_clust_9="22.37266" pt_clust_10="36.21584"></scales>
<clustering>
<clus scale="   22.373">  2  9  1 -1</clus>
<clus scale="   36.216">  2 10  1 -1</clus>
<clus scale="   86.234">  7  8 -1 -1</clus>
<clus scale="   89.471">  5  6 -1 -1</clus>
<clus scale="   94.760">  1  7  2 -1</clus>
<clus scale="   22.373">  2  5  1 -1</clus>
</clustering>
</event>
<event>
10    2  0.1671105E-006  0.2005109E+03  0.7546771E-02  0.1149337E+00
          1   -1    0    0  502    0 -0.00000000000E+00  0.00000000000E+00  0.64923091354E+03  0.64923091354E+03  0.00000000000E+00 0. -1.
         21   -1    0    0  503  502  0.00000000000E+00 -0.00000000000E+00 -0.12194041696E+03  0.12194041696E+03  0.00000000000E+00 0.  1.
         23    2    1    2    0    0  0.14826509118E+03 -0.10491668660E+03  0.30717630807E+03  0.36839115208E+03  0.91458779248E+02 0.  0.
         23    2    1    2    0    0 -0.86547515338E+02  0.16432803672E+03  0.22771324480E+03  0.30766434648E+03  0.91158390587E+02 0.  0.
        -11    1    3    3    0    0  0.13780035194E+03 -0.70960471824E+02  0.18601875945E+03  0.24213075894E+03  0.00000000000E+00 0. -1.
         11    1    3    3    0    0  0.10464739242E+02 -0.33956214776E+02  0.12115754861E+03  0.12626039314E+03  0.00000000000E+00 0.  1.
        -13    1    4    4    0    0 -0.94991963937E+02  0.93985010273E+02  0.12567470731E+03  0.18344150955E+03  0.00000000000E+00 0.  1.
         13    1    4    4    0    0  0.84444485989E+01  0.70343026449E+02  0.10203853749E+03  0.12422283693E+03  0.00000000000E+00 0. -1.
         21    1    1    2  503  501 -0.29752316530E+02 -0.36706550562E+02 -0.23542036777E+02  0.52790138177E+02  0.00000000000E+00 0. -1.
          1    1    1    2  501    0 -0.31965259313E+02 -0.22704799560E+02  0.15942980481E+02  0.42325693764E+02  0.00000000000E+00 0. -1.
<scales pt_clust_5="13000.00000" pt_clust_6="13000.00000" pt_clust_7="13000.00000" pt_clust_8="13000.00000" pt_clust_9="37.00805" pt_clust_10="94.81179"></scales>
<clustering>
<clus scale="   37.008">  9 10 -1 -1</clus>
<clus scale="   91.158">  7  8 -1 -1</clus>
<clus scale="   91.459">  5  6 -1 -1</clus>
<clus scale="   94.812">  2  9  1 -1</clus>
<clus scale="  200.374">  2  7  1 -1</clus>
<clus scale="   94.812">  2  5  1 -1</clus>
</clustering>
</event>
<event>
10    2  0.1671105E-006  0.1559069E+03  0.7546771E-02  0.1205928E+00
          1   -1    0    0  502    0 -0.00000000000E+00  0.00000000000E+00  0.80493346043E+03  0.80493346043E+03  0.00000000000E+00 0. -1.
         21   -1    0    0  503  502  0.00000000000E+00 -0.00000000000E+00 -0.10347555917E+03  0.10347555917E+03  0.00000000000E+00 0. -1.
         23    2    1    2    0    0  0.23496986621E+02 -0.69850727000E+02  0.17610038373E+03  0.21239168004E+03  0.93100204930E+02 0.  0.
         23    2    1    2    0    0 -0.63410958291E+02  0.18145167588E+03  0.53024912709E+03  0.57149448254E+03  0.92174543564E+02 0.  0.
        -11    1    4    4    0    0  0.16320754370E+02  0.77101987619E+02  0.24731889106E+03  0.25957218147E+03  0.00000000000E+00 0. -1.
         11    1    4    4    0    0 -0.79731712661E+02  0.10434968826E+03  0.28293023603E+03  0.31192230107E+03  0.00000000000E+00 0.  1.
        -13    1    3    3    0    0  0.59074906279E+02 -0.38152794409E+02  0.11656438374E+03  0.13613499121E+03  0.00000000000E+00 0.  1.
         13    1    3    3    0    0 -0.35577919658E+02 -0.31697932591E+02  0.59535999989E+02  0.76256688837E+02  0.00000000000E+00 0. -1.
         21    1    1    2  503  501  0.29034794979E+02 -0.64814636405E+02 -0.20662663186E+02  0.73965546450E+02  0.00000000000E+00 0. -1.
          1    1    1    2  501    0  0.10879176691E+02 -0.46786312472E+02  0.15771053620E+02  0.50557310574E+02  0.00000000000E+00 0. -1.
<scales pt_clust_5="13000.00000" pt_clust_6="13000.00000" pt_clust_7="13000.00000" pt_clust_8="13000.00000" pt_clust_9="31.14413" pt_clust_10="131.31996"></scales>
<clustering>
<clus scale="   31.144">  9 10 -1 -1</clus>
<clus scale="   92.175">  5  6 -1 -1</clus>
<clus scale="   93.100">  7  8 -1 -1</clus>
<clus scale="  118.739">  1  7  2 -1</clus>
<clus scale="  131.320">  2  9  1 -1</clus>
<clus scale="  131.320">  2  5  1 -1</clus>
</clustering>
</event>
<event>
10    2  0.1671105E-006  0.2438379E+03  0.7546771E-02  0.1144186E+00
         21   -1    0    0  501  502  0.00000000000E+00  0.00000000000E+00  0.73560154964E+03  0.73560154964E+03  0.00000000000E+00 0. -1.
          1   -1    0    0  503    0 -0.00000000000E+00 -0.00000000000E+00 -0.63720451957E+03  0.63720451957E+03  0.00000000000E+00 0. -1.
         23    2    1    2    0    0  0.21216979289E+03 -0.97101262746E+02 -0.52689139810E+03  0.58289848662E+03  0.87814714427E+02 0.  0.
         23    2    1    2    0    0  0.11448634837E+02  0.10079974226E+03  0.58190294284E+02  0.14852772730E+03  0.91557174199E+02 0.  0.
        -11    1    4    4    0    0  0.42207588720E+02  0.29780987336E+02 -0.69987203301E-01  0.51656487012E+02  0.00000000000E+00 0. -1.
         11    1    4    4    0    0 -0.30758953883E+02  0.71018754925E+02  0.58260281487E+02  0.96871240284E+02  0.00000000000E+00 0.  1.
        -13    1    3    3    0    0  0.20278665142E+03 -0.61673354682E+02 -0.46373412914E+03  0.50987780026E+03  0.00000000000E+00 0. -1.
         13    1    3    3    0    0  0.93831414738E+01 -0.35427908064E+02 -0.63157268958E+02  0.73020686357E+02  0.00000000000E+00 0.  1.
         21    1    1    2  503  502 -0.17296789467E+03  0.47715258385E+02  0.20620431645E+03  0.27334018839E+03  0.00000000000E+00 0. -1.
          1    1    1    2  501    0 -0.50650533061E+02 -0.51413737900E+02  0.36089381745E+03  0.36803966691E+03  0.00000000000E+00 0. -1.
<scales pt_clust_5="13000.00000" pt_clust_6="13000.00000" pt_clust_7="13000.00000" pt_clust_8="13000.00000" pt_clust_9="227.47639" pt_clust_10="72.17236"></scales>
<clustering>
<clus scale="   72.172">  1 10  2 -1</clus>
<clus scale="   87.815">  7  8 -1 -1</clus>
<clus scale="   91.557">  5  6 -1 -1</clus>
<clus scale="  125.971">  1  5  2 -1</clus>
<clus scale="  227.476">  1  9  2 -1</clus>
<clus scale="   72.172">  1  5  2 -1</clus>
</clustering>
</event>
<event>
10    2  0.1671105E-006  0.1041777E+03  0.7546771E-02  0.1273989E+00
         21   -1    0    0  501  502  0.00000000000E+00  0.00000000000E+00  0.13725872461E+03  0.13725872461E+03  0.00000000000E+00 0. -1.
          2   -1    0    0  503    0 -0.00000000000E+00 -0.00000000000E+00 -0.24104035543E+03  0.24104035543E+03  0.00000000000E+00 0. -1.
         23    2    1    2    0    0 -0.27413215984E+02  0.41493892739E+02 -0.17164487151E+03  0.20163278299E+03  0.93384097764E+02 0.  0.
         23    2    1    2    0    0 -0.17813599832E+02 -0.45502496626E+02  0.20385225534E+02  0.10308652847E+03  0.88450400755E+02 0.  0.
        -11    1    4    4    0    0 -0.36558457079E+02 -0.63345506003E+02  0.57698321609E+01  0.73365283874E+02  0.00000000000E+00 0. -1.
         11    1    4    4    0    0  0.18744857247E+02  0.17843009377E+02  0.14615393373E+02  0.29721244595E+02  0.00000000000E+00 0.  1.
        -13    1    3    3    0    0  0.33370413101E+02  0.25445313237E+02 -0.82370874175E+02  0.92444628555E+02  0.00000000000E+00 0.  1.
         13    1    3    3    0    0 -0.60783629085E+02  0.16048579502E+02 -0.89273997338E+02  0.10918815444E+03  0.00000000000E+00 0. -1.
         21    1    1    2  503  502  0.17208049061E+02  0.17957463879E+02  0.22438343657E+02  0.33497264479E+02  0.00000000000E+00 0. -1.
          2    1    1    2  501    0  0.28018766754E+02 -0.13948859993E+02  0.25039671509E+02  0.40082504098E+02  0.00000000000E+00 0. -1.
<scales pt_clust_5="13000.00000" pt_clust_6="13000.00000" pt_clust_7="13000.00000" pt_clust_8="13000.00000" pt_clust_9="24.87142" pt_clust_10="34.24278"></scales>
<clustering>
<clus scale="   24.871">  1  9  2 -1</clus>
<clus scale="   34.243">  1 10  2 -1</clus>
<clus scale="   88.450">  5  6 -1 -1</clus>
<clus scale="   93.384">  7  8 -1 -1</clus>
<clus scale="   99.779">  1  5  2 -1</clus>
<clus scale="   24.871">  1  5  2 -1</clus>
</clustering>
</event>
<event>
10    2  0.1671105E-006  0.1285141E+03  0.7546771E-02  0.1230015E+00
         21   -1    0    0  501  502  0.00000000000E+00  0.00000000000E+00  0.10084284003E+03  0.10084284003E+03  0.00000000000E+00 0.  1.
         -1   -1    0    0    0  501 -0.00000000000E+00 -0.00000000000E+00 -0.81873741541E+03  0.81873741541E+03  0.00000000000E+00 0.  1.
         23    2    1    2    0    0  0.70977401511E+02 -0.10542606739E+03 -0.56319496637E+03  0.58449071388E+03  0.91040525380E+02 0.  0.
         23    2    1    2    0    0 -0.51008859747E+02  0.12143266254E+02 -0.19514653330E+03  0.22214523052E+03  0.92287438440E+02 0.  0.
        -11    1    3    3    0    0  0.21318816930E+01 -0.48828583828E+02 -0.84900165552E+02  0.97963327980E+02  0.00000000000E+00 0. -1.
         11    1    3    3    0    0  0.68845519818E+02 -0.56597483557E+02 -0.47829480081E+03  0.48652738590E+03  0.00000000000E+00 0.  1.
        -13    1    4    4    0    0 -0.72178680532E+02 -0.40987528300E+01 -0.10044745584E+03  0.12375885052E+03  0.00000000000E+00 0.  1.
         13    1    4    4    0    0  0.21169820785E+02  0.16242019084E+02 -0.94699077467E+02  0.98386379998E+02  0.00000000000E+00 0. -1.
         21    1    1    2  503  502 -0.16513899229E+02  0.26572666044E+02  0.33415619264E+02  0.45775747501E+02  0.00000000000E+00 0.  1.
         -1    1    1    2    0  503 -0.34546425340E+01  0.66710135087E+02  0.70313050278E+01  0.67168563545E+02  0.00000000000E+00 0.  1.
<scales pt_clust_5="13000.00000" pt_clust_6="13000.00000" pt_clust_7="13000.00000" pt_clust_8="13000.00000" pt_clust_9="30.75874" pt_clust_10="105.45361"></scales>
<clustering>
<clus scale="   30.759">  9 10 -1 -1</clus>
<clus scale="   91.041">  5  6 -1 -1</clus>
<clus scale="   92.287">  7  8 -1 -1</clus>
<clus scale="  105.454">  1  9  2 -1</clus>
<clus scale="  127.622">  2  5  1 -1</clus>
<clus scale="  105.454">  1  5  2 -1</clus>
</clustering>
</event>
<event>
10    2  0.1671105E-006  0.1078507E+03  0.7546771E-02  0.1264851E+00
          2   -1    0    0  503    0 -0.00000000000E+00  0.00000000000E+00  0.61436845071E+02  0.61436845071E+02  0.00000000000E+00 0. -1.
         21   -1    0    0  501  502  0.00000000000E+00 -0.00000000000E+00 -0.58060364538E+03  0.58060364538E+03  0.00000000000E+00 0. -1.
         23    2    1    2    0    0  0.19390822116E+01  0.27601233026E+02 -0.68181377441E+02  0.11746356742E+03  0.91560915990E+02 0.  0.
         23    2    1    2    0    0 -0.38310435421E+02 -0.96515018553E+02 -0.37058642618E+03  0.39545951097E+03  0.90945518192E+02 0.  0.
        -11    1    3    3    0    0 -0.26741003360E+02 -0.98956605087E+01 -0.64008216833E+02  0.70071800175E+02  0.00000000000E+00 0. -1.
         11    1    3    3    0    0  0.28680085571E+02  0.37496893534E+02 -0.41731606076E+01  0.47391767245E+02  0.00000000000E+00 0.  1.
        -13    1    4    4    0    0 -0.34636348267E+02 -0.49136187579E+01 -0.18713980998E+03  0.19038153469E+03  0.00000000000E+00 0.  1.
         13    1    4    4    0    0 -0.36740871535E+01 -0.91601399795E+02 -0.18344661620E+03  0.20507797628E+03  0.00000000000E+00 0. -1.
         21    1    1    2  503  502  0.65958009570E+01  0.30047390513E+02  0.45217656942E+01  0.31093353500E+02  0.00000000000E+00 0. -1.
          2    1    1    2  501    0  0.29775552252E+02  0.38866395014E+02 -0.84920762381E+02  0.98024058561E+02  0.00000000000E+00 0. -1.
<scales pt_clust_5="13000.00000" pt_clust_6="13000.00000" pt_clust_7="13000.00000" pt_clust_8="13000.00000" pt_clust_9="30.76281" pt_clust_10="53.18122"></scales>
<clustering>
<clus scale="   30.763">  1  9  2 -1</clus>
<clus scale="   53.181">  2 10  1 -1</clus>
<clus scale="   90.946">  7  8 -1 -1</clus>
<clus scale="   91.561">  5  6 -1 -1</clus>
<clus scale="  107.329">  2  7  1 -1</clus>
<clus scale="   53.181">  2  5  1 -1</clus>
</clustering>
</event>
<event>
10    2  0.1671105E-006  0.1613772E+03  0.7546771E-02  0.1211606E+00
         -1   -1    0    0    0  501 -0.00000000000E+00  0.00000000000E+00  0.94918669340E+02  0.94918669340E+02  0.00000000000E+00 0.  1.
         21   -1    0    0  503  502  0.00000000000E+00 -0.00000000000E+00 -0.11414346119E+04  0.11414346119E+04  0.00000000000E+00 0.  1.
         23    2    1    2    0    0 -0.24604314703E+02  0.14299783555E+02  0.20208516695E+02  0.97004309496E+02  0.90507435065E+02 0.  0.
         23    2    1    2    0    0  0.52197773183E+02 -0.14738386924E+03 -0.24898374388E+03  0.30757669563E+03  0.90354338803E+02 0.  0.
        -11    1    4    4    0    0 -0.14442124509E+02 -0.80151523826E+02 -0.81657141894E+02  0.11532879326E+03  0.00000000000E+00 0.  1.
         11    1    4    4    0    0  0.66639897692E+02 -0.67232345413E+02 -0.16732660199E+03  0.19224790237E+03  0.00000000000E+00 0. -1.
        -13    1    3    3    0    0  0.26767027620E+02 -0.52409923876E+01  0.30682270746E+02  0.41052935424E+02  0.00000000000E+00 0. -1.
         13    1    3    3    0    0 -0.51371342324E+02  0.19540775943E+02 -0.10473754051E+02  0.55951374072E+02  0.00000000000E+00 0.  1.
         21    1    1    2  503  501  0.21070611664E+02  0.25815521860E+02 -0.22340282878E+03  0.22587438047E+03  0.00000000000E+00 0.  1.
         -1    1    1    2    0  502 -0.48664070143E+02  0.10726856382E+03 -0.59433788662E+03  0.60589789567E+03  0.00000000000E+00 0.  1.
<scales pt_clust_5="13000.00000" pt_clust_6="13000.00000" pt_clust_7="13000.00000" pt_clust_8="13000.00000" pt_clust_9="33.32284" pt_clust_10="133.71123"></scales>
<clustering>
<clus scale="   33.323">  2  9  1 -1</clus>
<clus scale="   90.354">  5  6 -1 -1</clus>
<clus scale="   90.507">  7  8 -1 -1</clus>
<clus scale="   94.820">  1  7  2 -1</clus>
<clus scale="  133.711">  2 10  1 -1</clus>
<clus scale="   33.323">  2  5  1 -1</clus>
</clustering>
</event>
<event>
10    2  0.1671105E-006  0.9538568E+02  0.7546771E-02  0.1290370E+00
          1   -1    0    0  503    0 -0.00000000000E+00  0.00000000000E+00  0.50112004986E+03  0.50112004986E+03  0.00000000000E+00 0. -1.
         21   -1    0    0  501  502  0.00000000000E+00 -0.00000000000E+00 -0.34681641502E+02  0.34681641502E+02  0.00000000000E+00 0. -1.
         23    2    1    2    0    0 -0.43523803324E+02 -0.22557550955E+02  0.21114224119E+03  0.23497586953E+03  0.90716308813E+02 0.  0.
         23    2    1    2    0    0 -0.15565569906E-02  0.13522412226E+02  0.13566277784E+03  0.16369519383E+03  0.90602823119E+02 0.  0.
        -11    1    4    4    0    0 -0.21455418072E+02 -0.27498920404E+02  0.97984276845E+02  0.10400694254E+03  0.00000000000E+00 0.  1.
         11    1    4    4    0    0  0.21453861515E+02  0.41021332631E+02  0.37678500996E+02  0.59688251289E+02  0.00000000000E+00 0. -1.
        -13    1    3    3    0    0 -0.16762643329E+02  0.27826375210E+02  0.14033230521E+03  0.14404322009E+03  0.00000000000E+00 0.  1.
         13    1    3    3    0    0 -0.26761159996E+02 -0.50383926164E+02  0.70809935981E+02  0.90932649437E+02  0.00000000000E+00 0. -1.
         21    1    1    2  503  502  0.18317135159E+02 -0.20966604815E+02  0.49526364631E+02  0.56815286248E+02  0.00000000000E+00 0. -1.
          1    1    1    2  501    0  0.25208224722E+02  0.30001743543E+02  0.70107024693E+02  0.80315341751E+02  0.00000000000E+00 0. -1.
<scales pt_clust_5="13000.00000" pt_clust_6="13000.00000" pt_clust_7="13000.00000" pt_clust_8="13000.00000" pt_clust_9="27.84090" pt_clust_10="38.74577"></scales>
<clustering>
<clus scale="   27.841">  1  9  2 -1</clus>
<clus scale="   38.746">  2 10  1 -1</clus>
<clus scale="   90.603">  5  6 -1 -1</clus>
<clus scale="   90.716">  7  8 -1 -1</clus>
<clus scale="   95.278">  2  5  1 -1</clus>
<clus scale="   38.746">  2  5  1 -1</clus>
</clustering>
</event>
<event>
10    2  0.1671105E-006  0.2303095E+03  0.7546771E-02  0.1157274E+00
         21   -1    0    0  501  502  0.00000000000E+00  0.00000000000E+00  0.84894360042E+03  0.84894360042E+03  0.00000000000E+00 0. -1.
         -1   -1    0    0    0  501 -0.00000000000E+00 -0.00000000000E+00 -0.93315326909E+02  0.93315326909E+02  0.00000000000E+00 0.  1.
         23    2    1    2    0    0 -0.19862055709E+02  0.56889618141E+02  0.10889684841E+03  0.15455872892E+03  0.91645770119E+02 0.  0.
         23    2    1    2    0    0  0.13340857555E+03 -0.20135563343E+03  0.41753212581E+03  0.49101258934E+03  0.91751553978E+02 0.  0.
        -11    1    3    3    0    0  0.34743663446E+02  0.33014656044E+02  0.33609192169E+02  0.58537743906E+02  0.00000000000E+00 0.  1.
         11    1    3    3    0    0 -0.54605719155E+02  0.23874962097E+02  0.75287656246E+02  0.96020985011E+02  0.00000000000E+00 0. -1.
        -11    1    4    4    0    0  0.20385773971E+02 -0.10196238526E+02  0.62971609148E+01  0.23647352834E+02  0.00000000000E+00 0.  1.
         11    1    4    4    0    0  0.11302280158E+03 -0.19115939491E+03  0.41123496490E+03  0.46736523651E+03  0.00000000000E+00 0. -1.
         21    1    1    2  503  502 -0.20328514358E+02  0.43624466473E+02  0.84163731096E+02  0.96952958712E+02  0.00000000000E+00 0.  1.
         -1    1    1    2    0  503 -0.93218005486E+02  0.10084154882E+03  0.14503556819E+03  0.19973465036E+03  0.00000000000E+00 0.  1.
<scales pt_clust_5="13000.00000" pt_clust_6="13000.00000" pt_clust_7="13000.00000" pt_clust_8="13000.00000" pt_clust_9="24.60890" pt_clust_10="215.29536"></scales>
<clustering>
<clus scale="   24.609">  9 10 -1 -1</clus>
<clus scale="   91.646">  5  6 -1 -1</clus>
<clus scale="   91.752">  7  8 -1 -1</clus>
<clus scale="  109.681">  2  5  1 -1</clus>
<clus scale="  215.295">  1  9  2 -1</clus>
<clus scale="  215.295">  1  5  2 -1</clus>
</clustering>
</event>
<event>
10    2  0.1671105E-006  0.1259038E+03  0.7546771E-02  0.1246662E+00
         21   -1    0    0  503  502  0.00000000000E+00  0.00000000000E+00  0.19407535371E+03  0.19407535371E+03  0.00000000000E+00 0. -1.
          3   -1    0    0  502    0 -0.00000000000E+00 -0.00000000000E+00 -0.29784247722E+03  0.29784247722E+03  0.00000000000E+00 0. -1.
         23    2    1    2    0    0 -0.11613567064E+02  0.27748338010E+02 -0.16417977094E+03  0.19054016585E+03  0.91900557207E+02 0.  0.
         23    2    1    2    0    0 -0.60462225962E+02  0.53712376492E+02  0.12060001574E+03  0.17154738260E+03  0.91342435513E+02 0.  0.
        -11    1    3    3    0    0 -0.44570573085E+02  0.41446575663E+02 -0.10845405737E+03  0.12436493549E+03  0.00000000000E+00 0. -1.
         11    1    3    3    0    0  0.32957006021E+02 -0.13698237653E+02 -0.55725713575E+02  0.66175230367E+02  0.00000000000E+00 0.  1.
        -13    1    4    4    0    0 -0.90419651797E+01 -0.18508625401E+02 -0.15021259323E+01  0.20653879318E+02  0.00000000000E+00 0.  1.
         13    1    4    4    0    0 -0.51420260783E+02  0.72221001893E+02  0.12210214167E+03  0.15089350329E+03  0.00000000000E+00 0. -1.
         21    1    1    2  503  501  0.17061652895E+02 -0.46232062005E+02 -0.20361175604E+02  0.53320549779E+02  0.00000000000E+00 0.  1.
          3    1    1    2  501    0  0.55014140132E+02 -0.35228652496E+02 -0.39826192704E+02  0.76509732691E+02  0.00000000000E+00 0. -1.
<scales pt_clust_5="13000.00000" pt_clust_6="13000.00000" pt_clust_7="13000.00000" pt_clust_8="13000.00000" pt_clust_9="32.52802" pt_clust_10="94.39779"></scales>
<clustering>
<clus scale="   32.528">  9 10 -1 -1</clus>
<clus scale="   91.342">  7  8 -1 -1</clus>
<clus scale="   91.901">  5  6 -1 -1</clus>
<clus scale="   96.698">  2  5  1 -1</clus>
<clus scale="   94.398">  1  9  2 -1</clus>
<clus scale="   94.398">  1  5  2 -1</clus>
</clustering>
</event>
<event>
10    2  0.1671105E-006  0.9524314E+02  0.7546771E-02  0.1292273E+00
         21   -1    0    0  501  502  0.00000000000E+00  0.00000000000E+00  0.24367044812E+02  0.24367044812E+02  0.00000000000E+00 0. -1.
          1   -1    0    0  503    0 -0.00000000000E+00 -0.00000000000E+00 -0.75769447295E+03  0.75769447295E+03  0.00000000000E+00 0. -1.
         23    2    1    2    0    0 -0.35954231059E+02  0.13755432194E+02 -0.37501829852E+03  0.38761987216E+03  0.90158318627E+02 0.  0.
         23    2    1    2    0    0 -0.42613749049E+01  0.11458555982E+02 -0.20466026864E+03  0.22517582996E+03  0.93106772144E+02 0.  0.
        -13    1    3    3    0    0  0.21928353307E+02 -0.20007843317E+02 -0.87579060419E+02  0.92473013884E+02  0.00000000000E+00 0.  1.
         13    1    3    3    0    0 -0.57882584366E+02  0.33763275511E+02 -0.28743923811E+03  0.29514685827E+03  0.00000000000E+00 0. -1.
        -13    1    4    4    0    0  0.33672918268E+00 -0.24146487240E+02 -0.82616784634E+01  0.25522961497E+02  0.00000000000E+00 0. -1.
         13    1    4    4    0    0 -0.45981040875E+01  0.35605043221E+02 -0.19639859017E+03  0.19965286847E+03  0.00000000000E+00 0.  1.
         21    1    1    2  503  502 -0.16933635484E+01 -0.26827173060E+02 -0.81431795636E+02  0.85753728986E+02  0.00000000000E+00 0. -1.
          1    1    1    2  501    0  0.41908969512E+02  0.16131848847E+01 -0.72217065335E+02  0.83512086650E+02  0.00000000000E+00 0. -1.
<scales pt_clust_5="13000.00000" pt_clust_6="13000.00000" pt_clust_7="13000.00000" pt_clust_8="13000.00000" pt_clust_9="26.88056" pt_clust_10="41.73982"></scales>
<clustering>
<clus scale="   26.881">  2  9  1 -1</clus>
<clus scale="   41.740">  1 10  2 -1</clus>
<clus scale="   90.158">  5  6 -1 -1</clus>
<clus scale="   92.363">  2  5  1 -1</clus>
<clus scale="   93.107">  7  8 -1 -1</clus>
<clus scale="   41.740">  1  5  2 -1</clus>
</clustering>
</event>
<event>
10    2  0.1671105E-006  0.1384667E+03  0.7546771E-02  0.1216232E+00
          1   -1    0    0  503    0 -0.00000000000E+00  0.00000000000E+00  0.49386070186E+03  0.49386070186E+03  0.00000000000E+00 0. -1.
         21   -1    0    0  501  502  0.00000000000E+00 -0.00000000000E+00 -0.12832260699E+03  0.12832260699E+03  0.00000000000E+00 0. -1.
         23    2    1    2    0    0  0.26028714710E+02 -0.76118888561E+02  0.26213668801E+03  0.29022812927E+03  0.95105965273E+02 0.  0.
         23    2    1    2    0    0 -0.10843778064E+03  0.91171414439E+02  0.12147108999E+03  0.20787905660E+03  0.91583281158E+02 0.  0.
        -11    1    3    3    0    0 -0.88677565650E+01 -0.80355899269E+02  0.12662972762E+03  0.15023579989E+03  0.00000000000E+00 0. -1.
         11    1    3    3    0    0  0.34896471275E+02  0.42370107087E+01  0.13550696040E+03  0.13999232937E+03  0.00000000000E+00 0.  1.
        -13    1    4    4    0    0 -0.55483416925E+02 -0.72118206415E+01  0.30019647687E+02  0.63494875052E+02  0.00000000000E+00 0. -1.
         13    1    4    4    0    0 -0.52954363720E+02  0.98383235081E+02  0.91451442305E+02  0.14438418155E+03  0.00000000000E+00 0.  1.
         21    1    1    2  503  502 -0.31167621526E+01 -0.21268224085E+02  0.20813613352E+02  0.29920863336E+02  0.00000000000E+00 0. -1.
          1    1    1    2  501    0  0.85525828087E+02  0.62156982064E+01 -0.38883296484E+02  0.94155259650E+02  0.00000000000E+00 0. -1.
<scales pt_clust_5="13000.00000" pt_clust_6="13000.00000" pt_clust_7="13000.00000" pt_clust_8="13000.00000" pt_clust_9="21.49538" pt_clust_10="85.48605"></scales>
<clustering>
<clus scale="   21.495">  1  9  2 -1</clus>
<clus scale="   85.486">  2 10  1 -1</clus>
<clus scale="   91.583">  7  8 -1 -1</clus>
<clus scale="   95.106">  5  6 -1 -1</clus>
<clus scale="  136.071">  2  7  1 -1</clus>
<clus scale="   85.486">  2  5  1 -1</clus>
</clustering>
</event>
<event>
10    2  0.1671105E-006  0.1685450E+03  0.7546771E-02  0.1179420E+00
         21   -1    0    0  501  502  0.00000000000E+00  0.00000000000E+00  0.28236562583E+03  0.28236562583E+03  0.00000000000E+00 0.  1.
         -3   -1    0    0    0  501 -0.00000000000E+00 -0.00000000000E+00 -0.19356647569E+03  0.19356647569E+03  0.00000000000E+00 0.  1.
         23    2    1    2    0    0 -0.82201623188E+01  0.11831463096E+03  0.10658215931E+02  0.14933016551E+03  0.90110919410E+02 0.  0.
         23    2    1    2    0    0  0.37052808123E+01 -0.19353881536E+03  0.10467722766E+03  0.23767552268E+03  0.89784909275E+02 0.  0.
        -11    1    4    4    0    0 -0.30438665079E+02 -0.48353091665E+02  0.57950711811E+02  0.81380702901E+02  0.00000000000E+00 0. -1.
         11    1    4    4    0    0  0.34143945891E+02 -0.14518572370E+03  0.46726515848E+02  0.15629481978E+03  0.00000000000E+00 0.  1.
        -13    1    3    3    0    0  0.14488986335E+02  0.43333555328E+02 -0.35977452788E+02  0.58155866871E+02  0.00000000000E+00 0. -1.
         13    1    3    3    0    0 -0.22709148654E+02  0.74981075631E+02  0.46635668720E+02  0.91174298639E+02  0.00000000000E+00 0.  1.
         21    1    1    2  503  502  0.13462707201E+01  0.22869027113E+02  0.10008708729E+02  0.24999581924E+02  0.00000000000E+00 0.  1.
         -3    1    1    2    0  503  0.31686107864E+01  0.52355157289E+02 -0.36545002183E+02  0.63926831407E+02  0.00000000000E+00 0.  1.
<scales pt_clust_5="13000.00000" pt_clust_6="13000.00000" pt_clust_7="13000.00000" pt_clust_8="13000.00000" pt_clust_9="22.90862" pt_clust_10="53.63515"></scales>
<clustering>
<clus scale="   22.909">  1  9  2 -1</clus>
<clus scale="   53.635">  1 10  2 -1</clus>
<clus scale="   89.785">  5  6 -1 -1</clus>
<clus scale="   90.111">  7  8 -1 -1</clus>
<clus scale="  168.371">  1  5  2 -1</clus>
<clus scale="   22.909">  1  5  2 -1</clus>
</clustering>
</event>
<event>
10    2  0.1671105E-006  0.1069296E+03  0.7546771E-02  0.1268173E+00
         21   -1    0    0  501  502  0.00000000000E+00  0.00000000000E+00  0.49069213092E+03  0.49069213092E+03  0.00000000000E+00 0.  1.
          1   -1    0    0  503    0 -0.00000000000E+00 -0.00000000000E+00 -0.77534602769E+02  0.77534602769E+02  0.00000000000E+00 0. -1.
         23    2    1    2    0    0 -0.14020186668E+02  0.22647280098E+02 -0.94085978439E+01  0.98785675553E+02  0.94660567561E+02 0.  0.
         23    2    1    2    0    0  0.48659171751E+02 -0.44736306726E+02  0.36453124464E+03  0.38136167449E+03  0.90469035109E+02 0.  0.
        -11    1    4    4    0    0  0.73819697418E+02 -0.24627091445E+02  0.28800808986E+03  0.29833622172E+03  0.00000000000E+00 0. -1.
         11    1    4    4    0    0 -0.25160525668E+02 -0.20109215281E+02  0.76523154777E+02  0.83025452772E+02  0.00000000000E+00 0.  1.
        -13    1    3    3    0    0  0.22504023381E+02 -0.17567836182E+02  0.21992365972E+02  0.36037814827E+02  0.00000000000E+00 0. -1.
         13    1    3    3    0    0 -0.36524210049E+02  0.40215116280E+02 -0.31400963816E+02  0.62747860726E+02  0.00000000000E+00 0.  1.
         21    1    1    2  503  502 -0.36811981252E+02 -0.49032549146E+01  0.22568589985E+02  0.43456934158E+02  0.00000000000E+00 0.  1.
          1    1    1    2  501    0  0.21729961695E+01  0.26992281543E+02  0.35466291372E+02  0.44622449495E+02  0.00000000000E+00 0. -1.
<scales pt_clust_5="13000.00000" pt_clust_6="13000.00000" pt_clust_7="13000.00000" pt_clust_8="13000.00000" pt_clust_9="36.76939" pt_clust_10="27.07961"></scales>
<clustering>
<clus scale="   27.080">  1 10  2 -1</clus>
<clus scale="   36.769">  2  9  1 -1</clus>
<clus scale="   90.469">  5  6 -1 -1</clus>
<clus scale="   94.661">  7  8 -1 -1</clus>
<clus scale="  103.237">  1  5  2 -1</clus>
<clus scale="   27.080">  1  5  2 -1</clus>
</clustering>
</event>
<event>
10    2  0.1671105E-006  0.1229744E+03  0.7546771E-02  0.1240175E+00
         21   -1    0    0  501  502  0.00000000000E+00  0.00000000000E+00  0.36685619408E+03  0.36685619408E+03  0.00000000000E+00 0. -1.
          1   -1    0    0  503    0 -0.00000000000E+00 -0.00000000000E+00 -0.60230036460E+02  0.60230036460E+02  0.00000000000E+00 0. -1.
         23    2    1    2    0    0  0.75618312040E+02 -0.52201175294E+02  0.11372432155E+03  0.17386331727E+03  0.94085811689E+02 0.  0.
         23    2    1    2    0    0 -0.42690810449E+02  0.23462031741E+02  0.14644378188E+03  0.18384484679E+03  0.99900821867E+02 0.  0.
        -11    1    3    3    0    0  0.46671021458E+02  0.82856486231E+01  0.71343847625E+01  0.47934702075E+02  0.00000000000E+00 0. -1.
         11    1    3    3    0    0  0.28947290582E+02 -0.60486823917E+02  0.10658993679E+03  0.12592861520E+03  0.00000000000E+00 0.  1.
        -13    1    4    4    0    0 -0.63427323892E+02 -0.29374659680E+01  0.13356493380E+03  0.14788930206E+03  0.00000000000E+00 0.  1.
         13    1    4    4    0    0  0.20736513443E+02  0.26399497709E+02  0.12878848082E+02  0.35955544732E+02  0.00000000000E+00 0. -1.
         21    1    1    2  503  502 -0.10887081294E+02  0.22696789555E+02  0.36757272612E+02  0.44550756280E+02  0.00000000000E+00 0. -1.
          1    1    1    2  501    0 -0.22040420297E+02  0.60423539976E+01  0.97007815733E+01  0.24827310202E+02  0.00000000000E+00 0. -1.
<scales pt_clust_5="13000.00000" pt_clust_6="13000.00000" pt_clust_7="13000.00000" pt_clust_8="13000.00000" pt_clust_9="26.98965" pt_clust_10="22.85368"></scales>
<clustering>
<clus scale="   22.854">  1 10  2 -1</clus>
<clus scale="   26.990">  1  9  2 -1</clus>
<clus scale="   94.086">  5  6 -1 -1</clus>
<clus scale="   99.901">  7  8 -1 -1</clus>
<clus scale="  118.299">  2  5  1 -1</clus>
<clus scale="   22.854">  1  5  2 -1</clus>
</clustering>
</event>
<event>
10    2  0.1671105E-006  0.1833693E+03  0.7546771E-02  0.1186983E+00
          1   -1    0    0  502    0 -0.00000000000E+00  0.00000000000E+00  0.32958826786E+03  0.32958826786E+03  0.00000000000E+00 0. -1.
         21   -1    0    0  503  502  0.00000000000E+00 -0.00000000000E+00 -0.21669487123E+03  0.21669487123E+03  0.00000000000E+00 0. -1.
         23    2    1    2    0    0  0.37580600361E+02  0.59365381450E+02 -0.42135058339E+02  0.11817610472E+03  0.85168530261E+02 0.  0.
         23    2    1    2    0    0  0.12698087152E+03 -0.70221933883E+02  0.18981128312E+03  0.25658555945E+03  0.93555140900E+02 0.  0.
        -11    1    4    4    0    0  0.16820466245E+02  0.21148777232E+02  0.48128404449E+02  0.55195490558E+02  0.00000000000E+00 0.  1.
         11    1    4    4    0    0  0.11016040528E+03 -0.91370711115E+02  0.14168287867E+03  0.20139006889E+03  0.00000000000E+00 0. -1.
        -13    1    3    3    0    0 -0.23898614998E+02  0.35349960472E+02 -0.64850541388E+01  0.43160391928E+02  0.00000000000E+00 0. -1.
         13    1    3    3    0    0  0.61479215358E+02  0.24015420978E+02 -0.35650004200E+02  0.75015712789E+02  0.00000000000E+00 0.  1.
         21    1    1    2  503  501 -0.10780300019E+03 -0.40016731521E+01 -0.33044012986E+02  0.11282467387E+03  0.00000000000E+00 0. -1.
          1    1    1    2  501    0 -0.56758471689E+02  0.14858225585E+02 -0.17388151637E+01  0.58696801056E+02  0.00000000000E+00 0. -1.
<scales pt_clust_5="13000.00000" pt_clust_6="13000.00000" pt_clust_7="13000.00000" pt_clust_8="13000.00000" pt_clust_9="23.45387" pt_clust_10="160.88244"></scales>
<clustering>
<clus scale="   23.454">  9 10 -1 -1</clus>
<clus scale="   85.169">  7  8 -1 -1</clus>
<clus scale="   93.555">  5  6 -1 -1</clus>
<clus scale="  110.409">  1  7  2 -1</clus>
<clus scale="  160.882">  2  9  1 -1</clus>
<clus scale="  160.882">  2  5  1 -1</clus>
</clustering>
</event>
<event>
10    2  0.1671105E-006  0.1679867E+03  0.7546771E-02  0.1180108E+00
         21   -1    0    0  503  502  0.00000000000E+00  0.00000000000E+00  0.18305504513E+03  0.18305504513E+03  0.00000000000E+00 0.  1.
         -1   -1    0    0    0  501 -0.00000000000E+00 -0.00000000000E+00 -0.28236382346E+03  0.28236382346E+03  0.00000000000E+00 0.  1.
         23    2    1    2    0    0  0.13355151475E+03  0.54506834934E+02 -0.14227924964E+03  0.22227615363E+03  0.91412807884E+02 0.  0.
         23    2    1    2    0    0 -0.11628416251E+03 -0.66930246627E+02  0.21359981771E+02  0.16319164436E+03  0.90407962053E+02 0.  0.
        -11    1    3    3    0    0  0.86216363527E+02 -0.69377100544E+01 -0.43898778979E+02  0.96997401803E+02  0.00000000000E+00 0. -1.
         11    1    3    3    0    0  0.47335151222E+02  0.61444544989E+02 -0.98380470665E+02  0.12527875182E+03  0.00000000000E+00 0.  1.
        -13    1    4    4    0    0 -0.26773772966E+02 -0.66993827144E+02  0.12805550785E+02  0.73273391659E+02  0.00000000000E+00 0.  1.
         13    1    4    4    0    0 -0.89510389544E+02  0.63580517322E-01  0.85544309862E+01  0.89918252698E+02  0.00000000000E+00 0. -1.
         21    1    1    2  503  501 -0.13381142901E+02 -0.29670035424E+02  0.18795328371E+02  0.37584975136E+02  0.00000000000E+00 0.  1.
         -1    1    1    2    0  502 -0.38862093382E+01  0.42093447117E+02  0.28151611743E+01  0.42366095473E+02  0.00000000000E+00 0.  1.
<scales pt_clust_5="13000.00000" pt_clust_6="13000.00000" pt_clust_7="13000.00000" pt_clust_8="13000.00000" pt_clust_9="32.54790" pt_clust_10="38.21398"></scales>
<clustering>
<clus scale="   32.548">  1  9  2 -1</clus>
<clus scale="   38.214">  1 10  2 -1</clus>
<clus scale="   90.408">  7  8 -1 -1</clus>
<clus scale="   91.413">  5  6 -1 -1</clus>
<clus scale="  167.442">  1  7  2 -1</clus>
<clus scale="   32.548">  1  5  2 -1</clus>
</clustering>
</event>
<event>
10    2  0.1671105E-006  0.1516711E+03  0.7546771E-02  0.1211018E+00
          3   -1    0    0  503    0 -0.00000000000E+00  0.00000000000E+00  0.95630742621E+03  0.95630742621E+03  0.00000000000E+00 0. -1.
         21   -1    0    0  501  502  0.00000000000E+00 -0.00000000000E+00 -0.64737053647E+02  0.64737053647E+02  0.00000000000E+00 0. -1.
         23    2    1    2    0    0 -0.13356269160E+02 -0.61076397158E+02  0.22606912978E+03  0.25296490072E+03  0.94737919234E+02 0.  0.
         23    2    1    2    0    0 -0.64390900377E+02  0.41694671115E+02  0.42035234261E+03  0.43673401285E+03  0.90309868729E+02 0.  0.
        -11    1    4    4    0    0 -0.17878213818E+02  0.61479506887E+02  0.28864196207E+03  0.29565781330E+03  0.00000000000E+00 0. -1.
         11    1    4    4    0    0 -0.46512686560E+02 -0.19784835772E+02  0.13171038054E+03  0.14107619955E+03  0.00000000000E+00 0.  1.
        -13    1    3    3    0    0 -0.40406642903E+02 -0.34615890079E+01  0.42819371826E+02  0.58976079835E+02  0.00000000000E+00 0.  1.
         13    1    3    3    0    0  0.27050373742E+02 -0.57614808150E+02  0.18324975796E+03  0.19398882089E+03  0.00000000000E+00 0. -1.
         21    1    1    2  503  502 -0.61964214289E+02  0.97056688262E+01  0.14845840081E+03  0.16116345935E+03  0.00000000000E+00 0. -1.
          3    1    1    2  501    0  0.13971138383E+03  0.96760572166E+01  0.96690499360E+02  0.17018210693E+03  0.00000000000E+00 0. -1.
<scales pt_clust_5="13000.00000" pt_clust_6="13000.00000" pt_clust_7="13000.00000" pt_clust_8="13000.00000" pt_clust_9="62.71972" pt_clust_10="121.85339"></scales>
<clustering>
<clus scale="   62.720">  1  9  2 -1</clus>
<clus scale="   90.310">  5  6 -1 -1</clus>
<clus scale="   94.738">  7  8 -1 -1</clus>
<clus scale="  115.653">  1  7  2 -1</clus>
<clus scale="  121.853">  2 10  1 -1</clus>
<clus scale="  121.853">  2  5  1 -1</clus>
</clustering>
</event>
<event>
10    2  0.1671105E-006  0.9343948E+02  0.7546771E-02  0.1295239E+00
         21   -1    0    0  503  502  0.00000000000E+00  0.00000000000E+00  0.23469152470E+03  0.23469152470E+03  0.00000000000E+00 0.  1.
         -3   -1    0    0    0  501 -0.00000000000E+00 -0.00000000000E+00 -0.23183089047E+03  0.23183089047E+03  0.00000000000E+00 0.  1.
         23    2    1    2    0    0  0.23506851048E+02  0.58186131242E+01 -0.16945346870E+03  0.19391347748E+03  0.91112734505E+02 0.  0.
         23    2    1    2    0    0  0.22329447049E+02 -0.11869836381E+02  0.76925026183E+01  0.95727151096E+02  0.92005519613E+02 0.  0.
        -11    1    3    3    0    0  0.57482405330E+02  0.72031780071E+01 -0.84931468626E+02  0.10280791341E+03  0.00000000000E+00 0.  1.
         11    1    3    3    0    0 -0.33975554282E+02 -0.13845648830E+01 -0.84522000076E+02  0.91105564076E+02  0.00000000000E+00 0. -1.
        -11    1    4    4    0    0  0.51947590228E+02 -0.18481814642E+02 -0.15792006086E+02  0.57354311600E+02  0.00000000000E+00 0.  1.
         11    1    4    4    0    0 -0.29618143179E+02  0.66119782613E+01  0.23484508704E+02  0.38372839496E+02  0.00000000000E+00 0. -1.
         21    1    1    2  503  501 -0.27049663441E+02 -0.66336468829E+01  0.32374219679E+02  0.42705733375E+02  0.00000000000E+00 0.  1.
         -3    1    1    2    0  502 -0.18786634656E+02  0.12684870140E+02  0.13224738064E+03  0.13417605322E+03  0.00000000000E+00 0.  1.
<scales pt_clust_5="13000.00000" pt_clust_6="13000.00000" pt_clust_7="13000.00000" pt_clust_8="13000.00000" pt_clust_9="34.05469" pt_clust_10="22.66812"></scales>
<clustering>
<clus scale="   22.668">  1 10  2 -1</clus>
<clus scale="   34.055">  1  9  2 -1</clus>
<clus scale="   91.113">  5  6 -1 -1</clus>
<clus scale="   92.006">  7  8 -1 -1</clus>
<clus scale="   92.561">  2  5  1 -1</clus>
<clus scale="   22.668">  1  5  2 -1</clus>
</clustering>
</event>
<event>
10    2  0.1671105E-006  0.1274511E+03  0.7546771E-02  0.1231416E+00
         21   -1    0    0  503  502  0.00000000000E+00  0.00000000000E+00  0.59310253352E+02  0.59310253352E+02  0.00000000000E+00 0. -1.
          2   -1    0    0  502    0 -0.00000000000E+00 -0.00000000000E+00 -0.65833035762E+03  0.65833035762E+03  0.00000000000E+00 0. -1.
         23    2    1    2    0    0  0.76310025929E+02  0.29749523507E+02 -0.30537395997E+03  0.32916588645E+03  0.91589689193E+02 0.  0.
         23    2    1    2    0    0 -0.86930268354E+02 -0.40727465372E+02 -0.28465310008E+03  0.31419359669E+03  0.92057758117E+02 0.  0.
        -11    1    3    3    0    0  0.88821155613E+02  0.15776298274E+01 -0.18994849837E+03  0.20969529950E+03  0.00000000000E+00 0.  1.
         11    1    3    3    0    0 -0.12511129683E+02  0.28171893679E+02 -0.11542546160E+03  0.11947058694E+03  0.00000000000E+00 0. -1.
        -11    1    4    4    0    0  0.91213285650E+01 -0.34583225906E+02 -0.95134040409E+02  0.10163505199E+03  0.00000000000E+00 0.  1.
         11    1    4    4    0    0 -0.96051596919E+02 -0.61442394668E+01 -0.18951905967E+03  0.21255854470E+03  0.00000000000E+00 0. -1.
         21    1    1    2  503  501 -0.22120413066E+02  0.68252788541E+01 -0.27894207758E+02  0.36248916289E+02  0.00000000000E+00 0. -1.
          2    1    1    2  501    0  0.32740655490E+02  0.41526630113E+01  0.18901163534E+02  0.38032211544E+02  0.00000000000E+00 0. -1.
<scales pt_clust_5="13000.00000" pt_clust_6="13000.00000" pt_clust_7="13000.00000" pt_clust_8="13000.00000" pt_clust_9="23.14945" pt_clust_10="22.65928"></scales>
<clustering>
<clus scale="   23.149">  1  9  2 -1</clus>
<clus scale="   22.659">  1 10  2 -1</clus>
<clus scale="   91.590">  5  6 -1 -1</clus>
<clus scale="   92.058">  7  8 -1 -1</clus>
<clus scale="  127.113">  2  5  1 -1</clus>
<clus scale="   23.149">  1  5  2 -1</clus>
</clustering>
</event>
<event>
10    2  0.1671105E-006  0.1117553E+03  0.7546771E-02  0.1258252E+00
          1   -1    0    0  502    0 -0.00000000000E+00  0.00000000000E+00  0.79705072252E+02  0.79705072252E+02  0.00000000000E+00 0. -1.
         21   -1    0    0  503  502  0.00000000000E+00 -0.00000000000E+00 -0.66390555976E+03  0.66390555976E+03  0.00000000000E+00 0. -1.
         23    2    1    2    0    0 -0.17145201604E+02 -0.60907813546E+02  0.47785198675E+01  0.11125703845E+03  0.91386950188E+02 0.  0.
         23    2    1    2    0    0 -0.69702167333E+02  0.60101458063E+02 -0.25803069744E+03  0.28954592400E+03  0.93735926360E+02 0.  0.
        -11    1    3    3    0    0 -0.41693770209E+02 -0.60668815490E+02  0.26737267758E+02  0.78319583339E+02  0.00000000000E+00 0. -1.
         11    1    3    3    0    0  0.24548568604E+02 -0.23899805593E+00 -0.21958747891E+02  0.32937455116E+02  0.00000000000E+00 0.  1.
        -13    1    4    4    0    0 -0.22224247774E+02 -0.17032008059E+02 -0.18754752038E+02  0.33700848827E+02  0.00000000000E+00 0.  1.
         13    1    4    4    0    0 -0.47477919559E+02  0.77133466122E+02 -0.23927594540E+03  0.25584507517E+03  0.00000000000E+00 0. -1.
         21    1    1    2  503  501  0.43302707545E+02 -0.98945483587E+01 -0.15547010736E+03  0.16169100423E+03  0.00000000000E+00 0. -1.
          1    1    1    2  501    0  0.43544661392E+02  0.10700903841E+02 -0.17547820258E+03  0.18111666533E+03  0.00000000000E+00 0. -1.
<scales pt_clust_5="13000.00000" pt_clust_6="13000.00000" pt_clust_7="13000.00000" pt_clust_8="13000.00000" pt_clust_9="21.04745" pt_clust_10="89.38856"></scales>
<clustering>
<clus scale="   21.047">  9 10 -1 -1</clus>
<clus scale="   89.389">  2  9  1 -1</clus>
<clus scale="   91.387">  5  6 -1 -1</clus>
<clus scale="   93.736">  7  8 -1 -1</clus>
<clus scale="  109.793">  1  5  2 -1</clus>
<clus scale="   89.389">  2  5  1 -1</clus>
</clustering>
</event>
<event>
10    2  0.1671105E-006  0.1327133E+03  0.7546771E-02  0.1228393E+00
          3   -1    0    0  503    0 -0.00000000000E+00  0.00000000000E+00  0.28184840716E+03  0.28184840716E+03  0.00000000000E+00 0. -1.
         21   -1    0    0  501  502  0.00000000000E+00 -0.00000000000E+00 -0.11008154222E+03  0.11008154222E+03  0.00000000000E+00 0. -1.
         23    2    1    2    0    0  0.62329313844E+02  0.87042803030E+02  0.11108888269E+03  0.18863242659E+03  0.10853598288E+03 0.  0.
         23    2    1    2    0    0 -0.86298143562E+01 -0.53061726801E+02  0.52751828283E+02  0.11916892887E+03  0.92349649015E+02 0.  0.
        -13    1    3    3    0    0  0.49906365728E+02 -0.13006839776E+02  0.35104738214E+02  0.62387225184E+02  0.00000000000E+00 0.  1.
         13    1    3    3    0    0  0.12422948116E+02  0.10004964281E+03  0.75984144477E+02  0.12624520140E+03  0.00000000000E+00 0. -1.
        -13    1    4    4    0    0 -0.41364538361E+02 -0.14042627387E+02  0.52420731371E+02  0.68236013184E+02  0.00000000000E+00 0.  1.
         13    1    4    4    0    0  0.32734724005E+02 -0.39019099414E+02  0.33109691162E+00  0.50932915683E+02  0.00000000000E+00 0. -1.
         21    1    1    2  503  502 -0.29496539303E+02  0.34032574533E+01  0.22516748547E+02  0.37264352367E+02  0.00000000000E+00 0.  1.
          3    1    1    2  501    0 -0.24202960184E+02 -0.37384333682E+02 -0.14590594579E+02  0.46864241557E+02  0.00000000000E+00 0. -1.
<scales pt_clust_5="13000.00000" pt_clust_6="13000.00000" pt_clust_7="13000.00000" pt_clust_8="13000.00000" pt_clust_9="29.69222" pt_clust_10="45.41075"></scales>
<clustering>
<clus scale="   29.692">  1  9  2 -1</clus>
<clus scale="   45.411">  2 10  1 -1</clus>
<clus scale="   92.350">  7  8 -1 -1</clus>
<clus scale="  108.536">  5  6 -1 -1</clus>
<clus scale="  119.838">  2  7  1 -1</clus>
<clus scale="   45.411">  2  5  1 -1</clus>
</clustering>
</event>
<event>
10    2  0.1671105E-006  0.1981867E+03  0.7546771E-02  0.1151830E+00
         21   -1    0    0  501  502  0.00000000000E+00  0.00000000000E+00  0.11340407319E+04  0.11340407319E+04  0.00000000000E+00 0. -1.
          1   -1    0    0  503    0 -0.00000000000E+00 -0.00000000000E+00 -0.14575724824E+03  0.14575724824E+03  0.00000000000E+00 0. -1.
         23    2    1    2    0    0 -0.13970670481E+03 -0.99647601087E+02  0.83772399701E+02  0.21044529469E+03  0.88440936969E+02 0.  0.
         23    2    1    2    0    0  0.19255676763E+03  0.77596171419E+01  0.73715404776E+02  0.22672978509E+03  0.93989968228E+02 0.  0.
        -11    1    4    4    0    0  0.13063330668E+03  0.45580932322E+02  0.28583221294E+02  0.14127874131E+03  0.00000000000E+00 0. -1.
         11    1    4    4    0    0  0.61923460952E+02 -0.37821315180E+02  0.45132183483E+02  0.85451043786E+02  0.00000000000E+00 0.  1.
        -13    1    3    3    0    0 -0.65786580292E+02 -0.26762025099E+00  0.48283567702E+02  0.81604219726E+02  0.00000000000E+00 0.  1.
         13    1    3    3    0    0 -0.73920124520E+02 -0.99379980836E+02  0.35488831998E+02  0.12884107496E+03  0.00000000000E+00 0. -1.
         21    1    1    2  503  502 -0.68452606028E+02  0.45762600190E+02  0.65683530278E+03  0.66197627588E+03  0.00000000000E+00 0. -1.
          1    1    1    2  501    0  0.15602543206E+02  0.46125383756E+02  0.17396037640E+03  0.18064662449E+03  0.00000000000E+00 0. -1.
<scales pt_clust_5="13000.00000" pt_clust_6="13000.00000" pt_clust_7="13000.00000" pt_clust_8="13000.00000" pt_clust_9="96.66274" pt_clust_10="48.69282"></scales>
<clustering>
<clus scale="   48.693">  1 10  2 -1</clus>
<clus scale="   88.441">  7  8 -1 -1</clus>
<clus scale="   93.990">  5  6 -1 -1</clus>
<clus scale="   96.663">  1  9  2 -1</clus>
<clus scale="  195.616">  2  7  1 -1</clus>
<clus scale="   48.693">  1  5  2 -1</clus>
</clustering>
</event>
<event>
10    2  0.1671105E-006  0.2448842E+03  0.7546771E-02  0.1116646E+00
         21   -1    0    0  501  502  0.00000000000E+00  0.00000000000E+00  0.49396201868E+03  0.49396201868E+03  0.00000000000E+00 0. -1.
          2   -1    0    0  503    0 -0.00000000000E+00 -0.00000000000E+00 -0.28444088018E+03  0.28444088018E+03  0.00000000000E+00 0. -1.
         23    2    1    2    0    0  0.27887052726E+03 -0.10106042406E+03 -0.37211728867E+02  0.31224766668E+03  0.90177116237E+02 0.  0.
         23    2    1    2    0    0 -0.15891378513E+03 -0.12331795496E+01  0.18679976818E+03  0.26168254115E+03  0.91260545233E+02 0.  0.
        -11    1    4    4    0    0 -0.51931595599E+02  0.24104641428E+02  0.17593016331E+02  0.59895230056E+02  0.00000000000E+00 0.  1.
         11    1    4    4    0    0 -0.10698218953E+03 -0.25337820977E+02  0.16920675185E+03  0.20178731110E+03  0.00000000000E+00 0. -1.
        -13    1    3    3    0    0  0.70826654969E+02  0.13345091265E+02 -0.16373927541E+02  0.73909485305E+02  0.00000000000E+00 0.  1.
         13    1    3    3    0    0  0.20804387229E+03 -0.11440551532E+03 -0.20837801326E+02  0.23833818137E+03  0.00000000000E+00 0. -1.
         21    1    1    2  503  502 -0.41394751663E+02  0.33339087431E+02 -0.34694574823E+02  0.63472306860E+02  0.00000000000E+00 0. -1.
          2    1    1    2  501    0 -0.78561990470E+02  0.68954516174E+02  0.94627674013E+02  0.14100038417E+03  0.00000000000E+00 0. -1.
<scales pt_clust_5="13000.00000" pt_clust_6="13000.00000" pt_clust_7="13000.00000" pt_clust_8="13000.00000" pt_clust_9="53.15092" pt_clust_10="109.76263"></scales>
<clustering>
<clus scale="   53.151">  2  9  1 -1</clus>
<clus scale="   90.177">  7  8 -1 -1</clus>
<clus scale="   91.261">  5  6 -1 -1</clus>
<clus scale="  109.763">  1 10  2 -1</clus>
<clus scale="  244.482">  2  7  1 -1</clus>
<clus scale="  109.763">  1  5  2 -1</clus>
</clustering>
</event>
<event>
10    2  0.1671105E-006  0.1445011E+03  0.7546771E-02  0.1207791E+00
          3   -1    0    0  503    0 -0.00000000000E+00  0.00000000000E+00  0.84519155344E+02  0.84519155344E+02  0.00000000000E+00 0. -1.
         21   -1    0    0  501  502  0.00000000000E+00 -0.00000000000E+00 -0.99657356546E+03  0.99657356546E+03  0.00000000000E+00 0.  1.
         23    2    1    2    0    0  0.11196201729E+03  0.12954233846E+02 -0.13252431762E+02  0.14550249533E+03  0.91060659495E+02 0.  0.
         23    2    1    2    0    0 -0.80854949028E+02 -0.85413710667E+02 -0.67098562682E+03  0.68752913465E+03  0.92960071184E+02 0.  0.
        -11    1    4    4    0    0  0.21043055551E+02 -0.12284938985E+02 -0.11991104844E+03  0.12236171563E+03  0.00000000000E+00 0. -1.
         11    1    4    4    0    0 -0.10189800458E+03 -0.73128771682E+02 -0.55107457838E+03  0.56516741902E+03  0.00000000000E+00 0.  1.
        -13    1    3    3    0    0  0.65884119520E+02 -0.13309749962E+02 -0.47556924162E+02  0.82337887298E+02  0.00000000000E+00 0.  1.
         13    1    3    3    0    0  0.46077897775E+02  0.26263983808E+02  0.34304492399E+02  0.63164608030E+02  0.00000000000E+00 0. -1.
         21    1    1    2  503  502 -0.81602896756E+01  0.74391785422E+02 -0.16580856980E+03  0.18191539210E+03  0.00000000000E+00 0.  1.
          3    1    1    2  501    0 -0.22946778591E+02 -0.19323086013E+01 -0.62007781732E+02  0.66145698723E+02  0.00000000000E+00 0. -1.
<scales pt_clust_5="13000.00000" pt_clust_6="13000.00000" pt_clust_7="13000.00000" pt_clust_8="13000.00000" pt_clust_9="75.06920" pt_clust_10="23.02799"></scales>
<clustering>
<clus scale="   23.028">  2 10  1 -1</clus>
<clus scale="   75.069">  2  9  1 -1</clus>
<clus scale="   91.061">  7  8 -1 -1</clus>
<clus scale="   92.960">  5  6 -1 -1</clus>
<clus scale="  143.287">  1  7  2 -1</clus>
<clus scale="   23.028">  2  5  1 -1</clus>
</clustering>
</event>
<event>
10    2  0.1671105E-006  0.1699235E+03  0.7546771E-02  0.1196967E+00
          1   -1    0    0  502    0 -0.00000000000E+00  0.00000000000E+00  0.39137603812E+03  0.39137603812E+03  0.00000000000E+00 0. -1.
         21   -1    0    0  503  502  0.00000000000E+00 -0.00000000000E+00 -0.14365187951E+03  0.14365187951E+03  0.00000000000E+00 0. -1.
         23    2    1    2    0    0 -0.11220996951E+02  0.66360712668E+02  0.10821352357E+03  0.15528119257E+03  0.88726699043E+02 0.  0.
         23    2    1    2    0    0  0.14255023993E+03 -0.98935133494E+02  0.14016541228E+03  0.24096908487E+03  0.91164826115E+02 0.  0.
        -11    1    4    4    0    0  0.17936285772E+02 -0.63202247902E+02  0.37852569091E+02  0.75822499787E+02  0.00000000000E+00 0. -1.
         11    1    4    4    0    0  0.12461395416E+03 -0.35732885592E+02  0.10231284319E+03  0.16514658508E+03  0.00000000000E+00 0.  1.
        -11    1    3    3    0    0 -0.35610060664E+00  0.84377004502E+02  0.10382761391E+03  0.13379005608E+03  0.00000000000E+00 0. -1.
         11    1    3    3    0    0 -0.10864896345E+02 -0.18016291834E+02  0.43859096685E+01  0.21491136490E+02  0.00000000000E+00 0.  1.
         21    1    1    2  503  501 -0.44984197750E+02  0.16734380493E+02  0.13498515407E+02  0.49858073126E+02  0.00000000000E+00 0. -1.
          1    1    1    2  501    0 -0.86345045231E+02  0.15840040332E+02 -0.14153292641E+02  0.88919567061E+02  0.00000000000E+00 0. -1.
<scales pt_clust_5="13000.00000" pt_clust_6="13000.00000" pt_clust_7="13000.00000" pt_clust_8="13000.00000" pt_clust_9="22.79450" pt_clust_10="146.67411"></scales>
<clustering>
<clus scale="   22.794">  9 10 -1 -1</clus>
<clus scale="   88.727">  7  8 -1 -1</clus>
<clus scale="   91.165">  5  6 -1 -1</clus>
<clus scale="  111.365">  1  7  2 -1</clus>
<clus scale="  146.674">  2  9  1 -1</clus>
<clus scale="  146.674">  2  5  1 -1</clus>
</clustering>
</event>
<event>
10    2  0.1671105E-006  0.3582824E+03  0.7546771E-02  0.1094930E+00
         21   -1    0    0  503  502  0.00000000000E+00  0.00000000000E+00  0.82115512544E+02  0.82115512544E+02  0.00000000000E+00 0. -1.
          2   -1    0    0  502    0 -0.00000000000E+00 -0.00000000000E+00 -0.23255756101E+04  0.23255756101E+04  0.00000000000E+00 0. -1.
         23    2    1    2    0    0 -0.79145455776E+02 -0.40584720092E+02 -0.32722289877E+03  0.35448589897E+03  0.10331652535E+03 0.  0.
         23    2    1    2    0    0  0.26531193180E+03  0.25769839140E+03 -0.70694431598E+03  0.80477995145E+03  0.10536423625E+03 0.  0.
        -11    1    4    4    0    0  0.22816797631E+03  0.23961615131E+03 -0.54434686045E+03  0.63701650675E+03  0.00000000000E+00 0. -1.
         11    1    4    4    0    0  0.37143955488E+02  0.18082240086E+02 -0.16259745552E+03  0.16776344470E+03  0.00000000000E+00 0.  1.
        -11    1    3    3    0    0 -0.50719702773E+02 -0.11188197698E+02 -0.30201428020E+03  0.30644785765E+03  0.00000000000E+00 0.  1.
         11    1    3    3    0    0 -0.28425753003E+02 -0.29396522395E+02 -0.25208618575E+02  0.48038041313E+02  0.00000000000E+00 0. -1.
         21    1    1    2  503  501 -0.13273030748E+03 -0.88045196427E+02 -0.47589287285E+03  0.50183993222E+03  0.00000000000E+00 0.  1.
          2    1    1    2  501    0 -0.53436168552E+02 -0.12906847488E+03 -0.73340000993E+03  0.74658533999E+03  0.00000000000E+00 0. -1.
<scales pt_clust_5="13000.00000" pt_clust_6="13000.00000" pt_clust_7="13000.00000" pt_clust_8="13000.00000" pt_clust_9="112.30283" pt_clust_10="112.30283"></scales>
<clustering>
<clus scale="  103.317">  7  8 -1 -1</clus>
<clus scale="  105.364">  5  6 -1 -1</clus>
<clus scale="  112.303">  9 10 -1 -1</clus>
<clus scale="  136.328">  2  7  1 -1</clus>
<clus scale="  353.678">  2  5  1 -1</clus>
<clus scale="  358.282">  1  5  2 -1</clus>
</clustering>
</event>
<event>
10    2  0.1671105E-006  0.9289318E+02  0.7546771E-02  0.1318037E+00
         21   -1    0    0  503  502  0.00000000000E+00  0.00000000000E+00  0.47992368439E+03  0.47992368439E+03  0.00000000000E+00 0.  1.
         -3   -1    0    0    0  501 -0.00000000000E+00 -0.00000000000E+00 -0.34725906411E+02  0.34725906411E+02  0.00000000000E+00 0.  1.
         23    2    1    2    0    0  0.18234747737E+02 -0.17421676054E+02  0.93904466052E+02  0.13324715589E+03  0.91108369463E+02 0.  0.
         23    2    1    2    0    0 -0.17229191521E+02 -0.22666528141E+02  0.89245278759E+02  0.11094615016E+03  0.59445032733E+02 0.  0.
        -11    1    3    3    0    0  0.53064126061E+02 -0.24598261341E+02  0.51741531990E+02  0.78090089437E+02  0.00000000000E+00 0.  1.
         11    1    3    3    0    0 -0.34829378323E+02  0.71765852870E+01  0.42162934062E+02  0.55157066451E+02  0.00000000000E+00 0. -1.
        -13    1    4    4    0    0 -0.35271811007E+01 -0.38933295830E+02  0.34223018346E+02  0.51956303904E+02  0.00000000000E+00 0.  1.
         13    1    4    4    0    0 -0.13702010421E+02  0.16266767689E+02  0.55022260414E+02  0.58989846259E+02  0.00000000000E+00 0. -1.
         21    1    1    2  503  501 -0.20387910115E+02  0.99853362362E+01  0.44235101706E+02  0.49720398647E+02  0.00000000000E+00 0.  1.
         -3    1    1    2    0  502  0.19382353899E+02  0.30102867959E+02  0.21781293146E+03  0.22073588610E+03  0.00000000000E+00 0.  1.
<scales pt_clust_5="13000.00000" pt_clust_6="13000.00000" pt_clust_7="13000.00000" pt_clust_8="13000.00000" pt_clust_9="22.70185" pt_clust_10="36.30779"></scales>
<clustering>
<clus scale="   22.702">  1  9  2 -1</clus>
<clus scale="   36.308">  1 10  2 -1</clus>
<clus scale="   59.445">  7  8 -1 -1</clus>
<clus scale="   62.146">  1  7  2 -1</clus>
<clus scale="   91.108">  5  6 -1 -1</clus>
<clus scale="   22.702">  1  5  2 -1</clus>
</clustering>
</event>
<event>
10    2  0.1671105E-006  0.9549400E+02  0.7546771E-02  0.1291717E+00
          3   -1    0    0  503    0 -0.00000000000E+00  0.00000000000E+00  0.78355243850E+02  0.78355243850E+02  0.00000000000E+00 0. -1.
         21   -1    0    0  501  502  0.00000000000E+00 -0.00000000000E+00 -0.58389644675E+03  0.58389644675E+03  0.00000000000E+00 0.  1.
         23    2    1    2    0    0 -0.24356210964E+02 -0.20240725625E+02  0.37687354004E+02  0.10055099694E+03  0.87676988702E+02 0.  0.
         23    2    1    2    0    0 -0.93251025993E+01  0.26064330842E+02 -0.31151045045E+03  0.32563477735E+03  0.90735553137E+02 0.  0.
        -11    1    3    3    0    0 -0.32302895149E+02  0.26191394308E+02  0.23323492065E+01  0.41652203107E+02  0.00000000000E+00 0. -1.
         11    1    3    3    0    0  0.79466841854E+01 -0.46432119933E+02  0.35355004798E+02  0.58898793835E+02  0.00000000000E+00 0.  1.
        -11    1    4    4    0    0  0.54094682970E+01  0.57073999188E+02 -0.15154414436E+03  0.16202571222E+03  0.00000000000E+00 0. -1.
         11    1    4    4    0    0 -0.14734570896E+02 -0.31009668347E+02 -0.15996630608E+03  0.16360906513E+03  0.00000000000E+00 0.  1.
         21    1    1    2  503  502  0.13203568182E+02 -0.17126847105E+02 -0.10420937377E+03  0.10642958558E+03  0.00000000000E+00 0.  1.
          3    1    1    2  501    0  0.20477745382E+02  0.11303241888E+02 -0.12750873268E+03  0.12963633072E+03  0.00000000000E+00 0. -1.
<scales pt_clust_5="13000.00000" pt_clust_6="13000.00000" pt_clust_7="13000.00000" pt_clust_8="13000.00000" pt_clust_9="21.62552" pt_clust_10="24.94225"></scales>
<clustering>
<clus scale="   21.626">  2  9  1 -1</clus>
<clus scale="   24.942">  2 10  1 -1</clus>
<clus scale="   87.677">  5  6 -1 -1</clus>
<clus scale="   90.736">  7  8 -1 -1</clus>
<clus scale="   92.593">  1  5  2 -1</clus>
<clus scale="   21.626">  2  5  1 -1</clus>
</clustering>
</event>
<event>
10    2  0.1671105E-006  0.1161543E+03  0.7546771E-02  0.1257319E+00
         21   -1    0    0  503  502  0.00000000000E+00  0.00000000000E+00  0.87558390406E+02  0.87558390406E+02  0.00000000000E+00 0. -1.
         -1   -1    0    0    0  501 -0.00000000000E+00 -0.00000000000E+00 -0.40661325110E+03  0.40661325110E+03  0.00000000000E+00 0.  1.
         23    2    1    2    0    0  0.13183288866E+02  0.53698187382E+02 -0.20760898882E+03  0.23407419590E+03  0.92908247821E+02 0.  0.
         23    2    1    2    0    0  0.44825193919E+01  0.34251713604E+02 -0.59878173036E+02  0.11354960723E+03  0.90082433538E+02 0.  0.
        -11    1    3    3    0    0 -0.16044620013E+02  0.55244808843E+02 -0.58228724420E+02  0.81853546552E+02  0.00000000000E+00 0. -1.
         11    1    3    3    0    0  0.29227908879E+02 -0.15466214607E+01 -0.14938026440E+03  0.15222064935E+03  0.00000000000E+00 0.  1.
        -13    1    4    4    0    0  0.44709198891E+02  0.12454024192E+02 -0.13346548466E+02  0.48292292760E+02  0.00000000000E+00 0.  1.
         13    1    4    4    0    0 -0.40226679499E+02  0.21797689413E+02 -0.46531624570E+02  0.65257314475E+02  0.00000000000E+00 0. -1.
         21    1    1    2  503  501 -0.12417816948E+02 -0.11193366362E+03 -0.42746177843E+02  0.12045988108E+03  0.00000000000E+00 0.  1.
         -1    1    1    2    0  502 -0.52479913095E+01  0.23983762635E+02 -0.88215209917E+01  0.26087957289E+02  0.00000000000E+00 0.  1.
<scales pt_clust_5="13000.00000" pt_clust_6="13000.00000" pt_clust_7="13000.00000" pt_clust_8="13000.00000" pt_clust_9="69.71282" pt_clust_10="24.55122"></scales>
<clustering>
<clus scale="   24.551">  1 10  2 -1</clus>
<clus scale="   90.082">  7  8 -1 -1</clus>
<clus scale="   92.908">  5  6 -1 -1</clus>
<clus scale="   99.601">  1  7  2 -1</clus>
<clus scale="   69.713">  1  9  2 -1</clus>
<clus scale="   24.551">  1  5  2 -1</clus>
</clustering>
</event>
<event>
10    2  0.1671105E-006  0.1044556E+03  0.7546771E-02  0.1271436E+00
          2   -1    0    0  503    0 -0.00000000000E+00  0.00000000000E+00  0.20802964550E+03  0.20802964550E+03  0.00000000000E+00 0. -1.
         21   -1    0    0  501  502  0.00000000000E+00 -0.00000000000E+00 -0.20064430792E+03  0.20064430792E+03  0.00000000000E+00 0.  1.
         23    2    1    2    0    0 -0.43849396522E+02 -0.24506766718E+02  0.89169625059E+02  0.13855568972E+03  0.93397569189E+02 0.  0.
         23    2    1    2    0    0 -0.39959506790E+02  0.74577236520E+02  0.11279058852E+02  0.12692259460E+03  0.93934027171E+02 0.  0.
        -11    1    4    4    0    0  0.27551650459E+02  0.10194966769E+02 -0.10371133265E+02  0.31154312633E+02  0.00000000000E+00 0. -1.
         11    1    4    4    0    0 -0.67511157249E+02  0.64382269751E+02  0.21650192117E+02  0.95768281963E+02  0.00000000000E+00 0.  1.
        -13    1    3    3    0    0  0.24250934528E+02 -0.87449618539E+01  0.68032070605E+00  0.25788466794E+02  0.00000000000E+00 0. -1.
         13    1    3    3    0    0 -0.68100331050E+02 -0.15761804864E+02  0.88489304353E+02  0.11276722293E+03  0.00000000000E+00 0.  1.
         21    1    1    2  503  502  0.18823469401E+02 -0.10853196694E+02  0.16857227928E+01  0.21793497657E+02  0.00000000000E+00 0. -1.
          2    1    1    2  501    0  0.64985433911E+02 -0.39217273108E+02 -0.94749069124E+02  0.12140217144E+03  0.00000000000E+00 0. -1.
<scales pt_clust_5="13000.00000" pt_clust_6="13000.00000" pt_clust_7="13000.00000" pt_clust_8="13000.00000" pt_clust_9="21.72820" pt_clust_10="77.37680"></scales>
<clustering>
<clus scale="   21.728">  1  9  2 -1</clus>
<clus scale="   77.377">  2 10  1 -1</clus>
<clus scale="   93.398">  7  8 -1 -1</clus>
<clus scale="   93.934">  5  6 -1 -1</clus>
<clus scale="  103.973">  1  7  2 -1</clus>
<clus scale="   77.377">  2  5  1 -1</clus>
</clustering>
</event>
<event>
10    2  0.1671105E-006  0.9403506E+02  0.7546771E-02  0.1294366E+00
         -1   -1    0    0    0  501 -0.00000000000E+00  0.00000000000E+00  0.49740001117E+03  0.49740001117E+03  0.00000000000E+00 0.  1.
         21   -1    0    0  503  502  0.00000000000E+00 -0.00000000000E+00 -0.48094380782E+02  0.48094380782E+02  0.00000000000E+00 0.  1.
         23    2    1    2    0    0  0.21226663776E+01  0.20147304490E+02  0.20378359808E+03  0.22431249899E+03  0.91530993478E+02 0.  0.
         23    2    1    2    0    0  0.53610465261E+02  0.31150677615E+02  0.92152372015E+02  0.14279637360E+03  0.89745740531E+02 0.  0.
        -11    1    4    4    0    0  0.70110214128E+02  0.46937204557E+02  0.60740431797E+02  0.10396125890E+03  0.00000000000E+00 0.  1.
         11    1    4    4    0    0 -0.16499748867E+02 -0.15786526942E+02  0.31411940217E+02  0.38835114700E+02  0.00000000000E+00 0. -1.
        -11    1    3    3    0    0  0.43466198293E+02 -0.13496902296E+01  0.12966067113E+03  0.13675899128E+03  0.00000000000E+00 0.  1.
         11    1    3    3    0    0 -0.41343531916E+02  0.21496994719E+02  0.74122926944E+02  0.87553507708E+02  0.00000000000E+00 0. -1.
         21    1    1    2  503  501 -0.21929108794E+02 -0.61918180838E+01  0.93168730709E+02  0.95914737166E+02  0.00000000000E+00 0.  1.
         -1    1    1    2    0  502 -0.33804022844E+02 -0.45106164021E+02  0.60200929586E+02  0.82470782197E+02  0.00000000000E+00 0.  1.
<scales pt_clust_5="13000.00000" pt_clust_6="13000.00000" pt_clust_7="13000.00000" pt_clust_8="13000.00000" pt_clust_9="22.78650" pt_clust_10="59.62379"></scales>
<clustering>
<clus scale="   22.786">  1  9  2 -1</clus>
<clus scale="   59.624">  2 10  1 -1</clus>
<clus scale="   89.746">  5  6 -1 -1</clus>
<clus scale="   91.531">  7  8 -1 -1</clus>
<clus scale="   92.298">  2  5  1 -1</clus>
<clus scale="   59.624">  2  5  1 -1</clus>
</clustering>
</event>
<event>
10    2  0.1671105E-006  0.1250487E+03  0.7546771E-02  0.1238799E+00
         21   -1    0    0  503  502  0.00000000000E+00  0.00000000000E+00  0.48070727755E+02  0.48070727755E+02  0.00000000000E+00 0. -1.
         -1   -1    0    0    0  501 -0.00000000000E+00 -0.00000000000E+00 -0.70133819037E+03  0.70133819037E+03  0.00000000000E+00 0.  1.
         23    2    1    2    0    0 -0.72084691309E+02  0.48055376515E+02 -0.26846678919E+03  0.30000743053E+03  0.10210053643E+03 0.  0.
         23    2    1    2    0    0  0.23579299873E+02 -0.58923873862E+02 -0.16300073852E+03  0.19690512641E+03  0.90412287617E+02 0.  0.
        -11    1    4    4    0    0  0.44234281890E+02 -0.71693492838E+02 -0.10953427284E+03  0.13818243570E+03  0.00000000000E+00 0. -1.
         11    1    4    4    0    0 -0.20654982016E+02  0.12769618976E+02 -0.53466465686E+02  0.58722690707E+02  0.00000000000E+00 0.  1.
        -13    1    3    3    0    0 -0.64772988581E+02 -0.64523474839E+01 -0.20947799980E+03  0.21935862244E+03  0.00000000000E+00 0.  1.
         13    1    3    3    0    0 -0.73117027287E+01  0.54507723999E+02 -0.58988789389E+02  0.80648808087E+02  0.00000000000E+00 0. -1.
         21    1    1    2  503  501 -0.33215352378E+01 -0.44064050510E+02 -0.67058352424E+02  0.80308752783E+02  0.00000000000E+00 0. -1.
         -1    1    1    2    0  502  0.51826926674E+02  0.54932547858E+02 -0.15474158247E+03  0.17218760840E+03  0.00000000000E+00 0.  1.
<scales pt_clust_5="13000.00000" pt_clust_6="13000.00000" pt_clust_7="13000.00000" pt_clust_8="13000.00000" pt_clust_9="44.18906" pt_clust_10="68.54745"></scales>
<clustering>
<clus scale="   44.189">  1  9  2 -1</clus>
<clus scale="   68.547">  1 10  2 -1</clus>
<clus scale="   90.412">  5  6 -1 -1</clus>
<clus scale="  102.101">  7  8 -1 -1</clus>
<clus scale="  115.702">  1  5  2 -1</clus>
<clus scale="   44.189">  1  5  2 -1</clus>
</clustering>
</event>
<event>
10    2  0.1671105E-006  0.2020484E+03  0.7546771E-02  0.1160562E+00
         -1   -1    0    0    0  501 -0.00000000000E+00  0.00000000000E+00  0.10295781057E+04  0.10295781057E+04  0.00000000000E+00 0.  1.
         21   -1    0    0  501  502  0.00000000000E+00 -0.00000000000E+00 -0.18382367242E+03  0.18382367242E+03  0.00000000000E+00 0.  1.
         23    2    1    2    0    0 -0.11236856505E+03 -0.43177066375E+02  0.32828889994E+03  0.36112133249E+03  0.90244454035E+02 0.  0.
         23    2    1    2    0    0 -0.27169781534E+02  0.16018289145E+03  0.61493287631E+03  0.64330074545E+03  0.96419142230E+02 0.  0.
        -13    1    3    3    0    0 -0.11524579331E+03 -0.84831200194E+01  0.25712135621E+03  0.28189527847E+03  0.00000000000E+00 0.  1.
         13    1    3    3    0    0  0.28772282593E+01 -0.34693946355E+02  0.71167543724E+02  0.79226054022E+02  0.00000000000E+00 0. -1.
        -13    1    4    4    0    0 -0.97409615095E+00  0.12228818552E+03  0.55155096156E+03  0.56494584906E+03  0.00000000000E+00 0.  1.
         13    1    4    4    0    0 -0.26195685383E+02  0.37894705923E+02  0.63381914756E+02  0.78354896387E+02  0.00000000000E+00 0. -1.
         21    1    1    2  503  502  0.80709459222E+02 -0.83311359758E+02 -0.72197983099E+02  0.13662850448E+03  0.00000000000E+00 0.  1.
         -1    1    1    2    0  503  0.58828887363E+02 -0.33694465312E+02 -0.25269359823E+02  0.72351195753E+02  0.00000000000E+00 0.  1.
<scales pt_clust_5="13000.00000" pt_clust_6="13000.00000" pt_clust_7="13000.00000" pt_clust_8="13000.00000" pt_clust_9="24.31215" pt_clust_10="180.38360"></scales>
<clustering>
<clus scale="   24.312">  9 10 -1 -1</clus>
<clus scale="   90.244">  5  6 -1 -1</clus>
<clus scale="   96.419">  7  8 -1 -1</clus>
<clus scale="  150.449">  1  5  2 -1</clus>
<clus scale="  180.384">  2  9  1 -1</clus>
<clus scale="  180.384">  2  5  1 -1</clus>
</clustering>
</event>
<event>
10    2  0.1671105E-006  0.1229060E+03  0.7546771E-02  0.1239574E+00
         21   -1    0    0  501  502  0.00000000000E+00  0.00000000000E+00  0.10365222954E+03  0.10365222954E+03  0.00000000000E+00 0.  1.
          1   -1    0    0  503    0 -0.00000000000E+00 -0.00000000000E+00 -0.30771758546E+03  0.30771758546E+03  0.00000000000E+00 0. -1.
         23    2    1    2    0    0  0.37533606341E+02 -0.57585937234E+02 -0.15227835392E+03  0.19211315207E+03  0.94835933861E+02 0.  0.
         23    2    1    2    0    0 -0.21169935678E+02  0.85619103813E+02 -0.41214997836E+02  0.13852275318E+03  0.98544812072E+02 0.  0.
        -11    1    4    4    0    0 -0.55990046931E+02  0.57287294483E+02 -0.39859868901E+01  0.80203538301E+02  0.00000000000E+00 0.  1.
         11    1    4    4    0    0  0.34820111253E+02  0.28331809330E+02 -0.37229010946E+02  0.58319214874E+02  0.00000000000E+00 0. -1.
        -11    1    3    3    0    0  0.44081592083E+02 -0.63211019084E+01 -0.17644413627E+02  0.47900609830E+02  0.00000000000E+00 0.  1.
         11    1    3    3    0    0 -0.65479857424E+01 -0.51264835326E+02 -0.13463394030E+03  0.14421254224E+03  0.00000000000E+00 0. -1.
         21    1    1    2  503  502 -0.34643061128E+02  0.97103238121E+01 -0.14114117942E+02  0.38647644148E+02  0.00000000000E+00 0.  1.
          1    1    1    2  501    0  0.18279390466E+02 -0.37743490391E+02  0.35421137815E+01  0.42086265607E+02  0.00000000000E+00 0. -1.
<scales pt_clust_5="13000.00000" pt_clust_6="13000.00000" pt_clust_7="13000.00000" pt_clust_8="13000.00000" pt_clust_9="35.97822" pt_clust_10="36.60885"></scales>
<clustering>
<clus scale="   35.978">  1  9  2 -1</clus>
<clus scale="   36.609">  1 10  2 -1</clus>
<clus scale="   94.836">  7  8 -1 -1</clus>
<clus scale="   98.545">  5  6 -1 -1</clus>
<clus scale="  119.953">  2  7  1 -1</clus>
<clus scale="   35.978">  1  5  2 -1</clus>
</clustering>
</event>
<event>
10    2  0.1671105E-006  0.9288283E+02  0.7546771E-02  0.1296412E+00
          1   -1    0    0  503    0 -0.00000000000E+00  0.00000000000E+00  0.33266423581E+03  0.33266423581E+03  0.00000000000E+00 0. -1.
         21   -1    0    0  501  502  0.00000000000E+00 -0.00000000000E+00 -0.70102306554E+02  0.70102306554E+02  0.00000000000E+00 0. -1.
         23    2    1    2    0    0 -0.10519485578E+02 -0.22856020191E+02  0.15870734272E+03  0.18503068283E+03  0.91734811919E+02 0.  0.
         23    2    1    2    0    0  0.20040142861E+02 -0.27848114015E+02  0.96449045762E+02  0.13700121328E+03  0.91048279682E+02 0.  0.
        -11    1    4    4    0    0  0.36872146078E+02 -0.50209621452E+02  0.40102351405E+02  0.74086164909E+02  0.00000000000E+00 0. -1.
         11    1    4    4    0    0 -0.16832003217E+02  0.22361507437E+02  0.56346694357E+02  0.62915048376E+02  0.00000000000E+00 0.  1.
        -11    1    3    3    0    0 -0.46732516745E+02 -0.31659589501E+02  0.79583242217E+02  0.97569207081E+02  0.00000000000E+00 0.  1.
         11    1    3    3    0    0  0.36213031167E+02  0.88035693107E+01  0.79124100508E+02  0.87461475748E+02  0.00000000000E+00 0. -1.
         21    1    1    2  503  502  0.21978546593E+02  0.85968153181E+01  0.14460737958E+02  0.27678054235E+02  0.00000000000E+00 0. -1.
          1    1    1    2  501    0 -0.31499203877E+02  0.42107318888E+02 -0.70551971889E+01  0.53056592014E+02  0.00000000000E+00 0. -1.
<scales pt_clust_5="13000.00000" pt_clust_6="13000.00000" pt_clust_7="13000.00000" pt_clust_8="13000.00000" pt_clust_9="23.60004" pt_clust_10="50.76716"></scales>
<clustering>
<clus scale="   23.600">  2  9  1 -1</clus>
<clus scale="   50.767">  2 10  1 -1</clus>
<clus scale="   91.048">  5  6 -1 -1</clus>
<clus scale="   91.735">  7  8 -1 -1</clus>
<clus scale="   92.205">  2  5  1 -1</clus>
<clus scale="   23.600">  2  5  1 -1</clus>
</clustering>
</event>
<event>
10    2  0.1671105E-006  0.1111743E+03  0.7546771E-02  0.1258867E+00
         21   -1    0    0  501  502  0.00000000000E+00  0.00000000000E+00  0.40511358662E+02  0.40511358662E+02  0.00000000000E+00 0. -1.
          3   -1    0    0  503    0 -0.00000000000E+00 -0.00000000000E+00 -0.10182742577E+04  0.10182742577E+04  0.00000000000E+00 0. -1.
         23    2    1    2    0    0 -0.38372978303E+02 -0.20558609041E+02 -0.31055432031E+03  0.32589117067E+03  0.88690063623E+02 0.  0.
         23    2    1    2    0    0  0.65259699672E+02  0.87186616746E+02 -0.38276206618E+03  0.40744701329E+03  0.87441036086E+02 0.  0.
        -11    1    3    3    0    0  0.19102855626E+02 -0.19289889075E+02 -0.34430582109E+02  0.43846138917E+02  0.00000000000E+00 0.  1.
         11    1    3    3    0    0 -0.57475833929E+02 -0.12687199661E+01 -0.27612373820E+03  0.28204503175E+03  0.00000000000E+00 0. -1.
        -13    1    4    4    0    0  0.84665435593E+02  0.74498433939E+02 -0.27513414306E+03  0.29735004510E+03  0.00000000000E+00 0.  1.
         13    1    4    4    0    0 -0.19405735921E+02  0.12688182808E+02 -0.10762792312E+03  0.11009696819E+03  0.00000000000E+00 0. -1.
         21    1    1    2  503  502 -0.43032864739E+02 -0.94602407634E+02 -0.27138827481E+03  0.29060804993E+03  0.00000000000E+00 0. -1.
          3    1    1    2  501    0  0.16146143370E+02  0.27974399929E+02 -0.13058237700E+02  0.34839382443E+02  0.00000000000E+00 0. -1.
<scales pt_clust_5="13000.00000" pt_clust_6="13000.00000" pt_clust_7="13000.00000" pt_clust_8="13000.00000" pt_clust_9="93.50528" pt_clust_10="32.29961"></scales>
<clustering>
<clus scale="   32.300">  1 10  2 -1</clus>
<clus scale="   87.441">  7  8 -1 -1</clus>
<clus scale="   88.690">  5  6 -1 -1</clus>
<clus scale="   93.505">  1  9  2 -1</clus>
<clus scale="  110.180">  1  7  2 -1</clus>
<clus scale="   32.300">  1  5  2 -1</clus>
</clustering>
</event>
<event>
10    2  0.1671105E-006  0.2814626E+03  0.7546771E-02  0.1120161E+00
         21   -1    0    0  503  502  0.00000000000E+00  0.00000000000E+00  0.27030352766E+03  0.27030352766E+03  0.00000000000E+00 0. -1.
          2   -1    0    0  502    0 -0.00000000000E+00 -0.00000000000E+00 -0.85700335438E+03  0.85700335438E+03  0.00000000000E+00 0. -1.
         23    2    1    2    0    0 -0.11570699894E+03 -0.97118143898E+01 -0.49841781938E+03  0.51976476745E+03  0.90844162523E+02 0.  0.
         23    2    1    2    0    0  0.27180660755E+03 -0.12587956078E+03  0.93978306320E+02  0.32675430905E+03  0.90619869171E+02 0.  0.
        -13    1    4    4    0    0  0.75549169816E+02 -0.27897879337E+02  0.68866336230E+02  0.10596481018E+03  0.00000000000E+00 0.  1.
         13    1    4    4    0    0  0.19625743774E+03 -0.97981681447E+02  0.25111970090E+02  0.22078949886E+03  0.00000000000E+00 0. -1.
        -13    1    3    3    0    0 -0.79275249020E+02 -0.49408335426E+02 -0.30520887525E+03  0.31918365599E+03  0.00000000000E+00 0.  1.
         13    1    3    3    0    0 -0.36431749918E+02  0.39696521036E+02 -0.19320894412E+03  0.20058111146E+03  0.00000000000E+00 0. -1.
         21    1    1    2  503  501 -0.11575141269E+03  0.82284501459E+02 -0.14996963922E+03  0.20654302556E+03  0.00000000000E+00 0. -1.
          2    1    1    2  501    0 -0.40348195930E+02  0.53306873715E+02 -0.32290674438E+02  0.74244779990E+02  0.00000000000E+00 0. -1.
<scales pt_clust_5="13000.00000" pt_clust_6="13000.00000" pt_clust_7="13000.00000" pt_clust_8="13000.00000" pt_clust_9="36.76220" pt_clust_10="271.80905"></scales>
<clustering>
<clus scale="   36.762">  9 10 -1 -1</clus>
<clus scale="   90.620">  5  6 -1 -1</clus>
<clus scale="   90.844">  7  8 -1 -1</clus>
<clus scale="  147.428">  2  7  1 -1</clus>
<clus scale="  271.809">  1  9  2 -1</clus>
<clus scale="  271.809">  1  5  2 -1</clus>
</clustering>
</event>
<event>
10    2  0.1671105E-006  0.1031699E+03  0.7546771E-02  0.1280437E+00
         21   -1    0    0  503  502  0.00000000000E+00  0.00000000000E+00  0.47433748939E+03  0.47433748939E+03  0.00000000000E+00 0. -1.
         -3   -1    0    0    0  501 -0.00000000000E+00 -0.00000000000E+00 -0.49335959596E+02  0.49335959596E+02  0.00000000000E+00 0.  1.
         23    2    1    2    0    0  0.12716801900E+02 -0.40765766899E+01  0.55554273917E+02  0.11706111877E+03  0.10216992047E+03 0.  0.
         23    2    1    2    0    0  0.75245663530E+01  0.28342208432E+02  0.12026118963E+03  0.15285738801E+03  0.89681254796E+02 0.  0.
        -13    1    3    3    0    0  0.28076526339E+02 -0.20924192082E+02 -0.18481984745E+02  0.39594152417E+02  0.00000000000E+00 0.  1.
         13    1    3    3    0    0 -0.15359724439E+02  0.16847615392E+02  0.74036258663E+02  0.77466966353E+02  0.00000000000E+00 0. -1.
        -13    1    4    4    0    0 -0.20593040348E+02 -0.25641615842E+02  0.34200238621E+02  0.47447045172E+02  0.00000000000E+00 0.  1.
         13    1    4    4    0    0  0.28117606701E+02  0.53983824274E+02  0.86060951004E+02  0.10541034284E+03  0.00000000000E+00 0. -1.
         21    1    1    2  503  501  0.14628260124E+01 -0.24476015380E+02  0.16518720859E+03  0.16699709300E+03  0.00000000000E+00 0. -1.
         -3    1    1    2    0  502 -0.21704194265E+02  0.21038363835E+00  0.83998857662E+02  0.86757849204E+02  0.00000000000E+00 0.  1.
<scales pt_clust_5="13000.00000" pt_clust_6="13000.00000" pt_clust_7="13000.00000" pt_clust_8="13000.00000" pt_clust_9="25.60483" pt_clust_10="21.70521"></scales>
<clustering>
<clus scale="   21.705">  1 10  2 -1</clus>
<clus scale="   25.605">  1  9  2 -1</clus>
<clus scale="   89.681">  7  8 -1 -1</clus>
<clus scale="   90.819">  1  7  2 -1</clus>
<clus scale="  102.170">  5  6 -1 -1</clus>
<clus scale="   21.705">  1  5  2 -1</clus>
</clustering>
</event>
<event>
10    2  0.1671105E-006  0.1303161E+03  0.7546771E-02  0.1230236E+00
         21   -1    0    0  503  502  0.00000000000E+00  0.00000000000E+00  0.22182708459E+03  0.22182708459E+03  0.00000000000E+00 0.  1.
          1   -1    0    0  502    0 -0.00000000000E+00 -0.00000000000E+00 -0.21771456396E+03  0.21771456396E+03  0.00000000000E+00 0. -1.
         23    2    1    2    0    0 -0.72669178278E+02  0.74631343081E+02 -0.10070379102E+03  0.17054867778E+03  0.89971946323E+02 0.  0.
         23    2    1    2    0    0 -0.40827185607E+01 -0.98231151615E+02 -0.10422801796E+02  0.12543157136E+03  0.77190780270E+02 0.  0.
        -11    1    3    3    0    0 -0.16920217851E+02  0.12229604399E+02  0.16450595720E+02  0.26579674480E+02  0.00000000000E+00 0.  1.
         11    1    3    3    0    0 -0.55748960427E+02  0.62401738681E+02 -0.11715438674E+03  0.14396900330E+03  0.00000000000E+00 0. -1.
        -13    1    4    4    0    0 -0.34512254550E+02 -0.71600528908E+02  0.10033321172E+02  0.80114911145E+02  0.00000000000E+00 0.  1.
         13    1    4    4    0    0  0.30429535989E+02 -0.26630622707E+02 -0.20456122969E+02  0.45316660217E+02  0.00000000000E+00 0. -1.
         21    1    1    2  503  501  0.30466521568E+02  0.11049924495E+02  0.72133459100E+02  0.79079363234E+02  0.00000000000E+00 0. -1.
          1    1    1    2  501    0  0.46285375271E+02  0.12549884039E+02  0.43105654336E+02  0.64482036174E+02  0.00000000000E+00 0. -1.
<scales pt_clust_5="13000.00000" pt_clust_6="13000.00000" pt_clust_7="13000.00000" pt_clust_8="13000.00000" pt_clust_9="24.41427" pt_clust_10="85.61438"></scales>
<clustering>
<clus scale="   24.414">  9 10 -1 -1</clus>
<clus scale="   77.191">  7  8 -1 -1</clus>
<clus scale="   85.614">  1  9  2 -1</clus>
<clus scale="   89.972">  5  6 -1 -1</clus>
<clus scale="  121.843">  1  7  2 -1</clus>
<clus scale="   85.614">  1  5  2 -1</clus>
</clustering>
</event>
<event>
10    2  0.1671105E-006  0.1592467E+03  0.7546771E-02  0.1209492E+00
         21   -1    0    0  503  502  0.00000000000E+00  0.00000000000E+00  0.48868277358E+03  0.48868277358E+03  0.00000000000E+00 0. -1.
         -4   -1    0    0    0  501 -0.00000000000E+00 -0.00000000000E+00 -0.13666594924E+03  0.13666594924E+03  0.00000000000E+00 0. -1.
         23    2    1    2    0    0 -0.32395380320E+01 -0.56139880876E+02  0.82183070439E+01  0.10770593803E+03  0.91492336760E+02 0.  0.
         23    2    1    2    0    0  0.92643698787E+02 -0.10873174521E+03  0.12012434919E+03  0.20736756640E+03  0.90365928247E+02 0.  0.
        -11    1    4    4    0    0  0.20142428977E+02 -0.79494007851E+02  0.94453545821E+02  0.12508591866E+03  0.00000000000E+00 0. -1.
         11    1    4    4    0    0  0.72501269810E+02 -0.29237737356E+02  0.25670803368E+02  0.82281647743E+02  0.00000000000E+00 0.  1.
        -13    1    3    3    0    0  0.38863283500E+02 -0.26746845385E+01 -0.13800132914E+01  0.38979650825E+02  0.00000000000E+00 0.  1.
         13    1    3    3    0    0 -0.42102821532E+02 -0.53465196337E+02  0.95983203353E+01  0.68726287209E+02  0.00000000000E+00 0. -1.
         21    1    1    2  503  501 -0.50663305188E+02  0.96547264972E+02  0.20076046946E+03  0.22845767872E+03  0.00000000000E+00 0. -1.
         -4    1    1    2    0  502 -0.38740855567E+02  0.68324361110E+02  0.22913698644E+02  0.81817539664E+02  0.00000000000E+00 0. -1.
<scales pt_clust_5="13000.00000" pt_clust_6="13000.00000" pt_clust_7="13000.00000" pt_clust_8="13000.00000" pt_clust_9="131.12403" pt_clust_10="78.54348"></scales>
<clustering>
<clus scale="   78.543">  1 10  2 -1</clus>
<clus scale="   90.366">  5  6 -1 -1</clus>
<clus scale="   91.492">  7  8 -1 -1</clus>
<clus scale="  103.229">  2  7  1 -1</clus>
<clus scale="  131.124">  1  9  2 -1</clus>
<clus scale="   78.543">  1  5  2 -1</clus>
</clustering>
</event>
<event>
10    2  0.1671105E-006  0.3006803E+03  0.7546771E-02  0.1085134E+00
         21   -1    0    0  501  502  0.00000000000E+00  0.00000000000E+00  0.21219637089E+03  0.21219637089E+03  0.00000000000E+00 0. -1.
          1   -1    0    0  503    0 -0.00000000000E+00 -0.00000000000E+00 -0.16367958142E+04  0.16367958142E+04  0.00000000000E+00 0. -1.
         23    2    1    2    0    0 -0.27541246705E+03 -0.72183896614E+02 -0.10205504089E+04  0.10640735054E+04  0.98319611335E+02 0.  0.
         23    2    1    2    0    0  0.25038851637E+03  0.13915509476E+03  0.60156781247E+02  0.30696568358E+03  0.92469146415E+02 0.  0.
        -13    1    4    4    0    0  0.10860998218E+03  0.98217746232E+02  0.62895973257E+02  0.15936987594E+03  0.00000000000E+00 0. -1.
         13    1    4    4    0    0  0.14177853419E+03  0.40937348529E+02 -0.27391920102E+01  0.14759580764E+03  0.00000000000E+00 0.  1.
        -13    1    3    3    0    0 -0.17993979562E+03 -0.26015121365E+02 -0.78454465112E+03  0.80533559849E+03  0.00000000000E+00 0. -1.
         13    1    3    3    0    0 -0.95472671425E+02 -0.46168775249E+02 -0.23600575774E+03  0.25873790693E+03  0.00000000000E+00 0.  1.
         21    1    1    2  503  502 -0.55514429385E+01  0.19742437522E+02 -0.59544188886E+02  0.62976922663E+02  0.00000000000E+00 0.  1.
          1    1    1    2  501    0  0.30575393618E+02 -0.86713635669E+02 -0.40466162682E+03  0.41497607344E+03  0.00000000000E+00 0. -1.
<scales pt_clust_5="13000.00000" pt_clust_6="13000.00000" pt_clust_7="13000.00000" pt_clust_8="13000.00000" pt_clust_9="20.50810" pt_clust_10="86.62374"></scales>
<clustering>
<clus scale="   20.508">  2  9  1 -1</clus>
<clus scale="   86.624">  1 10  2 -1</clus>
<clus scale="   92.469">  5  6 -1 -1</clus>
<clus scale="   98.320">  7  8 -1 -1</clus>
<clus scale="  298.818">  1  5  2 -1</clus>
<clus scale="   86.624">  1  5  2 -1</clus>
</clustering>
</event>
<event>
10    2  0.1671105E-006  0.9390360E+02  0.7546771E-02  0.1293943E+00
          1   -1    0    0  503    0 -0.00000000000E+00  0.00000000000E+00  0.19501977386E+03  0.19501977386E+03  0.00000000000E+00 0. -1.
         21   -1    0    0  501  502  0.00000000000E+00 -0.00000000000E+00 -0.95250134706E+02  0.95250134706E+02  0.00000000000E+00 0. -1.
         23    2    1    2    0    0 -0.13797735451E+02 -0.55876734420E+01  0.41574062507E+02  0.10037985741E+03  0.90144958269E+02 0.  0.
         23    2    1    2    0    0  0.21107584347E+02  0.18391152054E+02 -0.11904214201E+02  0.95616821246E+02  0.90648229981E+02 0.  0.
        -11    1    4    4    0    0 -0.54104255248E+01  0.38961495504E+02 -0.36772046921E+02  0.53846580867E+02  0.00000000000E+00 0. -1.
         11    1    4    4    0    0  0.26518009872E+02 -0.20570343450E+02  0.24867832719E+02  0.41770240380E+02  0.00000000000E+00 0.  1.
        -13    1    3    3    0    0 -0.44232312788E+02  0.63097206746E+01 -0.33757254825E+01  0.44807427868E+02  0.00000000000E+00 0. -1.
         13    1    3    3    0    0  0.30434577337E+02 -0.11897394117E+02  0.44949787990E+02  0.55572429538E+02  0.00000000000E+00 0.  1.
         21    1    1    2  503  502 -0.60655867148E+01 -0.36917475045E+02  0.32337191334E+02  0.49450836689E+02  0.00000000000E+00 0. -1.
          1    1    1    2  501    0 -0.12442621808E+01  0.24113996433E+02  0.37762599512E+02  0.44822393224E+02  0.00000000000E+00 0. -1.
<scales pt_clust_5="13000.00000" pt_clust_6="13000.00000" pt_clust_7="13000.00000" pt_clust_8="13000.00000" pt_clust_9="35.21464" pt_clust_10="24.14609"></scales>
<clustering>
<clus scale="   24.146">  2 10  1 -1</clus>
<clus scale="   35.215">  1  9  2 -1</clus>
<clus scale="   90.145">  7  8 -1 -1</clus>
<clus scale="   90.648">  5  6 -1 -1</clus>
<clus scale="   93.418">  1  7  2 -1</clus>
<clus scale="   24.146">  2  5  1 -1</clus>
</clustering>
</event>
<event>
10    2  0.1671105E-006  0.1081403E+03  0.7546771E-02  0.1272796E+00
         -1   -1    0    0    0  501 -0.00000000000E+00  0.00000000000E+00  0.62570118604E+03  0.62570118604E+03  0.00000000000E+00 0.  1.
         21   -1    0    0  503  502  0.00000000000E+00 -0.00000000000E+00 -0.60838548868E+02  0.60838548868E+02  0.00000000000E+00 0.  1.
         23    2    1    2    0    0  0.14787717452E+02  0.17271504550E+01  0.35340212966E+03  0.36522861359E+03  0.90979202585E+02 0.  0.
         23    2    1    2    0    0  0.18291621262E+02 -0.14277700896E+02  0.20184606277E+03  0.23004328282E+03  0.10788717609E+03 0.  0.
        -11    1    3    3    0    0  0.22057541971E+02  0.43986841268E+02  0.19735796318E+03  0.20339995819E+03  0.00000000000E+00 0.  1.
         11    1    3    3    0    0 -0.72698245191E+01 -0.42259690813E+02  0.15604416648E+03  0.16182865540E+03  0.00000000000E+00 0. -1.
        -13    1    4    4    0    0 -0.94767941887E+01 -0.56839135827E+02  0.85762454246E+02  0.10332325754E+03  0.00000000000E+00 0.  1.
         13    1    4    4    0    0  0.27768415450E+02  0.42561434931E+02  0.11608360852E+03  0.12672002528E+03  0.00000000000E+00 0. -1.
         21    1    1    2  503  501 -0.66378467191E+01  0.46017538909E+02 -0.35535708705E+01  0.46629419493E+02  0.00000000000E+00 0.  1.
         -1    1    1    2    0  502 -0.26441491994E+02 -0.33466988468E+02  0.13168015615E+02  0.44638419005E+02  0.00000000000E+00 0.  1.
<scales pt_clust_5="13000.00000" pt_clust_6="13000.00000" pt_clust_7="13000.00000" pt_clust_8="13000.00000" pt_clust_9="34.73398" pt_clust_10="42.65198"></scales>
<clustering>
<clus scale="   42.652">  2 10  1 -1</clus>
<clus scale="   34.734">  2  9  1 -1</clus>
<clus scale="   90.979">  5  6 -1 -1</clus>
<clus scale="   91.279">  1  5  2 -1</clus>
<clus scale="  107.887">  7  8 -1 -1</clus>
<clus scale="   42.652">  2  5  1 -1</clus>
</clustering>
</event>
<event>
10    2  0.1671105E-006  0.1391573E+03  0.7546771E-02  0.1214539E+00
          1   -1    0    0  503    0 -0.00000000000E+00  0.00000000000E+00  0.60022971818E+03  0.60022971818E+03  0.00000000000E+00 0. -1.
         21   -1    0    0  501  502  0.00000000000E+00 -0.00000000000E+00 -0.17266453358E+03  0.17266453358E+03  0.00000000000E+00 0. -1.
         23    2    1    2    0    0  0.41733038219E+01  0.11284415916E+03  0.51484130695E+03  0.53476239557E+03  0.90321800560E+02 0.  0.
         23    2    1    2    0    0  0.31326478525E+02 -0.36938452351E+02 -0.66127437331E+02  0.12220861800E+03  0.90643868110E+02 0.  0.
        -11    1    3    3    0    0  0.37313309816E+02  0.76784386529E+02  0.41333039558E+03  0.42205466590E+03  0.00000000000E+00 0. -1.
         11    1    3    3    0    0 -0.33140005994E+02  0.36059772629E+02  0.10151091138E+03  0.11270772967E+03  0.00000000000E+00 0.  1.
        -13    1    4    4    0    0 -0.38572585361E+01 -0.31183722856E+02  0.14082252590E+02  0.34432729381E+02  0.00000000000E+00 0.  1.
         13    1    4    4    0    0  0.35183737061E+02 -0.57547294952E+01 -0.80209689921E+02  0.87775888616E+02  0.00000000000E+00 0. -1.
         21    1    1    2  503  502 -0.25923777967E+02  0.37439271772E+01  0.12385237405E+02  0.28973321528E+02  0.00000000000E+00 0. -1.
          1    1    1    2  501    0 -0.95760043795E+01 -0.79649633984E+02 -0.33533922431E+02  0.86949916661E+02  0.00000000000E+00 0. -1.
<scales pt_clust_5="13000.00000" pt_clust_6="13000.00000" pt_clust_7="13000.00000" pt_clust_8="13000.00000" pt_clust_9="26.19273" pt_clust_10="80.56860"></scales>
<clustering>
<clus scale="   26.193">  2  9  1 -1</clus>
<clus scale="   80.569">  2 10  1 -1</clus>
<clus scale="   90.322">  5  6 -1 -1</clus>
<clus scale="   90.644">  7  8 -1 -1</clus>
<clus scale="  138.948">  1  5  2 -1</clus>
<clus scale="   26.193">  2  5  1 -1</clus>
</clustering>
</event>
<event>
10    2  0.1671105E-006  0.1080593E+03  0.7546771E-02  0.1270107E+00
         -1   -1    0    0    0  501 -0.00000000000E+00  0.00000000000E+00  0.66134135547E+03  0.66134135547E+03  0.00000000000E+00 0.  1.
         21   -1    0    0  503  502  0.00000000000E+00 -0.00000000000E+00 -0.34335378482E+02  0.34335378482E+02  0.00000000000E+00 0. -1.
         23    2    1    2    0    0  0.21677915448E+02  0.15829147038E+02  0.29448608464E+03  0.30885325854E+03  0.89150363731E+02 0.  0.
         23    2    1    2    0    0 -0.58396720447E+02  0.58105382127E+01  0.28760065966E+03  0.31064149416E+03  0.10168608137E+03 0.  0.
        -11    1    3    3    0    0  0.77642125030E+01 -0.37096787001E+02  0.10539031209E+03  0.11199809143E+03  0.00000000000E+00 0. -1.
         11    1    3    3    0    0  0.13913702945E+02  0.52925934040E+02  0.18909577255E+03  0.19685516711E+03  0.00000000000E+00 0.  1.
        -13    1    4    4    0    0  0.15059877741E+02 -0.30162600627E+02  0.60476040853E+02  0.69238240239E+02  0.00000000000E+00 0. -1.
         13    1    4    4    0    0 -0.73456598188E+02  0.35973138840E+02  0.22712461881E+03  0.24140325393E+03  0.00000000000E+00 0.  1.
         21    1    1    2  503  501  0.24237722251E+02  0.23789045823E+01  0.73435930000E+00  0.24365254986E+02  0.00000000000E+00 0. -1.
         -1    1    1    2    0  502  0.12481082747E+02 -0.24018589833E+02  0.44184873391E+02  0.51816726264E+02  0.00000000000E+00 0.  1.
<scales pt_clust_5="13000.00000" pt_clust_6="13000.00000" pt_clust_7="13000.00000" pt_clust_8="13000.00000" pt_clust_9="24.35419" pt_clust_10="28.85924"></scales>
<clustering>
<clus scale="   24.354">  2  9  1 -1</clus>
<clus scale="   28.859">  2 10  1 -1</clus>
<clus scale="   89.150">  5  6 -1 -1</clus>
<clus scale="   96.356">  1  5  2 -1</clus>
<clus scale="  101.686">  7  8 -1 -1</clus>
<clus scale="   24.354">  2  5  1 -1</clus>
</clustering>
</event>
<event>
10    2  0.1671105E-006  0.1542810E+03  0.7546771E-02  0.1207511E+00
         21   -1    0    0  501  502  0.00000000000E+00  0.00000000000E+00  0.19238226635E+03  0.19238226635E+03  0.00000000000E+00 0.  1.
         -3   -1    0    0    0  501 -0.00000000000E+00 -0.00000000000E+00 -0.27663093685E+03  0.27663093685E+03  0.00000000000E+00 0.  1.
         23    2    1    2    0    0  0.56075825809E+02 -0.33704422265E+02 -0.74450309558E+02  0.13709637023E+03  0.94721063208E+02 0.  0.
         23    2    1    2    0    0  0.42439167606E+01  0.14645329633E+03 -0.12857683478E+02  0.16975189434E+03  0.84757340530E+02 0.  0.
        -13    1    3    3    0    0 -0.23805939204E+02  0.94501990130E+00 -0.32892937315E+02  0.40614789538E+02  0.00000000000E+00 0.  1.
         13    1    3    3    0    0  0.79881765013E+02 -0.34649442167E+02 -0.41557372243E+02  0.96481580687E+02  0.00000000000E+00 0. -1.
        -13    1    4    4    0    0 -0.29139044077E+01  0.61936619910E+02 -0.47523120499E+02  0.78122229274E+02  0.00000000000E+00 0.  1.
         13    1    4    4    0    0  0.71578211683E+01  0.84516676421E+02  0.34665437022E+02  0.91629665071E+02  0.00000000000E+00 0. -1.
         21    1    1    2  503  502  0.27024675778E+02 -0.16165953236E+02  0.52546619424E+01  0.31926205805E+02  0.00000000000E+00 0. -1.
         -3    1    1    2    0  503 -0.87344418348E+02 -0.96582920829E+02 -0.21953393986E+01  0.13023873282E+03  0.00000000000E+00 0.  1.
<scales pt_clust_5="13000.00000" pt_clust_6="13000.00000" pt_clust_7="13000.00000" pt_clust_8="13000.00000" pt_clust_9="31.49081" pt_clust_10="128.91399"></scales>
<clustering>
<clus scale="   31.491">  1  9  2 -1</clus>
<clus scale="   84.757">  7  8 -1 -1</clus>
<clus scale="   94.721">  5  6 -1 -1</clus>
<clus scale="  118.438">  2  5  1 -1</clus>
<clus scale="  128.914">  1 10  2 -1</clus>
<clus scale="   31.491">  1  5  2 -1</clus>
</clustering>
</event>
<event>
10    2  0.1671105E-006  0.1658004E+03  0.7546771E-02  0.1182796E+00
         -1   -1    0    0    0  501 -0.00000000000E+00  0.00000000000E+00  0.68727774215E+03  0.68727774215E+03  0.00000000000E+00 0.  1.
         21   -1    0    0  501  502  0.00000000000E+00 -0.00000000000E+00 -0.91341879089E+02  0.91341879089E+02  0.00000000000E+00 0. -1.
         23    2    1    2    0    0 -0.72774928173E+02  0.82373439715E+02  0.24085252594E+03  0.27953570504E+03  0.89714532822E+02 0.  0.
         23    2    1    2    0    0  0.14959833958E+03 -0.10019429398E+03  0.33445818718E+03  0.39106672219E+03  0.93017968575E+02 0.  0.
        -13    1    4    4    0    0  0.11553445454E+03 -0.51081254279E+02  0.14452212553E+03  0.19194829901E+03  0.00000000000E+00 0. -1.
         13    1    4    4    0    0  0.34063885037E+02 -0.49113039701E+02  0.18993606165E+03  0.19911842318E+03  0.00000000000E+00 0.  1.
        -13    1    3    3    0    0 -0.74796291819E+02  0.29482360047E+02  0.95440972787E+02  0.12479052091E+03  0.00000000000E+00 0. -1.
         13    1    3    3    0    0  0.20213636451E+01  0.52891079668E+02  0.14541155315E+03  0.15474518412E+03  0.00000000000E+00 0.  1.
         21    1    1    2  503  502 -0.20967862313E+02 -0.11285258328E+02 -0.21632112516E+02  0.32170741325E+02  0.00000000000E+00 0. -1.
         -1    1    1    2    0  503 -0.55855549094E+02  0.29106112593E+02  0.42257262452E+02  0.75846452684E+02  0.00000000000E+00 0.  1.
<scales pt_clust_5="13000.00000" pt_clust_6="13000.00000" pt_clust_7="13000.00000" pt_clust_8="13000.00000" pt_clust_9="23.81194" pt_clust_10="66.66914"></scales>
<clustering>
<clus scale="   23.812">  2  9  1 -1</clus>
<clus scale="   66.669">  2 10  1 -1</clus>
<clus scale="   89.715">  7  8 -1 -1</clus>
<clus scale="   93.018">  5  6 -1 -1</clus>
<clus scale="  163.970">  1  7  2 -1</clus>
<clus scale="   23.812">  2  5  1 -1</clus>
</clustering>
</event>
<event>
10    2  0.1671105E-006  0.1937545E+03  0.7546771E-02  0.1174594E+00
         21   -1    0    0  503  502  0.00000000000E+00  0.00000000000E+00  0.11247229083E+04  0.11247229083E+04  0.00000000000E+00 0.  1.
          2   -1    0    0  502    0 -0.00000000000E+00 -0.00000000000E+00 -0.55704396852E+02  0.55704396852E+02  0.00000000000E+00 0. -1.
         23    2    1    2    0    0  0.10800284239E+02 -0.81534853593E+02  0.29119501192E+03  0.31634005870E+03  0.92260063303E+02 0.  0.
         23    2    1    2    0    0 -0.15267501899E+03 -0.41240941494E+02  0.36568544827E+03  0.40959644803E+03  0.95041709173E+02 0.  0.
        -11    1    4    4    0    0 -0.14679265499E+03 -0.64564048006E+02  0.31351876561E+03  0.35215141097E+03  0.00000000000E+00 0.  1.
         11    1    4    4    0    0 -0.58823639967E+01  0.23323106512E+02  0.52166682654E+02  0.57445037059E+02  0.00000000000E+00 0. -1.
        -11    1    3    3    0    0 -0.27199906964E+02 -0.39276477697E+02  0.22058974166E+03  0.22570403356E+03  0.00000000000E+00 0.  1.
         11    1    3    3    0    0  0.38000191203E+02 -0.42258375897E+02  0.70605270264E+02  0.90636025144E+02  0.00000000000E+00 0. -1.
         21    1    1    2  503  501  0.32637816730E+02  0.30362617623E+02  0.14152208784E+03  0.14837660522E+03  0.00000000000E+00 0. -1.
          2    1    1    2  501    0  0.10923691802E+03  0.92413177465E+02  0.27061596345E+03  0.30611419324E+03  0.00000000000E+00 0. -1.
<scales pt_clust_5="13000.00000" pt_clust_6="13000.00000" pt_clust_7="13000.00000" pt_clust_8="13000.00000" pt_clust_9="21.63035" pt_clust_10="173.23300"></scales>
<clustering>
<clus scale="   21.630">  9 10 -1 -1</clus>
<clus scale="   92.260">  7  8 -1 -1</clus>
<clus scale="   95.042">  5  6 -1 -1</clus>
<clus scale="  123.598">  2  7  1 -1</clus>
<clus scale="  173.233">  1  9  2 -1</clus>
<clus scale="  173.233">  1  5  2 -1</clus>
</clustering>
</event>
<event>
10    2  0.1671105E-006  0.1613045E+03  0.7546771E-02  0.1206915E+00
         21   -1    0    0  501  502  0.00000000000E+00  0.00000000000E+00  0.37414503195E+03  0.37414503195E+03  0.00000000000E+00 0.  1.
         -2   -1    0    0    0  501 -0.00000000000E+00 -0.00000000000E+00 -0.13466141084E+03  0.13466141084E+03  0.00000000000E+00 0.  1.
         23    2    1    2    0    0  0.45054823663E+02 -0.17107678800E+01  0.49140354471E+02  0.11589852574E+03  0.94788343007E+02 0.  0.
         23    2    1    2    0    0 -0.11653512361E+03 -0.10293533817E+03  0.34680896955E+02  0.18322374564E+03  0.90509985481E+02 0.  0.
        -11    1    4    4    0    0 -0.81962985011E+02 -0.16227901931E+02  0.33080647491E+02  0.89864369755E+02  0.00000000000E+00 0. -1.
         11    1    4    4    0    0 -0.34572138601E+02 -0.86707436238E+02  0.16002494640E+01  0.93359375881E+02  0.00000000000E+00 0.  1.
        -13    1    3    3    0    0  0.29196543889E+02 -0.36651013040E+02 -0.75301458550E+01  0.47459857022E+02  0.00000000000E+00 0.  1.
         13    1    3    3    0    0  0.15858279774E+02  0.34940245160E+02  0.56670500326E+02  0.68438668722E+02  0.00000000000E+00 0. -1.
         21    1    1    2  503  502  0.52461202655E+02  0.58744771743E+02  0.51009015769E+02  0.93835204912E+02  0.00000000000E+00 0.  1.
         -2    1    1    2    0  503  0.19019097293E+02  0.45901334306E+02  0.10465335391E+03  0.11584896649E+03  0.00000000000E+00 0.  1.
<scales pt_clust_5="13000.00000" pt_clust_6="13000.00000" pt_clust_7="13000.00000" pt_clust_8="13000.00000" pt_clust_9="48.15886" pt_clust_10="146.64084"></scales>
<clustering>
<clus scale="   48.159">  9 10 -1 -1</clus>
<clus scale="   90.510">  5  6 -1 -1</clus>
<clus scale="   94.788">  7  8 -1 -1</clus>
<clus scale="  104.965">  2  7  1 -1</clus>
<clus scale="  146.641">  1  9  2 -1</clus>
<clus scale="  146.641">  1  5  2 -1</clus>
</clustering>
</event>
<event>
10    2  0.1671105E-006  0.2741455E+03  0.7546771E-02  0.1115092E+00
          1   -1    0    0  503    0 -0.00000000000E+00  0.00000000000E+00  0.81452539301E+03  0.81452539301E+03  0.00000000000E+00 0. -1.
         21   -1    0    0  501  502  0.00000000000E+00 -0.00000000000E+00 -0.46757096198E+03  0.46757096198E+03  0.00000000000E+00 0.  1.
         23    2    1    2    0    0 -0.15249776898E+03  0.13423746042E+02 -0.27037595919E+03  0.32407335221E+03  0.92111952556E+02 0.  0.
         23    2    1    2    0    0 -0.10363958180E+03  0.12181763401E+03  0.61248701179E+03  0.63962256202E+03  0.91629598740E+02 0.  0.
        -11    1    3    3    0    0 -0.49319040126E+02  0.45217964048E+02 -0.13707305707E+03  0.15253214404E+03  0.00000000000E+00 0.  1.
         11    1    3    3    0    0 -0.10317872886E+03 -0.31794218006E+02 -0.13330290212E+03  0.17154120817E+03  0.00000000000E+00 0. -1.
        -11    1    4    4    0    0 -0.36878877818E+02  0.11043559623E+03  0.37372534845E+03  0.39144183299E+03  0.00000000000E+00 0. -1.
         11    1    4    4    0    0 -0.66760703984E+02  0.11382037780E+02  0.23876166334E+03  0.24818072902E+03  0.00000000000E+00 0.  1.
         21    1    1    2  503  502 -0.52746022902E+01 -0.19382527836E+02 -0.23671681030E+02  0.31045970711E+02  0.00000000000E+00 0.  1.
          1    1    1    2  501    0  0.26141195307E+03 -0.11585885221E+03  0.28515059455E+02  0.28735447006E+03  0.00000000000E+00 0. -1.
<scales pt_clust_5="13000.00000" pt_clust_6="13000.00000" pt_clust_7="13000.00000" pt_clust_8="13000.00000" pt_clust_9="20.08740" pt_clust_10="258.37909"></scales>
<clustering>
<clus scale="   20.087">  2  9  1 -1</clus>
<clus scale="   91.630">  7  8 -1 -1</clus>
<clus scale="   92.112">  5  6 -1 -1</clus>
<clus scale="  181.216">  1  5  2 -1</clus>
<clus scale="  258.379">  2 10  1 -1</clus>
<clus scale="   20.087">  2  5  1 -1</clus>
</clustering>
</event>
<event>
10    2  0.1671105E-006  0.1755364E+03  0.7546771E-02  0.1195026E+00
         21   -1    0    0  501  502  0.00000000000E+00  0.00000000000E+00  0.53821448841E+03  0.53821448841E+03  0.00000000000E+00 0.  1.
         -1   -1    0    0    0  501 -0.00000000000E+00 -0.00000000000E+00 -0.20067693303E+03  0.20067693303E+03  0.00000000000E+00 0.  1.
         23    2    1    2    0    0  0.38336384491E+02  0.35511253823E+02 -0.10302800151E+03  0.14738965525E+03  0.91532583571E+02 0.  0.
         23    2    1    2    0    0 -0.16089412331E+03 -0.92628089637E+02  0.12170278285E+03  0.24303244506E+03  0.98925831270E+02 0.  0.
        -11    1    3    3    0    0 -0.23974484474E+02 -0.18924267830E+01 -0.37282493117E+01  0.24336331438E+02  0.00000000000E+00 0. -1.
         11    1    3    3    0    0  0.62310868965E+02  0.37403680606E+02 -0.99299752203E+02  0.12305332381E+03  0.00000000000E+00 0.  1.
        -13    1    4    4    0    0 -0.46989155850E+02 -0.17629230124E+02  0.89953451803E+02  0.10300676683E+03  0.00000000000E+00 0. -1.
         13    1    4    4    0    0 -0.11390496746E+03 -0.74998859514E+02  0.31749331043E+02  0.14002567822E+03  0.00000000000E+00 0.  1.
         21    1    1    2  503  502  0.61521193695E+02  0.76823803044E+01  0.13792927416E+03  0.15122288488E+03  0.00000000000E+00 0.  1.
         -1    1    1    2    0  503  0.61036545121E+02  0.49434455510E+02  0.18093349989E+03  0.19724643625E+03  0.00000000000E+00 0.  1.
<scales pt_clust_5="13000.00000" pt_clust_6="13000.00000" pt_clust_7="13000.00000" pt_clust_8="13000.00000" pt_clust_9="34.11785" pt_clust_10="150.00464"></scales>
<clustering>
<clus scale="   34.118">  9 10 -1 -1</clus>
<clus scale="   91.533">  5  6 -1 -1</clus>
<clus scale="   98.926">  7  8 -1 -1</clus>
<clus scale="  105.399">  2  5  1 -1</clus>
<clus scale="  150.005">  1  9  2 -1</clus>
<clus scale="  150.005">  1  5  2 -1</clus>
</clustering>
</event>
<event>
10    2  0.1671105E-006  0.1805241E+03  0.7546771E-02  0.1168206E+00
          1   -1    0    0  503    0 -0.00000000000E+00  0.00000000000E+00  0.20813017519E+03  0.20813017519E+03  0.00000000000E+00 0. -1.
         21   -1    0    0  501  502  0.00000000000E+00 -0.00000000000E+00 -0.25793611901E+03  0.25793611901E+03  0.00000000000E+00 0. -1.
         23    2    1    2    0    0 -0.12416409175E+03  0.94651140818E+01  0.51880970586E+02  0.16294056247E+03  0.91387535931E+02 0.  0.
         23    2    1    2    0    0  0.16332725011E+03 -0.21552202536E+02 -0.84317793004E+02  0.20960370274E+03  0.98406981068E+02 0.  0.
        -11    1    3    3    0    0 -0.13103337635E+02  0.25579710209E+02  0.41166387905E+02  0.50206478912E+02  0.00000000000E+00 0.  1.
         11    1    3    3    0    0 -0.11106075412E+03 -0.16114596128E+02  0.10714582681E+02  0.11273408356E+03  0.00000000000E+00 0. -1.
        -11    1    4    4    0    0  0.11976869810E+03 -0.54380147345E+02 -0.82017112773E+02  0.15501144557E+03  0.00000000000E+00 0.  1.
         11    1    4    4    0    0  0.43558552014E+02  0.32827944809E+02 -0.23006802314E+01  0.54592257175E+02  0.00000000000E+00 0. -1.
         21    1    1    2  503  502 -0.43767428636E+02  0.35678357194E+02  0.97296829216E+01  0.57299212134E+02  0.00000000000E+00 0. -1.
          1    1    1    2  501    0  0.46042702760E+01 -0.23591268740E+02 -0.27098804322E+02  0.36222816859E+02  0.00000000000E+00 0. -1.
<scales pt_clust_5="13000.00000" pt_clust_6="13000.00000" pt_clust_7="13000.00000" pt_clust_8="13000.00000" pt_clust_9="54.54909" pt_clust_10="24.03637"></scales>
<clustering>
<clus scale="   24.036">  2 10  1 -1</clus>
<clus scale="   54.549">  1  9  2 -1</clus>
<clus scale="   91.388">  5  6 -1 -1</clus>
<clus scale="   98.407">  7  8 -1 -1</clus>
<clus scale="  176.796">  1  5  2 -1</clus>
<clus scale="   24.036">  2  5  1 -1</clus>
</clustering>
</event>
<event>
10    2  0.1671105E-006  0.9673797E+02  0.7546771E-02  0.1290768E+00
          2   -1    0    0  503    0 -0.00000000000E+00  0.00000000000E+00  0.52468249242E+03  0.52468249242E+03  0.00000000000E+00 0. -1.
         21   -1    0    0  501  502  0.00000000000E+00 -0.00000000000E+00 -0.39101277195E+02  0.39101277195E+02  0.00000000000E+00 0. -1.
         23    2    1    2    0    0  0.20081729216E+02 -0.62389479254E+01  0.20718842603E+03  0.22763763243E+03  0.91921964160E+02 0.  0.
         23    2    1    2    0    0 -0.23944210414E+02  0.57283072475E+02  0.91135892367E+02  0.13953909937E+03  0.85502829025E+02 0.  0.
        -11    1    4    4    0    0 -0.32963495238E+02  0.75297322147E+02  0.85538102015E+02  0.11862986823E+03  0.00000000000E+00 0. -1.
         11    1    4    4    0    0  0.90192848239E+01 -0.18014249672E+02  0.55977903524E+01  0.20909231138E+02  0.00000000000E+00 0.  1.
        -13    1    3    3    0    0 -0.16109760778E+02 -0.40427188791E+02  0.11320853264E+03  0.12128501082E+03  0.00000000000E+00 0.  1.
         13    1    3    3    0    0  0.36191489994E+02  0.34188240865E+02  0.93979893391E+02  0.10635262161E+03  0.00000000000E+00 0. -1.
         21    1    1    2  503  502  0.44208077006E+01 -0.25271056068E+02  0.43054224538E+02  0.50118220899E+02  0.00000000000E+00 0. -1.
          2    1    1    2  501    0 -0.55832650222E+00 -0.25773068482E+02  0.14420267229E+03  0.14648881692E+03  0.00000000000E+00 0. -1.
<scales pt_clust_5="13000.00000" pt_clust_6="13000.00000" pt_clust_7="13000.00000" pt_clust_8="13000.00000" pt_clust_9="25.65482" pt_clust_10="26.58846"></scales>
<clustering>
<clus scale="   25.655">  2  9  1 -1</clus>
<clus scale="   26.588">  2 10  1 -1</clus>
<clus scale="   85.503">  5  6 -1 -1</clus>
<clus scale="   90.660">  2  5  1 -1</clus>
<clus scale="   91.922">  7  8 -1 -1</clus>
<clus scale="   25.655">  2  5  1 -1</clus>
</clustering>
</event>
<event>
10    2  0.1671105E-006  0.1356576E+03  0.7546771E-02  0.1237706E+00
         21   -1    0    0  501  502  0.00000000000E+00  0.00000000000E+00  0.47244875486E+03  0.47244875486E+03  0.00000000000E+00 0. -1.
          2   -1    0    0  503    0 -0.00000000000E+00 -0.00000000000E+00 -0.11570955865E+03  0.11570955865E+03  0.00000000000E+00 0. -1.
         23    2    1    2    0    0  0.44140235735E+01  0.16209208456E+02  0.41040581653E+02  0.10264150948E+03  0.92567424529E+02 0.  0.
         23    2    1    2    0    0 -0.74392272182E+02 -0.40070437560E+02  0.41228019837E+02  0.13083815979E+03  0.90989143915E+02 0.  0.
        -11    1    3    3    0    0 -0.23689625834E+02 -0.20463314296E+01 -0.21262025798E+02  0.31897642318E+02  0.00000000000E+00 0. -1.
         11    1    3    3    0    0  0.28103649407E+02  0.18255539885E+02  0.62302607451E+02  0.70743867166E+02  0.00000000000E+00 0.  1.
        -13    1    4    4    0    0  0.20156280082E+02 -0.74245989296E+01  0.18298820871E+02  0.28217851464E+02  0.00000000000E+00 0.  1.
         13    1    4    4    0    0 -0.94548552264E+02 -0.32645838631E+02  0.22929198966E+02  0.10262030832E+03  0.00000000000E+00 0. -1.
         21    1    1    2  503  502  0.10858709426E+03  0.93220031531E+02  0.19924932885E+03  0.24531902977E+03  0.00000000000E+00 0. -1.
          2    1    1    2  501    0 -0.38608845652E+02 -0.69358802427E+02  0.75221265872E+02  0.10935961447E+03  0.00000000000E+00 0. -1.
<scales pt_clust_5="13000.00000" pt_clust_6="13000.00000" pt_clust_7="13000.00000" pt_clust_8="13000.00000" pt_clust_9="100.61786" pt_clust_10="79.38064"></scales>
<clustering>
<clus scale="   79.381">  1 10  2 -1</clus>
<clus scale="   90.989">  7  8 -1 -1</clus>
<clus scale="   92.567">  5  6 -1 -1</clus>
<clus scale="   92.664">  2  5  1 -1</clus>
<clus scale="  100.618">  1  9  2 -1</clus>
<clus scale="   79.381">  1  5  2 -1</clus>
</clustering>
</event>
<event>
10    2  0.1671105E-006  0.1528760E+03  0.7546771E-02  0.1197662E+00
         -1   -1    0    0    0  501 -0.00000000000E+00  0.00000000000E+00  0.10369578975E+03  0.10369578975E+03  0.00000000000E+00 0.  1.
         21   -1    0    0  501  502  0.00000000000E+00 -0.00000000000E+00 -0.73411556296E+03  0.73411556296E+03  0.00000000000E+00 0.  1.
         23    2    1    2    0    0 -0.33031285376E+02 -0.10967543710E+03 -0.15189520752E+02  0.14957286892E+03  0.94981862801E+02 0.  0.
         23    2    1    2    0    0  0.10538218559E+03  0.10327543756E+03 -0.20340716811E+03  0.26736663020E+03  0.91319318119E+02 0.  0.
        -11    1    4    4    0    0  0.12130152938E+03  0.79972598971E+02 -0.16923016468E+03  0.22304377654E+03  0.00000000000E+00 0.  1.
         11    1    4    4    0    0 -0.15919343788E+02  0.23302838585E+02 -0.34177003429E+02  0.44322853655E+02  0.00000000000E+00 0. -1.
        -13    1    3    3    0    0 -0.10836567121E+02 -0.12208133323E+03 -0.18434805191E+02  0.12394000626E+03  0.00000000000E+00 0.  1.
         13    1    3    3    0    0 -0.22194718255E+02  0.12405896130E+02  0.32452844387E+01  0.25632862663E+02  0.00000000000E+00 0. -1.
         21    1    1    2  503  502 -0.24062095244E+02 -0.16929463452E+02 -0.20975408455E+03  0.21180738218E+03  0.00000000000E+00 0.  1.
         -1    1    1    2    0  503 -0.48288804969E+02  0.23329462995E+02 -0.20206899979E+03  0.20906447141E+03  0.00000000000E+00 0.  1.
<scales pt_clust_5="13000.00000" pt_clust_6="13000.00000" pt_clust_7="13000.00000" pt_clust_8="13000.00000" pt_clust_9="29.42093" pt_clust_10="60.10129"></scales>
<clustering>
<clus scale="   29.421">  2  9  1 -1</clus>
<clus scale="   60.101">  2 10  1 -1</clus>
<clus scale="   91.319">  5  6 -1 -1</clus>
<clus scale="   94.982">  7  8 -1 -1</clus>
<clus scale="  150.628">  2  5  1 -1</clus>
<clus scale="   29.421">  2  5  1 -1</clus>
</clustering>
</event>
<event>
10    2  0.1671105E-006  0.1715310E+03  0.7546771E-02  0.1199308E+00
         21   -1    0    0  501  502  0.00000000000E+00  0.00000000000E+00  0.39321657225E+03  0.39321657225E+03  0.00000000000E+00 0. -1.
         -1   -1    0    0    0  501 -0.00000000000E+00 -0.00000000000E+00 -0.18181129058E+03  0.18181129058E+03  0.00000000000E+00 0.  1.
         23    2    1    2    0    0  0.37077800314E+02  0.32330439064E+02 -0.27029483304E+02  0.10637049966E+03  0.90355241485E+02 0.  0.
         23    2    1    2    0    0  0.13153468446E+03 -0.44783702232E+02  0.23446402208E+03  0.28755189836E+03  0.91682950427E+02 0.  0.
        -11    1    4    4    0    0  0.83353784561E+02  0.33324436591E+01  0.18636899191E+03  0.20418707042E+03  0.00000000000E+00 0.  1.
         11    1    4    4    0    0  0.48180899898E+02 -0.48116145891E+02  0.48095030173E+02  0.83364827942E+02  0.00000000000E+00 0. -1.
        -13    1    3    3    0    0 -0.90536539558E+01  0.51881640818E+02 -0.11394777196E+02  0.53884267196E+02  0.00000000000E+00 0.  1.
         13    1    3    3    0    0  0.46131454270E+02 -0.19551201754E+02 -0.15634706107E+02  0.52486232463E+02  0.00000000000E+00 0. -1.
         21    1    1    2  503  502 -0.96406651161E+02 -0.17055873983E+02 -0.19126742586E+02  0.99754586397E+02  0.00000000000E+00 0.  1.
         -1    1    1    2    0  503 -0.72205833612E+02  0.29509137151E+02  0.23097485470E+02  0.81350878410E+02  0.00000000000E+00 0.  1.
<scales pt_clust_5="13000.00000" pt_clust_6="13000.00000" pt_clust_7="13000.00000" pt_clust_8="13000.00000" pt_clust_9="57.83437" pt_clust_10="158.79327"></scales>
<clustering>
<clus scale="   57.834">  9 10 -1 -1</clus>
<clus scale="   90.355">  7  8 -1 -1</clus>
<clus scale="   91.683">  5  6 -1 -1</clus>
<clus scale="  102.879">  2  7  1 -1</clus>
<clus scale="  158.793">  1  9  2 -1</clus>
<clus scale="  158.793">  1  5  2 -1</clus>
</clustering>
</event>
<event>
10    2  0.1671105E-006  0.1998944E+03  0.7546771E-02  0.1149929E+00
         21   -1    0    0  503  502  0.00000000000E+00  0.00000000000E+00  0.42231647623E+03  0.42231647623E+03  0.00000000000E+00 0.  1.
         -1   -1    0    0    0  501 -0.00000000000E+00 -0.00000000000E+00 -0.64866530469E+03  0.64866530469E+03  0.00000000000E+00 0.  1.
         23    2    1    2    0    0  0.16700136910E+03 -0.78578137884E+02 -0.40834961623E+03  0.45742937945E+03  0.91805485009E+02 0.  0.
         23    2    1    2    0    0 -0.56231925041E+02  0.19896413544E+03 -0.29654132124E+02  0.22774102897E+03  0.90762614210E+02 0.  0.
        -13    1    4    4    0    0 -0.34738453067E+02  0.20011024017E+03 -0.33584579487E+02  0.20586109958E+03  0.00000000000E+00 0.  1.
         13    1    4    4    0    0 -0.21493471974E+02 -0.11461047260E+01  0.39304473630E+01  0.21879929388E+02  0.00000000000E+00 0. -1.
        -13    1    3    3    0    0  0.55670274670E+02  0.17381599680E+02 -0.13529979386E+03  0.14733408875E+03  0.00000000000E+00 0. -1.
         13    1    3    3    0    0  0.11133109444E+03 -0.95959737564E+02 -0.27304982237E+03  0.31009529070E+03  0.00000000000E+00 0.  1.
         21    1    1    2  503  501 -0.34278193591E+02 -0.20497028643E+03  0.12425243656E+03  0.24212905828E+03  0.00000000000E+00 0. -1.
         -1    1    1    2    0  502 -0.76491250473E+02  0.84584288868E+02  0.87402483330E+02  0.14368231420E+03  0.00000000000E+00 0.  1.
<scales pt_clust_5="13000.00000" pt_clust_6="13000.00000" pt_clust_7="13000.00000" pt_clust_8="13000.00000" pt_clust_9="173.92785" pt_clust_10="114.04128"></scales>
<clustering>
<clus scale="   90.763">  5  6 -1 -1</clus>
<clus scale="   91.805">  7  8 -1 -1</clus>
<clus scale="  114.041">  1 10  2 -1</clus>
<clus scale="  173.928">  1  9  2 -1</clus>
<clus scale="  199.418">  1  5  2 -1</clus>
<clus scale="  114.041">  1  5  2 -1</clus>
</clustering>
</event>
<event>
10    2  0.1671105E-006  0.9500617E+02  0.7546771E-02  0.1304111E+00
          3   -1    0    0  502    0 -0.00000000000E+00  0.00000000000E+00  0.40633064855E+02  0.40633064855E+02  0.00000000000E+00 0. -1.
         21   -1    0    0  503  502  0.00000000000E+00 -0.00000000000E+00 -0.50229954227E+03  0.50229954227E+03  0.00000000000E+00 0.  1.
         23    2    1    2    0    0  0.11029528411E+02  0.21916095630E+01 -0.47094909293E+02  0.10528487567E+03  0.93490753095E+02 0.  0.
         23    2    1    2    0    0 -0.70128660220E+01 -0.43890298865E+02 -0.19122434563E+03  0.20939458019E+03  0.72827201138E+02 0.  0.
        -11    1    4    4    0    0  0.28537632265E+02 -0.24240465449E+02 -0.13457784679E+03  0.13968963264E+03  0.00000000000E+00 0.  1.
         11    1    4    4    0    0 -0.35550498287E+02 -0.19649833415E+02 -0.56646498842E+02  0.69704947549E+02  0.00000000000E+00 0. -1.
        -13    1    3    3    0    0  0.20461420874E+02 -0.34965742093E+02 -0.52773793212E+02  0.66530790723E+02  0.00000000000E+00 0.  1.
         13    1    3    3    0    0 -0.94318924629E+01  0.37157351656E+02  0.56788839192E+01  0.38754084947E+02  0.00000000000E+00 0. -1.
         21    1    1    2  503  501 -0.11607062253E+02  0.21709665616E+02 -0.14331439840E+03  0.14541337718E+03  0.00000000000E+00 0.  1.
          3    1    1    2  501    0  0.75903998646E+01  0.19989023686E+02 -0.80032824095E+02  0.82839774086E+02  0.00000000000E+00 0. -1.
<scales pt_clust_5="13000.00000" pt_clust_6="13000.00000" pt_clust_7="13000.00000" pt_clust_8="13000.00000" pt_clust_9="20.00142" pt_clust_10="47.06930"></scales>
<clustering>
<clus scale="   20.001">  9 10 -1 -1</clus>
<clus scale="   47.069">  2  9  1 -1</clus>
<clus scale="   72.827">  5  6 -1 -1</clus>
<clus scale="   74.763">  2  5  1 -1</clus>
<clus scale="   93.491">  7  8 -1 -1</clus>
<clus scale="   47.069">  2  5  1 -1</clus>
</clustering>
</event>
<event>
10    2  0.1671105E-006  0.2150042E+03  0.7546771E-02  0.1137664E+00
         21   -1    0    0  503  502  0.00000000000E+00  0.00000000000E+00  0.14553365348E+03  0.14553365348E+03  0.00000000000E+00 0.  1.
          1   -1    0    0  502    0 -0.00000000000E+00 -0.00000000000E+00 -0.61727975114E+03  0.61727975114E+03  0.00000000000E+00 0. -1.
         23    2    1    2    0    0 -0.48065345253E+02  0.15029101905E+03 -0.16695172949E+03  0.24851342322E+03  0.94807034136E+02 0.  0.
         23    2    1    2    0    0  0.62701974540E+02 -0.21993945996E+03 -0.32912052010E+03  0.41184063697E+03  0.94802372593E+02 0.  0.
        -11    1    4    4    0    0  0.32518297779E+01 -0.13294768506E+03 -0.12691082798E+03  0.18382605805E+03  0.00000000000E+00 0.  1.
         11    1    4    4    0    0  0.59450144763E+02 -0.86991774901E+02 -0.20220969212E+03  0.22801457892E+03  0.00000000000E+00 0. -1.
        -13    1    3    3    0    0 -0.70771719539E+01  0.10586219336E+03 -0.15348013788E+03  0.18658253688E+03  0.00000000000E+00 0. -1.
         13    1    3    3    0    0 -0.40988173299E+02  0.44428825686E+02 -0.13471591608E+02  0.61930886338E+02  0.00000000000E+00 0.  1.
         21    1    1    2  503  501 -0.10281214551E+02  0.27705585944E+02  0.46286184554E+02  0.54915514617E+02  0.00000000000E+00 0.  1.
          1    1    1    2  501    0 -0.43554147359E+01  0.41942854967E+02 -0.21960032623E+02  0.47543829811E+02  0.00000000000E+00 0. -1.
<scales pt_clust_5="13000.00000" pt_clust_6="13000.00000" pt_clust_7="13000.00000" pt_clust_8="13000.00000" pt_clust_9="29.55170" pt_clust_10="46.03545"></scales>
<clustering>
<clus scale="   29.552">  1  9  2 -1</clus>
<clus scale="   46.035">  1 10  2 -1</clus>
<clus scale="   94.802">  5  6 -1 -1</clus>
<clus scale="   94.807">  7  8 -1 -1</clus>
<clus scale="  215.002">  1  5  2 -1</clus>
<clus scale="   29.552">  1  5  2 -1</clus>
</clustering>
</event>
<event>
10    2  0.1671105E-006  0.3074603E+03  0.7546771E-02  0.1122851E+00
         21   -1    0    0  503  502  0.00000000000E+00  0.00000000000E+00  0.10604514043E+04  0.10604514043E+04  0.00000000000E+00 0. -1.
          2   -1    0    0  502    0 -0.00000000000E+00 -0.00000000000E+00 -0.19030511148E+03  0.19030511148E+03  0.00000000000E+00 0. -1.
         23    2    1    2    0    0 -0.53300221344E+02  0.21293988596E+02  0.12270066149E+02  0.10594676207E+03  0.88203255744E+02 0.  0.
         23    2    1    2    0    0 -0.20086240610E+03  0.14984330495E+03  0.64657631318E+02  0.27443033940E+03  0.91283512602E+02 0.  0.
        -13    1    3    3    0    0 -0.73663781201E+02 -0.26125420766E+00 -0.48743212303E+00  0.73665857116E+02  0.00000000000E+00 0. -1.
         13    1    3    3    0    0  0.20363559857E+02  0.21555242803E+02  0.12757498272E+02  0.32280904952E+02  0.00000000000E+00 0.  1.
        -13    1    4    4    0    0 -0.13700550744E+03  0.88778709012E+02 -0.27820898374E+01  0.16327862159E+03  0.00000000000E+00 0.  1.
         13    1    4    4    0    0 -0.63856898654E+02  0.61064595935E+02  0.67439721156E+02  0.11115171781E+03  0.00000000000E+00 0. -1.
         21    1    1    2  503  501 -0.28594855133E+02 -0.32012538761E+02  0.10550045230E+03  0.11389826080E+03  0.00000000000E+00 0.  1.
          2    1    1    2  501    0  0.28275748257E+03 -0.13912475478E+03  0.68771814306E+03  0.75648115352E+03  0.00000000000E+00 0. -1.
<scales pt_clust_5="13000.00000" pt_clust_6="13000.00000" pt_clust_7="13000.00000" pt_clust_8="13000.00000" pt_clust_9="42.92398" pt_clust_10="293.59693"></scales>
<clustering>
<clus scale="   42.924">  1  9  2 -1</clus>
<clus scale="   88.203">  5  6 -1 -1</clus>
<clus scale="   91.284">  7  8 -1 -1</clus>
<clus scale="  105.764">  2  5  1 -1</clus>
<clus scale="  293.597">  1 10  2 -1</clus>
<clus scale="   42.924">  1  5  2 -1</clus>
</clustering>
</event>
<event>
10    2  0.1671105E-006  0.9187821E+02  0.7546771E-02  0.1298520E+00
         21   -1    0    0  501  502  0.00000000000E+00  0.00000000000E+00  0.23647833201E+03  0.23647833201E+03  0.00000000000E+00 0. -1.
          1   -1    0    0  503    0 -0.00000000000E+00 -0.00000000000E+00 -0.48383921456E+03  0.48383921456E+03  0.00000000000E+00 0. -1.
         23    2    1    2    0    0  0.43742657826E-01  0.15906315127E+02 -0.28292694141E+03  0.29778609998E+03  0.91519912557E+02 0.  0.
         23    2    1    2    0    0 -0.24904406169E+02  0.26913966566E+02 -0.12259436283E+03  0.15716831715E+03  0.91257389151E+02 0.  0.
        -11    1    3    3    0    0  0.44196167707E+02  0.26638000517E+01 -0.17320716857E+03  0.17877673314E+03  0.00000000000E+00 0. -1.
         11    1    3    3    0    0 -0.44152425049E+02  0.13242515075E+02 -0.10971977284E+03  0.11900936684E+03  0.00000000000E+00 0.  1.
        -13    1    4    4    0    0 -0.49795166984E+02 -0.25180176440E+01 -0.33430014644E+02  0.60028867613E+02  0.00000000000E+00 0.  1.
         13    1    4    4    0    0  0.24890760816E+02  0.29431984210E+02 -0.89164348182E+02  0.97139449532E+02  0.00000000000E+00 0. -1.
         21    1    1    2  503  502 -0.57041001139E+02  0.55090368058E+02  0.30882327332E+02  0.85101954179E+02  0.00000000000E+00 0.  1.
          1    1    1    2  501    0  0.81901664649E+02 -0.97910649751E+02  0.12727809435E+03  0.18026117527E+03  0.00000000000E+00 0. -1.
<scales pt_clust_5="13000.00000" pt_clust_6="13000.00000" pt_clust_7="13000.00000" pt_clust_8="13000.00000" pt_clust_9="79.30085" pt_clust_10="60.15238"></scales>
<clustering>
<clus scale="   79.301">  1  9  2 -1</clus>
<clus scale="   60.152">  1 10  2 -1</clus>
<clus scale="   91.257">  7  8 -1 -1</clus>
<clus scale="   91.520">  5  6 -1 -1</clus>
<clus scale="   91.617">  1  7  2 -1</clus>
<clus scale="   79.301">  1  5  2 -1</clus>
</clustering>
</event>
<event>
10    2  0.1671105E-006  0.9615384E+02  0.7546771E-02  0.1290557E+00
         21   -1    0    0  501  502  0.00000000000E+00  0.00000000000E+00  0.16366095772E+03  0.16366095772E+03  0.00000000000E+00 0. -1.
          1   -1    0    0  503    0 -0.00000000000E+00 -0.00000000000E+00 -0.54039160714E+03  0.54039160714E+03  0.00000000000E+00 0. -1.
         23    2    1    2    0    0  0.75715243360E+01  0.16349260112E+02 -0.46647746998E+03  0.47563426895E+03  0.91115868609E+02 0.  0.
         23    2    1    2    0    0  0.31598852511E+02 -0.18892606349E+02 -0.21618605179E+02  0.10382366805E+03  0.94639166859E+02 0.  0.
        -11    1    3    3    0    0  0.48002406699E+02 -0.11794689337E+01 -0.27411554949E+03  0.27828933984E+03  0.00000000000E+00 0.  1.
         11    1    3    3    0    0 -0.40430882363E+02  0.17528729046E+02 -0.19236192048E+03  0.19734492910E+03  0.00000000000E+00 0. -1.
        -11    1    4    4    0    0 -0.26226047979E+02 -0.25874803696E+01 -0.33456089854E+02  0.42588855298E+02  0.00000000000E+00 0. -1.
         11    1    4    4    0    0  0.57824900490E+02 -0.16305125979E+02  0.11837484676E+02  0.61234812757E+02  0.00000000000E+00 0.  1.
         21    1    1    2  503  502 -0.23293130547E+02  0.16340843862E+02  0.90891030570E+02  0.95240603457E+02  0.00000000000E+00 0. -1.
          1    1    1    2  501    0 -0.15877246300E+02 -0.13797497626E+02  0.20474395171E+02  0.29354024399E+02  0.00000000000E+00 0. -1.
<scales pt_clust_5="13000.00000" pt_clust_6="13000.00000" pt_clust_7="13000.00000" pt_clust_8="13000.00000" pt_clust_9="34.67472" pt_clust_10="21.03468"></scales>
<clustering>
<clus scale="   21.035">  1 10  2 -1</clus>
<clus scale="   34.675">  1  9  2 -1</clus>
<clus scale="   91.116">  5  6 -1 -1</clus>
<clus scale="   92.688">  2  5  1 -1</clus>
<clus scale="   94.639">  7  8 -1 -1</clus>
<clus scale="   21.035">  1  5  2 -1</clus>
</clustering>
</event>
<event>
10    2  0.1671105E-006  0.2493527E+03  0.7546771E-02  0.1140319E+00
         21   -1    0    0  501  502  0.00000000000E+00  0.00000000000E+00  0.13901930284E+03  0.13901930284E+03  0.00000000000E+00 0. -1.
          2   -1    0    0  503    0 -0.00000000000E+00 -0.00000000000E+00 -0.10204739183E+04  0.10204739183E+04  0.00000000000E+00 0. -1.
         23    2    1    2    0    0  0.11465634528E+02  0.98546937131E+02 -0.97784751851E+02  0.16649229920E+03  0.91185900256E+02 0.  0.
         23    2    1    2    0    0  0.10580799267E+03  0.13805157329E+03 -0.64229939312E+03  0.67107901276E+03  0.86861745098E+02 0.  0.
        -11    1    4    4    0    0  0.56499435506E+02  0.97938087330E+02 -0.25984953314E+03  0.28338284182E+03  0.00000000000E+00 0.  1.
         11    1    4    4    0    0  0.49308557166E+02  0.40113485964E+02 -0.38244985998E+03  0.38769617094E+03  0.00000000000E+00 0. -1.
        -11    1    3    3    0    0  0.20981215934E+02  0.37329353397E+01  0.92101704271E+01  0.23215802110E+02  0.00000000000E+00 0.  1.
         11    1    3    3    0    0 -0.95155814064E+01  0.94814001791E+02 -0.10699492228E+03  0.14327649709E+03  0.00000000000E+00 0. -1.
         21    1    1    2  503  502  0.19387477366E+02 -0.29818766743E+02  0.19295290521E+01  0.35619604308E+02  0.00000000000E+00 0. -1.
          2    1    1    2  501    0 -0.13666110457E+03 -0.20677974368E+03 -0.14329999953E+03  0.28630230485E+03  0.00000000000E+00 0. -1.
<scales pt_clust_5="13000.00000" pt_clust_6="13000.00000" pt_clust_7="13000.00000" pt_clust_8="13000.00000" pt_clust_9="35.56730" pt_clust_10="233.73446"></scales>
<clustering>
<clus scale="   35.567">  1  9  2 -1</clus>
<clus scale="   86.862">  5  6 -1 -1</clus>
<clus scale="   91.186">  7  8 -1 -1</clus>
<clus scale="  129.263">  2  7  1 -1</clus>
<clus scale="  233.734">  1 10  2 -1</clus>
<clus scale="   35.567">  1  5  2 -1</clus>
</clustering>
</event>
<event>
10    2  0.1671105E-006  0.1220968E+03  0.7546771E-02  0.1246418E+00
         21   -1    0    0  501  502  0.00000000000E+00  0.00000000000E+00  0.17871753254E+03  0.17871753254E+03  0.00000000000E+00 0. -1.
          2   -1    0    0  503    0 -0.00000000000E+00 -0.00000000000E+00 -0.97528735667E+03  0.97528735667E+03  0.00000000000E+00 0. -1.
         23    2    1    2    0    0  0.24070554874E+02 -0.35210872363E+02 -0.53833137178E+03  0.55324745438E+03  0.12026172622E+03 0.  0.
         23    2    1    2    0    0  0.57063496504E+02 -0.56256621741E+01 -0.39520247957E+03  0.41277201345E+03  0.10444062678E+03 0.  0.
        -13    1    4    4    0    0  0.84383531837E+02 -0.22116491296E+02 -0.29003770823E+03  0.30287223681E+03  0.00000000000E+00 0. -1.
         13    1    4    4    0    0 -0.27320035333E+02  0.16490829122E+02 -0.10516477134E+03  0.10989977664E+03  0.00000000000E+00 0.  1.
        -13    1    3    3    0    0  0.61498878266E+01 -0.76479430046E+02 -0.41344055221E+03  0.42049972003E+03  0.00000000000E+00 0. -1.
         13    1    3    3    0    0  0.17920667047E+02  0.41268557683E+02 -0.12489081958E+03  0.13274773435E+03  0.00000000000E+00 0.  1.
         21    1    1    2  503  502  0.19716022133E+02  0.45581100726E+01  0.32732621618E+02  0.38482754763E+02  0.00000000000E+00 0.  1.
          2    1    1    2  501    0 -0.10085007351E+03  0.36278424465E+02  0.10423140561E+03  0.14950266661E+03  0.00000000000E+00 0. -1.
<scales pt_clust_5="13000.00000" pt_clust_6="13000.00000" pt_clust_7="13000.00000" pt_clust_8="13000.00000" pt_clust_9="20.23605" pt_clust_10="92.60936"></scales>
<clustering>
<clus scale="   20.236">  1  9  2 -1</clus>
<clus scale="   92.609">  1 10  2 -1</clus>
<clus scale="  104.441">  5  6 -1 -1</clus>
<clus scale="  106.548">  1  5  2 -1</clus>
<clus scale="  120.262">  7  8 -1 -1</clus>
<clus scale="   20.236">  1  5  2 -1</clus>
</clustering>
</event>
<event>
10    2  0.1671105E-006  0.1340910E+03  0.7546771E-02  0.1227597E+00
          1   -1    0    0  502    0 -0.00000000000E+00  0.00000000000E+00  0.50136674708E+03  0.50136674708E+03  0.00000000000E+00 0. -1.
         21   -1    0    0  503  502  0.00000000000E+00 -0.00000000000E+00 -0.75112906922E+02  0.75112906922E+02  0.00000000000E+00 0.  1.
         23    2    1    2    0    0  0.11780089554E+03 -0.31174333820E+02  0.35759103858E+03  0.38845948070E+03  0.90446266925E+02 0.  0.
         23    2    1    2    0    0 -0.67695856530E+02 -0.10816531139E+02  0.70798419030E+02  0.11774288051E+03  0.64430143843E+02 0.  0.
        -11    1    4    4    0    0  0.11812321482E+01 -0.23922414863E+02  0.18953230522E+02  0.30543447570E+02  0.00000000000E+00 0.  1.
         11    1    4    4    0    0 -0.68877088678E+02  0.13105883724E+02  0.51845188509E+02  0.87199432936E+02  0.00000000000E+00 0. -1.
        -13    1    3    3    0    0  0.86348590620E+02  0.22408170557E+02  0.22471966474E+03  0.24177909945E+03  0.00000000000E+00 0. -1.
         13    1    3    3    0    0  0.31452304916E+02 -0.53582504377E+02  0.13287137383E+03  0.14668038125E+03  0.00000000000E+00 0.  1.
         21    1    1    2  503  501 -0.35198066133E+02  0.15213793497E+02  0.53838765107E+01  0.38721434611E+02  0.00000000000E+00 0.  1.
          1    1    1    2  501    0 -0.14906972873E+02  0.26777071462E+02 -0.75194939565E+01  0.31555858183E+02  0.00000000000E+00 0. -1.
<scales pt_clust_5="13000.00000" pt_clust_6="13000.00000" pt_clust_7="13000.00000" pt_clust_8="13000.00000" pt_clust_9="22.97749" pt_clust_10="70.24484"></scales>
<clustering>
<clus scale="   22.977">  9 10 -1 -1</clus>
<clus scale="   64.430">  5  6 -1 -1</clus>
<clus scale="   70.245">  2  9  1 -1</clus>
<clus scale="   90.446">  7  8 -1 -1</clus>
<clus scale="  118.115">  2  5  1 -1</clus>
<clus scale="   70.245">  2  5  1 -1</clus>
</clustering>
</event>
<event>
10    2  0.1671105E-006  0.1397417E+03  0.7546771E-02  0.1227743E+00
         21   -1    0    0  503  502  0.00000000000E+00  0.00000000000E+00  0.28753316732E+02  0.28753316732E+02  0.00000000000E+00 0. -1.
          1   -1    0    0  502    0 -0.00000000000E+00 -0.00000000000E+00 -0.12557684834E+04  0.12557684834E+04  0.00000000000E+00 0. -1.
         23    2    1    2    0    0 -0.26207596940E+01  0.50641817739E+02 -0.30127366945E+03  0.31873251305E+03  0.90846732933E+02 0.  0.
         23    2    1    2    0    0 -0.41898357535E+02  0.80842897793E+02 -0.32870926717E+03  0.35244346727E+03  0.88744401546E+02 0.  0.
        -13    1    4    4    0    0  0.96006881444E+01  0.64658376407E+02 -0.11764669005E+03  0.13458685869E+03  0.00000000000E+00 0.  1.
         13    1    4    4    0    0 -0.51499045680E+02  0.16184521386E+02 -0.21106257712E+03  0.21785660858E+03  0.00000000000E+00 0. -1.
        -13    1    3    3    0    0  0.16710134167E+02 -0.19864693263E+02 -0.12903601852E+03  0.13162115596E+03  0.00000000000E+00 0.  1.
         13    1    3    3    0    0 -0.19330893861E+02  0.70506511002E+02 -0.17223765093E+03  0.18711135708E+03  0.00000000000E+00 0. -1.
         21    1    1    2  503  501  0.22915596921E+02 -0.60711382408E+02 -0.32587164156E+03  0.33226995547E+03  0.00000000000E+00 0. -1.
          1    1    1    2  501    0  0.21603520308E+02 -0.70773333124E+02 -0.27116058852E+03  0.28107586439E+03  0.00000000000E+00 0. -1.
<scales pt_clust_5="13000.00000" pt_clust_6="13000.00000" pt_clust_7="13000.00000" pt_clust_8="13000.00000" pt_clust_9="20.41886" pt_clust_10="110.12541"></scales>
<clustering>
<clus scale="   20.419">  9 10 -1 -1</clus>
<clus scale="   88.744">  5  6 -1 -1</clus>
<clus scale="   90.847">  7  8 -1 -1</clus>
<clus scale="  104.041">  2  7  1 -1</clus>
<clus scale="  110.125">  1  9  2 -1</clus>
<clus scale="  110.125">  1  5  2 -1</clus>
</clustering>
</event>
<event>
10    2  0.1671105E-006  0.1560098E+03  0.7546771E-02  0.1207153E+00
         21   -1    0    0  501  502  0.00000000000E+00  0.00000000000E+00  0.66026438718E+03  0.66026438718E+03  0.00000000000E+00 0.  1.
         -2   -1    0    0    0  501 -0.00000000000E+00 -0.00000000000E+00 -0.11571702201E+03  0.11571702201E+03  0.00000000000E+00 0.  1.
         23    2    1    2    0    0  0.29132549277E+02 -0.65008108152E+02  0.10950697951E+03  0.15910772324E+03  0.90822516383E+02 0.  0.
         23    2    1    2    0    0  0.84774634049E+02 -0.34718250817E+01 -0.30868179959E+02  0.12896598183E+03  0.92090106887E+02 0.  0.
        -11    1    3    3    0    0  0.53986833169E+01 -0.53480258930E+02  0.81423072987E+01  0.54365255862E+02  0.00000000000E+00 0.  1.
         11    1    3    3    0    0  0.23733865960E+02 -0.11527849221E+02  0.10136467221E+03  0.10474246738E+03  0.00000000000E+00 0. -1.
        -11    1    4    4    0    0  0.73757902297E+02  0.20777131475E+02 -0.53955463964E+02  0.93718244943E+02  0.00000000000E+00 0.  1.
         11    1    4    4    0    0  0.11016731752E+02 -0.24248956557E+02  0.23087284004E+02  0.35247736882E+02  0.00000000000E+00 0. -1.
         21    1    1    2  503  502 -0.79917229598E+02  0.74356068673E+02  0.32514649456E+03  0.34298080334E+03  0.00000000000E+00 0.  1.
         -2    1    1    2    0  503 -0.33989953728E+02 -0.58761354393E+01  0.14076207106E+03  0.14492690079E+03  0.00000000000E+00 0.  1.
<scales pt_clust_5="13000.00000" pt_clust_6="13000.00000" pt_clust_7="13000.00000" pt_clust_8="13000.00000" pt_clust_9="32.38423" pt_clust_10="138.48202"></scales>
<clustering>
<clus scale="   32.384">  9 10 -1 -1</clus>
<clus scale="   90.823">  5  6 -1 -1</clus>
<clus scale="   92.090">  7  8 -1 -1</clus>
<clus scale="  115.427">  2  5  1 -1</clus>
<clus scale="  138.482">  1  9  2 -1</clus>
<clus scale="  138.482">  1  5  2 -1</clus>
</clustering>
</event>
<event>
10    2  0.1671105E-006  0.1186520E+03  0.7546771E-02  0.1248965E+00
         -1   -1    0    0    0  501 -0.00000000000E+00  0.00000000000E+00  0.24963153327E+02  0.24963153327E+02  0.00000000000E+00 0.  1.
         21   -1    0    0  501  502  0.00000000000E+00 -0.00000000000E+00 -0.12135343434E+04  0.12135343434E+04  0.00000000000E+00 0.  1.
         23    2    1    2    0    0 -0.49531927631E+02 -0.71472998660E+02 -0.22963425893E+03  0.25850255366E+03  0.80807648054E+02 0.  0.
         23    2    1    2    0    0 -0.15984232117E+02  0.68112423089E+02 -0.44146099225E+03  0.45631171054E+03  0.91857343940E+02 0.  0.
        -13    1    4    4    0    0 -0.43228053132E+02  0.64395389161E+02 -0.39312064994E+03  0.40069848532E+03  0.00000000000E+00 0.  1.
         13    1    4    4    0    0  0.27243821015E+02  0.37170339280E+01 -0.48340342311E+02  0.55613225221E+02  0.00000000000E+00 0. -1.
        -13    1    3    3    0    0 -0.32740327215E+02 -0.50001889575E+01 -0.21797134493E+02  0.39649035144E+02  0.00000000000E+00 0.  1.
         13    1    3    3    0    0 -0.16791600416E+02 -0.66472809703E+02 -0.20783712444E+03  0.21885351852E+03  0.00000000000E+00 0. -1.
         21    1    1    2  503  502  0.21149952459E+02  0.22903804237E+02 -0.16902860528E+03  0.17187953381E+03  0.00000000000E+00 0.  1.
         -1    1    1    2    0  503  0.44366207289E+02 -0.19543228666E+02 -0.34844733364E+03  0.35180369875E+03  0.00000000000E+00 0.  1.
<scales pt_clust_5="13000.00000" pt_clust_6="13000.00000" pt_clust_7="13000.00000" pt_clust_8="13000.00000" pt_clust_9="31.17539" pt_clust_10="52.81330"></scales>
<clustering>
<clus scale="   31.175">  2  9  1 -1</clus>
<clus scale="   52.813">  2 10  1 -1</clus>
<clus scale="   80.808">  7  8 -1 -1</clus>
<clus scale="   91.857">  5  6 -1 -1</clus>
<clus scale="  110.320">  1  7  2 -1</clus>
<clus scale="   31.175">  2  5  1 -1</clus>
</clustering>
</event>
<event>
10    2  0.1671105E-006  0.1219492E+03  0.7546771E-02  0.1240217E+00
          1   -1    0    0  503    0 -0.00000000000E+00  0.00000000000E+00  0.25933369451E+03  0.25933369451E+03  0.00000000000E+00 0. -1.
         21   -1    0    0  501  502  0.00000000000E+00 -0.00000000000E+00 -0.28893370063E+03  0.28893370063E+03  0.00000000000E+00 0. -1.
         23    2    1    2    0    0  0.43471997546E+02  0.59455127955E+02  0.17021856230E+03  0.20643895655E+03  0.90652948206E+02 0.  0.
         23    2    1    2    0    0 -0.85049197873E+02 -0.76298170477E+02 -0.22018451457E+02  0.14811626992E+03  0.91645187178E+02 0.  0.
        -11    1    4    4    0    0 -0.57861523737E+02 -0.32083170871E+02  0.31747622746E+02  0.73383903769E+02  0.00000000000E+00 0. -1.
         11    1    4    4    0    0 -0.27187674136E+02 -0.44214999605E+02 -0.53766074203E+02  0.74732366149E+02  0.00000000000E+00 0.  1.
        -13    1    3    3    0    0 -0.25179740106E+02  0.28258077415E+02  0.82470131666E+02  0.90740624133E+02  0.00000000000E+00 0. -1.
         13    1    3    3    0    0  0.68651737651E+02  0.31197050540E+02  0.87748430636E+02  0.11569833242E+03  0.00000000000E+00 0.  1.
         21    1    1    2  503  502  0.13922611802E+02 -0.22912126847E+02 -0.83582943204E+02  0.87777634229E+02  0.00000000000E+00 0.  1.
          1    1    1    2  501    0  0.27654588526E+02  0.39755169369E+02 -0.94217173756E+02  0.10593453445E+03  0.00000000000E+00 0. -1.
<scales pt_clust_5="13000.00000" pt_clust_6="13000.00000" pt_clust_7="13000.00000" pt_clust_8="13000.00000" pt_clust_9="26.81053" pt_clust_10="44.74015"></scales>
<clustering>
<clus scale="   26.811">  2  9  1 -1</clus>
<clus scale="   44.740">  2 10  1 -1</clus>
<clus scale="   90.653">  7  8 -1 -1</clus>
<clus scale="   91.645">  5  6 -1 -1</clus>
<clus scale="  121.205">  1  7  2 -1</clus>
<clus scale="   26.811">  2  5  1 -1</clus>
</clustering>
</event>
<event>
10    2  0.1671105E-006  0.9869694E+02  0.7546771E-02  0.1285013E+00
          2   -1    0    0  503    0 -0.00000000000E+00  0.00000000000E+00  0.12461036168E+04  0.12461036168E+04  0.00000000000E+00 0. -1.
         21   -1    0    0  501  502  0.00000000000E+00 -0.00000000000E+00 -0.35056564867E+02  0.35056564867E+02  0.00000000000E+00 0. -1.
         23    2    1    2    0    0 -0.22863192297E+02  0.23399677396E+02  0.44103342640E+03  0.45130994878E+03  0.89999534444E+02 0.  0.
         23    2    1    2    0    0 -0.52947670015E+02  0.90623961499E+02  0.47812645040E+03  0.49841181329E+03  0.93772463410E+02 0.  0.
        -11    1    4    4    0    0 -0.72417310811E+02  0.95743149718E+02  0.42384899008E+03  0.44052126398E+03  0.00000000000E+00 0. -1.
         11    1    4    4    0    0  0.19469640796E+02 -0.51191882189E+01  0.54277460313E+02  0.57890549305E+02  0.00000000000E+00 0.  1.
        -13    1    3    3    0    0  0.13745704398E+02  0.48737258964E+02  0.25969480964E+03  0.26458582531E+03  0.00000000000E+00 0. -1.
         13    1    3    3    0    0 -0.36608896695E+02 -0.25337581568E+02  0.18133861676E+03  0.18672412347E+03  0.00000000000E+00 0.  1.
         21    1    1    2  503  502  0.16023882881E+02 -0.63554701448E+02  0.20149809294E+03  0.21189017523E+03  0.00000000000E+00 0. -1.
          2    1    1    2  501    0  0.59786979431E+02 -0.50468937447E+02  0.90389082241E+02  0.11954824442E+03  0.00000000000E+00 0. -1.
<scales pt_clust_5="13000.00000" pt_clust_6="13000.00000" pt_clust_7="13000.00000" pt_clust_8="13000.00000" pt_clust_9="65.54361" pt_clust_10="83.70638"></scales>
<clustering>
<clus scale="   65.544">  1  9  2 -1</clus>
<clus scale="   83.706">  2 10  1 -1</clus>
<clus scale="   90.000">  7  8 -1 -1</clus>
<clus scale="   93.772">  5  6 -1 -1</clus>
<clus scale="   95.120">  1  7  2 -1</clus>
<clus scale="   83.706">  2  5  1 -1</clus>
</clustering>
</event>
<event>
10    2  0.1671105E-006  0.1370252E+03  0.7546771E-02  0.1235530E+00
         21   -1    0    0  503  502  0.00000000000E+00  0.00000000000E+00  0.37467730812E+03  0.37467730812E+03  0.00000000000E+00 0. -1.
          2   -1    0    0  502    0 -0.00000000000E+00 -0.00000000000E+00 -0.28534446703E+03  0.28534446703E+03  0.00000000000E+00 0. -1.
         23    2    1    2    0    0 -0.24956464401E+02 -0.29121235669E+02 -0.14288266164E+03  0.17103220958E+03  0.85823599520E+02 0.  0.
         23    2    1    2    0    0 -0.50722164811E+02 -0.42917236314E+02 -0.90631484595E+02  0.14534119111E+03  0.92170324174E+02 0.  0.
        -13    1    4    4    0    0  0.35178241253E+01 -0.32800446356E+02  0.65090198166E+01  0.33624569985E+02  0.00000000000E+00 0.  1.
         13    1    4    4    0    0 -0.54239988936E+02 -0.10116789958E+02 -0.97140504412E+02  0.11171662113E+03  0.00000000000E+00 0. -1.
        -13    1    3    3    0    0 -0.27049692439E+02  0.19769392285E+02 -0.20621954973E+02  0.39341832180E+02  0.00000000000E+00 0. -1.
         13    1    3    3    0    0  0.20932280374E+01 -0.48890627955E+02 -0.12226070667E+03  0.13169037740E+03  0.00000000000E+00 0.  1.
         21    1    1    2  503  501  0.24416223662E+02  0.57419850939E+02  0.20545053740E+03  0.21471635843E+03  0.00000000000E+00 0.  1.
          2    1    1    2  501    0  0.51262405550E+02  0.14618621045E+02  0.11739644992E+03  0.12893201603E+03  0.00000000000E+00 0. -1.
<scales pt_clust_5="13000.00000" pt_clust_6="13000.00000" pt_clust_7="13000.00000" pt_clust_8="13000.00000" pt_clust_9="50.17866" pt_clust_10="115.01209"></scales>
<clustering>
<clus scale="   50.179">  9 10 -1 -1</clus>
<clus scale="   85.824">  7  8 -1 -1</clus>
<clus scale="   92.170">  5  6 -1 -1</clus>
<clus scale="   94.003">  2  7  1 -1</clus>
<clus scale="  115.012">  1  9  2 -1</clus>
<clus scale="  115.012">  1  5  2 -1</clus>
</clustering>
</event>
<event>
10    2  0.1671105E-006  0.1091587E+03  0.7546771E-02  0.1270474E+00
          1   -1    0    0  503    0 -0.00000000000E+00  0.00000000000E+00  0.25991367013E+03  0.25991367013E+03  0.00000000000E+00 0. -1.
         21   -1    0    0  501  502  0.00000000000E+00 -0.00000000000E+00 -0.34101217824E+03  0.34101217824E+03  0.00000000000E+00 0. -1.
         23    2    1    2    0    0 -0.53755082465E+02 -0.22994537412E+02  0.17464446231E+03  0.19877434869E+03  0.74780985799E+02 0.  0.
         23    2    1    2    0    0  0.22352699372E+02 -0.25896385041E+02  0.75892918592E+01  0.10060563428E+03  0.94306046311E+02 0.  0.
        -11    1    3    3    0    0 -0.39211355134E+02 -0.44231824118E+02  0.73048592387E+02  0.93968513269E+02  0.00000000000E+00 0.  1.
         11    1    3    3    0    0 -0.14543727331E+02  0.21237286706E+02  0.10159586993E+03  0.10480583542E+03  0.00000000000E+00 0. -1.
        -13    1    4    4    0    0 -0.25267690011E+02  0.18723975193E+02  0.15154734415E+02  0.34910018343E+02  0.00000000000E+00 0. -1.
         13    1    4    4    0    0  0.47620389383E+02 -0.44620360234E+02 -0.75654425563E+01  0.65695615938E+02  0.00000000000E+00 0.  1.
         21    1    1    2  503  502 -0.25539008505E+02 -0.11007166927E+02 -0.24865831091E+01  0.27920991651E+02  0.00000000000E+00 0. -1.
          1    1    1    2  501    0  0.56941391598E+02  0.59898089379E+02 -0.26084567918E+03  0.27362487375E+03  0.00000000000E+00 0. -1.
<scales pt_clust_5="13000.00000" pt_clust_6="13000.00000" pt_clust_7="13000.00000" pt_clust_8="13000.00000" pt_clust_9="27.81005" pt_clust_10="81.98389"></scales>
<clustering>
<clus scale="   27.810">  1  9  2 -1</clus>
<clus scale="   74.781">  5  6 -1 -1</clus>
<clus scale="   81.984">  2 10  1 -1</clus>
<clus scale="   92.813">  1  5  2 -1</clus>
<clus scale="   94.306">  7  8 -1 -1</clus>
<clus scale="   81.984">  2  5  1 -1</clus>
</clustering>
</event>
<event>
10    2  0.1671105E-006  0.1070895E+03  0.7546771E-02  0.1268947E+00
          2   -1    0    0  503    0 -0.00000000000E+00  0.00000000000E+00  0.65771339087E+03  0.65771339087E+03  0.00000000000E+00 0. -1.
         21   -1    0    0  501  502  0.00000000000E+00 -0.00000000000E+00 -0.81720655195E+02  0.81720655195E+02  0.00000000000E+00 0.  1.
         23    2    1    2    0    0  0.33836931345E+02 -0.14673687301E+02  0.39269048266E+03  0.40517667049E+03  0.92747313253E+02 0.  0.
         23    2    1    2    0    0 -0.25836272010E+02  0.50689193725E+02  0.21897472092E+03  0.24699491125E+03  0.99094149531E+02 0.  0.
        -11    1    4    4    0    0  0.37684051911E+02  0.14970092971E+02  0.64386260766E+02  0.76090617210E+02  0.00000000000E+00 0. -1.
         11    1    4    4    0    0 -0.63520323921E+02  0.35719100754E+02  0.15458846015E+03  0.17090429404E+03  0.00000000000E+00 0.  1.
        -11    1    3    3    0    0 -0.27647914073E+02 -0.23759948033E+02  0.11608704567E+03  0.12167639235E+03  0.00000000000E+00 0.  1.
         11    1    3    3    0    0  0.61484845419E+02  0.90862607317E+01  0.27660343699E+03  0.28350027814E+03  0.00000000000E+00 0. -1.
         21    1    1    2  503  502  0.29683997445E+02 -0.28232852522E+02 -0.15366467517E+02  0.43753422607E+02  0.00000000000E+00 0.  1.
          2    1    1    2  501    0 -0.37684656781E+02 -0.77826539018E+01 -0.20306000395E+02  0.43509041710E+02  0.00000000000E+00 0. -1.
<scales pt_clust_5="13000.00000" pt_clust_6="13000.00000" pt_clust_7="13000.00000" pt_clust_8="13000.00000" pt_clust_9="33.65714" pt_clust_10="38.47990"></scales>
<clustering>
<clus scale="   38.480">  2 10  1 -1</clus>
<clus scale="   33.657">  2  9  1 -1</clus>
<clus scale="   92.747">  7  8 -1 -1</clus>
<clus scale="   99.094">  5  6 -1 -1</clus>
<clus scale="  101.245">  1  7  2 -1</clus>
<clus scale="   38.480">  2  5  1 -1</clus>
</clustering>
</event>
<event>
10    2  0.1671105E-006  0.1235696E+03  0.7546771E-02  0.1238788E+00
         21   -1    0    0  501  502  0.00000000000E+00  0.00000000000E+00  0.82008126960E+02  0.82008126960E+02  0.00000000000E+00 0.  1.
         -2   -1    0    0    0  501 -0.00000000000E+00 -0.00000000000E+00 -0.72688321212E+03  0.72688321212E+03  0.00000000000E+00 0.  1.
         23    2    1    2    0    0  0.45252970876E+02 -0.62826964492E+02 -0.49334538832E+03  0.50693337002E+03  0.87159110980E+02 0.  0.
         23    2    1    2    0    0 -0.27599126826E+02  0.99230356641E+02 -0.19453851652E+03  0.23861200666E+03  0.92098207531E+02 0.  0.
        -11    1    3    3    0    0  0.71203290469E+02 -0.53198545587E+02 -0.38041513654E+03  0.39066055590E+03  0.00000000000E+00 0.  1.
         11    1    3    3    0    0 -0.25950319592E+02 -0.96284189052E+01 -0.11293025178E+03  0.11627281412E+03  0.00000000000E+00 0. -1.
        -13    1    4    4    0    0 -0.34759670756E+02  0.43397515239E+02 -0.26884400850E+02  0.61760424618E+02  0.00000000000E+00 0. -1.
         13    1    4    4    0    0  0.71605439296E+01  0.55832841402E+02 -0.16765411567E+03  0.17685158204E+03  0.00000000000E+00 0.  1.
         21    1    1    2  503  502 -0.31162222670E+01 -0.20674658352E+02  0.34414296182E+02  0.40267805017E+02  0.00000000000E+00 0.  1.
         -2    1    1    2    0  503 -0.14537621783E+02 -0.15728733797E+02  0.85945234986E+01  0.23078157381E+02  0.00000000000E+00 0.  1.
<scales pt_clust_5="13000.00000" pt_clust_6="13000.00000" pt_clust_7="13000.00000" pt_clust_8="13000.00000" pt_clust_9="20.90819" pt_clust_10="27.86383"></scales>
<clustering>
<clus scale="   20.908">  1  9  2 -1</clus>
<clus scale="   27.864">  1 10  2 -1</clus>
<clus scale="   87.159">  5  6 -1 -1</clus>
<clus scale="   92.098">  7  8 -1 -1</clus>
<clus scale="  119.934">  2  5  1 -1</clus>
<clus scale="   20.908">  1  5  2 -1</clus>
</clustering>
</event>
<event>
10    2  0.1671105E-006  0.1329270E+03  0.7546771E-02  0.1223583E+00
          1   -1    0    0  503    0 -0.00000000000E+00  0.00000000000E+00  0.82092266123E+02  0.82092266123E+02  0.00000000000E+00 0. -1.
         21   -1    0    0  501  502  0.00000000000E+00 -0.00000000000E+00 -0.42563500435E+03  0.42563500435E+03  0.00000000000E+00 0.  1.
         23    2    1    2    0    0  0.32943714456E+02 -0.66053048014E+02 -0.58622715544E+02  0.13185880920E+03  0.92205364872E+02 0.  0.
         23    2    1    2    0    0 -0.10180986723E+02  0.11956562895E+03 -0.23157019449E+03  0.27609512604E+03  0.90576881856E+02 0.  0.
        -13    1    4    4    0    0  0.32827496815E+02  0.42906242618E+02 -0.13554037999E+03  0.14591019433E+03  0.00000000000E+00 0.  1.
         13    1    4    4    0    0 -0.43008483538E+02  0.76659386329E+02 -0.96029814503E+02  0.13018493170E+03  0.00000000000E+00 0. -1.
        -13    1    3    3    0    0  0.12575987833E+02 -0.51097474065E+02  0.14425347688E+02  0.54563705718E+02  0.00000000000E+00 0. -1.
         13    1    3    3    0    0  0.20367726623E+02 -0.14955573950E+02 -0.73048063233E+02  0.77295103480E+02  0.00000000000E+00 0.  1.
         21    1    1    2  503  502  0.88857739488E+01 -0.28852528951E+02  0.32838167859E+01  0.30367891897E+02  0.00000000000E+00 0. -1.
          1    1    1    2  501    0 -0.31648501682E+02 -0.24660051981E+02 -0.56633644970E+02  0.69405443338E+02  0.00000000000E+00 0. -1.
<scales pt_clust_5="13000.00000" pt_clust_6="13000.00000" pt_clust_7="13000.00000" pt_clust_8="13000.00000" pt_clust_9="30.18982" pt_clust_10="41.26345"></scales>
<clustering>
<clus scale="   30.190">  1  9  2 -1</clus>
<clus scale="   41.263">  2 10  1 -1</clus>
<clus scale="   90.577">  5  6 -1 -1</clus>
<clus scale="   92.205">  7  8 -1 -1</clus>
<clus scale="  131.803">  2  5  1 -1</clus>
<clus scale="   41.263">  2  5  1 -1</clus>
</clustering>
</event>
<event>
10    2  0.1671105E-006  0.1518538E+03  0.7546771E-02  0.1199282E+00
         -4   -1    0    0    0  501 -0.00000000000E+00  0.00000000000E+00  0.17796168676E+03  0.17796168676E+03  0.00000000000E+00 0.  1.
         21   -1    0    0  503  502  0.00000000000E+00 -0.00000000000E+00 -0.43134153190E+03  0.43134153190E+03  0.00000000000E+00 0.  1.
         23    2    1    2    0    0 -0.40165108094E+02  0.71826763374E+02 -0.14870085220E+02  0.12380762388E+03  0.91295610254E+02 0.  0.
         23    2    1    2    0    0  0.52778034157E+02 -0.15625803771E+03  0.17302625660E+02  0.19205222786E+03  0.96863729714E+02 0.  0.
        -11    1    3    3    0    0 -0.29998888048E+02  0.93342345153E+02 -0.53907922605E+01  0.98192603204E+02  0.00000000000E+00 0.  1.
         11    1    3    3    0    0 -0.10166220046E+02 -0.21515581779E+02 -0.94792929591E+01  0.25615020678E+02  0.00000000000E+00 0. -1.
        -13    1    4    4    0    0  0.53234924730E+02 -0.13260597282E+03 -0.23573627250E+02  0.14482409034E+03  0.00000000000E+00 0.  1.
         13    1    4    4    0    0 -0.45689057273E+00 -0.23652064883E+02  0.40876252910E+02  0.47228137526E+02  0.00000000000E+00 0. -1.
         21    1    1    2  503  501  0.85125576958E+01 -0.18844112282E+02 -0.48470482948E+01  0.21238128057E+02  0.00000000000E+00 0.  1.
         -4    1    1    2    0  502 -0.21125483759E+02  0.10327538661E+03 -0.25096533729E+03  0.27220523886E+03  0.00000000000E+00 0.  1.
<scales pt_clust_5="13000.00000" pt_clust_6="13000.00000" pt_clust_7="13000.00000" pt_clust_8="13000.00000" pt_clust_9="20.67763" pt_clust_10="104.15267"></scales>
<clustering>
<clus scale="   20.678">  1  9  2 -1</clus>
<clus scale="   91.296">  5  6 -1 -1</clus>
<clus scale="   96.864">  7  8 -1 -1</clus>
<clus scale="  104.153">  2 10  1 -1</clus>
<clus scale="  148.364">  1  5  2 -1</clus>
<clus scale="  104.153">  2  5  1 -1</clus>
</clustering>
</event>
<event>
10    2  0.1671105E-006  0.2720398E+03  0.7546771E-02  0.1100206E+00
          1   -1    0    0  503    0 -0.00000000000E+00  0.00000000000E+00  0.35935462083E+04  0.35935462083E+04  0.00000000000E+00 0. -1.
         21   -1    0    0  501  502  0.00000000000E+00 -0.00000000000E+00 -0.74055519621E+02  0.74055519621E+02  0.00000000000E+00 0. -1.
         23    2    1    2    0    0 -0.18562584017E+03 -0.26463783073E+03  0.15906846503E+04  0.16255178359E+04  0.86835731832E+02 0.  0.
         23    2    1    2    0    0  0.63820504595E+02  0.22741576744E+03  0.41491687955E+03  0.48561846009E+03  0.88759696710E+02 0.  0.
        -11    1    4    4    0    0  0.39775994077E+02  0.46721306898E+02  0.16687231450E+03  0.17779589301E+03  0.00000000000E+00 0.  1.
         11    1    4    4    0    0  0.24044510519E+02  0.18069446054E+03  0.24804456504E+03  0.30782256708E+03  0.00000000000E+00 0. -1.
        -13    1    3    3    0    0 -0.10633640042E+03 -0.21832758827E+03  0.11654269418E+04  0.11904597106E+04  0.00000000000E+00 0. -1.
         13    1    3    3    0    0 -0.79289439754E+02 -0.46310242455E+02  0.42525770849E+03  0.43505812536E+03  0.00000000000E+00 0.  1.
         21    1    1    2  503  502  0.23232331253E+03  0.21784610852E+01  0.11895521150E+04  0.12120285069E+04  0.00000000000E+00 0. -1.
          1    1    1    2  501    0 -0.11051797696E+03  0.35043602204E+02  0.32433704390E+03  0.34443692504E+03  0.00000000000E+00 0. -1.
<scales pt_clust_5="13000.00000" pt_clust_6="13000.00000" pt_clust_7="13000.00000" pt_clust_8="13000.00000" pt_clust_9="213.08134" pt_clust_10="115.94084"></scales>
<clustering>
<clus scale="   86.836">  7  8 -1 -1</clus>
<clus scale="   88.760">  5  6 -1 -1</clus>
<clus scale="  115.941">  2 10  1 -1</clus>
<clus scale="  213.081">  1  9  2 -1</clus>
<clus scale="  271.418">  1  7  2 -1</clus>
<clus scale="  115.941">  2  5  1 -1</clus>
</clustering>
</event>
<event>
10    2  0.1671105E-006  0.1438102E+03  0.7546771E-02  0.1210024E+00
         -3   -1    0    0    0  501 -0.00000000000E+00  0.00000000000E+00  0.15033299685E+03  0.15033299685E+03  0.00000000000E+00 0.  1.
         21   -1    0    0  503  502  0.00000000000E+00 -0.00000000000E+00 -0.24830795095E+03  0.24830795095E+03  0.00000000000E+00 0. -1.
         23    2    1    2    0    0 -0.10089316437E+03  0.32080195867E+02 -0.26307898149E+02  0.13670456958E+03  0.82386068347E+02 0.  0.
         23    2    1    2    0    0  0.12576442292E+03  0.29663774900E+02 -0.59577504374E+02  0.16884973415E+03  0.90907227881E+02 0.  0.
        -11    1    3    3    0    0 -0.40756714131E+02  0.72895256391E+01 -0.52259197616E+02  0.66672863042E+02  0.00000000000E+00 0. -1.
         11    1    3    3    0    0 -0.60136450235E+02  0.24790670228E+02  0.25951299467E+02  0.70031706542E+02  0.00000000000E+00 0.  1.
        -13    1    4    4    0    0  0.10025320359E+03  0.58678333955E+02 -0.58822546581E+02  0.13020731044E+03  0.00000000000E+00 0. -1.
         13    1    4    4    0    0  0.25511219331E+02 -0.29014559055E+02 -0.75495779312E+00  0.38642423710E+02  0.00000000000E+00 0.  1.
         21    1    1    2  503  501  0.16641545528E+01 -0.43597694793E+02 -0.33029088682E+02  0.54721559744E+02  0.00000000000E+00 0. -1.
         -3    1    1    2    0  502 -0.26535413111E+02 -0.18146275974E+02  0.20939537109E+02  0.38365084322E+02  0.00000000000E+00 0.  1.
<scales pt_clust_5="13000.00000" pt_clust_6="13000.00000" pt_clust_7="13000.00000" pt_clust_8="13000.00000" pt_clust_9="47.02935" pt_clust_10="32.14680"></scales>
<clustering>
<clus scale="   32.147">  2 10  1 -1</clus>
<clus scale="   47.029">  2  9  1 -1</clus>
<clus scale="   82.386">  5  6 -1 -1</clus>
<clus scale="   90.907">  7  8 -1 -1</clus>
<clus scale="  138.581">  1  5  2 -1</clus>
<clus scale="   32.147">  2  5  1 -1</clus>
</clustering>
</event>
<event>
10    2  0.1671105E-006  0.1298051E+03  0.7546771E-02  0.1244985E+00
         21   -1    0    0  501  502  0.00000000000E+00  0.00000000000E+00  0.14844730522E+03  0.14844730522E+03  0.00000000000E+00 0.  1.
         -2   -1    0    0    0  501 -0.00000000000E+00 -0.00000000000E+00 -0.25333615074E+03  0.25333615074E+03  0.00000000000E+00 0.  1.
         23    2    1    2    0    0  0.12835907220E+02  0.15672365436E+02 -0.12354394459E+03  0.15359822891E+03  0.88988348263E+02 0.  0.
         23    2    1    2    0    0  0.37031674057E+02  0.80089126045E+02 -0.20556104885E+02  0.12230598578E+03  0.82161960265E+02 0.  0.
        -11    1    3    3    0    0  0.27263662260E+02 -0.31616909769E+02 -0.53460915868E+02  0.67830714198E+02  0.00000000000E+00 0. -1.
         11    1    3    3    0    0 -0.14427755040E+02  0.47289275205E+02 -0.70083028718E+02  0.85767514708E+02  0.00000000000E+00 0.  1.
        -13    1    4    4    0    0 -0.23266074897E+01  0.28114688386E+02  0.28967054915E+02  0.40434379875E+02  0.00000000000E+00 0. -1.
         13    1    4    4    0    0  0.39358281546E+02  0.51974437659E+02 -0.49523159800E+02  0.81871605901E+02  0.00000000000E+00 0.  1.
         21    1    1    2  503  502  0.38789288453E+01 -0.41137213892E+02  0.39015683758E+01  0.41503478066E+02  0.00000000000E+00 0. -1.
         -2    1    1    2    0  503 -0.53746510122E+02 -0.54624277589E+02  0.35309635575E+02  0.84375763208E+02  0.00000000000E+00 0.  1.
<scales pt_clust_5="13000.00000" pt_clust_6="13000.00000" pt_clust_7="13000.00000" pt_clust_8="13000.00000" pt_clust_9="37.80766" pt_clust_10="112.91506"></scales>
<clustering>
<clus scale="   37.808">  9 10 -1 -1</clus>
<clus scale="   82.162">  7  8 -1 -1</clus>
<clus scale="   88.988">  5  6 -1 -1</clus>
<clus scale="   91.265">  2  5  1 -1</clus>
<clus scale="  112.915">  1  9  2 -1</clus>
<clus scale="  112.915">  1  5  2 -1</clus>
</clustering>
</event>
<event>
10    2  0.1671105E-006  0.2301576E+03  0.7546771E-02  0.1152134E+00
          3   -1    0    0  502    0 -0.00000000000E+00  0.00000000000E+00  0.41016547688E+03  0.41016547688E+03  0.00000000000E+00 0. -1.
         21   -1    0    0  503  502  0.00000000000E+00 -0.00000000000E+00 -0.48529520289E+03  0.48529520289E+03  0.00000000000E+00 0. -1.
         23    2    1    2    0    0 -0.62867811310E+02 -0.59051553742E+02  0.50185799626E+02  0.13377535437E+03  0.89094238052E+02 0.  0.
         23    2    1    2    0    0  0.14724944143E+03  0.24442484849E+03  0.20881908285E+03  0.36504230126E+03  0.90689402832E+02 0.  0.
        -11    1    4    4    0    0  0.10761169187E+03  0.90943971426E+02  0.99452101502E+02  0.17245811857E+03  0.00000000000E+00 0.  1.
         11    1    4    4    0    0  0.39637749555E+02  0.15348087706E+03  0.10936698134E+03  0.19258418269E+03  0.00000000000E+00 0. -1.
        -13    1    3    3    0    0 -0.46141725096E+02 -0.17727241477E+02  0.69421753389E+02  0.85221439373E+02  0.00000000000E+00 0. -1.
         13    1    3    3    0    0 -0.16726086214E+02 -0.41324312266E+02 -0.19235953763E+02  0.48553914996E+02  0.00000000000E+00 0.  1.
         21    1    1    2  503  501  0.10831843854E+02 -0.22594188291E+02 -0.35568768497E+02  0.43508200126E+02  0.00000000000E+00 0.  1.
          3    1    1    2  501    0 -0.95213473973E+02 -0.16277910646E+03 -0.29856583999E+03  0.35313482402E+03  0.00000000000E+00 0. -1.
<scales pt_clust_5="13000.00000" pt_clust_6="13000.00000" pt_clust_7="13000.00000" pt_clust_8="13000.00000" pt_clust_9="23.61246" pt_clust_10="221.23332"></scales>
<clustering>
<clus scale="   23.612">  9 10 -1 -1</clus>
<clus scale="   89.094">  7  8 -1 -1</clus>
<clus scale="   90.689">  5  6 -1 -1</clus>
<clus scale="  124.005">  1  7  2 -1</clus>
<clus scale="  221.233">  2  9  1 -1</clus>
<clus scale="  221.233">  2  5  1 -1</clus>
</clustering>
</event>
<event>
10    2  0.1671105E-006  0.2092034E+03  0.7546771E-02  0.1142444E+00
         -1   -1    0    0    0  501 -0.00000000000E+00  0.00000000000E+00  0.78470679079E+03  0.78470679079E+03  0.00000000000E+00 0.  1.
         21   -1    0    0  503  502  0.00000000000E+00 -0.00000000000E+00 -0.75923205538E+02  0.75923205538E+02  0.00000000000E+00 0.  1.
         23    2    1    2    0    0  0.12348151292E+03  0.13453011132E+03  0.35537265742E+03  0.41001804359E+03  0.92081678635E+02 0.  0.
         23    2    1    2    0    0 -0.16766369518E+03 -0.98648072678E+02  0.25748714757E+03  0.33482600284E+03  0.89253930365E+02 0.  0.
        -11    1    3    3    0    0  0.83551746059E+02  0.13668345730E+03  0.31385337000E+03  0.35237366478E+03  0.00000000000E+00 0.  1.
         11    1    3    3    0    0  0.39929766858E+02 -0.21533459769E+01  0.41519287414E+02  0.57644378804E+02  0.00000000000E+00 0. -1.
        -13    1    4    4    0    0 -0.11618791619E+03 -0.11014900093E+03  0.20817447231E+03  0.26261958266E+03  0.00000000000E+00 0.  1.
         13    1    4    4    0    0 -0.51475778990E+02  0.11500928251E+02  0.49312675259E+02  0.72206420175E+02  0.00000000000E+00 0. -1.
         21    1    1    2  503  501  0.36002463684E+02 -0.16214704975E+02  0.79924185140E+02  0.89145776226E+02  0.00000000000E+00 0. -1.
         -1    1    1    2    0  502  0.81797185800E+01 -0.19667333670E+02  0.15999595124E+02  0.26640173683E+02  0.00000000000E+00 0.  1.
<scales pt_clust_5="13000.00000" pt_clust_6="13000.00000" pt_clust_7="13000.00000" pt_clust_8="13000.00000" pt_clust_9="40.51105" pt_clust_10="21.30051"></scales>
<clustering>
<clus scale="   21.301">  2 10  1 -1</clus>
<clus scale="   40.511">  1  9  2 -1</clus>
<clus scale="   89.254">  7  8 -1 -1</clus>
<clus scale="   92.082">  5  6 -1 -1</clus>
<clus scale="  207.974">  2  7  1 -1</clus>
<clus scale="   21.301">  2  5  1 -1</clus>
</clustering>
</event>
<event>
10    2  0.1671105E-006  0.1195391E+03  0.7546771E-02  0.1243877E+00
         21   -1    0    0  503  502  0.00000000000E+00  0.00000000000E+00  0.64970337011E+02  0.64970337011E+02  0.00000000000E+00 0.  1.
         -3   -1    0    0    0  501 -0.00000000000E+00 -0.00000000000E+00 -0.50832152464E+03  0.50832152464E+03  0.00000000000E+00 0.  1.
         23    2    1    2    0    0 -0.59955480946E+02  0.25217956680E+02 -0.15325770790E+03  0.19019218126E+03  0.91948549467E+02 0.  0.
         23    2    1    2    0    0  0.58902181143E+02 -0.84138857296E+02 -0.82511409497E+02  0.16062761775E+03  0.91892788808E+02 0.  0.
        -11    1    4    4    0    0  0.50374194989E+02 -0.24263575452E+02  0.28807297813E+01  0.55987313014E+02  0.00000000000E+00 0.  1.
         11    1    4    4    0    0  0.85279861543E+01 -0.59875281844E+02 -0.85392139279E+02  0.10464030473E+03  0.00000000000E+00 0. -1.
        -13    1    3    3    0    0  0.46224809840E+00  0.47962816127E+02 -0.61269006829E+02  0.77810902847E+02  0.00000000000E+00 0.  1.
         13    1    3    3    0    0 -0.60417729044E+02 -0.22744859447E+02 -0.91988701067E+02  0.11238127841E+03  0.00000000000E+00 0. -1.
         21    1    1    2  503  501  0.25257693245E+02  0.38716120439E+02 -0.96475885463E+02  0.10697890225E+03  0.00000000000E+00 0.  1.
         -3    1    1    2    0  502 -0.24204393442E+02  0.20204780178E+02 -0.11110618477E+03  0.11549316040E+03  0.00000000000E+00 0.  1.
<scales pt_clust_5="13000.00000" pt_clust_6="13000.00000" pt_clust_7="13000.00000" pt_clust_8="13000.00000" pt_clust_9="46.60943" pt_clust_10="31.52914"></scales>
<clustering>
<clus scale="   31.529">  1 10  2 -1</clus>
<clus scale="   46.609">  2  9  1 -1</clus>
<clus scale="   91.893">  5  6 -1 -1</clus>
<clus scale="   91.949">  7  8 -1 -1</clus>
<clus scale="  119.496">  1  5  2 -1</clus>
<clus scale="   31.529">  1  5  2 -1</clus>
</clustering>
</event>
<event>
10    2  0.1671105E-006  0.2781555E+03  0.7546771E-02  0.1096758E+00
          2   -1    0    0  502    0 -0.00000000000E+00  0.00000000000E+00  0.16889329587E+04  0.16889329587E+04  0.00000000000E+00 0. -1.
         21   -1    0    0  503  502  0.00000000000E+00 -0.00000000000E+00 -0.83907551735E+02  0.83907551735E+02  0.00000000000E+00 0.  1.
         23    2    1    2    0    0 -0.24764289103E+03  0.27206792940E+01  0.10289383488E+04  0.10621017957E+04  0.89508073267E+02 0.  0.
         23    2    1    2    0    0  0.30952651568E+03 -0.54480294757E+02  0.45667463658E+03  0.56175416591E+03  0.90781346101E+02 0.  0.
        -11    1    3    3    0    0 -0.84763560517E+02 -0.19614342349E+02  0.52115333833E+03  0.52836576883E+03  0.00000000000E+00 0.  1.
         11    1    3    3    0    0 -0.16287933052E+03  0.22335021643E+02  0.50778501048E+03  0.53373602686E+03  0.00000000000E+00 0. -1.
        -11    1    4    4    0    0  0.25280323641E+03 -0.59529153815E+02  0.42065265595E+03  0.49437015833E+03  0.00000000000E+00 0.  1.
         11    1    4    4    0    0  0.56723279270E+02  0.50488590580E+01  0.36021980629E+02  0.67384007579E+02  0.00000000000E+00 0. -1.
         21    1    1    2  503  501 -0.27215023177E+02  0.37507261666E+02  0.40185391648E+02  0.61337736069E+02  0.00000000000E+00 0. -1.
          2    1    1    2  501    0 -0.34668601466E+02  0.14252353797E+02  0.79227029895E+02  0.87646812734E+02  0.00000000000E+00 0. -1.
<scales pt_clust_5="13000.00000" pt_clust_6="13000.00000" pt_clust_7="13000.00000" pt_clust_8="13000.00000" pt_clust_9="33.99153" pt_clust_10="89.09023"></scales>
<clustering>
<clus scale="   33.992">  9 10 -1 -1</clus>
<clus scale="   89.090">  2  9  1 -1</clus>
<clus scale="   89.508">  5  6 -1 -1</clus>
<clus scale="   90.781">  7  8 -1 -1</clus>
<clus scale="  277.743">  1  5  2 -1</clus>
<clus scale="   89.090">  2  5  1 -1</clus>
</clustering>
</event>
<event>
10    2  0.1671105E-006  0.9258835E+02  0.7546771E-02  0.1306585E+00
         21   -1    0    0  501  502  0.00000000000E+00  0.00000000000E+00  0.78193161783E+03  0.78193161783E+03  0.00000000000E+00 0.  1.
          4   -1    0    0  503    0 -0.00000000000E+00 -0.00000000000E+00 -0.46194299554E+02  0.46194299554E+02  0.00000000000E+00 0. -1.
         23    2    1    2    0    0  0.13442101106E+02  0.13817770087E+00  0.20403527037E+02  0.94206395867E+02  0.90982591364E+02 0.  0.
         23    2    1    2    0    0 -0.38102636216E+02 -0.18067941631E+02  0.33942564353E+03  0.35021919350E+03  0.75269214232E+02 0.  0.
        -13    1    4    4    0    0 -0.15981610752E+02 -0.47093299570E+02  0.20173086916E+03  0.20777038845E+03  0.00000000000E+00 0.  1.
         13    1    4    4    0    0 -0.22121025464E+02  0.29025357938E+02  0.13769477437E+03  0.14244880505E+03  0.00000000000E+00 0. -1.
        -13    1    3    3    0    0  0.44992665504E+02  0.11700603243E+02  0.34372309744E+02  0.57816085500E+02  0.00000000000E+00 0.  1.
         13    1    3    3    0    0 -0.31550564398E+02 -0.11562425542E+02 -0.13968782707E+02  0.36390310367E+02  0.00000000000E+00 0. -1.
         21    1    1    2  503  502  0.48036066025E+02  0.11590557443E+01  0.22480277888E+03  0.22988061346E+03  0.00000000000E+00 0.  1.
          4    1    1    2  501    0 -0.23375530915E+02  0.16770708186E+02  0.15110536883E+03  0.15381971456E+03  0.00000000000E+00 0. -1.
<scales pt_clust_5="13000.00000" pt_clust_6="13000.00000" pt_clust_7="13000.00000" pt_clust_8="13000.00000" pt_clust_9="40.24586" pt_clust_10="28.76929"></scales>
<clustering>
<clus scale="   28.769">  1 10  2 -1</clus>
<clus scale="   40.246">  1  9  2 -1</clus>
<clus scale="   75.269">  5  6 -1 -1</clus>
<clus scale="   77.202">  1  5  2 -1</clus>
<clus scale="   90.983">  7  8 -1 -1</clus>
<clus scale="   28.769">  1  5  2 -1</clus>
</clustering>
</event>
<event>
10    2  0.1671105E-006  0.1025422E+03  0.7546771E-02  0.1275100E+00
         21   -1    0    0  503  502  0.00000000000E+00  0.00000000000E+00  0.16292800217E+03  0.16292800217E+03  0.00000000000E+00 0. -1.
         -2   -1    0    0    0  501 -0.00000000000E+00 -0.00000000000E+00 -0.23801233391E+03  0.23801233391E+03  0.00000000000E+00 0.  1.
         23    2    1    2    0    0 -0.39304895428E+02  0.10278705246E+02 -0.16457882068E+03  0.19301307318E+03  0.92289390586E+02 0.  0.
         23    2    1    2    0    0  0.58475396199E+02 -0.18886152622E+02  0.15182959989E+02  0.11202043128E+03  0.92422919385E+02 0.  0.
        -13    1    4    4    0    0  0.49408853710E+02  0.21038887966E+02 -0.20726056358E+02  0.57562479481E+02  0.00000000000E+00 0. -1.
         13    1    4    4    0    0  0.90665424887E+01 -0.39925040588E+02  0.35909016348E+02  0.54457951795E+02  0.00000000000E+00 0.  1.
        -13    1    3    3    0    0  0.20018096282E+02  0.26461831048E+02 -0.28709558676E+02  0.43877003550E+02  0.00000000000E+00 0. -1.
         13    1    3    3    0    0 -0.59322991710E+02 -0.16183125802E+02 -0.13586926201E+03  0.14913606963E+03  0.00000000000E+00 0.  1.
         21    1    1    2  503  501 -0.39215553290E+02  0.22148532232E+01  0.43644954875E+02  0.58716669530E+02  0.00000000000E+00 0. -1.
         -2    1    1    2    0  502  0.20045052519E+02  0.63925941531E+01  0.30666574077E+02  0.37190162088E+02  0.00000000000E+00 0.  1.
<scales pt_clust_5="13000.00000" pt_clust_6="13000.00000" pt_clust_7="13000.00000" pt_clust_8="13000.00000" pt_clust_9="31.62161" pt_clust_10="21.03971"></scales>
<clustering>
<clus scale="   21.040">  1 10  2 -1</clus>
<clus scale="   31.622">  1  9  2 -1</clus>
<clus scale="   92.289">  7  8 -1 -1</clus>
<clus scale="   92.423">  5  6 -1 -1</clus>
<clus scale="  102.422">  2  7  1 -1</clus>
<clus scale="   21.040">  1  5  2 -1</clus>
</clustering>
</event>
<event>
10    2  0.1671105E-006  0.2277009E+03  0.7546771E-02  0.1128553E+00
          1   -1    0    0  503    0 -0.00000000000E+00  0.00000000000E+00  0.65245040673E+03  0.65245040673E+03  0.00000000000E+00 0. -1.
         21   -1    0    0  501  502  0.00000000000E+00 -0.00000000000E+00 -0.41876625551E+03  0.41876625551E+03  0.00000000000E+00 0. -1.
         23    2    1    2    0    0 -0.62850228614E+02  0.25827682092E+03  0.36064608425E+03  0.45721726370E+03  0.91241222477E+02 0.  0.
         23    2    1    2    0    0  0.14760131856E+03 -0.10094121797E+03  0.15168204832E+03  0.25017028954E+03  0.87192036674E+02 0.  0.
        -11    1    4    4    0    0  0.41426475588E+02 -0.80708626951E+02  0.64608846620E+02  0.11137476557E+03  0.00000000000E+00 0. -1.
         11    1    4    4    0    0  0.10617484297E+03 -0.20232591016E+02  0.87073201704E+02  0.13879552397E+03  0.00000000000E+00 0.  1.
        -13    1    3    3    0    0 -0.31796366938E+02  0.13963059418E+03  0.26674380630E+03  0.30275397600E+03  0.00000000000E+00 0. -1.
         13    1    3    3    0    0 -0.31053861677E+02  0.11864622673E+03  0.93902277947E+02  0.15446328770E+03  0.00000000000E+00 0.  1.
         21    1    1    2  503  502 -0.50024564180E+02 -0.15789190356E+02 -0.36292794882E+01  0.52582575280E+02  0.00000000000E+00 0. -1.
          1    1    1    2  501    0 -0.34726525767E+02 -0.14154641259E+03 -0.27501470187E+03  0.31124653372E+03  0.00000000000E+00 0. -1.
<scales pt_clust_5="13000.00000" pt_clust_6="13000.00000" pt_clust_7="13000.00000" pt_clust_8="13000.00000" pt_clust_9="52.45718" pt_clust_10="169.56264"></scales>
<clustering>
<clus scale="   52.457">  2  9  1 -1</clus>
<clus scale="   87.192">  5  6 -1 -1</clus>
<clus scale="   91.241">  7  8 -1 -1</clus>
<clus scale="  169.563">  2 10  1 -1</clus>
<clus scale="  226.109">  2  5  1 -1</clus>
<clus scale="   52.457">  2  5  1 -1</clus>
</clustering>
</event>
<event>
10    2  0.1671105E-006  0.1373714E+03  0.7546771E-02  0.1216982E+00
         21   -1    0    0  503  502  0.00000000000E+00  0.00000000000E+00  0.79085166722E+02  0.79085166722E+02  0.00000000000E+00 0. -1.
          1   -1    0    0  502    0 -0.00000000000E+00 -0.00000000000E+00 -0.73385611133E+03  0.73385611133E+03  0.00000000000E+00 0. -1.
         23    2    1    2    0    0 -0.74512806387E+02 -0.92491239882E+02 -0.49631043727E+03  0.51841739340E+03  0.91245579958E+02 0.  0.
         23    2    1    2    0    0  0.46796975848E+01  0.83957192096E+02 -0.16341258576E+03  0.20504443771E+03  0.90933154437E+02 0.  0.
        -13    1    3    3    0    0 -0.77674264916E+01 -0.78791490699E+02 -0.21943661739E+03  0.23328279185E+03  0.00000000000E+00 0.  1.
         13    1    3    3    0    0 -0.66745379896E+02 -0.13699749183E+02 -0.27687381988E+03  0.28513460155E+03  0.00000000000E+00 0. -1.
        -13    1    4    4    0    0  0.46814570461E+02  0.43571615320E+02 -0.10142418972E+03  0.11990394459E+03  0.00000000000E+00 0.  1.
         13    1    4    4    0    0 -0.42134872876E+02  0.40385576775E+02 -0.61988396039E+02  0.85140493111E+02  0.00000000000E+00 0. -1.
         21    1    1    2  503  501  0.72365717801E+01 -0.19293706244E+02 -0.15723210408E+01  0.20666089742E+02  0.00000000000E+00 0. -1.
          1    1    1    2  501    0  0.62596537022E+02  0.27827754031E+02  0.65243994639E+01  0.68813357206E+02  0.00000000000E+00 0. -1.
<scales pt_clust_5="13000.00000" pt_clust_6="13000.00000" pt_clust_7="13000.00000" pt_clust_8="13000.00000" pt_clust_9="20.60619" pt_clust_10="68.74878"></scales>
<clustering>
<clus scale="   20.606">  1  9  2 -1</clus>
<clus scale="   68.749">  1 10  2 -1</clus>
<clus scale="   90.933">  7  8 -1 -1</clus>
<clus scale="   91.246">  5  6 -1 -1</clus>
<clus scale="  137.164">  1  7  2 -1</clus>
<clus scale="   20.606">  1  5  2 -1</clus>
</clustering>
</event>
<event>
10    2  0.1671105E-006  0.2204798E+03  0.7546771E-02  0.1155223E+00
         -2   -1    0    0    0  501 -0.00000000000E+00  0.00000000000E+00  0.23343719915E+03  0.23343719915E+03  0.00000000000E+00 0.  1.
         21   -1    0    0  503  502  0.00000000000E+00 -0.00000000000E+00 -0.48745468451E+03  0.48745468451E+03  0.00000000000E+00 0.  1.
         23    2    1    2    0    0  0.67824591042E+02 -0.72641370874E+02  0.62520533529E+02  0.14747537597E+03  0.89236906559E+02 0.  0.
         23    2    1    2    0    0  0.16091398403E+02  0.23278608654E+03 -0.23060424728E+03  0.33886115655E+03  0.84854400979E+02 0.  0.
        -11    1    3    3    0    0 -0.20878563998E+02 -0.13244587257E+02  0.22614084652E+02  0.33507168648E+02  0.00000000000E+00 0. -1.
         11    1    3    3    0    0  0.88703155039E+02 -0.59396783617E+02  0.39906448878E+02  0.11396820732E+03  0.00000000000E+00 0.  1.
        -11    1    4    4    0    0 -0.32621791833E+02  0.10453550665E+03 -0.12157527030E+03  0.16362273620E+03  0.00000000000E+00 0.  1.
         11    1    4    4    0    0  0.48713190237E+02  0.12825057989E+03 -0.10902897698E+03  0.17523842035E+03  0.00000000000E+00 0. -1.
         21    1    1    2  503  501 -0.41622303139E+02 -0.16924087228E+03 -0.76195124553E+02  0.19021195014E+03  0.00000000000E+00 0.  1.
         -2    1    1    2    0  502 -0.42293686306E+02  0.90961566169E+01 -0.97386470558E+01  0.44343401009E+02  0.00000000000E+00 0.  1.
<scales pt_clust_5="13000.00000" pt_clust_6="13000.00000" pt_clust_7="13000.00000" pt_clust_8="13000.00000" pt_clust_9="203.49709" pt_clust_10="43.26081"></scales>
<clustering>
<clus scale="   43.261">  2 10  1 -1</clus>
<clus scale="   84.854">  7  8 -1 -1</clus>
<clus scale="   89.237">  5  6 -1 -1</clus>
<clus scale="  131.167">  1  5  2 -1</clus>
<clus scale="  203.497">  1  9  2 -1</clus>
<clus scale="   43.261">  2  5  1 -1</clus>
</clustering>
</event>
<event>
10    2  0.1671105E-006  0.2380991E+03  0.7546771E-02  0.1121260E+00
          2   -1    0    0  503    0 -0.00000000000E+00  0.00000000000E+00  0.54829702084E+03  0.54829702084E+03  0.00000000000E+00 0. -1.
         21   -1    0    0  501  502  0.00000000000E+00 -0.00000000000E+00 -0.26460434812E+03  0.26460434812E+03  0.00000000000E+00 0. -1.
         23    2    1    2    0    0  0.51104912935E+02 -0.24599123364E+03  0.38753517143E+03  0.47128015769E+03  0.93798074492E+02 0.  0.
         23    2    1    2    0    0 -0.37759249311E+02  0.14926273769E+03  0.11125098697E+02  0.17910959513E+03  0.90836960950E+02 0.  0.
        -11    1    3    3    0    0 -0.23211210616E+02 -0.70027717221E+02  0.14374372335E+03  0.16157010702E+03  0.00000000000E+00 0.  1.
         11    1    3    3    0    0  0.74316123552E+02 -0.17596351642E+03  0.24379144808E+03  0.30971005067E+03  0.00000000000E+00 0. -1.
        -11    1    4    4    0    0 -0.62698798117E+02  0.64101032031E+02  0.11263145914E+02  0.90371123976E+02  0.00000000000E+00 0. -1.
         11    1    4    4    0    0  0.24939548805E+02  0.85161705662E+02 -0.13804721695E+00  0.88738471155E+02  0.00000000000E+00 0.  1.
         21    1    1    2  503  502  0.17842259325E+02  0.16922503891E+02 -0.88838754508E+01  0.26146521734E+02  0.00000000000E+00 0. -1.
          2    1    1    2  501    0 -0.31187922950E+02  0.79805992061E+02 -0.10608372196E+03  0.13636509440E+03  0.00000000000E+00 0. -1.
<scales pt_clust_5="13000.00000" pt_clust_6="13000.00000" pt_clust_7="13000.00000" pt_clust_8="13000.00000" pt_clust_9="24.59100" pt_clust_10="90.91963"></scales>
<clustering>
<clus scale="   24.591">  2  9  1 -1</clus>
<clus scale="   90.837">  7  8 -1 -1</clus>
<clus scale="   90.920">  2 10  1 -1</clus>
<clus scale="   93.798">  5  6 -1 -1</clus>
<clus scale="  236.948">  2  7  1 -1</clus>
<clus scale="   24.591">  2  5  1 -1</clus>
</clustering>
</event>
<event>
10    2  0.1671105E-006  0.9853423E+02  0.7546771E-02  0.1301739E+00
         -1   -1    0    0    0  501 -0.00000000000E+00  0.00000000000E+00  0.49049158597E+02  0.49049158597E+02  0.00000000000E+00 0.  1.
         21   -1    0    0  503  502  0.00000000000E+00 -0.00000000000E+00 -0.41190039870E+03  0.41190039870E+03  0.00000000000E+00 0.  1.
         23    2    1    2    0    0  0.94815988748E+01 -0.32959377122E+02 -0.29920916571E+02  0.74422210319E+02  0.58882789360E+02 0.  0.
         23    2    1    2    0    0  0.74446954993E+01  0.48813636739E+02 -0.10597686190E+03  0.14814084193E+03  0.90974827097E+02 0.  0.
        -11    1    3    3    0    0  0.30843306193E+02 -0.10650411627E+02 -0.18462619029E+01  0.32682556323E+02  0.00000000000E+00 0. -1.
         11    1    3    3    0    0 -0.21361707319E+02 -0.22308965494E+02 -0.28074654668E+02  0.41739653996E+02  0.00000000000E+00 0.  1.
        -11    1    4    4    0    0 -0.22056599785E+02  0.26782763231E+02 -0.10577560102E+03  0.11132065294E+03  0.00000000000E+00 0. -1.
         11    1    4    4    0    0  0.29501295284E+02  0.22030873508E+02 -0.20126088339E+00  0.36820188985E+02  0.00000000000E+00 0.  1.
         21    1    1    2  503  501 -0.10617690112E+02  0.25300629201E+02 -0.55001505789E+02  0.61465623078E+02  0.00000000000E+00 0. -1.
         -1    1    1    2    0  502 -0.63086042626E+01 -0.41154888818E+02 -0.17195195583E+03  0.17692088197E+03  0.00000000000E+00 0.  1.
<scales pt_clust_5="13000.00000" pt_clust_6="13000.00000" pt_clust_7="13000.00000" pt_clust_8="13000.00000" pt_clust_9="27.43824" pt_clust_10="30.91301"></scales>
<clustering>
<clus scale="   27.438">  2  9  1 -1</clus>
<clus scale="   30.913">  2 10  1 -1</clus>
<clus scale="   58.883">  5  6 -1 -1</clus>
<clus scale="   69.998">  1  5  2 -1</clus>
<clus scale="   90.975">  7  8 -1 -1</clus>
<clus scale="   27.438">  2  5  1 -1</clus>
</clustering>
</event>
<event>
10    2  0.1671105E-006  0.9591229E+02  0.7546771E-02  0.1289447E+00
         21   -1    0    0  501  502  0.00000000000E+00  0.00000000000E+00  0.61116150179E+03  0.61116150179E+03  0.00000000000E+00 0. -1.
         -1   -1    0    0    0  501 -0.00000000000E+00 -0.00000000000E+00 -0.45553162362E+02  0.45553162362E+02  0.00000000000E+00 0.  1.
         23    2    1    2    0    0  0.14149107701E+02 -0.16722903328E+02  0.38189909928E+02  0.10215098218E+03  0.92176467689E+02 0.  0.
         23    2    1    2    0    0  0.24519844948E+02  0.54216718006E+02  0.32396196400E+03  0.34219248940E+03  0.92755972192E+02 0.  0.
        -11    1    3    3    0    0  0.47871274976E+02  0.90736381541E+01  0.34154066567E+02  0.59502017951E+02  0.00000000000E+00 0. -1.
         11    1    3    3    0    0 -0.33722167275E+02 -0.25796541482E+02  0.40358433608E+01  0.42648964229E+02  0.00000000000E+00 0.  1.
        -13    1    4    4    0    0 -0.33442334732E+02  0.10598683590E+02  0.73601867556E+02  0.81535003243E+02  0.00000000000E+00 0.  1.
         13    1    4    4    0    0  0.57962179680E+02  0.43618034416E+02  0.25036009644E+03  0.26065748616E+03  0.00000000000E+00 0. -1.
         21    1    1    2  503  502 -0.70218367518E+01 -0.19368875318E+02  0.11258446923E+03  0.11445401799E+03  0.00000000000E+00 0. -1.
         -1    1    1    2    0  503 -0.31647115896E+02 -0.18124939360E+02  0.90871996273E+02  0.97917174581E+02  0.00000000000E+00 0.  1.
<scales pt_clust_5="13000.00000" pt_clust_6="13000.00000" pt_clust_7="13000.00000" pt_clust_8="13000.00000" pt_clust_9="20.60242" pt_clust_10="39.53238"></scales>
<clustering>
<clus scale="   20.602">  1  9  2 -1</clus>
<clus scale="   39.532">  1 10  2 -1</clus>
<clus scale="   92.176">  5  6 -1 -1</clus>
<clus scale="   92.756">  7  8 -1 -1</clus>
<clus scale="   95.352">  2  5  1 -1</clus>
<clus scale="   20.602">  1  5  2 -1</clus>
</clustering>
</event>
<event>
10    2  0.1671105E-006  0.1576006E+03  0.7546771E-02  0.1204349E+00
         21   -1    0    0  501  502  0.00000000000E+00  0.00000000000E+00  0.15633355651E+03  0.15633355651E+03  0.00000000000E+00 0. -1.
          1   -1    0    0  503    0 -0.00000000000E+00 -0.00000000000E+00 -0.14162053397E+04  0.14162053397E+04  0.00000000000E+00 0. -1.
         23    2    1    2    0    0  0.36621227142E+02  0.61141030441E+02 -0.58095905565E+02  0.13137418304E+03  0.93833372771E+02 0.  0.
         23    2    1    2    0    0  0.13084581054E+03 -0.20424870236E+03 -0.11089490983E+04  0.11388084780E+04  0.90986198514E+02 0.  0.
        -11    1    3    3    0    0 -0.25351495144E+02  0.48128017434E+02 -0.29673691426E+02  0.61963959936E+02  0.00000000000E+00 0.  1.
         11    1    3    3    0    0  0.61972722285E+02  0.13013013007E+02 -0.28422214139E+02  0.69410223106E+02  0.00000000000E+00 0. -1.
        -13    1    4    4    0    0  0.99082253869E+01 -0.90760728923E+02 -0.32981667318E+03  0.34222028103E+03  0.00000000000E+00 0.  1.
         13    1    4    4    0    0  0.12093758516E+03 -0.11348797344E+03 -0.77913242512E+03  0.79658819694E+03  0.00000000000E+00 0. -1.
         21    1    1    2  503  502 -0.70340498178E+02  0.64820739139E+02 -0.13951483786E+03  0.16915644797E+03  0.00000000000E+00 0. -1.
          1    1    1    2  501    0 -0.97126539508E+02  0.78286932779E+02  0.46688058500E+02  0.13319978726E+03  0.00000000000E+00 0. -1.
<scales pt_clust_5="13000.00000" pt_clust_6="13000.00000" pt_clust_7="13000.00000" pt_clust_8="13000.00000" pt_clust_9="95.65309" pt_clust_10="128.68357"></scales>
<clustering>
<clus scale="   90.986">  7  8 -1 -1</clus>
<clus scale="   93.833">  5  6 -1 -1</clus>
<clus scale="   95.653">  2  9  1 -1</clus>
<clus scale="  118.928">  2  5  1 -1</clus>
<clus scale="  128.684">  1 10  2 -1</clus>
<clus scale="  128.684">  1  5  2 -1</clus>
</clustering>
</event>
<event>
10    2  0.1671105E-006  0.1543100E+03  0.7546771E-02  0.1195559E+00
         21   -1    0    0  503  502  0.00000000000E+00  0.00000000000E+00  0.65472993535E+03  0.65472993535E+03  0.00000000000E+00 0.  1.
         -1   -1    0    0    0  501 -0.00000000000E+00 -0.00000000000E+00 -0.10101127282E+03  0.10101127282E+03  0.00000000000E+00 0.  1.
         23    2    1    2    0    0 -0.46528683000E+02 -0.12581356889E+03  0.14546565102E+02  0.16365731643E+03  0.92618260651E+02 0.  0.
         23    2    1    2    0    0  0.52153329595E+02  0.84998080865E+02  0.18733927271E+03  0.23091974940E+03  0.91012548733E+02 0.  0.
        -11    1    4    4    0    0  0.71549627568E+02  0.63015071423E+02  0.17463983567E+03  0.19897065270E+03  0.00000000000E+00 0.  1.
         11    1    4    4    0    0 -0.19396297973E+02  0.21983009442E+02  0.12699437036E+02  0.31949096704E+02  0.00000000000E+00 0. -1.
        -13    1    3    3    0    0 -0.42424321966E+02 -0.89353694524E+02 -0.32390264305E+02  0.10408186701E+03  0.00000000000E+00 0.  1.
         13    1    3    3    0    0 -0.41043610336E+01 -0.36459874365E+02  0.46936829406E+02  0.59575449414E+02  0.00000000000E+00 0. -1.
         21    1    1    2  503  501  0.23937555556E+02 -0.56966643556E+01  0.76155620383E+02  0.80032100227E+02  0.00000000000E+00 0.  1.
         -1    1    1    2    0  502 -0.29562202151E+02  0.46512152379E+02  0.27567720433E+03  0.28113204211E+03  0.00000000000E+00 0.  1.
<scales pt_clust_5="13000.00000" pt_clust_6="13000.00000" pt_clust_7="13000.00000" pt_clust_8="13000.00000" pt_clust_9="24.60607" pt_clust_10="47.32092"></scales>
<clustering>
<clus scale="   24.606">  1  9  2 -1</clus>
<clus scale="   47.321">  1 10  2 -1</clus>
<clus scale="   91.013">  5  6 -1 -1</clus>
<clus scale="   92.618">  7  8 -1 -1</clus>
<clus scale="  153.352">  1  5  2 -1</clus>
<clus scale="   24.606">  1  5  2 -1</clus>
</clustering>
</event>
